G5POcore-PETIM in water
118063
    1aaa     O1    1   6.472   7.707   8.778 -0.5526 -0.5193 -0.0673
    1aaa     C1    2   6.401   7.813   8.861  0.4162 -0.4762  0.1405
    1aaa     H1    3   6.315   7.766   8.911  0.7377 -1.1131  0.1134
    1aaa     H2    4   6.356   7.889   8.797  0.5741  0.1229  0.7359
    1aaa     C2    5   6.417   7.693   8.641 -0.0009 -0.5090 -0.0741
    1aaa     H3    6   6.462   7.755   8.563 -2.4544  0.7315 -0.6258
    1aaa     H4    7   6.308   7.707   8.638  0.0714  0.3893  0.8051
    1aaa     C3    8   6.501   7.871   8.969  0.8922 -0.3461  0.9034
    1aaa     H5    9   6.606   7.873   8.939  0.5118  0.7481 -0.4131
    1aaa     H6   10   6.512   7.808   9.058 -0.9811  1.1334  2.2795
    1aaa     C4   11   6.444   7.546   8.602 -0.7360 -0.1298 -0.2500
    1aaa     H7   12   6.393   7.544   8.505  1.8491 -0.3874 -1.6856
    1aaa     H8   13   6.398   7.476   8.672 -0.8661 -0.9153 -1.1027
    1aaa     C5   14   6.449   8.005   9.030 -0.5783 -0.1639  0.4090
    1aaa     H9   15   6.425   8.065   8.942 -0.7644 -0.9282 -0.0695
    1aaa    H10   16   6.352   7.986   9.077 -0.6066  0.5287  0.6370
    1aaa     C6   17   6.594   7.514   8.572 -0.1490 -0.0910 -0.3069
    1aaa    H11   18   6.646   7.551   8.660 -2.0774 -0.2994  0.9890
    1aaa    H12   19   6.629   7.571   8.485 -1.5755  1.1587 -0.1033
    1aaa     N1   20   6.537   8.070   9.126  0.0752  0.1423  0.0500
    1aaa     N2   21   6.610   7.361   8.553 -0.2781 -0.5506 -0.4865
    1aaa     C7   22   6.554   7.296   8.434  0.2040 -0.4129 -0.5283
    1aaa    H13   23   6.589   7.192   8.423  4.1670  0.7108 -0.0775
    1aaa    H14   24   6.445   7.299   8.446  0.4157 -0.5567  1.9694
    1aaa     C8   25   6.591   7.281   8.673  0.3964 -0.8616 -0.0238
    1aaa    H15   26   6.487   7.298   8.702  0.6331 -0.5193  0.6247
    1aaa    H16   27   6.597   7.172   8.657 -1.0743 -0.7142 -1.9993
    1aaa     C9   28   6.606   7.978   9.225  0.1207 -0.1380 -0.5827
    1aaa    H17   29   6.661   7.896   9.178 -0.1771 -0.3412 -0.5816
    1aaa    H18   30   6.684   8.028   9.284  0.7575 -2.3564  0.5696
    1aaa    C10   31   6.470   8.191   9.193  0.5211  0.6670  0.7371
    1aaa    H19   32   6.380   8.153   9.244  1.4617 -2.1304  0.4722
    1aaa    H20   33   6.536   8.235   9.269  2.2669  1.9794 -1.4453
    1aaa    C11   34   6.591   7.369   8.311 -0.4311  0.6910  0.3302
    1aaa    H21   35   6.550   7.470   8.301  0.8984  1.5036  2.4597
    1aaa    H22   36   6.700   7.368   8.298 -0.5275 -0.2219 -0.5610
    1aaa    C12   37   6.690   7.307   8.790 -0.4495 -0.0112  0.4003
    1aaa    H23   38   6.791   7.313   8.748 -0.5113 -0.1199  0.2348
    1aaa    H24   39   6.677   7.409   8.830 -1.0922  0.9664 -2.0849
    1aaa    C13   40   6.512   7.928   9.331 -0.1199  0.2267  0.2609
    1aaa    H25   41   6.504   8.007   9.407  0.2590  1.0473 -0.5299
    1aaa    H26   42   6.412   7.920   9.288 -0.1095 -1.6617  0.5071
    1aaa    C14   43   6.438   8.313   9.101  0.2721 -0.3779  0.6578
    1aaa    H27   44   6.526   8.342   9.043  0.5164  0.2044  1.3036
    1aaa    H28   45   6.365   8.279   9.026 -0.2447  0.7350  0.6409
    1aaa    C15   46   6.374   8.434   9.175 -0.2418  0.1800  0.4166
    1aaa    H29   47   6.320   8.497   9.102  0.9394  1.6429  0.7490
    1aaa    H30   48   6.299   8.398   9.246 -1.4358 -1.2935 -1.4666
    1aaa    C16   49   6.547   7.792   9.397  0.3166  0.6313  0.1470
    1aaa    H31   50   6.653   7.792   9.426  0.4928  1.2601 -0.4562
    1aaa    H32   51   6.495   7.769   9.491 -0.0958 -0.6132 -0.3630
    1aaa    C17   52   6.676   7.204   8.906  0.6826 -0.0710 -0.1351
    1aaa    H33   53   6.774   7.201   8.955  1.3111 -1.4642 -1.3807
    1aaa    H34   54   6.595   7.231   8.974  1.1548  3.3613 -0.7884
    1aaa    C18   55   6.535   7.298   8.182 -0.5521  0.5563  0.0248
    1aaa    H35   56   6.426   7.293   8.176 -0.6046  1.5912 -0.0802
    1aaa    H36   57   6.577   7.359   8.101  1.3437 -0.1868  0.4071
    2bbb     N1   58   6.576   8.912   9.515  0.0707  0.1761 -0.0142
    2bbb     C1   59   6.647   8.846   9.630  0.0754  0.1302 -0.3482
    2bbb     H1   60   6.736   8.900   9.662 -0.3367  0.0346  0.9947
    2bbb     H2   61   6.692   8.751   9.598 -1.4289 -0.7372 -0.0116
    2bbb     C2   62   6.660   8.992   9.424  0.0238 -0.4858 -0.4618
    2bbb     H3   63   6.600   9.024   9.338 -0.5392 -2.4312 -0.8465
    2bbb     H4   64   6.742   8.936   9.377 -1.0526 -2.4484 -0.1064
    2bbb     C3   65   6.476   8.835   9.446  0.2910  0.0029 -0.0330
    2bbb     H5   66   6.424   8.892   9.368 -0.4170  2.8340  2.3534
    2bbb     H6   67   6.394   8.812   9.515  1.7640  1.5513  2.4031
    2bbb     C4   68   6.531   8.702   9.384  0.2016  0.4608  0.2125
    2bbb     H7   69   6.576   8.629   9.453 -0.5758 -1.7243 -1.4875
    2bbb     H8   70   6.612   8.721   9.313 -0.5857  1.3568 -0.4670
    2bbb     C5   71   6.547   8.808   9.747  0.0221 -0.2788 -0.4988
    2bbb     H9   72   6.602   8.772   9.836 -2.8795 -0.1418  1.4933
    2bbb    H10   73   6.484   8.722   9.722  0.8231 -0.8232 -0.6809
    2bbb     C6   74   6.704   9.117   9.489  0.5669 -0.8457 -0.3956
    2bbb    H11   75   6.790   9.154   9.431  0.6536 -1.2823 -0.5558
    2bbb    H12   76   6.735   9.104   9.593 -1.8007  0.7691  0.5839
    2bbb     C7   77   6.420   8.633   9.294 -0.6344  0.4620 -0.3641
    2bbb    H13   78   6.386   8.699   9.213  1.5611 -1.1333 -2.7382
    2bbb    H14   79   6.342   8.595   9.362  0.5357  0.1677  0.8641
    2bbb     C8   80   6.600   9.231   9.496 -0.2387 -0.0702  0.4532
    2bbb    H15   81   6.525   9.198   9.570  0.7040 -1.8359  0.6745
    2bbb    H16   82   6.533   9.235   9.409 -0.3890 -0.5324  0.5452
    2bbb     C9   83   6.444   8.919   9.790 -0.5114  0.6824  0.2257
    2bbb    H17   84   6.404   8.961   9.697  1.3625 -2.0906 -2.0213
    2bbb    H18   85   6.494   8.995   9.851 -0.2955 -0.6241  1.7177
    2bbb     O1   86   6.483   8.515   9.234  0.1035  0.6980 -0.8138
    3bbb     N1   87   6.905   7.553   9.161 -0.5781 -0.5546  0.9644
    3bbb     C1   88   6.933   7.424   9.083  0.2304 -0.1595  0.7870
    3bbb     H1   89   6.880   7.429   8.987  1.2711  2.6998  0.2660
    3bbb     H2   90   6.889   7.333   9.126 -0.3387 -0.2043  0.1283
    3bbb     C2   91   6.940   7.541   9.301  0.7201 -0.0487  0.8343
    3bbb     H3   92   7.026   7.473   9.301  0.8646  0.0216 -1.8045
    3bbb     H4   93   6.854   7.501   9.356  0.0487  2.0377  1.3853
    3bbb     C3   94   6.766   7.603   9.150 -0.0767  0.4681 -0.0388
    3bbb     H5   95   6.740   7.641   9.050 -1.1294  1.1607  0.4814
    3bbb     H6   96   6.754   7.697   9.205 -0.0887  0.0388  0.7086
    3bbb     C4   97   6.648   7.505   9.187  0.2618  0.2349  0.1314
    3bbb     H7   98   6.670   7.398   9.191 -1.7473 -0.1687  2.3980
    3bbb     H8   99   6.568   7.526   9.115 -0.7692 -3.1214  0.1461
    3bbb     C5  100   7.078   7.383   9.059 -0.1237 -0.6266 -0.2105
    3bbb     H9  101   7.120   7.337   9.149  1.3460  0.8090 -0.1023
    3bbb    H10  102   7.136   7.476   9.049  1.5260 -1.7320 -1.5393
    3bbb     C6  103   6.975   7.676   9.363 -0.4557  0.0175 -0.1797
    3bbb    H11  104   6.896   7.750   9.379 -2.5199 -1.6607 -1.9754
    3bbb    H12  105   7.051   7.712   9.292 -0.4656 -0.6153 -0.5232
    3bbb     C7  106   6.583   7.551   9.325  0.0776 -0.4891 -0.4558
    3bbb    H13  107   6.663   7.553   9.400  1.4601 -0.7919 -1.8743
    3bbb    H14  108   6.510   7.474   9.355 -0.2281 -0.3655 -0.8691
    3bbb     C8  109   7.050   7.656   9.496 -0.4283 -0.3604  0.0869
    3bbb    H15  110   7.118   7.742   9.503 -2.1981  1.2702 -1.5491
    3bbb    H16  111   7.115   7.568   9.481  0.0078  0.1690 -1.3848
    3bbb     C9  112   7.096   7.287   8.937  0.1922  0.2891  0.1534
    3bbb    H17  113   7.200   7.289   8.902 -0.3745 -0.2323 -1.6527
    3bbb    H18  114   7.034   7.322   8.853 -1.1911 -1.1273  0.5363
    3bbb     O1  115   6.520   7.684   9.304  0.2492 -0.8791 -0.0357
    4bbb     N1  116   6.515   6.679   8.723 -0.6097 -0.2189 -1.0041
    4bbb     C1  117   6.455   6.681   8.589 -0.4097 -0.6346  0.5305
    4bbb     H1  118   6.507   6.602   8.533 -0.7689 -0.2488 -0.3592
    4bbb     H2  119   6.483   6.777   8.544 -1.0527 -0.1176  1.2088
    4bbb     C2  120   6.505   6.548   8.802  0.2015  0.0734 -0.6279
    4bbb     H3  121   6.401   6.518   8.820  0.9914 -2.6080  0.0739
    4bbb     H4  122   6.547   6.553   8.903 -0.0443 -0.3262 -0.5033
    4bbb     C3  123   6.488   6.799   8.802 -0.2271  0.0573  0.6671
    4bbb     H5  124   6.414   6.753   8.869 -1.8487  0.6553 -0.6264
    4bbb     H6  125   6.442   6.878   8.740  0.5272 -0.5525 -0.7287
    4bbb     C4  126   6.612   6.841   8.867  0.2135  0.1655 -0.0295
    4bbb     H7  127   6.697   6.833   8.798 -0.4664 -2.0670 -0.7003
    4bbb     H8  128   6.631   6.761   8.940 -1.9283 -1.6287 -1.3158
    4bbb     C5  129   6.303   6.669   8.584 -0.0723 -0.3430  0.2685
    4bbb     H9  130   6.263   6.767   8.615  1.1502  0.6837 -1.2395
    4bbb    H10  131   6.267   6.598   8.659  1.7108 -2.7150 -1.0108
    4bbb     C6  132   6.562   6.426   8.722 -0.4755  0.5690  0.2012
    4bbb    H11  133   6.516   6.415   8.623 -0.5387  2.5314 -0.0273
    4bbb    H12  134   6.544   6.333   8.777  2.6970 -0.5335 -0.3946
    4bbb     C7  135   6.615   6.977   8.953 -0.1262  0.2087 -0.4048
    4bbb    H13  136   6.697   6.965   9.025  1.5215  1.4627 -1.9726
    4bbb    H14  137   6.519   7.005   8.997 -1.1641 -0.2192 -2.2701
    4bbb     C8  138   6.722   6.446   8.715  0.2630 -0.8921 -0.1623
    4bbb    H15  139   6.758   6.448   8.818 -0.2859  1.4352  0.0497
    4bbb    H16  140   6.744   6.545   8.672 -0.9761  0.1947  1.5902
    4bbb     C9  141   6.239   6.648   8.442 -0.8216  0.3769 -0.4843
    4bbb    H17  142   6.133   6.631   8.463 -0.0512 -2.3456  1.8315
    4bbb    H18  143   6.282   6.558   8.394  1.7605  0.8505  0.7837
    4bbb     O1  144   6.655   7.074   8.857  0.6664 -0.0647  0.0898
    5bbb     N1  145   6.632   6.811   7.887 -0.1278 -0.3674  0.8322
    5bbb     C1  146   6.587   6.691   7.802  0.7100  0.2186  0.5972
    5bbb     H1  147   6.635   6.693   7.704 -0.3146 -3.0050 -0.1228
    5bbb     H2  148   6.479   6.698   7.784  0.6762 -0.7478  0.3292
    5bbb     C2  149   6.773   6.826   7.916  0.1902  0.0073 -0.1814
    5bbb     H3  150   6.798   6.746   7.987 -0.3596  1.3931  1.6570
    5bbb     H4  151   6.798   6.921   7.965  0.8559 -0.5553  0.6033
    5bbb     C3  152   6.535   6.831   7.995 -0.5842  0.0491 -0.1454
    5bbb     H5  153   6.539   6.730   8.036  2.0892 -0.0001 -0.3229
    5bbb     H6  154   6.434   6.844   7.956 -0.5246 -0.0779 -0.3473
    5bbb     C4  155   6.578   6.927   8.110 -0.1488 -0.1529  0.7444
    5bbb     H7  156   6.684   6.923   8.140  0.4592  1.3310 -1.0084
    5bbb     H8  157   6.527   6.897   8.202  0.0010 -0.7236  0.6454
    5bbb     C5  158   6.615   6.548   7.858 -0.1743  0.0642  0.0858
    5bbb     H9  159   6.550   6.529   7.943  1.6146  0.7802  1.6939
    5bbb    H10  160   6.719   6.545   7.893  0.1154 -1.2329 -0.8186
    5bbb     C6  161   6.878   6.798   7.805 -0.5919 -0.0663 -0.1830
    5bbb    H11  162   6.862   6.696   7.770  2.1809 -0.3822 -0.7697
    5bbb    H12  163   6.980   6.801   7.845  0.5833 -2.6664 -2.6321
    5bbb     C7  164   6.535   7.075   8.081  0.7395  0.1361 -0.3605
    5bbb    H13  165   6.426   7.076   8.070  0.3508 -0.7340  2.5447
    5bbb    H14  166   6.573   7.104   7.982  2.4975 -2.1909 -0.4538
    5bbb     C8  167   6.877   6.899   7.687 -0.5828  0.1960  0.6574
    5bbb    H15  168   6.875   7.004   7.719 -0.0538  0.2708  0.4493
    5bbb    H16  169   6.794   6.876   7.619  1.6134 -5.5055 -0.6552
    5bbb     C9  170   6.611   6.433   7.752 -0.2287  0.0650 -0.2475
    5bbb    H17  171   6.510   6.429   7.709  0.3245  0.3244 -1.6164
    5bbb    H18  172   6.617   6.328   7.784 -0.4238 -0.5882 -2.2029
    5bbb     O1  173   6.579   7.158   8.183 -0.3510 -0.4692 -0.0321
    6bbb     N1  174   6.708   9.834   9.599 -0.7475  0.5534  0.3863
    6bbb     C1  175   6.651   9.959   9.551 -0.4503  0.2320 -0.3388
    6bbb     H1  176   6.728  10.035   9.573  1.2518 -2.1132  2.6519
    6bbb     H2  177   6.566   9.995   9.610 -0.6721 -0.5632 -0.1632
    6bbb     C2  178   6.809   9.832   9.702 -0.5281  0.0383  0.5037
    6bbb     H3  179   6.886   9.903   9.671  1.5842 -1.7011  1.5550
    6bbb     H4  180   6.868   9.739   9.701  0.2130  0.4333  2.9251
    6bbb     C3  181   6.618   9.724   9.607  0.5017 -0.2455 -0.3695
    6bbb     H5  182   6.521   9.742   9.559 -0.7141  0.4936  2.2005
    6bbb     H6  183   6.589   9.713   9.712  2.1039  1.8047  0.3496
    6bbb     C4  184   6.682   9.601   9.552 -0.0176 -0.3541 -0.5384
    6bbb     H7  185   6.781   9.586   9.594  0.8284  1.5329 -1.6959
    6bbb     H8  186   6.691   9.624   9.445 -1.9240  2.1354 -0.2615
    6bbb     C5  187   6.621   9.965   9.407 -0.0748  0.0355  0.0904
    6bbb     H9  188   6.582  10.065   9.384  1.7359  0.4854 -1.2647
    6bbb    H10  189   6.544   9.889   9.386  1.5569 -0.6435 -4.7779
    6bbb     C6  190   6.757   9.864   9.848 -0.6105 -0.2592 -0.2497
    6bbb    H11  191   6.678   9.796   9.883 -0.5209 -0.5746 -0.6472
    6bbb    H12  192   6.727   9.969   9.858 -0.1221  0.0798 -1.9530
    6bbb     C7  193   6.593   9.475   9.556 -0.1480  0.5223  0.0845
    6bbb    H13  194   6.505   9.473   9.489 -1.1604  1.7022  1.3181
    6bbb    H14  195   6.552   9.456   9.656 -1.0994 -0.2802 -0.4430
    6bbb     C8  196   6.884   9.852   9.939 -0.5991 -0.1174  0.6261
    6bbb    H15  197   6.867   9.882  10.043  2.0576 -2.7859  1.9706
    6bbb    H16  198   6.957   9.923   9.900 -0.1230  0.3738  2.3474
    6bbb     C9  199   6.743   9.932   9.316 -0.8605  0.4841 -0.3490
    6bbb    H17  200   6.705   9.917   9.214 -1.9601  0.1234  0.0987
    6bbb    H18  201   6.779   9.831   9.334  3.1640  1.7527 -0.3119
    6bbb     O1  202   6.673   9.359   9.512 -0.1837 -0.2168 -0.5345
    7bbb     N1  203   6.060   8.726  10.155  0.7244 -0.6815 -0.6005
    7bbb     C1  204   6.114   8.642  10.264  0.6453  0.1893 -0.3458
    7bbb     H1  205   6.209   8.677  10.307 -0.2496 -0.5063  2.4395
    7bbb     H2  206   6.132   8.538  10.233  0.6876  0.4894 -1.3640
    7bbb     C2  207   5.932   8.688  10.087 -0.4425  0.1592  0.3697
    7bbb     H3  208   5.905   8.774  10.024  3.2869 -0.5021 -2.5229
    7bbb     H4  209   5.850   8.672  10.158  0.4393 -3.6214  0.7931
    7bbb     C3  210   6.169   8.768  10.070  0.5232  0.3006  0.6093
    7bbb     H5  211   6.215   8.692  10.006 -0.3956  0.3662 -0.1462
    7bbb     H6  212   6.244   8.819  10.132 -0.5204  4.0273 -0.9086
    7bbb     C4  213   6.132   8.882   9.970 -0.1214 -0.6305  0.3168
    7bbb     H7  214   6.074   8.949  10.034 -0.0104 -1.1898  1.0144
    7bbb     H8  215   6.079   8.845   9.881  1.0828  0.5967 -0.9478
    7bbb     C5  216   6.017   8.637  10.387 -0.2089 -0.0878 -0.2988
    7bbb     H9  217   5.925   8.587  10.353 -0.2376  0.1756 -0.6230
    7bbb    H10  218   5.992   8.740  10.415 -0.2692  0.1595 -1.2323
    7bbb     C6  219   5.948   8.555   9.997 -0.0382  0.2296 -0.9705
    7bbb    H11  220   6.051   8.542   9.960 -0.3959 -1.0999 -1.5383
    7bbb    H12  221   5.888   8.568   9.906  0.3970  1.8573 -1.0599
    7bbb     C7  222   6.252   8.961   9.915 -0.2430  0.3519  0.4394
    7bbb    H13  223   6.292   9.018   9.999 -1.4107 -0.8190  1.8414
    7bbb    H14  224   6.218   9.027   9.834 -0.8254 -0.8689 -0.3495
    7bbb     C8  225   5.904   8.434  10.070  0.1753 -0.1213 -0.2453
    7bbb    H15  226   5.796   8.436  10.086 -0.4230 -3.6956 -2.6686
    7bbb    H16  227   5.952   8.428  10.169 -0.7482  0.2926  0.2440
    7bbb     C9  228   6.062   8.556  10.513 -0.1933 -0.2731 -0.2270
    7bbb    H17  229   6.031   8.599  10.609  1.4112 -2.6024  1.4566
    7bbb    H18  230   6.171   8.570  10.522 -0.1491 -1.3708  1.4706
    7bbb     O1  231   6.336   8.859   9.862  0.0115 -0.0864  0.4646
    8bbb     N1  232   6.660   7.472   9.880 -0.0566 -0.2854  0.0855
    8bbb     C1  233   6.702   7.422  10.013 -0.3419 -0.3810 -0.1362
    8bbb     H1  234   6.805   7.456  10.030 -0.9270  1.3955  0.1365
    8bbb     H2  235   6.709   7.313  10.012 -1.1099 -0.4472  0.7563
    8bbb     C2  236   6.558   7.385   9.823  0.2410 -0.0629  0.5212
    8bbb     H3  237   6.469   7.394   9.887 -0.3509 -1.4685 -0.0375
    8bbb     H4  238   6.592   7.281   9.829  2.1344  0.6255  4.0090
    8bbb     C3  239   6.777   7.489   9.786  0.3630  0.2142  0.2381
    8bbb     H5  240   6.743   7.530   9.690 -0.6861 -1.8101 -0.3169
    8bbb     H6  241   6.808   7.389   9.753  1.3971  1.0982 -1.6473
    8bbb     C4  242   6.889   7.593   9.830 -0.1819  0.2656  0.6295
    8bbb     H7  243   6.937   7.562   9.924  0.7150  1.7827  0.7162
    8bbb     H8  244   6.836   7.688   9.847 -0.1141  0.3569  0.3338
    8bbb     C5  245   6.600   7.465  10.124  0.2660 -0.1823 -0.1623
    8bbb     H9  246   6.622   7.411  10.216  2.2283  1.7623  0.5880
    8bbb    H10  247   6.499   7.426  10.101 -0.3662  1.5746 -0.4944
    8bbb     C6  248   6.503   7.416   9.683  0.3466  0.1836  0.4513
    8bbb    H11  249   6.578   7.384   9.610  0.0073  0.0764  0.1465
    8bbb    H12  250   6.495   7.525   9.673 -0.6183  0.5297  3.8721
    8bbb     C7  251   7.004   7.624   9.731 -0.6819  0.1716  0.0900
    8bbb    H13  252   7.066   7.535   9.741 -0.3671  0.3907  0.1095
    8bbb    H14  253   7.052   7.717   9.764  0.1824 -0.0706 -0.4479
    8bbb     C8  254   6.355   7.361   9.657  0.0284  0.4185 -0.2436
    8bbb    H15  255   6.287   7.403   9.731  1.2870  0.8503  0.7011
    8bbb    H16  256   6.363   7.253   9.676 -1.0509  0.5049  0.8061
    8bbb     C9  257   6.607   7.621  10.128 -0.0124  0.4186 -0.0647
    8bbb    H17  258   6.609   7.660  10.026 -0.8191  0.6574  0.0050
    8bbb    H18  259   6.702   7.649  10.177 -0.1119  0.3923  0.1435
    8bbb     O1  260   6.953   7.641   9.599 -1.0771 -0.0685  0.6496
    9bbb     N1  261   7.140   6.715   8.950  0.6472  0.6324 -0.5392
    9bbb     C1  262   7.008   6.662   8.988  0.4578  0.4711  0.6601
    9bbb     H1  263   6.942   6.670   8.901 -0.1222 -1.0385  0.9367
    9bbb     H2  264   6.961   6.727   9.064 -0.0941 -0.7518  1.4028
    9bbb     C2  265   7.210   6.641   8.842  0.3771 -0.2924 -0.5628
    9bbb     H3  266   7.214   6.535   8.866  0.1740 -0.1666  0.0246
    9bbb     H4  267   7.314   6.675   8.829  0.3409 -0.1094 -0.3835
    9bbb     C3  268   7.143   6.861   8.947  0.3134 -0.4724  0.2602
    9bbb     H5  269   7.073   6.899   8.871  0.4274  0.5054  0.6415
    9bbb     H6  270   7.239   6.891   8.903 -1.1822  0.3997 -2.6697
    9bbb     C4  271   7.117   6.937   9.080  0.4382 -0.2697  0.6183
    9bbb     H7  272   7.195   6.899   9.148  1.7634 -0.4867 -0.9742
    9bbb     H8  273   7.018   6.925   9.125  0.3208  1.9024  1.0377
    9bbb     C5  274   7.011   6.520   9.053 -0.0499  0.4447 -0.0760
    9bbb     H9  275   7.093   6.516   9.125 -0.0458 -1.2610 -0.1427
    9bbb    H10  276   7.044   6.443   8.982 -2.7650 -1.3592  0.4269
    9bbb     C6  277   7.123   6.649   8.717 -0.0615 -0.4149  0.6028
    9bbb    H11  278   7.083   6.749   8.700  1.1974 -0.1758 -1.2471
    9bbb    H12  279   7.039   6.578   8.723 -1.5944  1.3012  0.2671
    9bbb     C7  280   7.158   7.083   9.072 -0.6048 -0.2888 -0.0543
    9bbb    H13  281   7.263   7.072   9.041 -0.7650 -3.3791  0.1586
    9bbb    H14  282   7.155   7.131   9.171 -2.1458 -0.3725 -0.0430
    9bbb     C8  283   7.215   6.609   8.598 -0.1104 -0.2588 -0.2686
    9bbb    H15  284   7.261   6.509   8.594  2.6658  0.9477 -0.6635
    9bbb    H16  285   7.298   6.680   8.604 -0.4436  0.1298 -0.2776
    9bbb     C9  286   6.869   6.466   9.102 -0.4449  0.0903  0.0231
    9bbb    H17  287   6.879   6.361   9.131 -2.9514 -0.9149 -2.3488
    9bbb    H18  288   6.794   6.469   9.022 -1.7263  1.6962  1.2040
    9bbb     O1  289   7.066   7.155   8.982 -0.1976 -0.3064  0.7758
   10bbb     N1  290   7.142   6.114   8.405  0.3036 -0.0352 -0.2224
   10bbb     C1  291   7.167   5.996   8.495 -0.3533 -0.0562  0.0569
   10bbb     H1  292   7.243   5.933   8.448 -0.9921 -0.8123  0.0283
   10bbb     H2  293   7.074   5.939   8.505 -0.1718 -0.3417  0.1002
   10bbb     C2  294   7.095   6.081   8.267  0.3135 -0.6696  0.5221
   10bbb     H3  295   7.109   6.167   8.200  0.2052 -0.2765  1.0034
   10bbb     H4  296   6.995   6.036   8.276  0.3995 -1.3183 -1.2549
   10bbb     C3  297   7.077   6.236   8.468 -0.1410 -0.3027 -0.4853
   10bbb     H5  298   7.060   6.315   8.394 -4.3923  0.0305  0.5523
   10bbb     H6  299   7.144   6.282   8.542  0.2752 -0.1797 -0.9314
   10bbb     C4  300   6.938   6.208   8.528 -0.1965 -0.3962  0.5189
   10bbb     H7  301   6.935   6.124   8.599 -2.2418  0.4980  1.5869
   10bbb     H8  302   6.864   6.197   8.448  1.7755 -1.3651 -1.2806
   10bbb     C5  303   7.220   6.017   8.641 -0.2400 -0.3082  0.4486
   10bbb     H9  304   7.146   6.075   8.698 -0.6524 -1.3730  1.0299
   10bbb    H10  305   7.317   6.067   8.633 -0.0199 -0.4168  2.1720
   10bbb     C6  306   7.181   5.968   8.189 -0.3968  0.4896 -0.6463
   10bbb    H11  307   7.186   5.878   8.251 -0.3860  0.9987  0.1049
   10bbb    H12  308   7.283   5.999   8.165  0.0797  0.9735  1.7656
   10bbb     C7  309   6.902   6.336   8.605 -0.3143  0.0778 -0.2241
   10bbb    H13  310   6.928   6.422   8.542 -1.6933  0.3383 -0.4647
   10bbb    H14  311   6.966   6.334   8.695  2.9524 -0.8303 -2.3789
   10bbb     C8  312   7.106   5.908   8.064 -0.0490 -0.0331  0.6246
   10bbb    H15  313   7.067   5.990   8.003  0.6892 -0.0865  0.0612
   10bbb    H16  314   7.024   5.844   8.098  0.0755 -1.2225 -1.1734
   10bbb     C9  315   7.243   5.883   8.727  0.0351  0.1993  0.5907
   10bbb    H17  316   7.149   5.828   8.718 -0.1493  0.8124 -2.0271
   10bbb    H18  317   7.252   5.915   8.832  0.2216 -1.0513  0.9707
   10bbb     O1  318   6.762   6.331   8.639  0.0187 -0.0766 -0.0003
   11bbb     N1  319   6.188   7.084   8.487  0.4010 -0.0729 -0.4287
   11bbb     C1  320   6.082   7.180   8.452  0.5411  0.1315  0.8639
   11bbb     H1  321   6.017   7.194   8.539 -0.8054  1.7731 -0.3550
   11bbb     H2  322   6.021   7.124   8.380  0.6206 -1.5927  2.0858
   11bbb     C2  323   6.252   7.124   8.611  0.6927  0.3750 -0.5283
   11bbb     H3  324   6.258   7.231   8.633  2.8851  1.0489 -3.7934
   11bbb     H4  325   6.354   7.087   8.604  0.9827  0.4057  2.2227
   11bbb     C3  326   6.281   7.050   8.374 -0.0614 -0.2983 -0.4585
   11bbb     H5  327   6.367   6.992   8.409  0.3926  0.5006 -0.2410
   11bbb     H6  328   6.322   7.142   8.331 -0.1652  0.7384  1.5105
   11bbb     C4  329   6.217   6.970   8.259  0.4794 -0.5068  0.0920
   11bbb     H7  330   6.299   6.952   8.189  1.2261  0.3788  0.7271
   11bbb     H8  331   6.130   7.020   8.214 -0.0422  0.8715  2.4370
   11bbb     C5  332   6.112   7.321   8.398  0.2860  0.0332  0.5600
   11bbb     H9  333   6.039   7.342   8.319 -0.4819  1.9295  1.7158
   11bbb    H10  334   6.210   7.317   8.348  0.1470 -0.0451  0.2894
   11bbb     C6  335   6.195   7.046   8.734 -0.1979 -0.0566 -0.8277
   11bbb    H11  336   6.203   6.938   8.721  1.8894  0.1465 -1.6503
   11bbb    H12  337   6.087   7.061   8.727 -0.1958 -0.6965 -2.5324
   11bbb     C7  338   6.164   6.839   8.309  0.4104  0.0143  0.4095
   11bbb    H13  339   6.108   6.779   8.237  0.8904 -0.8524  0.7424
   11bbb    H14  340   6.092   6.853   8.391  0.6460 -1.9642  1.0178
   11bbb     C8  341   6.247   7.103   8.874  0.0360  0.2937  0.0439
   11bbb    H15  342   6.344   7.055   8.889 -1.1487 -1.7112  1.7739
   11bbb    H16  343   6.178   7.062   8.949 -0.2499 -0.9899 -0.8900
   11bbb     C9  344   6.113   7.439   8.501  0.2667  0.0392 -0.6814
   11bbb    H17  345   6.142   7.532   8.451 -1.8127  1.8324  1.2220
   11bbb    H18  346   6.183   7.427   8.585 -0.3505  0.9674 -0.0127
   11bbb     O1  347   6.274   6.759   8.360  0.0578  0.4534  0.5067
   12bbb     N1  348   7.196   6.645   7.291 -0.0926  0.0802  0.2030
   12bbb     C1  349   7.158   6.501   7.275  0.2266 -0.0843 -0.6665
   12bbb     H1  350   7.049   6.505   7.262  0.3381  2.5522 -1.4167
   12bbb     H2  351   7.173   6.452   7.371  1.6546 -0.9168 -1.2797
   12bbb     C2  352   7.344   6.674   7.295  0.0107  0.2100 -0.2212
   12bbb     H3  353   7.355   6.782   7.280  3.0860  0.1921  1.3203
   12bbb     H4  354   7.392   6.636   7.204 -1.7066 -0.8357 -0.7574
   12bbb     C3  355   7.099   6.711   7.384 -0.3571  0.0842  0.1400
   12bbb     H5  356   7.091   6.654   7.477  0.8184  0.1138  0.2669
   12bbb     H6  357   7.002   6.696   7.334  0.1462  0.6601 -1.0597
   12bbb     C4  358   7.119   6.867   7.409 -1.0318  0.8965  0.3222
   12bbb     H7  359   7.138   6.904   7.307  2.2366 -2.9635 -0.7568
   12bbb     H8  360   7.207   6.888   7.471  2.3630 -2.0995 -2.9350
   12bbb     C5  361   7.225   6.424   7.157  0.1319 -0.6044 -0.2226
   12bbb     H9  362   7.334   6.438   7.161 -0.0248  1.8132 -2.0331
   12bbb    H10  363   7.197   6.462   7.058  1.4676  0.7594 -0.1208
   12bbb     C6  364   7.401   6.629   7.433 -0.5850 -0.2516 -0.4138
   12bbb    H11  365   7.400   6.519   7.435 -1.4893 -0.2542 -0.6406
   12bbb    H12  366   7.337   6.673   7.511  0.7465 -2.2998  2.0088
   12bbb     C7  367   6.994   6.922   7.482 -0.4212  0.0373 -0.1808
   12bbb    H13  368   6.903   6.896   7.426  0.4537 -1.4348 -0.9935
   12bbb    H14  369   6.998   7.031   7.488 -0.0302 -0.0688  2.1664
   12bbb     C8  370   7.548   6.676   7.462 -0.2453 -0.0118  0.0777
   12bbb    H15  371   7.583   6.688   7.566  0.5943  1.0739 -0.3130
   12bbb    H16  372   7.560   6.778   7.426  1.3808  0.2040  1.1200
   12bbb     C9  373   7.200   6.270   7.151  0.0115  0.1994 -0.2272
   12bbb    H17  374   7.095   6.245   7.170  0.4347  0.2090  2.5426
   12bbb    H18  375   7.253   6.216   7.231 -1.6210 -0.9793  0.1083
   12bbb     O1  376   6.992   6.867   7.612 -0.2167  0.8419 -0.0044
   13bbb     N1  377   6.821   6.190   7.334  0.0239  0.2994 -1.4408
   13bbb     C1  378   6.774   6.087   7.239 -0.4245 -0.0359 -0.2722
   13bbb     H1  379   6.664   6.097   7.237 -0.3510  1.4170  0.8521
   13bbb     H2  380   6.798   5.984   7.267 -1.1677 -0.1989 -0.2042
   13bbb     C2  381   6.934   6.154   7.413  0.7253  0.4131  0.0803
   13bbb     H3  382   6.967   6.232   7.482  2.6847 -0.3679  0.0999
   13bbb     H4  383   7.015   6.142   7.340 -0.3014 -0.6117 -0.9379
   13bbb     C3  384   6.802   6.337   7.298  0.2076 -0.0846 -0.5345
   13bbb     H5  385   6.707   6.353   7.247  0.7857 -0.6497 -1.8291
   13bbb     H6  386   6.881   6.365   7.227  1.4453 -0.5355  0.6079
   13bbb     C4  387   6.807   6.434   7.422  0.3442 -0.7576  0.5755
   13bbb     H7  388   6.785   6.540   7.401  1.7529 -0.5338  0.0969
   13bbb     H8  389   6.910   6.444   7.460  0.1891  1.2803  0.5736
   13bbb     C5  390   6.831   6.098   7.099  0.0471  0.1777 -0.4151
   13bbb     H9  391   6.933   6.136   7.098  0.7142 -1.4513  0.7109
   13bbb    H10  392   6.782   6.171   7.034 -0.0920  1.3602  0.9729
   13bbb     C6  393   6.926   6.018   7.488  0.4147 -0.3585 -0.5100
   13bbb    H11  394   7.009   6.015   7.559  1.4977  0.2758 -1.7102
   13bbb    H12  395   6.931   5.937   7.414 -1.1085 -0.6729 -0.2926
   13bbb     C7  396   6.717   6.387   7.533 -0.6545 -0.3842 -0.2893
   13bbb    H13  397   6.756   6.290   7.564 -0.3349  0.5413  2.4249
   13bbb    H14  398   6.617   6.373   7.489 -1.2119  1.6928  0.2292
   13bbb     C8  399   6.799   6.011   7.576  0.0255  0.3138 -0.3482
   13bbb    H15  400   6.709   5.999   7.514 -0.9423 -0.6393  1.1719
   13bbb    H16  401   6.781   6.095   7.644 -2.5031 -0.6087  0.2383
   13bbb     C9  402   6.843   5.958   7.030 -0.3929 -0.4461  0.4922
   13bbb    H17  403   6.878   5.972   6.927 -1.2202 -1.1529  0.1049
   13bbb    H18  404   6.741   5.919   7.030 -1.3227  1.8775  0.3528
   13bbb     O1  405   6.705   6.477   7.646  0.0583  0.2508  0.0027
   14bbb     N1  406   7.093   9.322   9.926 -0.2024 -0.6470 -0.0543
   14bbb     C1  407   7.222   9.359   9.989 -0.1504  0.8225  0.3749
   14bbb     H1  408   7.283   9.268   9.999 -1.2963 -0.0768 -0.5278
   14bbb     H2  409   7.192   9.384  10.092  0.2043  1.1642  0.3966
   14bbb     C2  410   7.026   9.201   9.982 -0.1692  0.1150  0.1962
   14bbb     H3  411   6.968   9.227  10.071 -1.2797 -0.7218 -0.2562
   14bbb     H4  412   7.099   9.121  10.005  0.2096 -0.2113 -1.9394
   14bbb     C3  413   7.005   9.445   9.905  0.1656 -0.5534  0.8881
   14bbb     H5  414   6.919   9.424   9.839  0.4496  1.1121 -0.0621
   14bbb     H6  415   7.060   9.525   9.854  1.2935 -0.6542  1.9168
   14bbb     C4  416   6.947   9.506  10.033  0.0609 -0.0004  0.2643
   14bbb     H7  417   7.019   9.551  10.101  2.3324 -0.2530 -1.8261
   14bbb     H8  418   6.883   9.436  10.088 -0.0027  0.0445  0.2475
   14bbb     C5  419   7.296   9.481   9.940 -0.6675 -0.3460  0.0889
   14bbb     H9  420   7.235   9.572   9.944 -0.3967 -0.2087  2.4119
   14bbb    H10  421   7.321   9.456   9.836  1.6577 -0.6538  0.6425
   14bbb     C6  422   6.918   9.142   9.883 -0.5155 -0.1726 -0.1162
   14bbb    H11  423   6.962   9.132   9.782  0.8655 -1.0962  0.5381
   14bbb    H12  424   6.841   9.217   9.863 -1.4657 -1.7343 -2.8765
   14bbb     C7  425   6.858   9.620   9.995 -0.0924 -0.3209  0.2414
   14bbb    H13  426   6.807   9.664  10.082  1.2822 -1.1980  1.5378
   14bbb    H14  427   6.781   9.590   9.922  1.3522  0.2938 -1.5878
   14bbb     C8  428   6.861   9.010   9.932 -0.3785  0.3566  0.4734
   14bbb    H15  429   6.774   8.981   9.872  1.3318 -1.7624 -1.1571
   14bbb    H16  430   6.826   9.021  10.036 -0.4275 -1.5081  0.6892
   14bbb     C9  431   7.423   9.505  10.026 -0.1806 -0.2125  0.0690
   14bbb    H17  432   7.477   9.410  10.032  1.2548  0.3902 -1.9582
   14bbb    H18  433   7.398   9.544  10.125  1.6275  1.0876  0.0734
   14bbb     O1  434   6.940   9.719   9.931  0.4650  0.4049 -0.0564
   15bbb     N1  435   7.215   9.881   9.511 -0.1325 -0.2476 -0.1105
   15bbb     C1  436   7.217   9.730   9.490  0.2708  0.0677 -0.0139
   15bbb     H1  437   7.321   9.698   9.504  0.1894  0.0623  0.6132
   15bbb     H2  438   7.189   9.704   9.388  0.0482  3.1486 -0.8448
   15bbb     C2  439   7.242   9.919   9.654 -0.1157 -0.2147  0.4345
   15bbb     H3  440   7.321   9.854   9.693 -1.7564 -1.1886  2.2976
   15bbb     H4  441   7.163   9.903   9.728  0.2577 -1.2480  0.6239
   15bbb     C3  442   7.108   9.960   9.444  1.1231 -0.3865 -0.4419
   15bbb     H5  443   7.140  10.064   9.434  2.4441 -0.5824  1.4358
   15bbb     H6  444   7.020   9.975   9.508  0.3120  0.7922 -1.7633
   15bbb     C4  445   7.063   9.901   9.306 -0.2785  0.0662  0.4205
   15bbb     H7  446   7.015   9.805   9.326  1.1640 -0.8298 -0.2773
   15bbb     H8  447   7.146   9.886   9.235 -0.1133 -1.6554  0.9289
   15bbb     C5  448   7.122   9.649   9.579 -0.0497 -0.4254 -0.3160
   15bbb     H9  449   7.022   9.686   9.554  0.0222  0.6560  0.8961
   15bbb    H10  450   7.147   9.663   9.685 -0.2901  0.6662 -0.3940
   15bbb     C6  451   7.289  10.068   9.657 -0.6828  0.6965  0.6845
   15bbb    H11  452   7.212  10.138   9.620 -0.3710  0.5447 -0.2955
   15bbb    H12  453   7.370  10.082   9.584 -1.2968  0.9327  0.0248
   15bbb     C7  454   6.965   9.998   9.240  0.0467  0.4517  0.3583
   15bbb    H13  455   6.934   9.950   9.146  2.6852 -1.9833  0.5950
   15bbb    H14  456   7.016  10.094   9.223  2.2254 -0.7151 -0.0893
   15bbb     C8  457   7.338  10.120   9.799  0.4979 -0.0424 -0.2346
   15bbb    H15  458   7.400  10.209   9.783  0.7530 -0.6568 -3.2421
   15bbb    H16  459   7.389  10.037   9.851 -1.0124 -1.2590 -0.6190
   15bbb     C9  460   7.126   9.495   9.552 -0.1808  0.0449 -0.1043
   15bbb    H17  461   7.062   9.441   9.623 -0.7711 -0.1648 -0.7869
   15bbb    H18  462   7.231   9.465   9.567  0.0616  0.2088 -1.3749
   15bbb     O1  463   6.846  10.031   9.327 -0.9767  0.7941  0.3745
   16bbb     N1  464   5.853   7.826   9.925 -0.1255  0.2263 -0.2956
   16bbb     C1  465   5.763   7.711   9.962  1.4247  0.0154 -0.0066
   16bbb     H1  466   5.761   7.638   9.881 -1.8806 -1.5494  1.3037
   16bbb     H2  467   5.658   7.740   9.972  1.0435 -1.4240  0.3423
   16bbb     C2  468   5.996   7.802   9.898  0.3907  0.0624 -1.4469
   16bbb     H3  469   6.045   7.783   9.995 -1.2310 -0.3429 -0.6662
   16bbb     H4  470   6.050   7.889   9.859 -0.6150  1.1459 -0.4996
   16bbb     C3  471   5.828   7.955   9.997 -0.0085 -0.1251 -0.9284
   16bbb     H5  472   5.837   7.936  10.104  0.8546 -0.2177 -1.0117
   16bbb     H6  473   5.728   7.989   9.968  1.1073  2.0362 -2.5524
   16bbb     C4  474   5.923   8.076   9.978  0.3976  0.2515  0.4480
   16bbb     H7  475   5.921   8.097   9.870  2.4769 -0.3538  0.2478
   16bbb     H8  476   6.024   8.049  10.010 -0.0662 -1.1709  0.7992
   16bbb     C5  477   5.796   7.655  10.101  0.2738 -0.4250 -0.1919
   16bbb     H9  478   5.797   7.733  10.178  1.9355 -0.8791  0.2871
   16bbb    H10  479   5.902   7.628  10.100  0.5245  0.5291 -0.4405
   16bbb     C6  480   6.026   7.688   9.808  0.2894  0.0224  0.3209
   16bbb    H11  481   5.994   7.722   9.708  1.5396  0.0921 -0.0704
   16bbb    H12  482   5.965   7.601   9.836 -0.1165 -0.6549 -2.3457
   16bbb     C7  483   5.876   8.202  10.054 -0.3717  0.7674  0.2175
   16bbb    H13  484   5.912   8.199  10.158  0.5266 -3.1894 -0.0632
   16bbb    H14  485   5.769   8.222  10.071 -0.3534  0.6251  0.5262
   16bbb     C8  486   6.175   7.651   9.801  0.1488 -0.1621 -0.1604
   16bbb    H15  487   6.179   7.597   9.705  1.7666  2.5169 -1.7108
   16bbb    H16  488   6.203   7.577   9.877  1.0824  0.6431  0.3035
   16bbb     C9  489   5.709   7.536  10.157  0.3340 -0.5739 -0.0258
   16bbb    H17  490   5.614   7.578  10.192  0.1307 -1.4478  0.5102
   16bbb    H18  491   5.758   7.502  10.250  1.8716  2.2441  0.3122
   16bbb     O1  492   5.937   8.317   9.996  0.3240 -0.1173  0.4535
   17bbb     N1  493   5.939   7.997  10.461 -0.3963  0.6001 -0.5017
   17bbb     C1  494   6.038   7.893  10.494 -0.3869  0.5496 -0.3454
   17bbb     H1  495   6.070   7.908  10.597  0.0867 -0.5247 -0.3225
   17bbb     H2  496   6.123   7.905  10.425  0.6317  1.8994  1.0831
   17bbb     C2  497   5.810   7.994  10.532 -0.0834  0.6986  0.1847
   17bbb     H3  498   5.816   8.003  10.642 -1.3527 -2.1711  0.5725
   17bbb     H4  499   5.759   7.897  10.528 -0.7758  1.0594  0.0934
   17bbb     C3  500   5.988   8.137  10.450 -0.0643 -0.0411 -0.4842
   17bbb     H5  501   5.912   8.191  10.392 -0.7539 -2.7962 -2.3137
   17bbb     H6  502   6.076   8.147  10.387 -1.5180 -0.6893 -2.7231
   17bbb     C4  503   6.026   8.201  10.584 -0.1157 -0.3441  0.1227
   17bbb     H7  504   6.087   8.145  10.656  1.8335  2.9745  1.2726
   17bbb     H8  505   5.933   8.221  10.640  0.7749  0.7803  1.2620
   17bbb     C5  506   5.979   7.747  10.490  0.0759 -0.3123  0.2518
   17bbb     H9  507   5.914   7.740  10.401  0.4051 -0.4962  0.0220
   17bbb    H10  508   5.919   7.728  10.580  1.9037  0.9463  1.8048
   17bbb     C6  509   5.697   8.073  10.472  0.3454 -0.2113 -0.4532
   17bbb    H11  510   5.719   8.181  10.473 -1.9784  0.3634  2.5677
   17bbb    H12  511   5.605   8.075  10.532  1.1743  0.6065  0.8254
   17bbb     C7  512   6.099   8.335  10.569  1.0181 -0.5340  0.2933
   17bbb    H13  513   6.192   8.324  10.510  0.9833  2.6925 -0.5338
   17bbb    H14  514   6.123   8.371  10.669 -0.9705 -0.5039  0.7961
   17bbb     C8  515   5.650   8.038  10.322  0.6831 -0.1714 -0.2974
   17bbb    H15  516   5.658   7.931  10.298 -0.9070 -0.3536 -0.1412
   17bbb    H16  517   5.709   8.098  10.252 -1.3168  1.9187 -0.2965
   17bbb     C9  518   6.084   7.640  10.471 -0.4559  0.0458  0.0008
   17bbb    H17  519   6.133   7.647  10.372 -1.7678 -3.1285 -1.0153
   17bbb    H18  520   6.031   7.544  10.470 -1.7391  0.6522  2.4066
   17bbb     O1  521   6.018   8.421  10.500  0.3730 -0.5461  0.0854
   18bbb     N1  522   5.826   7.370   9.506  0.2829  0.2980 -0.0441
   18bbb     C1  523   5.703   7.291   9.478 -0.0285 -0.4463 -0.0622
   18bbb     H1  524   5.718   7.229   9.389 -1.1653  1.7716 -1.8806
   18bbb     H2  525   5.618   7.361   9.472  0.1458 -0.0924  1.2089
   18bbb     C2  526   5.818   7.503   9.436  0.3532 -0.1057  0.3397
   18bbb     H3  527   5.788   7.492   9.331 -2.7852  0.3257  1.0857
   18bbb     H4  528   5.920   7.543   9.442  1.9117 -3.4210 -1.2986
   18bbb     C3  529   5.943   7.289   9.470 -0.0217 -0.0388 -0.0099
   18bbb     H5  530   5.968   7.299   9.364  0.2956  1.8281  0.1902
   18bbb     H6  531   5.927   7.184   9.496 -2.6804  0.3595  0.2250
   18bbb     C4  532   6.067   7.332   9.555  0.1239 -0.1077 -0.4604
   18bbb     H7  533   6.074   7.266   9.642 -0.3073 -0.1754 -0.4734
   18bbb     H8  534   6.048   7.433   9.594  1.4676 -0.4263  1.1539
   18bbb     C5  535   5.664   7.196   9.597  0.1924 -0.0985  0.1673
   18bbb     H9  536   5.757   7.144   9.621  1.7038  1.3693 -2.0519
   18bbb    H10  537   5.598   7.116   9.562 -0.0865 -0.4549  1.4750
   18bbb     C6  538   5.730   7.600   9.520  0.1658 -0.2106  0.4144
   18bbb    H11  539   5.762   7.588   9.624  0.0639  0.7698  0.5762
   18bbb    H12  540   5.628   7.562   9.528  0.7937 -1.6625  2.2849
   18bbb     C7  541   6.201   7.324   9.469  0.8734 -0.4488 -0.7943
   18bbb    H13  542   6.192   7.369   9.370 -0.1451 -1.0954 -1.0120
   18bbb    H14  543   6.223   7.218   9.450  0.2055 -0.4261 -1.7914
   18bbb     C8  544   5.754   7.743   9.473 -0.0239  0.3833  0.2334
   18bbb    H15  545   5.761   7.756   9.364  2.6851 -1.3343  0.1140
   18bbb    H16  546   5.855   7.776   9.500  0.8594 -1.6747 -0.3254
   18bbb     C9  547   5.609   7.276   9.716  0.0795  0.2529 -0.6067
   18bbb    H17  548   5.684   7.355   9.722  0.3407  0.1140 -1.8240
   18bbb    H18  549   5.617   7.208   9.801  2.3305  0.2957 -0.7303
   18bbb     O1  550   6.312   7.398   9.527  0.4312  0.5428  0.4756
   19bbb     N1  551   6.349   8.102  10.253  0.1936 -0.3199  0.1732
   19bbb     C1  552   6.285   8.224  10.202 -0.7054 -0.3815 -0.0988
   19bbb     H1  553   6.331   8.313  10.248 -0.8437  0.1925 -1.0466
   19bbb     H2  554   6.178   8.236  10.222 -1.0169 -0.6182 -1.5150
   19bbb     C2  555   6.380   8.109  10.394  0.3031 -0.2968 -0.2111
   19bbb     H3  556   6.422   8.014  10.429 -2.6247 -1.0723  1.5630
   19bbb     H4  557   6.289   8.141  10.446  0.7109 -0.8761  0.8908
   19bbb     C3  558   6.284   7.983  10.201  0.7442  0.5640 -0.1462
   19bbb     H5  559   6.283   7.990  10.091 -1.1952 -0.4625 -0.2472
   19bbb     H6  560   6.177   7.982  10.227  0.3243  1.2545 -1.7184
   19bbb     C4  561   6.339   7.842  10.241 -0.2093  0.5888  0.0544
   19bbb     H7  562   6.275   7.784  10.174 -1.7187  1.5449  0.6178
   19bbb     H8  563   6.300   7.817  10.340 -1.5932  1.2961 -0.2870
   19bbb     C5  564   6.307   8.252  10.049  0.3674  0.3000  0.0061
   19bbb     H9  565   6.226   8.322  10.021  1.5900  1.2380 -1.3467
   19bbb    H10  566   6.306   8.163   9.986  1.3466  0.3432 -0.0779
   19bbb     C6  567   6.482   8.218  10.428 -0.5032 -0.0542  0.3343
   19bbb    H11  568   6.444   8.320  10.412 -0.8924 -0.0596  1.1640
   19bbb    H12  569   6.556   8.221  10.347 -1.7602  0.1120 -0.8421
   19bbb     C7  570   6.486   7.813  10.217 -0.6221  0.6477 -0.9302
   19bbb    H13  571   6.550   7.848  10.299 -0.3486  1.2419 -1.3939
   19bbb    H14  572   6.511   7.860  10.121  1.7202 -1.6137 -1.5741
   19bbb     C8  573   6.551   8.213  10.567 -0.0195  0.1357  0.6619
   19bbb    H15  574   6.634   8.284  10.567  1.6550 -1.7182 -1.4599
   19bbb    H16  575   6.598   8.115  10.580 -0.8698 -0.2673  0.8068
   19bbb     C9  576   6.444   8.310  10.017 -0.7480 -0.3549 -0.0492
   19bbb    H17  577   6.474   8.290   9.913 -1.3612 -0.4680 -0.2083
   19bbb    H18  578   6.520   8.254  10.073  0.5384  1.6609  0.3217
   19bbb     O1  579   6.488   7.666  10.199  0.4162  0.1165  0.1987
   20bbb     N1  580   7.143   6.620   7.978 -0.5457  0.3834  0.2728
   20bbb     C1  581   7.222   6.668   7.860 -0.1765 -0.6658  0.7292
   20bbb     H1  582   7.153   6.666   7.776 -0.4933 -2.8312  0.9885
   20bbb     H2  583   7.305   6.601   7.834 -0.0851 -0.2033 -0.2428
   20bbb     C2  584   7.050   6.505   7.955 -0.6003  0.0861  0.1366
   20bbb     H3  585   6.983   6.528   7.872  1.6754  1.4987 -1.4472
   20bbb     H4  586   6.981   6.471   8.032 -2.3392 -1.5074 -2.0071
   20bbb     C3  587   7.223   6.611   8.100 -0.2067 -0.6080 -0.4725
   20bbb     H5  588   7.281   6.702   8.119  0.6548 -1.0061 -1.0801
   20bbb     H6  589   7.288   6.526   8.074  1.0910 -0.4687  2.0172
   20bbb     C4  590   7.146   6.578   8.234 -0.6998  0.1129  0.5817
   20bbb     H7  591   7.116   6.474   8.244 -0.0157 -0.1068  0.4140
   20bbb     H8  592   7.056   6.640   8.237  0.0967  1.3542  0.2301
   20bbb     C5  593   7.271   6.817   7.873  0.0094  0.0547  0.5905
   20bbb     H9  594   7.360   6.811   7.937 -0.7099 -1.2677  1.5210
   20bbb    H10  595   7.191   6.873   7.923 -0.4379 -1.1476  1.2539
   20bbb     C6  596   7.129   6.375   7.913 -0.1795  0.6351 -0.3859
   20bbb    H11  597   7.188   6.334   7.997  0.1056  0.3060 -0.7416
   20bbb    H12  598   7.201   6.396   7.833  0.4900  2.0388  0.5455
   20bbb     C7  599   7.226   6.616   8.365 -0.5172 -0.6456  0.6194
   20bbb    H13  600   7.275   6.713   8.351  0.2094 -1.2481 -1.4965
   20bbb    H14  601   7.312   6.549   8.377 -0.4002 -0.4278  1.0003
   20bbb     C8  602   7.022   6.264   7.877 -0.4179  0.7162  0.0969
   20bbb    H15  603   7.075   6.186   7.822  2.6396  2.4183  0.4142
   20bbb    H16  604   6.948   6.313   7.812 -0.0312  1.2609  0.0576
   20bbb     C9  605   7.301   6.882   7.738 -0.6178  0.6716  0.2957
   20bbb    H17  606   7.211   6.906   7.680  0.4095  0.0790 -1.6624
   20bbb    H18  607   7.359   6.807   7.682  0.1127 -0.4572  2.4450
   20bbb     O1  608   7.138   6.622   8.477 -0.6264 -0.4058  0.5401
   21bbb     N1  609   6.642   6.884   9.386 -0.3421  0.6304 -0.0187
   21bbb     C1  610   6.498   6.901   9.425 -0.2593  0.3044 -0.7224
   21bbb     H1  611   6.495   6.968   9.512  0.9428  1.4592 -1.5258
   21bbb     H2  612   6.471   6.800   9.459 -1.1252  0.7941  0.0649
   21bbb     C2  613   6.735   7.005   9.372  0.2965  0.1647 -0.0140
   21bbb     H3  614   6.721   7.052   9.274  2.9190  0.0449 -0.5136
   21bbb     H4  615   6.836   6.965   9.362  1.1829  2.5704 -1.1429
   21bbb     C3  616   6.670   6.778   9.284  0.4517  0.6501 -0.2813
   21bbb     H5  617   6.779   6.780   9.271  1.0787 -1.6894  3.1316
   21bbb     H6  618   6.620   6.799   9.189 -0.5828 -1.0102 -0.1444
   21bbb     C4  619   6.636   6.633   9.348  0.1274  0.0048  0.0560
   21bbb     H7  620   6.531   6.615   9.373 -0.2555  1.0024 -0.7624
   21bbb     H8  621   6.693   6.601   9.436  0.6825 -1.3676 -0.7717
   21bbb     C5  622   6.405   6.950   9.317 -0.9757 -0.2105  0.8772
   21bbb     H9  623   6.416   6.888   9.228 -1.2181  1.0955 -0.0978
   21bbb    H10  624   6.438   7.052   9.292  0.7044 -0.8625  0.2808
   21bbb     C6  625   6.731   7.106   9.482 -0.2916  0.7249  0.5036
   21bbb    H11  626   6.747   7.049   9.575 -0.1839 -1.1966 -0.6330
   21bbb    H12  627   6.629   7.146   9.480 -0.5843  0.0233  0.9556
   21bbb     C7  628   6.681   6.531   9.245 -0.4104  0.2124  0.4416
   21bbb    H13  629   6.623   6.535   9.152 -0.5166  1.6158  0.5424
   21bbb    H14  630   6.673   6.431   9.289  0.1414  0.7747  1.8863
   21bbb     C8  631   6.831   7.221   9.468 -0.0617 -0.4070  0.3047
   21bbb    H15  632   6.808   7.290   9.551  1.4643  0.3504  0.1349
   21bbb    H16  633   6.835   7.282   9.377  0.4459 -0.9207 -0.0182
   21bbb     C9  634   6.251   6.945   9.345 -0.3186 -0.3177 -0.2862
   21bbb    H17  635   6.223   7.001   9.435 -0.0390 -0.0081 -0.3871
   21bbb    H18  636   6.229   6.839   9.361 -1.1402 -0.8515 -4.0473
   21bbb     O1  637   6.820   6.551   9.204  0.4107  0.0661 -0.1166
   22bbb     N1  638   7.249   5.421   7.814  0.3167 -0.2694  0.0942
   22bbb     C1  639   7.159   5.306   7.862 -0.4181 -0.4887 -0.6501
   22bbb     H1  640   7.135   5.316   7.968 -0.7266  0.7943 -0.8319
   22bbb     H2  641   7.213   5.212   7.842  0.7154  0.0101 -0.0380
   22bbb     C2  642   7.395   5.392   7.833 -0.0914 -0.3125 -0.8783
   22bbb     H3  643   7.451   5.474   7.787  1.2209 -1.3432 -1.1673
   22bbb     H4  644   7.423   5.297   7.787 -1.0108 -1.3303  0.5750
   22bbb     C3  645   7.193   5.548   7.869 -0.0395  0.0598  0.1557
   22bbb     H5  646   7.197   5.548   7.978 -0.3192  0.6349  0.1705
   22bbb     H6  647   7.091   5.562   7.834  0.2524 -0.3166 -0.8826
   22bbb     C4  648   7.266   5.676   7.822 -0.3227 -0.4081 -0.4031
   22bbb     H7  649   7.289   5.674   7.715 -2.0004 -0.9145 -0.7843
   22bbb     H8  650   7.360   5.676   7.879 -0.0620 -0.4152 -0.8302
   22bbb     C5  651   7.020   5.297   7.784  0.1192 -0.1238 -0.3136
   22bbb     H9  652   6.964   5.386   7.817  2.3173 -0.0458  3.8794
   22bbb    H10  653   6.973   5.207   7.825  2.0167 -1.2036 -0.4120
   22bbb     C6  654   7.433   5.368   7.978 -0.1662 -0.2011 -0.1306
   22bbb    H11  655   7.390   5.272   8.008  0.1095 -0.2340  0.1633
   22bbb    H12  656   7.395   5.440   8.051  1.6814 -0.3378  1.0295
   22bbb     C7  657   7.190   5.806   7.854 -0.2208  0.4592 -0.0985
   22bbb    H13  658   7.091   5.793   7.809  0.3126  0.3280 -1.2904
   22bbb    H14  659   7.234   5.889   7.797  1.2136 -0.6437 -0.6432
   22bbb     C8  660   7.587   5.368   7.994 -0.3056  0.5431  0.1444
   22bbb    H15  661   7.622   5.470   7.976  1.0268  0.3580  1.5204
   22bbb    H16  662   7.639   5.295   7.931  0.4975  0.5732  0.7602
   22bbb     C9  663   7.054   5.291   7.635  0.4517  0.7175 -0.0415
   22bbb    H17  664   7.118   5.202   7.634  1.7557  1.4555  3.1748
   22bbb    H18  665   7.114   5.378   7.606  0.5973  0.6908  0.1750
   22bbb     O1  666   7.206   5.820   7.989  0.3438 -0.0093 -0.2286
   23bbb     N1  667   7.554   5.344   8.714 -0.1135 -0.4899  0.5627
   23bbb     C1  668   7.484   5.309   8.584 -0.1367 -0.3438 -0.7146
   23bbb     H1  669   7.524   5.378   8.509 -1.6223 -2.0482 -3.2218
   23bbb     H2  670   7.377   5.324   8.602 -0.8553 -3.0860 -2.0782
   23bbb     C2  671   7.580   5.236   8.813 -0.7476 -0.5628 -0.2312
   23bbb     H3  672   7.650   5.266   8.893 -0.9059  0.4426 -0.4626
   23bbb     H4  673   7.643   5.155   8.774  0.1664  0.1513 -0.2921
   23bbb     C3  674   7.500   5.472   8.773  0.0048 -0.1882  0.6215
   23bbb     H5  675   7.568   5.489   8.858  1.3800  0.3323 -0.5319
   23bbb     H6  676   7.397   5.454   8.807  0.6710 -0.7304  2.4603
   23bbb     C4  677   7.505   5.609   8.693 -0.0280 -0.3046  0.4660
   23bbb     H7  678   7.452   5.598   8.597  0.1057 -2.7096  0.6161
   23bbb     H8  679   7.613   5.630   8.687  0.1683 -1.6029 -3.1570
   23bbb     C5  680   7.528   5.171   8.526 -0.2543  0.8813 -0.4327
   23bbb     H9  681   7.485   5.100   8.598 -0.5802  1.9237  0.4349
   23bbb    H10  682   7.636   5.164   8.537 -0.2257  2.7714  0.9454
   23bbb     C6  683   7.444   5.185   8.866 -0.9487  0.2582 -0.2549
   23bbb    H11  684   7.380   5.153   8.784  1.1059 -0.3813 -1.6922
   23bbb    H12  685   7.391   5.258   8.929 -1.0002 -0.1029  0.1260
   23bbb     C7  686   7.414   5.712   8.765  0.6524  0.3085 -0.3715
   23bbb    H13  687   7.480   5.768   8.832  0.3304  0.4131 -0.1386
   23bbb    H14  688   7.334   5.657   8.817  1.2880 -0.5770 -0.2898
   23bbb     C8  689   7.475   5.064   8.951  0.9615 -0.1142 -0.1017
   23bbb    H15  690   7.521   5.104   9.043 -0.3218 -0.4579  0.7186
   23bbb    H16  691   7.551   4.997   8.910  0.9998  0.7894 -1.5617
   23bbb     C9  692   7.471   5.142   8.382 -0.3203 -0.1057 -0.0625
   23bbb    H17  693   7.508   5.046   8.344  0.8362 -0.0019  0.7214
   23bbb    H18  694   7.510   5.219   8.314  2.5824 -1.9946 -0.7279
   23bbb     O1  695   7.354   5.805   8.676  0.0266  0.4450  0.2921
   24bbb     N1  696   6.118   7.649   9.057 -0.3646 -0.4316 -0.2288
   24bbb     C1  697   5.970   7.678   9.048 -0.1042 -0.1345  0.9437
   24bbb     H1  698   5.913   7.612   9.116  0.3477 -1.4738  0.0730
   24bbb     H2  699   5.939   7.649   8.947  0.3375 -2.4552  1.3957
   24bbb     C2  700   6.199   7.714   9.167  0.2346  0.0313  0.0359
   24bbb     H3  701   6.168   7.819   9.155 -0.7792 -0.4733 -2.3318
   24bbb     H4  702   6.307   7.702   9.149  0.0112 -1.0107 -0.7068
   24bbb     C3  703   6.140   7.500   9.034 -0.3276 -0.2193 -0.1688
   24bbb     H5  704   6.084   7.470   8.945 -0.9574  1.4220 -0.3565
   24bbb     H6  705   6.085   7.446   9.112 -0.8933 -3.1570 -2.4272
   24bbb     C4  706   6.282   7.446   9.024  0.0237  1.0264  0.1955
   24bbb     H7  707   6.324   7.479   9.120 -2.0187  1.7547  0.8941
   24bbb     H8  708   6.331   7.489   8.936 -0.9850 -0.6430 -1.2476
   24bbb     C5  709   5.914   7.817   9.080 -0.5288 -0.0413  0.0435
   24bbb     H9  710   5.980   7.887   9.027 -1.2288  0.2238 -0.4955
   24bbb    H10  711   5.930   7.826   9.188 -0.0512 -0.9046  0.0544
   24bbb     C6  712   6.150   7.668   9.307  0.2308  0.2034  0.4445
   24bbb    H11  713   6.196   7.573   9.336 -0.2375 -0.0890  0.2453
   24bbb    H12  714   6.042   7.653   9.308  0.4307 -1.4459  0.2576
   24bbb     C7  715   6.293   7.291   9.012 -0.3755 -0.3991  0.1595
   24bbb    H13  716   6.228   7.255   9.093 -0.9557 -2.7849 -1.2695
   24bbb    H14  717   6.397   7.259   9.026  0.0794 -0.1390 -2.1868
   24bbb     C8  718   6.185   7.766   9.413 -0.4284 -0.3369  0.4320
   24bbb    H15  719   6.286   7.805   9.394 -0.9867  0.1423 -1.9516
   24bbb    H16  720   6.196   7.716   9.509  1.1918 -0.6017  0.1360
   24bbb     C9  721   5.763   7.826   9.046  0.5073  0.4792  0.4280
   24bbb    H17  722   5.759   7.839   8.937  0.5470 -1.9192  0.0757
   24bbb    H18  723   5.721   7.914   9.096 -0.5498  1.2068 -1.5927
   24bbb     O1  724   6.252   7.249   8.882  0.5931  0.0554 -0.1468
   25bbb     N1  725   5.922   7.960   8.645  0.5691 -0.5265 -0.4269
   25bbb     C1  726   5.937   8.066   8.750  0.1692  0.9094  0.4739
   25bbb     H1  727   5.898   8.019   8.841  2.5744  0.5217  1.3733
   25bbb     H2  728   5.877   8.156   8.728 -0.0891  0.7804  0.6434
   25bbb     C2  729   5.955   8.004   8.505 -0.0106  0.3674 -0.6006
   25bbb     H3  730   5.907   7.938   8.432 -1.2532 -0.5009  0.9343
   25bbb     H4  731   6.062   8.001   8.482 -0.2095  0.3646 -1.5852
   25bbb     C3  732   5.987   7.830   8.681 -0.4522  0.0705  0.5236
   25bbb     H5  733   5.962   7.808   8.786 -2.2174 -0.3104  0.0592
   25bbb     H6  734   6.096   7.844   8.681 -0.0251 -2.4996  2.2263
   25bbb     C4  735   5.942   7.709   8.587 -0.0591 -0.0898 -0.0459
   25bbb     H7  736   6.007   7.716   8.499  0.5321 -2.4993  0.1440
   25bbb     H8  737   5.841   7.722   8.547  0.4501  0.4339 -1.2306
   25bbb     C5  738   6.079   8.102   8.779  0.1271 -0.3732 -0.1020
   25bbb     H9  739   6.127   8.132   8.686 -3.6209  1.4820 -1.6394
   25bbb    H10  740   6.130   8.010   8.812  1.2456  0.4095  0.4005
   25bbb     C6  741   5.910   8.148   8.470  0.6706 -0.0505  0.0334
   25bbb    H11  742   5.947   8.170   8.369 -0.3022 -0.1774 -0.3618
   25bbb    H12  743   5.955   8.226   8.533  1.1522 -0.8992  0.7658
   25bbb     C7  744   5.960   7.570   8.656  0.4512 -0.0229  0.3617
   25bbb    H13  745   5.880   7.538   8.724 -0.1539 -1.1870 -0.8450
   25bbb    H14  746   6.049   7.575   8.720  1.3654  1.2687 -0.9374
   25bbb     C8  747   5.752   8.159   8.468 -0.7317  0.7638  0.4665
   25bbb    H15  748   5.724   8.265   8.455 -1.6221  0.6373  1.2584
   25bbb    H16  749   5.714   8.130   8.567 -0.0754 -3.3331 -0.3228
   25bbb     C9  750   6.085   8.213   8.890 -0.1904 -0.6231  0.3397
   25bbb    H17  751   6.012   8.294   8.880 -0.4245 -0.9427 -0.7336
   25bbb    H18  752   6.190   8.247   8.889  0.3283 -2.1095 -1.8170
   25bbb     O1  753   5.980   7.460   8.559 -0.4266 -0.3514 -0.1950
   26bbb     N1  754   7.918   6.292   7.346 -0.6968 -0.4538  0.5452
   26bbb     C1  755   7.819   6.247   7.246  0.4299 -0.7888  0.0567
   26bbb     H1  756   7.868   6.163   7.195 -0.4228  0.1616 -2.4595
   26bbb     H2  757   7.801   6.321   7.166  0.0588 -2.1945 -1.2052
   26bbb     C2  758   7.961   6.180   7.437 -0.2027 -0.3850 -0.6255
   26bbb     H3  759   7.972   6.081   7.392 -2.5385 -1.4103  0.8753
   26bbb     H4  760   7.874   6.153   7.497  1.0814 -1.1364  0.9520
   26bbb     C3  761   7.870   6.412   7.419 -0.3489  0.8830  0.4154
   26bbb     H5  762   7.943   6.431   7.499  2.7934 -1.5210 -1.6293
   26bbb     H6  763   7.772   6.390   7.465  0.1094  0.4997  1.2300
   26bbb     C4  764   7.862   6.545   7.333 -0.3098  0.3632  0.2936
   26bbb     H7  765   7.821   6.531   7.232 -0.9709 -1.7949  0.7960
   26bbb     H8  766   7.959   6.592   7.315 -1.2276  1.2237 -3.1800
   26bbb     C5  767   7.678   6.199   7.285  0.6361 -0.9761 -0.1286
   26bbb     H9  768   7.608   6.279   7.314  1.8703 -0.3658  1.3617
   26bbb    H10  769   7.689   6.153   7.384 -0.8646  0.0010  0.5427
   26bbb     C6  770   8.069   6.212   7.541 -0.1206 -0.8866  0.9758
   26bbb    H11  771   8.035   6.287   7.613  1.9466  1.9512 -0.7878
   26bbb    H12  772   8.150   6.269   7.493 -1.5091  0.0025 -0.3784
   26bbb     C7  773   7.771   6.637   7.410 -0.0422 -0.0794 -0.1068
   26bbb    H13  774   7.781   6.740   7.374  0.9002 -0.4543 -0.9607
   26bbb    H14  775   7.798   6.628   7.516 -1.1332 -1.0101  0.1154
   26bbb     C8  776   8.126   6.098   7.613 -0.0559  1.0570 -0.6034
   26bbb    H15  777   8.054   6.037   7.670  2.4010 -0.2903  1.2491
   26bbb    H16  778   8.199   6.141   7.683 -0.4005  0.8884 -0.1300
   26bbb     C9  779   7.611   6.104   7.176  0.5195  0.1602 -0.2847
   26bbb    H17  780   7.667   6.114   7.082  0.3484 -0.4962 -0.4598
   26bbb    H18  781   7.510   6.139   7.152  0.7439  0.6492 -0.5366
   26bbb     O1  782   7.638   6.594   7.393  0.5209 -0.4100 -0.3458
   27bbb     N1  783   7.316   5.848   6.707 -0.4132 -0.0828 -0.2974
   27bbb     C1  784   7.456   5.815   6.744  0.1012  0.2515  0.8331
   27bbb     H1  785   7.505   5.903   6.789  0.9285  0.3170 -0.1719
   27bbb     H2  786   7.518   5.800   6.656  0.8940 -0.1345  1.4432
   27bbb     C2  787   7.314   5.927   6.584 -0.0018 -0.0634  0.6927
   27bbb     H3  788   7.349   5.864   6.502  1.3922  0.7376  0.6466
   27bbb     H4  789   7.385   6.010   6.595 -3.3037  3.2606 -0.6065
   27bbb     C3  790   7.233   5.902   6.819  0.2756 -0.2083 -0.2060
   27bbb     H5  791   7.215   5.826   6.897 -1.4002  0.8326  0.4711
   27bbb     H6  792   7.136   5.928   6.776  0.0139 -0.8999 -0.0561
   27bbb     C4  793   7.300   6.029   6.887  0.2649  0.1268  1.2606
   27bbb     H7  794   7.313   6.099   6.803 -0.2413 -1.6548 -0.3902
   27bbb     H8  795   7.399   6.009   6.931  0.4764 -1.3479  0.2164
   27bbb     C5  796   7.464   5.690   6.829  0.0684 -0.2668 -0.2698
   27bbb     H9  797   7.382   5.625   6.800  0.3862 -1.5348  1.4973
   27bbb    H10  798   7.447   5.726   6.932  1.3071 -1.9835  0.5865
   27bbb     C6  799   7.176   5.980   6.542  0.7904  0.0045 -0.0606
   27bbb    H11  800   7.135   6.038   6.626  1.1406 -0.0940  0.1799
   27bbb    H12  801   7.111   5.892   6.526  1.1306 -0.4112  0.7527
   27bbb     C7  802   7.204   6.083   6.998 -0.5156  0.5507 -0.7267
   27bbb    H13  803   7.215   6.025   7.090 -0.2702  0.8982 -0.5356
   27bbb    H14  804   7.099   6.065   6.969 -0.7071 -0.9530  0.7637
   27bbb     C8  805   7.161   6.069   6.414 -0.1443 -0.2087 -0.1360
   27bbb    H15  806   7.251   6.058   6.353  1.8866 -1.5161  2.8496
   27bbb    H16  807   7.169   6.173   6.448  0.3725 -0.1173 -0.5247
   27bbb     C9  808   7.593   5.607   6.807  0.4927  0.6097  0.4710
   27bbb    H17  809   7.586   5.561   6.708 -1.0819  0.1632  0.7646
   27bbb    H18  810   7.581   5.526   6.880 -1.9242  0.5267  0.0359
   27bbb     O1  811   7.241   6.218   7.023  0.0828 -0.4831  0.2378
   28bbb     N1  812   6.596   5.549   7.849  0.6386 -0.6929 -0.9138
   28bbb     C1  813   6.624   5.407   7.819 -0.9561 -0.8139 -0.4254
   28bbb     H1  814   6.734   5.405   7.823 -0.8886  0.4371 -1.1188
   28bbb     H2  815   6.593   5.389   7.715 -0.2645 -0.5269 -0.6912
   28bbb     C2  816   6.653   5.598   7.977 -0.6168 -0.0598 -0.5162
   28bbb     H3  817   6.761   5.584   7.971 -0.7232 -1.2863  0.0874
   28bbb     H4  818   6.611   5.550   8.067 -1.9730 -0.7379 -1.4777
   28bbb     C3  819   6.631   5.636   7.733 -0.6255 -0.2595  0.1529
   28bbb     H5  820   6.590   5.737   7.743 -0.5631 -0.4339  2.8241
   28bbb     H6  821   6.572   5.588   7.654  1.4829 -2.7227 -0.0562
   28bbb     C4  822   6.779   5.644   7.680 -0.6339  0.8877 -0.8111
   28bbb     H7  823   6.798   5.551   7.626  1.9436  0.8407  0.0294
   28bbb     H8  824   6.849   5.650   7.764 -0.7787 -0.3043 -0.5908
   28bbb     C5  825   6.565   5.306   7.917  0.2144 -0.5009  0.8948
   28bbb     H9  826   6.465   5.344   7.942 -0.5694 -1.1276 -1.1105
   28bbb    H10  827   6.626   5.305   8.008 -0.1064 -1.3852  1.1120
   28bbb     C6  828   6.633   5.746   8.006  0.1119 -0.2092 -0.0726
   28bbb    H11  829   6.541   5.781   7.958  0.4952  2.2162  0.7985
   28bbb    H12  830   6.713   5.801   7.955  0.3275  0.8960  1.3952
   28bbb     C7  831   6.795   5.765   7.588  0.0622 -0.3903 -0.1030
   28bbb    H13  832   6.724   5.764   7.504 -1.0813  0.6506  0.8005
   28bbb    H14  833   6.897   5.755   7.550 -0.0873 -1.7987 -0.1988
   28bbb     C8  834   6.626   5.782   8.157 -0.0847 -0.2351 -0.3967
   28bbb    H15  835   6.550   5.728   8.215  0.3931 -0.5813 -0.0861
   28bbb    H16  836   6.595   5.886   8.171 -1.2693 -0.5284 -0.6813
   28bbb     C9  837   6.550   5.164   7.864  0.1640  0.2868 -0.2556
   28bbb    H17  838   6.452   5.146   7.819 -0.8160  0.0211  1.8847
   28bbb    H18  839   6.542   5.104   7.955 -0.8112 -1.0493 -1.1941
   28bbb     O1  840   6.804   5.896   7.658  0.0128  0.0477 -0.8274
   29bbb     N1  841   7.255   5.591   7.255 -0.0976  0.0737 -0.5638
   29bbb     C1  842   7.212   5.604   7.397 -0.4981 -0.3168  0.1363
   29bbb     H1  843   7.285   5.550   7.459 -2.0523 -1.7873  0.7644
   29bbb     H2  844   7.116   5.551   7.407 -0.0263 -0.8381  2.4514
   29bbb     C2  845   7.252   5.445   7.213  0.3336 -0.0728 -0.5098
   29bbb     H3  846   7.148   5.409   7.208 -0.7502  2.3914  1.9522
   29bbb     H4  847   7.307   5.384   7.286 -1.5779 -1.4755 -0.1484
   29bbb     C3  848   7.184   5.673   7.152 -0.0001  0.1140 -0.0123
   29bbb     H5  849   7.230   5.665   7.053  0.8067  1.8036  0.1993
   29bbb     H6  850   7.191   5.780   7.175  1.4427  0.0331  0.0016
   29bbb     C4  851   7.037   5.645   7.131 -0.2578  1.1906 -0.7227
   29bbb     H7  852   6.993   5.628   7.230  0.6729 -1.2703 -0.6694
   29bbb     H8  853   7.035   5.550   7.076  0.9356 -0.5883  2.0746
   29bbb     C5  854   7.197   5.755   7.446  0.1873 -0.1638 -0.2043
   29bbb     H9  855   7.146   5.734   7.541 -0.6524 -1.5949 -0.9381
   29bbb    H10  856   7.121   5.812   7.391  0.3570 -0.0799 -0.3570
   29bbb     C6  857   7.322   5.425   7.078 -0.2807  0.5825 -0.2167
   29bbb    H11  858   7.411   5.488   7.069 -0.9439  1.2338 -3.1847
   29bbb    H12  859   7.250   5.449   6.999 -3.1186  0.7665  2.2575
   29bbb     C7  860   6.955   5.744   7.045 -0.0462 -0.2096 -0.5157
   29bbb    H13  861   6.855   5.704   7.024  0.2818 -0.2564 -2.1304
   29bbb    H14  862   7.005   5.735   6.947 -0.7602 -0.9133 -0.8280
   29bbb     C8  863   7.374   5.285   7.059  0.2257 -0.4670 -0.3697
   29bbb    H15  864   7.285   5.222   7.047  0.4484 -0.5263 -1.9425
   29bbb    H16  865   7.436   5.259   7.145  0.7825 -0.4628 -0.7671
   29bbb     C9  866   7.325   5.845   7.445  0.5719  0.4579  0.2375
   29bbb    H17  867   7.362   5.842   7.342  3.2494 -1.1589  1.1464
   29bbb    H18  868   7.390   5.790   7.514 -1.1979 -0.6826  1.0882
   29bbb     O1  869   6.943   5.880   7.097 -0.1314  0.3600  0.4684
   30bbb     N1  870   7.054   8.565   9.653 -0.1645  0.3530  0.7596
   30bbb     C1  871   7.155   8.669   9.606 -0.6386  0.5323  0.6596
   30bbb     H1  872   7.223   8.633   9.527 -0.6325  0.3596  0.7449
   30bbb     H2  873   7.208   8.709   9.693 -0.1518 -1.1765  1.1930
   30bbb     C2  874   7.118   8.445   9.725  0.2536  0.1022  0.5927
   30bbb     H3  875   7.035   8.387   9.767 -2.2355  3.5817  0.9009
   30bbb     H4  876   7.178   8.483   9.809  3.1545 -1.9248 -0.3879
   30bbb     C3  877   6.951   8.626   9.743  0.5050 -0.3164 -0.1939
   30bbb     H5  878   6.871   8.553   9.759 -0.2768  0.0921 -1.9773
   30bbb     H6  879   6.900   8.714   9.702 -0.6868  0.5637  2.9451
   30bbb     C4  880   7.003   8.665   9.882 -0.0130 -0.0096 -0.5405
   30bbb     H7  881   7.105   8.705   9.880  0.5115 -1.2375  0.2369
   30bbb     H8  882   7.006   8.577   9.947  0.8044  0.4671  0.0856
   30bbb     C5  883   7.095   8.791   9.537  0.0437 -0.2688  0.6153
   30bbb     H9  884   7.017   8.841   9.595 -0.4040  0.8988 -0.9168
   30bbb    H10  885   7.045   8.765   9.443 -0.8469 -0.7482  1.2103
   30bbb     C6  886   7.191   8.348   9.623 -0.2147 -0.8312  0.6649
   30bbb    H11  887   7.252   8.412   9.558 -2.3689 -1.2551 -1.9291
   30bbb    H12  888   7.112   8.308   9.558  0.7722 -0.6938 -0.6581
   30bbb     C7  889   6.928   8.779   9.953  0.2779  1.2450  1.1757
   30bbb    H13  890   6.948   8.776  10.061 -0.7448 -0.5523  1.3560
   30bbb    H14  891   6.819   8.770   9.948  0.3938  0.3029 -0.2841
   30bbb     C8  892   7.249   8.223   9.685 -0.2881  0.2633 -0.5269
   30bbb    H15  893   7.259   8.146   9.608 -1.5877  0.0823 -0.5259
   30bbb    H16  894   7.179   8.164   9.745 -0.6112  1.2407  0.0864
   30bbb     C9  895   7.202   8.900   9.523 -0.0759  0.3237 -0.1358
   30bbb    H17  896   7.154   8.987   9.475 -0.9924 -0.2452 -0.2894
   30bbb    H18  897   7.277   8.869   9.450 -1.0484 -3.7483  0.3654
   30bbb     O1  898   6.961   8.911   9.907 -0.1234  0.2456  0.3221
   31bbb     N1  899   7.720   9.947   9.796  0.1806 -0.6694 -0.0977
   31bbb     C1  900   7.743   9.894   9.656 -0.3807  0.0484 -0.4653
   31bbb     H1  901   7.813   9.811   9.647 -0.7315 -0.4295  0.9649
   31bbb     H2  902   7.780   9.967   9.583 -0.2929 -0.2783 -0.7435
   31bbb     C2  903   7.838  10.002   9.870  0.3907 -0.4751  0.3216
   31bbb     H3  904   7.893  10.066   9.800  1.4655 -2.5929 -0.8840
   31bbb     H4  905   7.916   9.929   9.894  1.4124  0.0775 -1.1999
   31bbb     C3  906   7.645   9.861   9.892  0.7029  0.1508 -0.0126
   31bbb     H5  907   7.551   9.825   9.849  0.0913 -0.6067  1.8425
   31bbb     H6  908   7.603   9.918   9.975  0.4001 -0.7401  0.4579
   31bbb     C4  909   7.718   9.727   9.935 -0.1260  0.3551  0.1939
   31bbb     H7  910   7.805   9.753   9.996 -0.3477  1.2580  0.1392
   31bbb     H8  911   7.761   9.680   9.845 -0.6870  1.6119 -0.7649
   31bbb     C5  912   7.612   9.837   9.607  0.5000 -0.4223  1.2017
   31bbb     H9  913   7.523   9.897   9.625  0.2201 -0.3658 -0.2112
   31bbb    H10  914   7.598   9.734   9.643  2.1193 -0.5707  1.5047
   31bbb     C6  915   7.805  10.079  10.006  0.0911 -0.0204  0.0731
   31bbb    H11  916   7.893  10.130  10.046 -0.7746  0.7714  1.0355
   31bbb    H12  917   7.770  10.009  10.084  0.8898 -0.2438  0.2375
   31bbb     C7  918   7.624   9.641  10.026 -0.4283  0.1285 -0.0417
   31bbb    H13  919   7.594   9.710  10.106  1.4970  0.6434  0.2910
   31bbb    H14  920   7.662   9.547  10.068 -0.4394  0.0574 -0.1896
   31bbb     C8  921   7.693  10.184   9.987  0.3454 -0.8488 -0.0369
   31bbb    H15  922   7.610  10.141   9.929 -0.2251  1.1457 -0.7645
   31bbb    H16  923   7.736  10.260   9.921 -2.6294  1.2490  0.2716
   31bbb     C9  924   7.615   9.817   9.454 -0.3666 -0.1624  0.0421
   31bbb    H17  925   7.627   9.913   9.403 -0.6587 -0.6012 -0.8768
   31bbb    H18  926   7.514   9.784   9.428 -0.5117 -0.8101  1.3088
   31bbb     O1  927   7.502   9.605   9.958  0.6569 -0.2036 -0.1593
   32bbb     N1  928   7.365   9.970  10.249  0.2575  0.4806  0.3519
   32bbb     C1  929   7.310   9.828  10.238 -0.5668  0.0250  0.2493
   32bbb     H1  930   7.322   9.782  10.337  1.8451  0.6652  0.3040
   32bbb     H2  931   7.372   9.773  10.166  0.9842  1.1654  0.6804
   32bbb     C2  932   7.511   9.968  10.285 -0.3984  0.1786  0.2859
   32bbb     H3  933   7.529  10.072  10.315 -0.0604  0.6990 -1.6203
   32bbb     H4  934   7.573   9.948  10.197  0.0950  0.4641  0.5660
   32bbb     C3  935   7.344  10.046  10.124  0.7693  0.1989 -0.4354
   32bbb     H5  936   7.336   9.976  10.040  1.0047 -0.9958  0.5013
   32bbb     H6  937   7.431  10.106  10.094  0.1608  0.0342 -2.7177
   32bbb     C4  938   7.221  10.145  10.119  0.0595 -0.0335 -1.0210
   32bbb     H7  939   7.228  10.202  10.212 -0.3699  0.2875 -1.1801
   32bbb     H8  940   7.127  10.089  10.113  0.3868 -0.4302 -3.6273
   32bbb     C5  941   7.161   9.810  10.205 -0.3649 -0.5939 -0.6158
   32bbb     H9  942   7.134   9.704  10.201  0.1162 -0.7930  0.9872
   32bbb    H10  943   7.145   9.841  10.100  0.3398 -2.8143 -1.4351
   32bbb     C6  944   7.558   9.872  10.401 -0.1203  0.2008  0.0309
   32bbb    H11  945   7.551   9.766  10.373  1.6777  0.3016 -0.9366
   32bbb    H12  946   7.488   9.895  10.483  1.8317  0.8177  1.5890
   32bbb     C7  947   7.235  10.231   9.990  0.7320 -0.0541 -0.5838
   32bbb    H13  948   7.330  10.285   9.985  1.1904 -0.7578  0.2600
   32bbb    H14  949   7.157  10.309   9.990  0.5045 -0.2712  0.2255
   32bbb     C8  950   7.704   9.904  10.467  0.3009 -0.1804  0.2598
   32bbb    H15  951   7.782   9.921  10.392  0.2730 -0.3989  0.1803
   32bbb    H16  952   7.730   9.817  10.528  1.0205  1.5040  2.5073
   32bbb     C9  953   7.075   9.891  10.312 -0.6559  0.1564 -0.7171
   32bbb    H17  954   7.107   9.995  10.325 -0.3254 -0.1090  0.8284
   32bbb    H18  955   7.107   9.852  10.409  0.9381 -0.0505 -1.2932
   32bbb     O1  956   7.222  10.152   9.874  0.1211 -0.0414 -0.3078
   33bbb     N1  957   6.927   9.202   9.138 -0.2134 -0.0488 -0.0772
   33bbb     C1  958   6.829   9.096   9.091 -0.3512 -0.1096  0.0498
   33bbb     H1  959   6.775   9.052   9.176 -1.4441  0.8775 -0.1133
   33bbb     H2  960   6.894   9.019   9.047  0.6390  0.3969  0.5797
   33bbb     C2  961   6.984   9.290   9.027  0.9529  0.1996  0.0769
   33bbb     H3  962   7.039   9.368   9.080 -1.8406  1.6375  1.0751
   33bbb     H4  963   6.900   9.344   8.981  0.4839  1.1662  1.9599
   33bbb     C3  964   7.023   9.147   9.241  0.0580 -0.1941  0.4755
   33bbb     H5  965   7.091   9.069   9.206  1.6203  0.1297  2.6315
   33bbb     H6  966   6.962   9.104   9.321  0.6713  2.3965  2.4920
   33bbb     C4  967   7.105   9.261   9.307 -0.0470  0.6740 -0.0788
   33bbb     H7  968   7.163   9.308   9.226  0.0398  1.4124  0.4095
   33bbb     H8  969   7.175   9.217   9.378 -0.6934  0.4608  0.4327
   33bbb     C5  970   6.714   9.136   8.993 -0.2363 -0.4243  0.5381
   33bbb     H9  971   6.765   9.169   8.902 -0.1760  2.5301  1.5300
   33bbb    H10  972   6.654   9.223   9.023 -0.4987 -0.0856 -0.9137
   33bbb     C6  973   7.072   9.208   8.920  0.4776  0.2280  0.2398
   33bbb    H11  974   7.022   9.112   8.903 -1.8019  1.1492  1.4185
   33bbb    H12  975   7.167   9.179   8.967 -0.2079  0.4136  1.8031
   33bbb     C7  976   7.008   9.365   9.382 -0.0440  0.9290  0.5771
   33bbb    H13  977   6.955   9.325   9.469  0.1117 -0.4223  0.0875
   33bbb    H14  978   6.929   9.388   9.309  2.3035  0.5947 -2.2610
   33bbb     C8  979   7.091   9.302   8.794  0.4541 -0.1019 -0.2979
   33bbb    H15  980   7.193   9.284   8.758  0.2896 -1.7825  0.0189
   33bbb    H16  981   7.084   9.407   8.824  1.0493  0.1171 -0.8881
   33bbb     C9  982   6.622   9.016   8.957  0.3014 -0.1138 -0.1920
   33bbb    H17  983   6.559   9.049   8.874  2.7083  0.9184 -1.7376
   33bbb    H18  984   6.568   8.995   9.050  0.1004 -1.0007 -0.5033
   33bbb     O1  985   7.078   9.484   9.414  0.2293 -0.2492  0.5414
   34bbb     N1  986   6.706   7.977   9.808  0.6394 -0.3636 -0.4310
   34bbb     C1  987   6.842   7.989   9.746  0.0484  0.1114 -0.0389
   34bbb     H1  988   6.911   7.910   9.778  0.3320 -0.0666 -1.0468
   34bbb     H2  989   6.897   8.077   9.781  0.5172 -0.8112  1.6515
   34bbb     C2  990   6.685   8.044   9.944 -0.2491  0.1416 -0.4899
   34bbb     H3  991   6.579   8.063   9.967  0.1358  0.1549  1.4295
   34bbb     H4  992   6.721   8.147   9.942 -1.5252  0.5960 -1.3773
   34bbb     C3  993   6.617   7.860   9.780 -0.1959  0.2764 -1.1673
   34bbb     H5  994   6.634   7.781   9.853 -2.2958 -0.1860 -1.1116
   34bbb     H6  995   6.641   7.813   9.683  0.6558 -0.1830 -0.7368
   34bbb     C4  996   6.468   7.882   9.806  0.8042 -0.2094  0.1966
   34bbb     H7  997   6.423   7.955   9.738 -1.5573 -2.4725 -0.8308
   34bbb     H8  998   6.452   7.911   9.911  3.7334  0.3365  0.6076
   34bbb     C5  999   6.844   7.963   9.593  0.0064  0.2572  0.5562
   34bbb     H9 1000   6.754   8.009   9.548  0.2633 -0.5316 -0.8140
   34bbb    H10 1001   6.826   7.858   9.570 -1.7588  0.4165  1.0034
   34bbb     C6 1002   6.759   7.966  10.061  0.0482  0.4839  0.2519
   34bbb    H11 1003   6.863   7.952  10.030 -0.3509  0.6848 -1.3071
   34bbb    H12 1004   6.717   7.867  10.078  3.3550 -0.7030  2.3325
   34bbb     C7 1005   6.395   7.748   9.787  0.4075 -0.0447  0.0621
   34bbb    H13 1006   6.426   7.664   9.850 -0.6873 -1.3158 -1.0292
   34bbb    H14 1007   6.414   7.717   9.683 -2.1468  1.3393 -0.9215
   34bbb     C8 1008   6.764   8.039  10.197 -0.4597 -0.0482 -0.0473
   34bbb    H15 1009   6.817   7.974  10.268 -1.5462 -0.5543  0.3238
   34bbb    H16 1010   6.663   8.047  10.240 -0.4738 -1.4854  0.2304
   34bbb     C9 1011   6.971   8.021   9.527  0.8602  0.0012  0.3170
   34bbb    H17 1012   7.054   7.959   9.562  1.3602  0.7189  0.4006
   34bbb    H18 1013   6.996   8.123   9.556  3.0078 -1.3609  3.7906
   34bbb     O1 1014   6.257   7.769   9.805  0.1989 -0.2010 -0.3493
   35bbb     N1 1015   6.064   7.231   9.955  0.1388  0.0851 -0.0032
   35bbb     C1 1016   6.160   7.244  10.070 -0.5513  0.1510 -0.5373
   35bbb     H1 1017   6.245   7.184  10.034 -0.9910  0.1571 -1.6247
   35bbb     H2 1018   6.107   7.204  10.158  0.6971  0.6217  0.4494
   35bbb     C2 1019   6.041   7.095   9.905 -0.2965 -0.1713 -0.3069
   35bbb     H3 1020   5.958   7.101   9.834 -0.4688  0.5062 -0.0560
   35bbb     H4 1021   6.020   7.026   9.987 -0.1744 -0.9806 -0.9336
   35bbb     C3 1022   5.938   7.307   9.973  0.0721 -0.0541  0.3813
   35bbb     H5 1023   5.872   7.287   9.887  2.0226  0.4376 -1.3077
   35bbb     H6 1024   5.949   7.414   9.957 -1.2987 -0.1420 -1.4460
   35bbb     C4 1025   5.857   7.273  10.106  1.0116 -0.6288 -0.4022
   35bbb     H7 1026   5.893   7.331  10.191  0.1430 -0.4715 -0.1234
   35bbb     H8 1027   5.852   7.168  10.140 -1.8474 -0.6216 -0.5202
   35bbb     C5 1028   6.212   7.383  10.111  0.2490  0.2403 -0.1905
   35bbb     H9 1029   6.124   7.448  10.101  0.9571  1.5941  1.8320
   35bbb    H10 1030   6.290   7.417  10.041  0.3098  1.9929  0.6658
   35bbb     C6 1031   6.155   7.035   9.829 -0.0900 -0.4184  0.6764
   35bbb    H11 1032   6.239   7.023   9.899  2.5441 -0.0602 -2.1820
   35bbb    H12 1033   6.195   7.093   9.745  1.1184 -1.8710  0.2022
   35bbb     C7 1034   5.705   7.308  10.089 -0.3053  0.4096 -0.9649
   35bbb    H13 1035   5.639   7.290  10.175  1.1203  0.6883  0.2278
   35bbb    H14 1036   5.664   7.251  10.005 -2.7838 -0.8311  0.9621
   35bbb     C8 1037   6.130   6.890   9.771  0.6788  0.1710  0.5404
   35bbb    H15 1038   6.062   6.836   9.837 -0.2701 -0.6421 -1.0396
   35bbb    H16 1039   6.222   6.832   9.755  0.0154 -0.7057 -0.1866
   35bbb     C9 1040   6.266   7.385  10.256  0.2804 -0.5515  0.0992
   35bbb    H17 1041   6.185   7.409  10.326  0.6891 -0.2726  0.4892
   35bbb    H18 1042   6.348   7.459  10.261  1.1421 -1.4920  0.2486
   35bbb     O1 1043   5.679   7.443  10.054 -0.2784  0.8596  0.5225
   36bbb     N1 1044   5.059   7.906  10.457 -0.0583 -0.0010 -0.1060
   36bbb     C1 1045   4.966   7.954  10.353  0.9762 -0.5549 -0.2901
   36bbb     H1 1046   4.967   7.891  10.264 -1.4575 -0.0438 -0.7445
   36bbb     H2 1047   5.016   8.046  10.321  2.4127 -0.5102  1.8668
   36bbb     C2 1048   5.051   7.956  10.599  0.2708 -0.7770  0.4695
   36bbb     H3 1049   4.945   7.967  10.627  0.1785  0.2347 -0.2272
   36bbb     H4 1050   5.095   8.056  10.610  0.9037 -0.7462 -1.9068
   36bbb     C3 1051   5.197   7.883  10.399  0.3928 -0.0485  0.0217
   36bbb     H5 1052   5.192   7.833  10.301  0.9560 -1.1208  0.5299
   36bbb     H6 1053   5.249   7.802  10.451  0.0446  0.2272  0.8137
   36bbb     C4 1054   5.288   8.007  10.391 -0.1613 -0.0557  0.3726
   36bbb     H7 1055   5.306   8.059  10.486  0.9182 -2.6772  1.6878
   36bbb     H8 1056   5.259   8.075  10.310  0.0199  0.0772  0.4184
   36bbb     C5 1057   4.835   8.004  10.406  0.0696  0.7141 -0.0284
   36bbb     H9 1058   4.776   8.053  10.328 -0.4151 -0.1135 -0.1990
   36bbb    H10 1059   4.863   8.083  10.476  0.2462  1.6306 -1.1057
   36bbb     C6 1060   5.113   7.860  10.704  0.2191 -0.0614 -0.0530
   36bbb    H11 1061   5.221   7.857  10.686  0.5247  1.2990  1.3441
   36bbb    H12 1062   5.079   7.756  10.692 -0.0665  0.0717 -0.4106
   36bbb     C7 1063   5.429   7.954  10.355  0.2816 -0.1818  0.5751
   36bbb    H13 1064   5.424   7.880  10.274  1.0826  1.9676 -1.5264
   36bbb    H14 1065   5.471   7.911  10.448  0.8326  1.6098  1.2056
   36bbb     C8 1066   5.083   7.891  10.848  0.5887 -0.6652  0.2252
   36bbb    H15 1067   5.158   7.966  10.875  1.3749 -0.7938 -1.4526
   36bbb    H16 1068   5.105   7.808  10.916 -1.6464 -2.7002 -1.3802
   36bbb     C9 1069   4.731   7.898  10.470 -0.6270  0.1236 -0.2065
   36bbb    H17 1070   4.771   7.858  10.564 -0.8399  2.0418  0.7730
   36bbb    H18 1071   4.715   7.823  10.392  0.9504 -0.4992  0.0295
   36bbb     O1 1072   5.510   8.066  10.304  0.3479  0.2895  0.7310
   37bbb     N1 1073   6.463   7.626  10.903 -0.1276  0.3997 -0.0299
   37bbb     C1 1074   6.480   7.496  10.969 -0.4899  0.4789 -0.3766
   37bbb     H1 1075   6.397   7.428  10.948 -0.0283 -0.9292  1.9958
   37bbb     H2 1076   6.470   7.512  11.077 -0.5608  1.4436 -0.5170
   37bbb     C2 1077   6.551   7.741  10.943 -0.8834 -0.3229  0.4589
   37bbb     H3 1078   6.515   7.837  10.902  2.7797  1.4290  0.9678
   37bbb     H4 1079   6.656   7.729  10.912 -0.5944 -0.5954  1.5165
   37bbb     C3 1080   6.460   7.618  10.755 -0.1696 -0.3674  0.0890
   37bbb     H5 1081   6.551   7.583  10.705 -1.3350  0.0526 -2.4885
   37bbb     H6 1082   6.427   7.705  10.698  0.1822 -0.3477 -0.0898
   37bbb     C4 1083   6.347   7.527  10.710  0.2211 -0.0536  0.1020
   37bbb     H7 1084   6.261   7.554  10.773  0.9675  0.0167  1.1053
   37bbb     H8 1085   6.360   7.419  10.715  2.0248  0.1876  1.1723
   37bbb     C5 1086   6.617   7.430  10.945 -0.3477  0.2253  0.1859
   37bbb     H9 1087   6.694   7.487  11.000  0.8155 -1.2505  0.1602
   37bbb    H10 1088   6.639   7.432  10.838  1.3136 -1.3803  0.4475
   37bbb     C6 1089   6.580   7.765  11.101  0.7045 -0.1990 -0.1969
   37bbb    H11 1090   6.649   7.849  11.107 -1.5908  1.7709  0.3968
   37bbb    H12 1091   6.634   7.678  11.139  0.5191  0.3915  1.4872
   37bbb     C7 1092   6.289   7.552  10.567 -0.3116  0.3055 -0.0010
   37bbb    H13 1093   6.249   7.456  10.532 -1.9426  0.5216  1.1626
   37bbb    H14 1094   6.358   7.593  10.492 -2.6430  0.9555 -1.8997
   37bbb     C8 1095   6.447   7.794  11.178  0.6170  0.6110 -0.7528
   37bbb    H15 1096   6.373   7.714  11.173  0.2095  0.9499 -0.1692
   37bbb    H16 1097   6.402   7.882  11.130 -0.7521 -1.0261 -2.6677
   37bbb     C9 1098   6.627   7.277  10.980 -0.0011 -0.3354  0.6006
   37bbb    H17 1099   6.731   7.243  10.968  0.3247  1.0306 -0.8600
   37bbb    H18 1100   6.551   7.226  10.919 -0.8313  1.5495 -0.0145
   37bbb     O1 1101   6.178   7.640  10.584  0.0403  0.0588 -0.0408
   38bbb     N1 1102   5.307   8.004   9.731 -0.0807 -0.2248 -0.1868
   38bbb     C1 1103   5.304   8.071   9.863 -1.1706  0.4294 -0.2748
   38bbb     H1 1104   5.213   8.130   9.873 -0.2058  1.7404  1.0822
   38bbb     H2 1105   5.383   8.147   9.857 -0.7695 -0.0542 -1.4819
   38bbb     C2 1106   5.274   8.093   9.615  0.2803  0.5947  0.0687
   38bbb     H3 1107   5.243   8.031   9.529 -0.4356  2.5361 -1.1284
   38bbb     H4 1108   5.361   8.151   9.583 -0.5777  1.4413 -0.8032
   38bbb     C3 1109   5.415   7.912   9.702 -0.3371  0.5265 -0.1808
   38bbb     H5 1110   5.401   7.858   9.607  2.0353 -0.5033  0.0024
   38bbb     H6 1111   5.419   7.831   9.775 -1.0301 -1.5853 -2.3613
   38bbb     C4 1112   5.554   7.970   9.702  0.0861 -0.3397 -0.9743
   38bbb     H7 1113   5.589   8.008   9.799 -0.0049 -0.9617 -0.6862
   38bbb     H8 1114   5.556   8.058   9.638 -0.3733  0.0577 -0.4601
   38bbb     C5 1115   5.331   7.970   9.982  0.3933 -0.3641 -0.0496
   38bbb     H9 1116   5.344   8.026  10.075 -0.9000 -0.1978  0.0475
   38bbb    H10 1117   5.417   7.902   9.976  0.9870  0.1937  1.6037
   38bbb     C6 1118   5.171   8.200   9.632 -0.2101 -0.4157  0.7815
   38bbb    H11 1119   5.211   8.267   9.709 -2.0605  2.0434 -0.2375
   38bbb    H12 1120   5.079   8.152   9.669 -0.0227 -1.6905 -0.3299
   38bbb     C7 1121   5.660   7.864   9.662 -0.2371 -0.1744 -0.2061
   38bbb    H13 1122   5.650   7.765   9.709  0.9716  0.1695  0.8282
   38bbb    H14 1123   5.761   7.902   9.680 -0.0686 -0.5941 -0.2457
   38bbb     C8 1124   5.147   8.289   9.502  0.0221 -0.1606 -0.3183
   38bbb    H15 1125   5.058   8.348   9.526 -0.7367 -1.4994  0.2672
   38bbb    H16 1126   5.112   8.232   9.414 -0.7304  0.9365 -0.7435
   38bbb     C9 1127   5.202   7.882   9.995 -0.8626  0.3538  0.2103
   38bbb    H17 1128   5.158   7.873   9.895 -0.6638 -0.6306  0.2037
   38bbb    H18 1129   5.130   7.928  10.063 -1.3819 -1.4776  0.9465
   38bbb     O1 1130   5.654   7.836   9.518 -0.1727  0.0590  0.4349
   39bbb     N1 1131   5.151   7.605   9.559  0.1405 -0.3187 -0.1114
   39bbb     C1 1132   5.086   7.706   9.654  0.2529 -0.3777  0.6744
   39bbb     H1 1133   5.148   7.796   9.651 -1.0220  0.5324  0.7107
   39bbb     H2 1134   5.081   7.668   9.757  1.7914 -2.5425  0.0411
   39bbb     C2 1135   5.071   7.489   9.513  0.1500  0.4236 -0.2794
   39bbb     H3 1136   4.982   7.530   9.465  0.2735 -0.7136 -1.5414
   39bbb     H4 1137   5.039   7.429   9.599  0.3259 -2.3272 -2.0175
   39bbb     C3 1138   5.293   7.572   9.600  0.3731 -0.7189 -0.4252
   39bbb     H5 1139   5.341   7.670   9.615 -0.1277 -0.8903  3.1555
   39bbb     H6 1140   5.355   7.524   9.523  0.6022 -4.2552  1.7426
   39bbb     C4 1141   5.304   7.496   9.735  0.5139  0.2706  0.0321
   39bbb     H7 1142   5.244   7.404   9.740  1.2396 -0.1632  1.2485
   39bbb     H8 1143   5.276   7.560   9.820 -0.5082 -2.4047  1.8766
   39bbb     C5 1144   4.946   7.746   9.600  0.1373  0.3822  0.1495
   39bbb     H9 1145   4.863   7.674   9.612 -0.3349  0.7351 -0.8584
   39bbb    H10 1146   4.951   7.745   9.490 -1.5260 -1.6845  0.0120
   39bbb     C6 1147   5.131   7.387   9.412  0.2492  0.2326 -0.3519
   39bbb    H11 1148   5.220   7.346   9.460 -0.1898 -1.0365 -0.5781
   39bbb    H12 1149   5.163   7.430   9.316  0.8983 -0.1375 -0.3029
   39bbb     C7 1150   5.448   7.451   9.762 -0.1507 -0.4776  0.0538
   39bbb    H13 1151   5.455   7.424   9.868 -0.0746 -0.9320 -0.0627
   39bbb    H14 1152   5.517   7.533   9.738  0.7891 -1.6344 -1.3706
   39bbb     C8 1153   5.017   7.286   9.377  0.1542 -0.3805 -0.5416
   39bbb    H15 1154   5.023   7.266   9.270 -2.5241 -0.5900 -0.7107
   39bbb    H16 1155   4.920   7.335   9.370  0.6488  0.6133 -0.7139
   39bbb     C9 1156   4.889   7.881   9.655  0.5824  0.6712 -0.5174
   39bbb    H17 1157   4.781   7.882   9.636 -0.2133 -1.9826  2.7174
   39bbb    H18 1158   4.941   7.962   9.604  2.4825  0.1450  0.5044
   39bbb     O1 1159   5.484   7.337   9.686  0.5134 -0.3342 -0.2467
   40bbb     N1 1160   6.372   8.429  11.059 -0.2014 -0.5477 -0.4888
   40bbb     C1 1161   6.452   8.545  11.110 -0.7292  0.5555 -0.2650
   40bbb     H1 1162   6.485   8.613  11.032 -0.6633  2.3741  1.2674
   40bbb     H2 1163   6.546   8.492  11.129  0.4610  1.3628 -3.3668
   40bbb     C2 1164   6.227   8.454  11.033  0.1869 -0.6355 -0.7004
   40bbb     H3 1165   6.183   8.484  11.129  0.2982  0.5849 -1.0219
   40bbb     H4 1166   6.181   8.361  10.997  0.3819 -0.3319 -1.7494
   40bbb     C3 1167   6.438   8.386  10.939 -0.1928  0.1177 -0.1764
   40bbb     H5 1168   6.537   8.355  10.974  0.1164  0.9763 -0.2575
   40bbb     H6 1169   6.455   8.465  10.864 -0.1542  0.3035  0.0272
   40bbb     C4 1170   6.369   8.257  10.880 -0.1543  0.3506 -0.1524
   40bbb     H7 1171   6.276   8.266  10.822 -1.5483 -2.6141  1.3682
   40bbb     H8 1172   6.325   8.192  10.957 -4.0488  0.0645 -2.3580
   40bbb     C5 1173   6.396   8.625  11.226  0.1029  0.3813  0.0583
   40bbb     H9 1174   6.321   8.566  11.279  0.5180  1.1864  1.5943
   40bbb    H10 1175   6.331   8.697  11.175 -0.1653 -1.0171 -1.6642
   40bbb     C6 1176   6.204   8.568  10.930  0.7587 -0.2014 -0.5340
   40bbb    H11 1177   6.236   8.541  10.829 -1.9555  1.3649 -1.9292
   40bbb    H12 1178   6.249   8.659  10.971 -1.9496 -0.2383  3.0444
   40bbb     C7 1179   6.471   8.180  10.789  0.4152  0.0851 -0.6771
   40bbb    H13 1180   6.432   8.080  10.771 -0.3063  0.3979 -0.8770
   40bbb    H14 1181   6.572   8.179  10.833 -0.8462 -0.2117  2.4603
   40bbb     C8 1182   6.054   8.600  10.904 -0.4998 -0.1625  0.2560
   40bbb    H15 1183   6.004   8.631  10.997 -1.1147 -1.0564  0.2431
   40bbb    H16 1184   5.993   8.515  10.870  0.6576 -0.4429 -1.1931
   40bbb     C9 1185   6.500   8.696  11.318 -0.3226  0.0944  0.4283
   40bbb    H17 1186   6.559   8.760  11.250  0.6317 -2.3296 -1.1518
   40bbb    H18 1187   6.567   8.617  11.353 -1.3421 -0.3353  1.4530
   40bbb     O1 1188   6.459   8.249  10.665  0.1672 -0.4261 -0.0409
   41bbb     N1 1189   6.599   8.734  10.325 -0.2716  0.6397 -0.3170
   41bbb     C1 1190   6.609   8.696  10.472  0.2080 -0.7175  0.4988
   41bbb     H1 1191   6.671   8.767  10.529  0.3530  0.0904 -0.6347
   41bbb     H2 1192   6.663   8.601  10.485  0.6737 -0.6695 -0.9209
   41bbb     C2 1193   6.553   8.870  10.324  0.1416 -1.0871 -0.0629
   41bbb     H3 1194   6.620   8.932  10.385 -0.7428  0.2511 -0.4082
   41bbb     H4 1195   6.452   8.878  10.366 -0.1323 -0.6236 -0.7928
   41bbb     C3 1196   6.540   8.629  10.234 -0.3573  0.0462  0.2131
   41bbb     H5 1197   6.431   8.628  10.243 -0.1985 -0.9969  4.8446
   41bbb     H6 1198   6.576   8.531  10.266  0.2593  0.3987  0.6203
   41bbb     C4 1199   6.583   8.646  10.085  0.4454  0.2064  0.3299
   41bbb     H7 1200   6.689   8.674  10.082  0.6624 -0.5646  0.5931
   41bbb     H8 1201   6.522   8.728  10.044 -0.3608  0.2867  1.6261
   41bbb     C5 1202   6.474   8.683  10.546 -0.0308  0.3342 -0.0987
   41bbb     H9 1203   6.476   8.591  10.606 -0.4836  0.0741 -0.4681
   41bbb    H10 1204   6.392   8.663  10.476 -0.0033  0.3745 -0.1421
   41bbb     C6 1205   6.553   8.943  10.192 -0.3251  0.1399 -0.9153
   41bbb    H11 1206   6.470   8.910  10.128  1.3558 -2.4874 -1.9432
   41bbb    H12 1207   6.648   8.917  10.143 -0.3307  0.5251 -1.1324
   41bbb     C7 1208   6.575   8.512  10.012 -1.0925  0.2171  0.5031
   41bbb    H13 1209   6.650   8.447  10.059 -1.0556 -0.2693 -0.2147
   41bbb    H14 1210   6.599   8.527   9.906 -0.5648 -1.5800  0.3344
   41bbb     C8 1211   6.552   9.096  10.209  0.0065 -0.6003 -0.4991
   41bbb    H15 1212   6.641   9.134  10.260 -0.0177 -1.7079  0.3956
   41bbb    H16 1213   6.459   9.117  10.262  0.5135 -0.8552  0.5188
   41bbb     C9 1214   6.432   8.794  10.654 -0.5385  0.1642 -0.0094
   41bbb    H17 1215   6.325   8.784  10.676 -0.0448 -1.3846  1.9861
   41bbb    H18 1216   6.434   8.888  10.596  0.0511  0.2868  0.2019
   41bbb     O1 1217   6.448   8.454  10.042 -0.1316 -0.5486 -0.4936
   42bbb     N1 1218   6.599   6.336   8.171 -0.7256 -0.3563  0.2047
   42bbb     C1 1219   6.451   6.364   8.158 -0.2492  0.0993 -0.3359
   42bbb     H1 1220   6.420   6.469   8.158 -2.1023 -0.4169 -1.1124
   42bbb     H2 1221   6.399   6.315   8.241 -0.7908 -2.3227 -2.0063
   42bbb     C2 1222   6.678   6.415   8.276 -0.2632 -0.5456  0.0654
   42bbb     H3 1223   6.781   6.387   8.254 -0.2709 -0.6233  0.1305
   42bbb     H4 1224   6.662   6.384   8.380 -0.7500 -0.2505  0.0846
   42bbb     C3 1225   6.630   6.199   8.182  0.5101  0.5943  0.1791
   42bbb     H5 1226   6.565   6.131   8.125  0.4295  0.0007  0.9603
   42bbb     H6 1227   6.616   6.177   8.289  1.2387  2.1925  0.6392
   42bbb     C4 1228   6.779   6.156   8.151 -0.4407 -0.2387 -0.3473
   42bbb     H7 1229   6.791   6.048   8.164  0.2149 -0.1333 -0.0379
   42bbb     H8 1230   6.843   6.204   8.226 -1.0247 -1.2711  0.8491
   42bbb     C5 1231   6.392   6.306   8.029 -0.2146  0.5409 -0.3355
   42bbb     H9 1232   6.379   6.198   8.045 -0.0217  0.6117  0.2971
   42bbb    H10 1233   6.466   6.295   7.948 -0.1658  1.6637 -0.4541
   42bbb     C6 1234   6.669   6.571   8.278 -0.1430  0.8005  0.2369
   42bbb    H11 1235   6.569   6.607   8.305 -0.3527  0.3308  0.0985
   42bbb    H12 1236   6.693   6.605   8.177  2.1946  0.5904  0.6668
   42bbb     C7 1237   6.823   6.200   8.005  0.7317  0.1549  0.2983
   42bbb    H13 1238   6.779   6.297   7.980  1.2744  0.6184  1.0943
   42bbb    H14 1239   6.801   6.127   7.927  1.7286 -0.3665  0.4799
   42bbb     C8 1240   6.781   6.627   8.378 -0.2079  0.1918 -0.7475
   42bbb    H15 1241   6.881   6.600   8.342 -0.1506  0.9261 -1.1693
   42bbb    H16 1242   6.761   6.573   8.471  3.0797  0.3031  0.1265
   42bbb     C9 1243   6.255   6.373   7.984 -0.3623  0.0498  0.3799
   42bbb    H17 1244   6.186   6.368   8.069 -1.5596  0.9149 -0.5235
   42bbb    H18 1245   6.210   6.310   7.906  3.5483  0.7615 -2.7474
   42bbb     O1 1246   6.966   6.215   8.009  0.6127  0.6722  0.5238
   43bbb     N1 1247   7.629   7.084   7.427  0.5258  0.1038  0.1677
   43bbb     C1 1248   7.768   7.047   7.371  0.6317 -0.2982 -1.1186
   43bbb     H1 1249   7.748   7.010   7.269 -2.3334 -0.6538 -0.4991
   43bbb     H2 1250   7.806   6.955   7.416  0.0168 -1.3298 -2.6042
   43bbb     C2 1251   7.539   7.171   7.344 -0.0936  0.4300 -0.0028
   43bbb     H3 1252   7.579   7.273   7.348  1.0267 -0.0056  0.4595
   43bbb     H4 1253   7.437   7.176   7.382  0.3556  2.9446  1.0223
   43bbb     C3 1254   7.631   7.120   7.574 -0.6569 -0.1633 -0.0907
   43bbb     H5 1255   7.706   7.198   7.587  1.9392 -2.3856 -0.6365
   43bbb     H6 1256   7.662   7.028   7.625 -0.7238 -0.4804 -0.6077
   43bbb     C4 1257   7.497   7.170   7.629  0.6712 -1.0052  0.7120
   43bbb     H7 1258   7.462   7.261   7.578  0.7014 -0.6477  1.3112
   43bbb     H8 1259   7.511   7.204   7.733  0.3045 -1.1588  0.8092
   43bbb     C5 1260   7.874   7.166   7.360 -0.4184  0.1685 -0.0498
   43bbb     H9 1261   7.960   7.121   7.309  2.1531  3.8729  0.5987
   43bbb    H10 1262   7.908   7.202   7.458  0.6181 -1.3613  0.1762
   43bbb     C6 1263   7.538   7.129   7.198  0.6938 -0.8633  0.2258
   43bbb    H11 1264   7.639   7.131   7.156  1.0569  1.4763  1.0463
   43bbb    H12 1265   7.478   7.201   7.142  0.3181 -2.6555 -1.8092
   43bbb     C7 1266   7.389   7.064   7.620 -0.1779 -0.8490 -0.4858
   43bbb    H13 1267   7.422   6.983   7.553 -0.2187 -0.9452 -0.3900
   43bbb    H14 1268   7.296   7.115   7.594 -0.7741 -1.7597 -0.2153
   43bbb     C8 1269   7.483   6.992   7.171 -0.5852  0.3958 -0.3633
   43bbb    H15 1270   7.374   7.003   7.178 -0.4517  1.8160 -0.0562
   43bbb    H16 1271   7.514   6.929   7.255 -0.1584 -0.3892 -1.1018
   43bbb     C9 1272   7.839   7.288   7.269  0.0419 -1.0321 -0.7089
   43bbb    H17 1273   7.759   7.343   7.319  2.1263  0.6398  1.0328
   43bbb    H18 1274   7.813   7.255   7.168  0.9358 -0.8526 -1.0146
   43bbb     O1 1275   7.376   7.001   7.747 -0.2999 -0.1198  0.0627
   44bbb     N1 1276   7.389   7.027   9.462 -0.3080 -0.1130  1.0190
   44bbb     C1 1277   7.462   6.995   9.334 -0.0436 -0.5876 -0.5689
   44bbb     H1 1278   7.403   6.924   9.275  1.0536 -1.0417 -1.1496
   44bbb     H2 1279   7.557   6.943   9.348 -0.0003 -0.1375  1.0375
   44bbb     C2 1280   7.486   7.085   9.563  0.5673  0.2446  0.6305
   44bbb     H3 1281   7.436   7.087   9.661 -0.2413 -3.0649  0.3823
   44bbb     H4 1282   7.510   7.190   9.540  2.5074 -0.7701 -2.5844
   44bbb     C3 1283   7.263   7.102   9.434  0.4125 -0.7872  0.1812
   44bbb     H5 1284   7.191   7.046   9.374 -1.1274 -0.5482  1.7294
   44bbb     H6 1285   7.278   7.196   9.380 -1.7854 -0.4620  0.0598
   44bbb     C4 1286   7.185   7.151   9.553 -0.2184 -0.7349 -1.2882
   44bbb     H7 1287   7.249   7.210   9.620 -0.9722 -2.2705  0.8994
   44bbb     H8 1288   7.146   7.067   9.611 -1.0844  0.2610 -0.3953
   44bbb     C5 1289   7.493   7.111   9.237  0.0529 -0.3751 -0.0832
   44bbb     H9 1290   7.542   7.192   9.293  0.4609 -0.4397 -0.3469
   44bbb    H10 1291   7.402   7.155   9.195 -0.3613 -2.1233 -1.0778
   44bbb     C6 1292   7.616   7.015   9.591 -0.4106  0.8164 -0.2794
   44bbb    H11 1293   7.642   7.059   9.688 -1.7918 -0.3856  0.6920
   44bbb    H12 1294   7.696   7.038   9.520  0.0399 -0.6770 -0.2865
   44bbb     C7 1295   7.060   7.242   9.525 -1.0297  0.2888  0.2413
   44bbb    H13 1296   7.079   7.316   9.447 -1.0597 -1.1875 -1.2355
   44bbb    H14 1297   7.039   7.296   9.618 -0.6693 -0.7048  0.9279
   44bbb     C8 1298   7.609   6.859   9.598  0.5545 -0.2447 -0.2228
   44bbb    H15 1299   7.600   6.809   9.500 -1.3782  0.3720 -0.4015
   44bbb    H16 1300   7.514   6.840   9.650  1.4511  0.5362  1.7704
   44bbb     C9 1301   7.583   7.075   9.118 -0.4039  0.6787  0.0243
   44bbb    H17 1302   7.593   7.162   9.053 -2.2987  1.6103  0.8766
   44bbb    H18 1303   7.559   6.975   9.079  2.0796 -0.7597  1.9020
   44bbb     O1 1304   6.960   7.161   9.489  0.4831  0.3893  1.2044
   45bbb     N1 1305   5.734   7.149   9.051 -1.0153  0.1043  0.3366
   45bbb     C1 1306   5.591   7.108   9.057  0.5275  0.1372 -0.1010
   45bbb     H1 1307   5.584   6.998   9.063 -0.1990 -0.0596 -2.8810
   45bbb     H2 1308   5.550   7.140   8.960  1.2896 -1.7258 -1.1010
   45bbb     C2 1309   5.763   7.294   9.053 -0.0089 -0.2015 -0.1492
   45bbb     H3 1310   5.871   7.312   9.057  0.1246 -0.5378 -1.6056
   45bbb     H4 1311   5.713   7.347   9.135  1.5008 -0.0118  0.6720
   45bbb     C3 1312   5.812   7.082   9.154  0.3742 -0.1581 -0.3094
   45bbb     H5 1313   5.779   6.978   9.162 -1.0144  0.3459  0.9452
   45bbb     H6 1314   5.777   7.123   9.249 -3.0233 -0.5005 -1.2590
   45bbb     C4 1315   5.966   7.082   9.147  0.1485 -0.4709 -0.4085
   45bbb     H7 1316   6.013   7.181   9.147 -0.7087 -0.0519 -0.8428
   45bbb     H8 1317   6.001   7.043   9.050  0.0617 -0.2426 -0.5333
   45bbb     C5 1318   5.513   7.163   9.176  0.0593 -0.5592  0.5005
   45bbb     H9 1319   5.514   7.273   9.183  1.1431 -0.4665 -0.7464
   45bbb    H10 1320   5.564   7.135   9.269  1.4295  0.0051 -0.0637
   45bbb     C6 1321   5.706   7.371   8.924 -0.4634  0.1078  0.0118
   45bbb    H11 1322   5.748   7.472   8.926  3.5387 -1.3305 -0.9801
   45bbb    H12 1323   5.598   7.364   8.941 -0.7698 -2.8193 -2.1951
   45bbb     C7 1324   6.029   6.998   9.257  0.2998 -0.2128 -0.8699
   45bbb    H13 1325   5.977   6.902   9.267 -0.8800  0.3729 -1.1796
   45bbb    H14 1326   5.999   7.032   9.357  1.0101 -0.0746 -0.6952
   45bbb     C8 1327   5.747   7.293   8.800  0.1889 -0.5878 -0.1823
   45bbb    H15 1328   5.742   7.185   8.819  0.6492 -0.4687  0.6606
   45bbb    H16 1329   5.854   7.306   8.777  0.7109 -2.9915  0.6499
   45bbb     C9 1330   5.368   7.112   9.187  0.2657  0.0147  0.8287
   45bbb    H17 1331   5.307   7.142   9.101  0.6364 -1.6670 -0.0477
   45bbb    H18 1332   5.317   7.162   9.270  0.9264 -0.8500  1.7721
   45bbb     O1 1333   6.174   6.994   9.236  0.3666 -0.5231 -0.1236
   46bbb     N1 1334   7.971   5.339   8.499  0.1499 -0.0070 -0.2573
   46bbb     C1 1335   7.925   5.436   8.605 -0.5126 -0.2539  0.6688
   46bbb     H1 1336   7.815   5.435   8.607 -0.5189 -0.7821  0.4440
   46bbb     H2 1337   7.946   5.539   8.574 -0.9686  0.0154  1.2375
   46bbb     C2 1338   7.957   5.200   8.535  1.0173 -0.3559  0.2577
   46bbb     H3 1339   7.851   5.188   8.558  1.1698 -3.6929 -0.3146
   46bbb     H4 1340   8.008   5.176   8.630 -3.2196 -2.3647  2.2838
   46bbb     C3 1341   7.919   5.362   8.357  0.5560 -0.0784 -0.2984
   46bbb     H5 1342   7.973   5.298   8.286  0.4870  0.9246 -1.2785
   46bbb     H6 1343   7.938   5.465   8.326 -0.1658 -0.2950 -1.5002
   46bbb     C4 1344   7.765   5.358   8.327 -0.1620  0.1358  0.2684
   46bbb     H7 1345   7.712   5.431   8.389 -0.1560  1.6396 -1.4023
   46bbb     H8 1346   7.731   5.257   8.353  1.2829 -0.8534 -1.3843
   46bbb     C5 1347   7.975   5.417   8.752  0.3661  0.1877 -0.2356
   46bbb     H9 1348   7.941   5.319   8.788  2.3952 -0.9100 -1.1511
   46bbb    H10 1349   7.923   5.490   8.815  0.3314  0.1076 -0.1707
   46bbb     C6 1350   7.998   5.088   8.436  0.7080 -0.6602 -0.2515
   46bbb    H11 1351   7.944   5.091   8.340 -0.6530  0.5190  0.4981
   46bbb    H12 1352   7.957   4.997   8.480 -0.6637 -1.1387 -2.3358
   46bbb     C7 1353   7.738   5.402   8.181  0.2085 -0.3669  0.6659
   46bbb    H13 1354   7.800   5.367   8.097  0.3062 -0.4726  0.7839
   46bbb    H14 1355   7.742   5.512   8.175  0.0838 -0.4083 -0.5287
   46bbb     C8 1356   8.154   5.070   8.407  0.1489  0.4308  0.2389
   46bbb    H15 1357   8.204   5.161   8.372  2.3929 -0.8562 -0.0507
   46bbb    H16 1358   8.162   4.993   8.329  1.1587 -0.1675  0.9144
   46bbb     C9 1359   8.129   5.406   8.757  0.1584  0.2392  0.0797
   46bbb    H17 1360   8.165   5.509   8.764  1.0699  0.1603 -2.5585
   46bbb    H18 1361   8.171   5.354   8.670 -2.8447  0.0187 -1.3446
   46bbb     O1 1362   7.611   5.345   8.139  0.0333 -0.1815  0.1004
   47bbb     N1 1363   6.608   5.402   7.274 -0.2414  0.3288  0.2767
   47bbb     C1 1364   6.603   5.536   7.330 -0.4159 -0.5866  0.4532
   47bbb     H1 1365   6.705   5.578   7.327 -0.4868 -0.4130  0.4599
   47bbb     H2 1366   6.564   5.539   7.433  1.5886  0.1581  1.2633
   47bbb     C2 1367   6.473   5.346   7.242  0.2003  0.0996  0.2614
   47bbb     H3 1368   6.495   5.252   7.189 -0.5969 -0.1001  0.2776
   47bbb     H4 1369   6.423   5.407   7.166 -0.3798 -1.1088 -0.3650
   47bbb     C3 1370   6.694   5.310   7.346  0.0148  0.3067  0.3631
   47bbb     H5 1371   6.696   5.213   7.295 -1.4055  1.7237 -2.6517
   47bbb     H6 1372   6.654   5.297   7.448  1.2783  1.2206  1.0019
   47bbb     C4 1373   6.836   5.361   7.372 -0.2853 -0.6978 -0.2276
   47bbb     H7 1374   6.832   5.452   7.434  1.6054 -1.0096  0.4289
   47bbb     H8 1375   6.874   5.400   7.277  0.8684  1.6460  1.1153
   47bbb     C5 1376   6.526   5.634   7.231 -0.5060  0.2186  1.1149
   47bbb     H9 1377   6.418   5.618   7.220 -0.4772  0.3617  0.6285
   47bbb    H10 1378   6.574   5.626   7.133  2.1358 -0.8697  2.3945
   47bbb     C6 1379   6.388   5.315   7.369  0.1874 -0.2999 -0.2277
   47bbb    H11 1380   6.346   5.406   7.412 -2.4851 -1.2033 -0.7266
   47bbb    H12 1381   6.459   5.273   7.442 -0.5042  2.6149  2.2823
   47bbb     C7 1382   6.936   5.261   7.425 -0.1427  0.2203 -0.3221
   47bbb    H13 1383   7.043   5.277   7.408 -0.0100 -1.2408 -1.0806
   47bbb    H14 1384   6.910   5.158   7.396 -4.0587  1.0231 -0.1735
   47bbb     C8 1385   6.265   5.227   7.344  0.4083 -0.9059 -0.0181
   47bbb    H15 1386   6.203   5.207   7.433 -1.4714  1.0967 -0.7814
   47bbb    H16 1387   6.287   5.137   7.285  1.0433 -0.4138 -0.5447
   47bbb     C9 1388   6.546   5.779   7.276  0.4620 -0.3274  0.3729
   47bbb    H17 1389   6.487   5.835   7.202 -1.2597 -3.8998 -1.1812
   47bbb    H18 1390   6.649   5.817   7.264 -0.2778  2.4357  1.7162
   47bbb     O1 1391   6.929   5.278   7.563  0.0451  0.2612  0.2223
   48bbb     N1 1392   7.468   4.543   9.195  0.8655  0.1518  0.5867
   48bbb     C1 1393   7.404   4.443   9.290 -0.1708 -0.2892 -0.4133
   48bbb     H1 1394   7.295   4.453   9.286 -0.0977  3.1024  1.9324
   48bbb     H2 1395   7.438   4.477   9.389 -0.2663 -0.7975 -0.2044
   48bbb     C2 1396   7.621   4.543   9.196  0.1053 -0.2532  0.1694
   48bbb     H3 1397   7.646   4.609   9.112  0.0364 -1.4376 -0.8110
   48bbb     H4 1398   7.659   4.446   9.162 -2.5926 -1.0658 -0.8636
   48bbb     C3 1399   7.405   4.683   9.205 -0.5986  0.3147 -0.2480
   48bbb     H5 1400   7.450   4.739   9.288 -2.0008  1.6633 -0.3524
   48bbb     H6 1401   7.300   4.665   9.232 -0.1042 -2.8399 -0.0541
   48bbb     C4 1402   7.413   4.772   9.077 -0.2650  0.0618  0.0587
   48bbb     H7 1403   7.356   4.733   8.992  1.2557 -0.4275 -0.7721
   48bbb     H8 1404   7.517   4.769   9.040 -0.9145 -1.3306 -1.7730
   48bbb     C5 1405   7.443   4.294   9.257  0.1954  0.0059  0.4341
   48bbb     H9 1406   7.472   4.282   9.152  0.3220 -0.0135  0.4703
   48bbb    H10 1407   7.358   4.225   9.251  1.1660 -1.1295 -1.1963
   48bbb     C6 1408   7.691   4.573   9.328 -0.0597  0.4406 -0.2793
   48bbb    H11 1409   7.664   4.495   9.401 -0.7003  1.5307  0.6795
   48bbb    H12 1410   7.663   4.673   9.363  0.2202  0.5934 -0.4942
   48bbb     C7 1411   7.368   4.909   9.109 -0.5499 -0.0330 -0.2754
   48bbb    H13 1412   7.427   4.953   9.191 -1.6255 -0.3619  0.7028
   48bbb    H14 1413   7.274   4.897   9.165  0.3714  0.8533  1.5358
   48bbb     C8 1414   7.849   4.570   9.313  0.6219  0.3876 -0.0355
   48bbb    H15 1415   7.869   4.609   9.213  2.8103  2.0349  0.9676
   48bbb    H16 1416   7.878   4.464   9.305 -0.0262  0.3196 -1.9618
   48bbb     C9 1417   7.560   4.223   9.334  0.0484 -0.1122 -0.6800
   48bbb    H17 1418   7.658   4.267   9.316 -0.7050  1.9742  0.0660
   48bbb    H18 1419   7.560   4.119   9.298 -1.9351 -0.5681  0.4430
   48bbb     O1 1420   7.353   4.995   8.995 -0.3990 -0.4294 -0.0248
   49bbb     N1 1421   6.883   5.078   8.189 -0.1602 -0.3684 -0.1730
   49bbb     C1 1422   6.815   5.212   8.212  0.2151 -0.0183 -0.6169
   49bbb     H1 1423   6.826   5.270   8.119  0.8718 -2.2105 -1.9808
   49bbb     H2 1424   6.871   5.275   8.282 -0.5226 -1.1140  1.0009
   49bbb     C2 1425   6.813   4.991   8.092 -0.8478  0.2466  0.6076
   49bbb     H3 1426   6.832   5.026   7.990 -3.2332  1.0203  0.3728
   49bbb     H4 1427   6.705   4.990   8.108 -0.7884 -3.3577  1.8331
   49bbb     C3 1428   7.026   5.090   8.162  0.3255  0.2567 -0.4419
   49bbb     H5 1429   7.041   5.160   8.079 -3.0725  1.4024 -0.2552
   49bbb     H6 1430   7.065   4.991   8.134 -2.4281 -1.5086  1.4760
   49bbb     C4 1431   7.104   5.135   8.288  1.0650  0.3390  0.3791
   49bbb     H7 1432   7.072   5.064   8.366 -0.0633  1.9760  1.4622
   49bbb     H8 1433   7.077   5.238   8.311 -0.8851 -0.3993  1.6643
   49bbb     C5 1434   6.670   5.197   8.271  1.0238 -0.0410  0.5616
   49bbb     H9 1435   6.680   5.150   8.370 -1.9755 -1.3698  0.3330
   49bbb    H10 1436   6.603   5.135   8.211 -0.3794  0.3989  1.6204
   49bbb     C6 1437   6.841   4.843   8.118 -0.7148 -0.0788  0.4236
   49bbb    H11 1438   6.942   4.813   8.086 -0.9139  0.1744 -0.4868
   49bbb    H12 1439   6.777   4.788   8.048 -0.6057  0.7486 -0.3486
   49bbb     C7 1440   7.255   5.140   8.260 -0.2257 -0.1227  0.5715
   49bbb    H13 1441   7.277   5.223   8.192  2.8742 -0.7449  0.6617
   49bbb    H14 1442   7.284   5.044   8.216 -2.6279 -0.5079 -0.3288
   49bbb     C8 1443   6.812   4.802   8.257 -0.3728  0.5524 -0.1901
   49bbb    H15 1444   6.706   4.829   8.269 -0.9215 -1.4056 -0.3072
   49bbb    H16 1445   6.882   4.862   8.317  0.8115 -1.1000  0.1522
   49bbb     C9 1446   6.608   5.330   8.299  0.1110 -0.4040 -0.1338
   49bbb    H17 1447   6.650   5.404   8.230 -0.6124  1.3343  1.2259
   49bbb    H18 1448   6.643   5.371   8.395  1.2426 -1.6942  0.0355
   49bbb     O1 1449   7.326   5.166   8.390 -0.1796  0.0159  0.1411
   50bbb     N1 1450   6.240   8.301   9.602 -0.4513 -0.2535 -0.4204
   50bbb     C1 1451   6.369   8.301   9.532 -1.0225 -0.2302 -0.8169
   50bbb     H1 1452   6.387   8.389   9.469  0.8863  0.5290  0.7079
   50bbb     H2 1453   6.372   8.213   9.467 -1.3206 -1.5800  0.9103
   50bbb     C2 1454   6.214   8.412   9.704  0.2055  0.4202 -0.5153
   50bbb     H3 1455   6.282   8.404   9.789  2.1085  0.5245 -1.9608
   50bbb     H4 1456   6.107   8.401   9.722  0.2035  0.8940 -0.2122
   50bbb     C3 1457   6.180   8.167   9.632 -0.2082 -0.1191 -0.6643
   50bbb     H5 1458   6.087   8.195   9.684  1.4780  1.4697  1.6901
   50bbb     H6 1459   6.236   8.114   9.710 -1.3480  0.8141  0.8377
   50bbb     C4 1460   6.152   8.073   9.506 -0.7970 -0.5811  0.4232
   50bbb     H7 1461   6.241   8.054   9.444 -0.1706  0.2307  1.0553
   50bbb     H8 1462   6.091   8.135   9.438  0.7534 -0.3875 -0.8568
   50bbb     C5 1463   6.478   8.289   9.647 -0.0997  0.3106 -0.2948
   50bbb     H9 1464   6.452   8.208   9.716 -1.0364  1.2680  0.5112
   50bbb    H10 1465   6.483   8.378   9.711 -2.9273 -0.7178  1.5436
   50bbb     C6 1466   6.230   8.555   9.655 -0.0655  0.1743  0.0968
   50bbb    H11 1467   6.336   8.571   9.630  0.2469 -1.6990  0.0726
   50bbb    H12 1468   6.208   8.626   9.735  1.6094  2.0303 -0.9941
   50bbb     C7 1469   6.089   7.942   9.545  1.0386  0.4597  0.2156
   50bbb    H13 1470   5.991   7.966   9.588  0.2122 -0.6217 -0.9947
   50bbb    H14 1471   6.153   7.901   9.624  1.9555  3.2865  1.0769
   50bbb     C8 1472   6.131   8.591   9.534  0.6619  0.3767  0.7061
   50bbb    H15 1473   6.027   8.568   9.560  0.8025 -0.6674  0.4083
   50bbb    H16 1474   6.165   8.529   9.450  1.6391  1.5708  0.1992
   50bbb     C9 1475   6.612   8.249   9.591 -0.3446  0.1073  0.2061
   50bbb    H17 1476   6.592   8.163   9.528 -0.8643  1.5180 -1.6405
   50bbb    H18 1477   6.674   8.234   9.681 -0.6916  2.2449  0.8729
   50bbb     O1 1478   6.072   7.864   9.425 -0.1923  0.4096 -0.6003
   51bbb     N1 1479   5.272   7.632   9.065 -0.4468  0.5443  0.2140
   51bbb     C1 1480   5.134   7.668   9.097  0.2291 -0.2792  0.2485
   51bbb     H1 1481   5.076   7.575   9.087 -0.1039 -0.1248  0.6989
   51bbb     H2 1482   5.113   7.730   9.009  2.5542 -1.2442 -1.0901
   51bbb     C2 1483   5.292   7.565   8.940  0.0780  0.2987 -0.4124
   51bbb     H3 1484   5.398   7.576   8.914  0.2175 -1.6882 -0.8174
   51bbb     H4 1485   5.238   7.619   8.861  0.0097  1.9669  0.7337
   51bbb     C3 1486   5.347   7.588   9.187  0.1903  0.3320 -0.2212
   51bbb     H5 1487   5.316   7.486   9.212 -1.7085  1.3871  2.0829
   51bbb     H6 1488   5.318   7.648   9.274 -0.2530 -1.0927  0.6403
   51bbb     C4 1489   5.500   7.588   9.171 -0.4633 -0.7824  0.2303
   51bbb     H7 1490   5.529   7.526   9.085 -0.1593  0.6315 -0.7293
   51bbb     H8 1491   5.546   7.552   9.264 -2.1081 -2.1650  0.5464
   51bbb     C5 1492   5.085   7.747   9.229  0.5133  0.4100  0.4998
   51bbb     H9 1493   5.163   7.812   9.270  0.4261  2.1289 -1.8520
   51bbb    H10 1494   5.068   7.673   9.308  0.1914  1.6989  1.6694
   51bbb     C6 1495   5.248   7.414   8.933  0.2155 -0.0928  0.0059
   51bbb    H11 1496   5.140   7.401   8.920  0.3671 -0.2706 -1.2796
   51bbb    H12 1497   5.273   7.360   9.025 -3.5340 -2.3319 -0.1004
   51bbb     C7 1498   5.572   7.730   9.150 -0.3815  0.2898 -0.0906
   51bbb    H13 1499   5.597   7.778   9.245  1.2791 -2.7933  1.1768
   51bbb    H14 1500   5.505   7.791   9.088  0.2921 -0.6204 -1.7886
   51bbb     C8 1501   5.313   7.344   8.809 -0.1195  0.6360 -0.0984
   51bbb    H15 1502   5.421   7.360   8.808  0.0513 -0.4453 -0.0893
   51bbb    H16 1503   5.267   7.381   8.716  1.2114 -1.8334 -1.8552
   51bbb     C9 1504   4.946   7.813   9.219 -0.9214  0.0299 -0.8894
   51bbb    H17 1505   4.934   7.878   9.306  2.4491  1.5468 -1.3945
   51bbb    H18 1506   4.863   7.741   9.220 -1.1908  0.3227 -1.3813
   51bbb     O1 1507   5.692   7.705   9.085  0.2691 -0.5031 -0.3967
   52bbb     N1 1508   5.343   7.913   8.067 -0.0855  1.2316 -0.0006
   52bbb     C1 1509   5.214   7.944   8.003 -0.1468 -0.6933  1.4094
   52bbb     H1 1510   5.151   7.966   8.091  0.3327 -0.6541  1.7458
   52bbb     H2 1511   5.178   7.853   7.953  2.2916 -0.4201 -1.0475
   52bbb     C2 1512   5.446   7.861   7.987 -0.4009  0.8331 -0.6017
   52bbb     H3 1513   5.400   7.776   7.935 -1.8568 -0.0441  1.9238
   52bbb     H4 1514   5.528   7.821   8.047  1.3359  0.5567 -3.0261
   52bbb     C3 1515   5.386   8.026   8.154 -0.4216 -0.3497 -0.5841
   52bbb     H5 1516   5.297   8.057   8.210  0.1457  1.4605 -0.6028
   52bbb     H6 1517   5.409   8.114   8.092 -0.3734  0.4697  0.5630
   52bbb     C4 1518   5.504   7.990   8.256  0.6496  0.1625  0.1442
   52bbb     H7 1519   5.592   7.955   8.202  0.1424  1.3437 -1.5384
   52bbb     H8 1520   5.477   7.905   8.319 -1.3203 -2.1698 -3.5406
   52bbb     C5 1521   5.207   8.065   7.900  0.0775  0.5524 -0.1135
   52bbb     H9 1522   5.282   8.042   7.824 -0.1773  0.4449 -0.3351
   52bbb    H10 1523   5.221   8.167   7.937 -1.4747  0.9905 -0.6296
   52bbb     C6 1524   5.527   7.956   7.894 -0.2500 -0.3276 -0.3839
   52bbb    H11 1525   5.530   8.059   7.931  1.6004 -0.3770 -0.3196
   52bbb    H12 1526   5.486   7.957   7.792 -1.6940 -0.5103  0.1748
   52bbb     C7 1527   5.557   8.101   8.346  0.0435 -0.7219 -0.3671
   52bbb    H13 1528   5.494   8.112   8.435  1.8888  0.5265  0.8534
   52bbb    H14 1529   5.557   8.195   8.289 -0.6066  0.1109  0.9627
   52bbb     C8 1530   5.676   7.920   7.868 -0.3472 -0.3139  0.5906
   52bbb    H15 1531   5.686   7.834   7.801  1.4540  0.4723 -0.1934
   52bbb    H16 1532   5.720   7.901   7.967  2.1820  0.9544 -0.2192
   52bbb     C9 1533   5.077   8.067   7.810  0.9503 -0.5879 -0.4024
   52bbb    H17 1534   5.050   7.972   7.762 -1.0300 -0.7735  0.9489
   52bbb    H18 1535   5.086   8.131   7.722  0.8267 -1.0128 -0.7265
   52bbb     O1 1536   5.692   8.065   8.378 -0.6163 -0.8018 -0.6374
   53bbb     N1 1537   5.708   8.237   9.269 -0.4437 -0.2792  0.8063
   53bbb     C1 1538   5.609   8.125   9.248  0.2115 -0.1931  0.6514
   53bbb     H1 1539   5.641   8.038   9.307 -1.8714  1.4718  4.6365
   53bbb     H2 1540   5.600   8.091   9.144 -0.7447  0.1786  0.6022
   53bbb     C2 1541   5.703   8.314   9.397  0.4069 -0.4665  0.1046
   53bbb     H3 1542   5.599   8.321   9.432  0.4371  1.3876 -0.1106
   53bbb     H4 1543   5.739   8.413   9.368 -2.3298  0.3707 -0.7299
   53bbb     C3 1544   5.841   8.189   9.204  0.7564  0.2528 -0.5823
   53bbb     H5 1545   5.823   8.137   9.109  0.4072  0.4883 -0.6474
   53bbb     H6 1546   5.873   8.110   9.274 -1.1931  1.9304  2.4280
   53bbb     C4 1547   5.943   8.301   9.189 -1.1158  0.5348  0.4341
   53bbb     H7 1548   5.967   8.353   9.282  3.3014 -0.2305 -0.0373
   53bbb     H8 1549   5.908   8.378   9.118  2.3385 -1.0107 -3.3264
   53bbb     C5 1550   5.465   8.164   9.284 -0.3403  0.4615  0.5209
   53bbb     H9 1551   5.449   8.250   9.217 -0.0610 -0.5330 -0.8592
   53bbb    H10 1552   5.446   8.205   9.384 -1.3857  0.5916  0.2809
   53bbb     C6 1553   5.802   8.267   9.509  0.7648  0.8181 -0.3791
   53bbb    H11 1554   5.909   8.276   9.487  1.6107 -4.6924  0.1417
   53bbb    H12 1555   5.797   8.158   9.515  0.8080  0.7197 -1.7281
   53bbb     C7 1556   6.080   8.254   9.130  0.2886  0.4487 -0.3625
   53bbb    H13 1557   6.138   8.215   9.216 -2.7053  0.7420  1.9650
   53bbb    H14 1558   6.144   8.338   9.101  0.0793  1.7544  2.5827
   53bbb     C8 1559   5.781   8.339   9.644 -0.7316  0.7289  0.0202
   53bbb    H15 1560   5.774   8.447   9.625 -4.3628  0.8128  1.0398
   53bbb    H16 1561   5.863   8.319   9.714 -0.6801  1.3602  0.1502
   53bbb     C9 1562   5.355   8.060   9.254  0.5129 -0.2605  0.2029
   53bbb    H17 1563   5.254   8.095   9.281 -0.0763 -1.9714  0.3536
   53bbb    H18 1564   5.370   7.975   9.322  0.4757  0.4931  1.1715
   53bbb     O1 1565   6.075   8.158   9.021  0.0874  0.3214 -0.5416
   54bbb     N1 1566   8.292   5.642   7.290 -0.4031  0.4476  0.2237
   54bbb     C1 1567   8.180   5.558   7.237  0.1704 -0.7251  0.5007
   54bbb     H1 1568   8.115   5.608   7.165 -1.8958 -0.2812  2.5482
   54bbb     H2 1569   8.108   5.528   7.314 -1.5929  0.7143 -0.5173
   54bbb     C2 1570   8.400   5.680   7.202  0.3214 -0.6215 -0.1261
   54bbb     H3 1571   8.438   5.779   7.229 -0.3706  0.0806 -1.5666
   54bbb     H4 1572   8.361   5.685   7.099  2.4637  0.0179 -0.9612
   54bbb     C3 1573   8.237   5.751   7.378  0.4628 -0.1033 -0.2785
   54bbb     H5 1574   8.146   5.715   7.426  1.4961 -0.7535  1.2633
   54bbb     H6 1575   8.195   5.827   7.311 -2.8585 -1.8499 -0.4074
   54bbb     C4 1576   8.338   5.812   7.472 -0.1706 -0.1923  0.2856
   54bbb     H7 1577   8.404   5.880   7.417  1.2255 -1.0496  0.8649
   54bbb     H8 1578   8.393   5.728   7.515  1.4117 -1.0624 -3.0578
   54bbb     C5 1579   8.224   5.421   7.173  0.7269 -0.0093 -0.7691
   54bbb     H9 1580   8.300   5.368   7.230 -1.0715 -2.5703 -0.6039
   54bbb    H10 1581   8.262   5.433   7.070  0.3059  0.3920 -0.8812
   54bbb     C6 1582   8.525   5.580   7.212  0.2054 -0.2175  0.3453
   54bbb    H11 1583   8.490   5.477   7.202 -0.1993 -0.0367 -0.1802
   54bbb    H12 1584   8.573   5.584   7.310  1.1484 -0.5484 -0.0921
   54bbb     C7 1585   8.260   5.898   7.571  0.4089 -0.1071  0.3240
   54bbb    H13 1586   8.326   5.925   7.654  0.4887  0.0252  0.2180
   54bbb    H14 1587   8.182   5.834   7.613  1.2957 -0.3514  1.6584
   54bbb     C8 1588   8.630   5.614   7.108  0.6912  0.6548 -0.1095
   54bbb    H15 1589   8.708   5.543   7.140  0.6062 -0.5567 -2.3781
   54bbb    H16 1590   8.662   5.719   7.115  1.3652  0.4051  0.8118
   54bbb     C9 1591   8.106   5.325   7.167  0.0703 -0.0947  1.1920
   54bbb    H17 1592   8.049   5.315   7.260  1.8503 -0.2774  2.3041
   54bbb    H18 1593   8.146   5.225   7.145  0.6082  0.3478  0.0693
   54bbb     O1 1594   8.195   6.016   7.515  0.3760  0.2600  0.2267
   55bbb     N1 1595   7.719   5.605   7.397  0.2923  0.3911  0.1629
   55bbb     C1 1596   7.834   5.690   7.447  0.4624  0.2159 -0.0395
   55bbb     H1 1597   7.873   5.760   7.371 -0.3171  1.4400  0.6498
   55bbb     H2 1598   7.921   5.626   7.468 -0.6278 -1.1807  0.3092
   55bbb     C2 1599   7.767   5.494   7.317  0.0439  0.0857  0.5743
   55bbb     H3 1600   7.853   5.445   7.365 -0.1016  1.2499  2.0896
   55bbb     H4 1601   7.790   5.525   7.214  0.6437 -0.6315  0.4816
   55bbb     C3 1602   7.604   5.687   7.349 -0.6507 -0.0045  0.9593
   55bbb     H5 1603   7.586   5.772   7.416  3.6607 -1.0767  3.9409
   55bbb     H6 1604   7.515   5.624   7.352 -0.8629  0.2448  0.0821
   55bbb     C4 1605   7.626   5.730   7.195 -0.0770  0.1909 -0.8649
   55bbb     H7 1606   7.591   5.651   7.127  1.4700 -0.2797 -1.1547
   55bbb     H8 1607   7.735   5.731   7.180  0.0823  0.1764  0.2115
   55bbb     C5 1608   7.800   5.783   7.563 -0.1569 -0.7464 -0.1371
   55bbb     H9 1609   7.709   5.834   7.530 -0.2853 -0.4075  0.7037
   55bbb    H10 1610   7.883   5.853   7.582  0.7083 -1.5411 -0.9209
   55bbb     C6 1611   7.664   5.383   7.292 -0.0816 -0.6481  0.2926
   55bbb    H11 1612   7.711   5.303   7.235 -0.2676 -1.0702  0.7241
   55bbb    H12 1613   7.574   5.423   7.243  0.1700  1.8522  1.6709
   55bbb     C7 1614   7.569   5.860   7.146  0.6808 -0.1376 -0.8029
   55bbb    H13 1615   7.460   5.863   7.154  0.3756 -1.0375 -3.5531
   55bbb    H14 1616   7.591   5.862   7.038  0.9308 -0.1399 -0.7518
   55bbb     C8 1617   7.621   5.316   7.424 -0.4371  0.4784 -0.2296
   55bbb    H15 1618   7.600   5.390   7.502  1.4188 -1.1381  1.9632
   55bbb    H16 1619   7.697   5.251   7.469 -0.1598  0.7142 -0.3563
   55bbb     C9 1620   7.766   5.703   7.695  0.0433 -0.1967  0.1106
   55bbb    H17 1621   7.696   5.624   7.665 -1.6216  1.1558  0.2517
   55bbb    H18 1622   7.718   5.773   7.764  0.5970  1.5517 -1.2091
   55bbb     O1 1623   7.626   5.965   7.222 -0.1804  0.5261  0.0451
   56bbb     N1 1624   6.789   5.905   5.980 -0.2873 -0.3633  0.6393
   56bbb     C1 1625   6.838   5.985   5.860 -0.4221  0.0240 -0.3351
   56bbb     H1 1626   6.814   6.091   5.875  0.7793  0.1315  1.1062
   56bbb     H2 1627   6.789   5.938   5.774 -1.0037 -1.6186  0.8481
   56bbb     C2 1628   6.644   5.894   6.009  0.6628 -0.4089  0.2701
   56bbb     H3 1629   6.609   5.975   6.075 -1.2455 -0.6800 -0.3522
   56bbb     H4 1630   6.627   5.804   6.068 -1.0919 -1.3328 -1.5251
   56bbb     C3 1631   6.875   5.913   6.107  0.1910  0.0480  0.0319
   56bbb     H5 1632   6.977   5.882   6.082 -0.5471 -3.3876  0.7543
   56bbb     H6 1633   6.832   5.838   6.175 -1.6047  0.7173 -0.3009
   56bbb     C4 1634   6.875   6.051   6.174  0.4050  0.0542 -0.3397
   56bbb     H7 1635   6.805   6.046   6.258 -0.5471  1.4462 -1.0109
   56bbb     H8 1636   6.848   6.129   6.103  2.6487  3.5202  2.2802
   56bbb     C5 1637   6.990   5.985   5.838  0.2159  0.1091  0.0574
   56bbb     H9 1638   7.033   5.884   5.841  0.0128 -0.0793 -2.1035
   56bbb    H10 1639   7.036   6.039   5.922 -1.1476 -1.1540  1.6953
   56bbb     C6 1640   6.546   5.894   5.887  0.3690 -0.2418  0.5110
   56bbb    H11 1641   6.571   5.988   5.836  0.1432  0.1346  1.0911
   56bbb    H12 1642   6.444   5.893   5.928  0.2285 -1.0852  0.1474
   56bbb     C7 1643   7.014   6.095   6.230  0.2946  0.5114  1.2304
   56bbb    H13 1644   6.990   6.198   6.260 -1.4734  0.0155  1.6862
   56bbb    H14 1645   7.094   6.084   6.156 -0.8693 -0.3637  0.0579
   56bbb     C8 1646   6.566   5.769   5.796 -0.0853  0.3580  0.3948
   56bbb    H15 1647   6.562   5.674   5.851 -1.3785  0.9663  1.3981
   56bbb    H16 1648   6.659   5.760   5.738 -0.3252  0.1695  0.0386
   56bbb     C9 1649   7.040   6.050   5.705 -0.5458 -0.1550  0.5371
   56bbb    H17 1650   7.043   6.158   5.724  0.5922  0.0163 -0.4937
   56bbb    H18 1651   6.976   6.021   5.622  1.9488  1.8756 -2.3104
   56bbb     O1 1652   7.041   6.021   6.354  0.3640 -0.1667 -0.4454
   57bbb     N1 1653   8.121   5.837   6.859 -0.3312  0.1107 -0.5482
   57bbb     C1 1654   8.117   5.969   6.918  0.3157 -0.4944  0.2387
   57bbb     H1 1655   8.213   6.018   6.897 -0.5105  0.3875 -1.8157
   57bbb     H2 1656   8.123   5.960   7.027 -1.8965 -2.8750  0.2364
   57bbb     C2 1657   8.250   5.776   6.871 -0.5554  0.2863 -0.2759
   57bbb     H3 1658   8.242   5.669   6.895 -1.0755  0.0721 -1.3129
   57bbb     H4 1659   8.305   5.825   6.952 -0.5378  1.0952 -0.7718
   57bbb     C3 1660   8.005   5.762   6.907  0.0123  0.3446 -0.2800
   57bbb     H5 1661   7.916   5.826   6.899 -0.4897 -0.2178  0.6727
   57bbb     H6 1662   8.016   5.735   7.013 -3.0667  0.9739  0.3084
   57bbb     C4 1663   7.971   5.633   6.823 -0.4100  0.7230 -1.0452
   57bbb     H7 1664   8.043   5.553   6.842 -2.8262 -1.1256  1.0096
   57bbb     H8 1665   7.971   5.657   6.716  0.7301  0.3162 -1.1405
   57bbb     C5 1666   7.997   6.063   6.885 -0.7744 -0.5504 -0.5052
   57bbb     H9 1667   7.920   6.048   6.962 -2.2781  0.4194 -1.7666
   57bbb    H10 1668   7.948   6.017   6.798 -1.8109  1.3157 -0.9388
   57bbb     C6 1669   8.330   5.790   6.743  0.3340  0.2652 -0.2249
   57bbb    H11 1670   8.258   5.750   6.672 -0.5954 -0.6024  1.1442
   57bbb    H12 1671   8.411   5.716   6.743  1.0878  1.0514 -1.5662
   57bbb     C7 1672   7.825   5.576   6.849  0.0054  0.3101  0.2645
   57bbb    H13 1673   7.814   5.554   6.956 -1.5842 -1.9178 -0.2953
   57bbb    H14 1674   7.809   5.490   6.783  0.5434 -0.6751  1.3754
   57bbb     C8 1675   8.373   5.933   6.709 -0.1227 -0.3173  0.1607
   57bbb    H15 1676   8.286   5.998   6.694 -0.9379 -1.7084 -1.5608
   57bbb    H16 1677   8.428   5.946   6.614 -0.5640  2.5024  0.2024
   57bbb     C9 1678   8.026   6.210   6.856  0.5509  0.5216  0.2233
   57bbb    H17 1679   8.097   6.237   6.935  0.9015  0.5737 -0.1084
   57bbb    H18 1680   7.931   6.265   6.862 -0.2658 -0.7225 -0.8853
   57bbb     O1 1681   7.721   5.674   6.827 -0.0987  0.4060 -0.2774
   58bbb     N1 1682   7.062   5.523   8.412  0.0658 -1.0126 -0.5864
   58bbb     C1 1683   7.175   5.597   8.350  0.5174  0.1049 -0.0951
   58bbb     H1 1684   7.184   5.693   8.401 -0.6802 -1.0555  2.5260
   58bbb     H2 1685   7.142   5.610   8.246  0.6632  0.9101 -0.0447
   58bbb     C2 1686   7.085   5.524   8.565 -0.7869  0.4681 -0.3913
   58bbb     H3 1687   7.084   5.623   8.611 -3.2068 -0.5768  2.0571
   58bbb     H4 1688   7.183   5.476   8.577 -1.1699 -0.5353 -1.0798
   58bbb     C3 1689   6.921   5.563   8.367  0.3854 -0.9078  0.0339
   58bbb     H5 1690   6.840   5.496   8.399  0.8700 -2.1207 -1.1686
   58bbb     H6 1691   6.920   5.563   8.257  1.1209 -2.9071  0.0016
   58bbb     C4 1692   6.881   5.712   8.410  0.3885 -0.4036  0.6568
   58bbb     H7 1693   6.962   5.777   8.375 -1.3276  0.4712 -1.9747
   58bbb     H8 1694   6.883   5.728   8.519  0.4019 -0.0666  0.6096
   58bbb     C5 1695   7.300   5.516   8.324 -0.9499  0.0041 -0.1438
   58bbb     H9 1696   7.273   5.432   8.259  0.2136 -0.6809  0.2274
   58bbb    H10 1697   7.333   5.468   8.417  1.6613 -0.1183 -1.0371
   58bbb     C6 1698   6.975   5.436   8.638 -0.8786  0.0680 -0.4491
   58bbb    H11 1699   6.879   5.483   8.614 -0.5588  1.2848  0.5662
   58bbb    H12 1700   6.996   5.431   8.745 -0.9830 -2.5479 -0.4972
   58bbb     C7 1701   6.752   5.760   8.359 -0.3416 -0.9871  0.4407
   58bbb    H13 1702   6.727   5.862   8.393 -0.7904 -0.6813 -0.7781
   58bbb    H14 1703   6.669   5.696   8.389 -1.0713 -2.1021 -3.4293
   58bbb     C8 1704   6.973   5.293   8.583  0.6658  0.1830 -0.6972
   58bbb    H15 1705   7.075   5.257   8.566  0.0659 -0.7564 -2.7210
   58bbb    H16 1706   6.931   5.312   8.483  0.2856 -0.1833 -0.6130
   58bbb     C9 1707   7.411   5.599   8.251 -0.4874 -0.5848  0.3354
   58bbb    H17 1708   7.376   5.645   8.158 -0.6884  0.5311  0.9363
   58bbb    H18 1709   7.492   5.527   8.237  1.6088  1.6088  0.4776
   58bbb     O1 1710   6.756   5.762   8.216 -0.2636 -0.0789 -0.2983
   59bbb     N1 1711   6.502   4.763   7.486 -0.1781 -0.1126 -0.5817
   59bbb     C1 1712   6.355   4.778   7.523 -0.8873 -0.3111  0.3296
   59bbb     H1 1713   6.317   4.872   7.481 -2.2882 -1.1270 -0.2840
   59bbb     H2 1714   6.347   4.797   7.631 -2.4907  1.4076 -0.0343
   59bbb     C2 1715   6.552   4.777   7.345 -0.0199  0.3141 -0.7609
   59bbb     H3 1716   6.494   4.712   7.278  0.1418 -0.1565 -0.4530
   59bbb     H4 1717   6.657   4.748   7.336 -0.4920 -1.3382 -1.2224
   59bbb     C3 1718   6.589   4.815   7.597 -0.3473 -0.1462  1.0753
   59bbb     H5 1719   6.690   4.796   7.560 -1.7901 -1.9953 -2.3790
   59bbb     H6 1720   6.564   4.754   7.685  0.5559  0.0996  1.5167
   59bbb     C4 1721   6.573   4.964   7.628  0.0430  0.1704  0.5401
   59bbb     H7 1722   6.471   4.995   7.656 -0.9648 -2.5281  0.1728
   59bbb     H8 1723   6.605   5.029   7.546  2.6983 -0.5172  0.9594
   59bbb     C5 1724   6.266   4.663   7.466  0.2080  0.7607 -0.2372
   59bbb     H9 1725   6.294   4.573   7.523  1.9749  0.6434 -1.2181
   59bbb    H10 1726   6.295   4.634   7.364 -1.4232 -0.7803 -0.3076
   59bbb     C6 1727   6.535   4.911   7.278  0.7914 -0.7846  0.4273
   59bbb    H11 1728   6.629   4.951   7.237  0.5568 -0.2561  0.3880
   59bbb    H12 1729   6.495   4.986   7.347  1.0933  0.9695 -1.2139
   59bbb     C7 1730   6.663   4.991   7.751 -0.2714  0.3188  0.4659
   59bbb    H13 1731   6.767   4.959   7.738 -0.3196 -0.2009  1.3105
   59bbb    H14 1732   6.615   4.937   7.833 -1.4829  0.0419 -0.4144
   59bbb     C8 1733   6.440   4.913   7.151  0.2813  0.1464 -0.9174
   59bbb    H15 1734   6.469   4.834   7.080  1.9329 -0.2416  0.1241
   59bbb    H16 1735   6.441   5.012   7.102 -1.7867  1.1518  0.9367
   59bbb     C9 1736   6.114   4.700   7.469 -0.3981  0.1364  0.1708
   59bbb    H17 1737   6.097   4.790   7.409 -0.9716  0.4595  0.7930
   59bbb    H18 1738   6.090   4.720   7.574 -2.1630 -2.0912  0.2770
   59bbb     O1 1739   6.664   5.129   7.783 -0.3966 -0.4389  0.0006
   60bbb     N1 1740   7.482   5.212   6.523 -0.2562 -0.2377  0.0724
   60bbb     C1 1741   7.566   5.329   6.500  0.1526 -0.3730  0.0770
   60bbb     H1 1742   7.656   5.313   6.561  1.0442  0.9325 -0.8509
   60bbb     H2 1743   7.517   5.411   6.553  0.8202  0.4428 -0.5343
   60bbb     C2 1744   7.369   5.172   6.429  0.1411 -0.4997  0.7152
   60bbb     H3 1745   7.321   5.080   6.464  1.3805 -0.6230  2.2009
   60bbb     H4 1746   7.411   5.144   6.331  1.2613 -3.0411  1.8211
   60bbb     C3 1747   7.436   5.193   6.666  0.0479  0.8565  0.3050
   60bbb     H5 1748   7.362   5.112   6.671  1.4365 -0.4842 -0.1158
   60bbb     H6 1749   7.385   5.277   6.714 -0.1757  0.7555  0.2437
   60bbb     C4 1750   7.551   5.161   6.765  0.5365  0.3382  0.5024
   60bbb     H7 1751   7.633   5.234   6.766  1.6019 -0.7918 -0.5326
   60bbb     H8 1752   7.595   5.065   6.737  1.5862  0.0763  2.8110
   60bbb     C5 1753   7.606   5.359   6.356  0.3789  0.1673 -0.0430
   60bbb     H9 1754   7.521   5.359   6.288  0.8160 -2.4305 -0.7186
   60bbb    H10 1755   7.673   5.278   6.323 -2.7219 -2.9831  0.7041
   60bbb     C6 1756   7.255   5.273   6.420 -0.4113  0.6533 -0.1250
   60bbb    H11 1757   7.285   5.375   6.392  1.1505  0.3707  0.3931
   60bbb    H12 1758   7.208   5.274   6.519  0.3693  1.3539  0.2475
   60bbb     C7 1759   7.505   5.157   6.905  0.6506  0.1716 -0.4319
   60bbb    H13 1760   7.592   5.135   6.968  0.8707  0.6353 -0.5746
   60bbb    H14 1761   7.432   5.077   6.924  1.1981 -0.9426 -2.7138
   60bbb     C8 1762   7.148   5.232   6.316 -0.4569 -0.1422  0.4307
   60bbb    H15 1763   7.077   5.315   6.315 -1.8419 -1.2850  0.8824
   60bbb    H16 1764   7.105   5.140   6.358  0.8672 -0.8455  0.3245
   60bbb     C9 1765   7.687   5.485   6.342  0.0134 -0.2113 -0.3707
   60bbb    H17 1766   7.698   5.513   6.237  0.7164  1.2866  0.0882
   60bbb    H18 1767   7.790   5.469   6.379  0.4402 -1.1419 -1.8730
   60bbb     O1 1768   7.461   5.285   6.941  0.3125  0.3600 -0.3420
   61bbb     N1 1769   7.513   6.240   7.764 -0.1523 -0.2765  0.5141
   61bbb     C1 1770   7.637   6.315   7.759  0.3021 -0.3662 -0.5525
   61bbb     H1 1771   7.666   6.314   7.654  0.3819  0.1421 -0.5398
   61bbb     H2 1772   7.707   6.263   7.825  0.9510  0.2396 -0.7514
   61bbb     C2 1773   7.459   6.201   7.894 -0.3309 -0.3282 -0.3603
   61bbb     H3 1774   7.363   6.149   7.881 -1.8666  2.3110 -0.3634
   61bbb     H4 1775   7.425   6.292   7.945  1.0530 -0.3282  0.6271
   61bbb     C3 1776   7.422   6.298   7.661 -0.1044 -0.8448  0.0586
   61bbb     H5 1777   7.485   6.350   7.587  0.1143  1.9091  2.0499
   61bbb     H6 1778   7.374   6.375   7.722  2.4902 -0.3196  1.5993
   61bbb     C4 1779   7.311   6.200   7.607 -0.5811 -0.6281 -0.0944
   61bbb     H7 1780   7.256   6.254   7.529 -0.6504  0.5252  0.7220
   61bbb     H8 1781   7.234   6.165   7.678  0.4032 -0.9983  0.8174
   61bbb     C5 1782   7.650   6.461   7.803 -0.1994 -0.4551 -0.3853
   61bbb     H9 1783   7.581   6.526   7.748  1.3007 -0.3124 -2.2021
   61bbb    H10 1784   7.747   6.502   7.773 -1.4830  1.5904 -2.0741
   61bbb     C6 1785   7.555   6.121   7.983 -0.9031  0.5218 -0.1889
   61bbb    H11 1786   7.500   6.103   8.077  1.6969  1.5379  1.6642
   61bbb    H12 1787   7.638   6.189   8.009 -0.9980  0.7440 -0.4584
   61bbb     C7 1788   7.381   6.073   7.540 -0.4805  0.4815 -0.2241
   61bbb    H13 1789   7.451   6.038   7.618 -0.1419  2.7865  0.5916
   61bbb    H14 1790   7.441   6.104   7.454 -0.8018  1.7217 -0.0133
   61bbb     C8 1791   7.618   5.991   7.918 -0.3857 -0.2360 -0.0712
   61bbb    H15 1792   7.670   6.024   7.826 -0.5543  1.5104  0.4118
   61bbb    H16 1793   7.530   5.930   7.896 -0.4673 -2.3830  4.9706
   61bbb     C9 1794   7.622   6.484   7.955 -0.3207 -0.2333 -0.0426
   61bbb    H17 1795   7.701   6.430   8.008  0.9101  2.0739  0.6066
   61bbb    H18 1796   7.520   6.449   7.976  0.4984 -1.0709  3.0080
   61bbb     O1 1797   7.281   5.976   7.491  0.2415  0.3706 -0.6083
   62ccc     C1 1798   7.665   8.281   9.825  0.4276 -0.2677  0.2691
   62ccc     H1 1799   7.603   8.370   9.834  0.5617 -0.3178  1.9463
   62ccc     H2 1800   7.692   8.254   9.723 -1.2037 -2.6960  0.3852
   62ccc     C2 1801   7.578   8.158   9.870 -0.3715 -0.0623  0.2003
   62ccc     H3 1802   7.642   8.072   9.844 -0.3869  0.3798 -1.4278
   62ccc     H4 1803   7.544   8.162   9.974  0.8718  1.7816  0.5759
   62ccc     C3 1804   7.457   8.130   9.770 -0.4778  0.5975  0.0116
   62ccc     H5 1805   7.399   8.049   9.816 -0.6826  0.8587  0.2168
   62ccc     H6 1806   7.488   8.097   9.671 -0.2698 -0.2613  0.3517
   62ccc     N1 1807   7.792   8.311   9.898  0.1684  0.0758 -0.0724
   62ccc     H7 1808   7.842   8.391   9.856 -0.2487  2.0268  2.8836
   62ccc     H8 1809   7.767   8.335   9.995 -2.0001 -0.7836 -0.3448
   62ccc     O1 1810   7.374   8.249   9.749 -0.3482 -0.3049 -0.0032
   62ccc    H17 1811   7.847   8.225   9.883 -1.8854 -1.1076 -1.3631
   63ccc     C1 1812   7.442   8.997   9.892  0.3304  0.2780  0.0281
   63ccc     H1 1813   7.425   8.893   9.863 -0.7432 -0.1600  2.0087
   63ccc     H2 1814   7.424   8.993  10.000 -3.3854 -1.7105 -0.4878
   63ccc     C2 1815   7.342   9.079   9.809  1.0010 -0.5226  0.1661
   63ccc     H3 1816   7.244   9.072   9.856  0.5372  1.3059 -0.4664
   63ccc     H4 1817   7.367   9.186   9.810  2.4730 -0.7747 -1.9216
   63ccc     C3 1818   7.337   9.052   9.658  0.8368 -0.4574 -0.2891
   63ccc     H5 1819   7.436   9.060   9.613 -0.6360  2.2770 -3.4339
   63ccc     H6 1820   7.280   9.128   9.602  2.2765 -0.1319 -1.3723
   63ccc     N1 1821   7.586   9.023   9.878  0.2441 -0.0882  0.6995
   63ccc     H7 1822   7.617   9.030   9.779  0.4578  0.8345  0.8205
   63ccc     H8 1823   7.610   9.109   9.929  0.6823 -0.2804  0.8233
   63ccc     O1 1824   7.262   8.931   9.652  0.2940  0.4876 -0.2767
   63ccc    H17 1825   7.652   8.958   9.924  1.2119 -0.2945 -0.8802
   64ccc     C1 1826   7.590  10.344  10.384  0.0086 -0.5950 -0.4189
   64ccc     H1 1827   7.660  10.426  10.399  1.1810 -1.9552  2.1298
   64ccc     H2 1828   7.648  10.252  10.383  0.0913 -0.5871  1.3563
   64ccc     C2 1829   7.514  10.384  10.249 -0.0250  0.2100 -0.0186
   64ccc     H3 1830   7.440  10.304  10.234  0.1728  0.1044 -0.4314
   64ccc     H4 1831   7.475  10.487  10.239 -0.6591 -0.2122 -2.9724
   64ccc     C3 1832   7.612  10.363  10.125  0.3586 -0.2668  0.1795
   64ccc     H5 1833   7.707  10.417  10.130 -0.4976  1.2976  0.2684
   64ccc     H6 1834   7.552  10.393  10.038  0.5486 -1.3978 -0.3600
   64ccc     N1 1835   7.505  10.342  10.502 -0.2379  0.4341  0.1798
   64ccc     H7 1836   7.452  10.254  10.503 -0.7306  0.7266  1.0970
   64ccc     H8 1837   7.570  10.337  10.582 -1.0040  0.4228  0.8151
   64ccc     O1 1838   7.655  10.227  10.118  0.1423 -0.0893  0.2893
   64ccc    H17 1839   7.434  10.416  10.516 -0.3940  0.5123 -0.9467
   65ccc     C1 1840   7.939   9.617   9.290  0.4438 -0.2917  0.3731
   65ccc     H1 1841   7.953   9.630   9.397  0.4434 -0.5392  0.4039
   65ccc     H2 1842   7.956   9.717   9.249  1.2267 -0.5418  0.0639
   65ccc     C2 1843   7.804   9.579   9.239  0.2605 -0.0057  0.3216
   65ccc     H3 1844   7.797   9.559   9.131 -0.6562 -0.6938  0.4976
   65ccc     H4 1845   7.767   9.494   9.298  0.8961 -0.5685 -0.0787
   65ccc     C3 1846   7.714   9.698   9.268 -0.2479 -0.0826 -0.0912
   65ccc     H5 1847   7.613   9.686   9.226 -0.9298 -0.0893  1.4671
   65ccc     H6 1848   7.758   9.791   9.229 -1.5371  0.7083  0.2807
   65ccc     N1 1849   8.047   9.518   9.258 -0.2916  0.2355 -0.1528
   65ccc     H7 1850   8.026   9.421   9.286 -2.4012  0.6894 -0.0014
   65ccc     H8 1851   8.067   9.516   9.157 -0.1285  1.8572 -0.1697
   65ccc     O1 1852   7.700   9.711   9.414  0.0778  0.2819 -0.9561
   65ccc    H17 1853   8.138   9.545   9.298 -0.5044  0.2381  0.3481
   66ccc     C1 1854   7.739  10.004  10.842  0.2023  0.4240 -0.3288
   66ccc     H1 1855   7.653   9.949  10.804 -1.0780  0.4977  2.2567
   66ccc     H2 1856   7.708  10.107  10.861  0.2302  0.4474 -0.4099
   66ccc     C2 1857   7.851  10.014  10.738  0.8102 -0.1791  0.0651
   66ccc     H3 1858   7.942  10.060  10.779  0.8789 -0.3979  0.1569
   66ccc     H4 1859   7.874   9.911  10.708 -2.8464 -1.4421  1.0463
   66ccc     C3 1860   7.806  10.082  10.607  0.3286 -0.1565  0.1655
   66ccc     H5 1861   7.892  10.083  10.539  2.8970 -1.1698  3.1594
   66ccc     H6 1862   7.780  10.184  10.638  1.1977  0.2828 -0.4940
   66ccc     N1 1863   7.779   9.948  10.976 -0.2612  0.4418  0.6763
   66ccc     H7 1864   7.818   9.853  10.982  1.4435  1.1492  1.4510
   66ccc     H8 1865   7.859  10.002  11.013  1.2240 -0.7033 -0.6863
   66ccc     O1 1866   7.687  10.022  10.547 -0.3511  0.0999  0.0638
   66ccc    H17 1867   7.707   9.946  11.049 -0.4342 -2.1957  0.5476
   67ccc     C1 1868   6.647   9.911  10.233 -0.5954 -0.3632 -0.5450
   67ccc     H1 1869   6.546   9.870  10.236 -0.4347 -0.7341  0.0650
   67ccc     H2 1870   6.695   9.882  10.140 -0.0707 -1.4572  0.0477
   67ccc     C2 1871   6.718   9.860  10.365  0.2210  0.2287 -0.2691
   67ccc     H3 1872   6.652   9.879  10.451  0.9189 -0.2797  0.3953
   67ccc     H4 1873   6.736   9.751  10.366 -0.7248  0.0131  2.2240
   67ccc     C3 1874   6.854   9.918  10.393  0.2896  0.1174  1.1648
   67ccc     H5 1875   6.899   9.876  10.485  0.3495 -2.4400  0.0594
   67ccc     H6 1876   6.842  10.027  10.402 -2.5315  0.0748 -0.9030
   67ccc     N1 1877   6.625  10.061  10.237 -0.0761  0.1947  0.4088
   67ccc     H7 1878   6.560  10.083  10.314  1.1104  0.6604  1.3106
   67ccc     H8 1879   6.711  10.115  10.251 -0.3174  1.1898 -1.5532
   67ccc     O1 1880   6.939   9.884  10.285 -0.6605 -0.2220 -0.6560
   67ccc    H17 1881   6.596  10.094  10.144 -0.1076 -0.6088  0.1288
   68ccc     C1 1882   7.064   9.483   8.388 -0.6480  0.2271  0.4157
   68ccc     H1 1883   7.037   9.585   8.416 -0.7011  0.8294 -1.6225
   68ccc     H2 1884   6.978   9.455   8.327 -1.1384  2.2593  0.1007
   68ccc     C2 1885   7.088   9.398   8.513  0.9774  0.1560 -0.3876
   68ccc     H3 1886   7.124   9.299   8.484 -0.3013 -0.6528  0.6836
   68ccc     H4 1887   7.156   9.450   8.581  0.0865  0.0774  0.5999
   68ccc     C3 1888   6.964   9.377   8.595 -0.3065 -0.3317 -0.4716
   68ccc     H5 1889   6.876   9.342   8.539 -1.9324 -1.6563  2.6432
   68ccc     H6 1890   6.935   9.471   8.642  1.6044  0.0363  0.0529
   68ccc     N1 1891   7.186   9.486   8.304 -0.3317 -0.1771  0.7365
   68ccc     H7 1892   7.175   9.558   8.231 -0.1646 -0.3090  0.5809
   68ccc     H8 1893   7.272   9.517   8.351  1.9034  1.1608 -3.6455
   68ccc     O1 1894   6.988   9.283   8.701 -0.2418  0.5886  0.1752
   68ccc    H17 1895   7.201   9.394   8.260  1.2557 -1.3273  3.4250
   69ccc     C1 1896   6.820   8.788   8.574 -0.7652  0.2568  0.1197
   69ccc     H1 1897   6.914   8.843   8.577  0.3418 -1.5869  1.3620
   69ccc     H2 1898   6.748   8.824   8.500 -1.6312 -1.6029 -0.0212
   69ccc     C2 1899   6.767   8.767   8.717  0.4494 -0.4121 -0.2934
   69ccc     H3 1900   6.669   8.718   8.711 -0.3279  0.9637  0.7993
   69ccc     H4 1901   6.838   8.709   8.778  1.9908  3.5509  2.0282
   69ccc     C3 1902   6.759   8.904   8.785 -0.0473 -0.5004  0.0581
   69ccc     H5 1903   6.697   8.961   8.715  0.0526 -3.0965 -2.3179
   69ccc     H6 1904   6.858   8.951   8.780 -0.1260 -0.3850 -0.5620
   69ccc     N1 1905   6.880   8.657   8.519 -0.4687 -0.4180 -0.1555
   69ccc     H7 1906   6.810   8.585   8.495  0.3396 -0.3925 -2.8117
   69ccc     H8 1907   6.935   8.674   8.434 -1.4348 -0.1918 -0.7503
   69ccc     O1 1908   6.701   8.901   8.913  0.0582  0.3388  0.3928
   69ccc    H17 1909   6.940   8.608   8.588  0.2905  0.9376  0.1793
   70ccc     C1 1910   7.003   8.344  10.316  0.2720  0.9486 -0.2477
   70ccc     H1 1911   7.075   8.270  10.351 -1.1393 -0.7508 -0.8324
   70ccc     H2 1912   6.909   8.334  10.370  0.1758 -1.2844 -0.7633
   70ccc     C2 1913   7.008   8.319  10.164  0.0595  0.4436  0.3825
   70ccc     H3 1914   6.939   8.392  10.121  0.3013  0.8224  0.6355
   70ccc     H4 1915   7.105   8.342  10.117 -0.4172 -0.2347 -0.9885
   70ccc     C3 1916   6.959   8.178  10.135  0.4478 -0.5013 -0.0691
   70ccc     H5 1917   7.022   8.103  10.185 -0.6757 -0.7565  1.0090
   70ccc     H6 1918   6.954   8.157  10.027 -0.0837  0.9503 -0.3394
   70ccc     N1 1919   7.064   8.475  10.354 -0.3885 -0.0545  0.4247
   70ccc     H7 1920   7.087   8.475  10.455 -2.9297  0.9618  1.0846
   70ccc     H8 1921   7.144   8.499  10.293 -1.5942  0.4246 -1.0167
   70ccc     O1 1922   6.825   8.172  10.189 -0.3131 -0.2193  0.3925
   70ccc    H17 1923   7.001   8.556  10.349 -1.0396 -0.4051  2.2215
   71ccc     C1 1924   7.177   8.038   9.084  0.2948 -0.4148 -0.2037
   71ccc     H1 1925   7.255   8.105   9.120 -0.1695 -0.2508  0.5092
   71ccc     H2 1926   7.152   8.077   8.985 -1.2018  0.1025  0.3547
   71ccc     C2 1927   7.052   8.034   9.171  0.5123  0.1518 -0.2463
   71ccc     H3 1928   6.987   8.118   9.144  0.6639  0.6715  0.9471
   71ccc     H4 1929   7.003   7.937   9.156 -1.3162  1.0762 -0.5840
   71ccc     C3 1930   7.079   8.044   9.324  0.0433 -0.8448 -0.3009
   71ccc     H5 1931   7.103   8.147   9.353 -0.8004 -0.2004 -1.7975
   71ccc     H6 1932   7.158   7.973   9.352 -0.9346 -1.9739 -0.2833
   71ccc     N1 1933   7.230   7.900   9.056  0.6553  0.5993  0.6506
   71ccc     H7 1934   7.311   7.898   8.992  1.4968 -0.3960  1.6861
   71ccc     H8 1935   7.265   7.850   9.140 -0.5457  0.3833  1.0427
   71ccc     O1 1936   6.956   8.004   9.388  0.0854  0.3479 -0.1949
   71ccc    H17 1937   7.162   7.835   9.013  1.7064  0.3492 -0.7042
   72ccc     C1 1938   6.034   6.562   9.470  0.1979 -0.6706 -0.5732
   72ccc     H1 1939   6.119   6.526   9.413  0.5882 -1.3250  0.3949
   72ccc     H2 1940   5.962   6.611   9.405  0.0190  0.0607  0.1642
   72ccc     C2 1941   6.086   6.667   9.572 -0.2879 -0.3546 -0.4253
   72ccc     H3 1942   6.114   6.627   9.671 -0.0765 -1.0367 -0.7502
   72ccc     H4 1943   6.184   6.689   9.527  0.1156 -4.3160 -1.8966
   72ccc     C3 1944   5.993   6.792   9.593  0.0701  0.0031 -0.1366
   72ccc     H5 1945   5.904   6.757   9.646 -0.2298  0.3643 -0.3980
   72ccc     H6 1946   5.965   6.821   9.491 -0.2828  0.1912  0.0112
   72ccc     N1 1947   5.978   6.438   9.543  0.2062  0.1504 -0.4909
   72ccc     H7 1948   5.984   6.348   9.493  0.4800 -0.2246  0.2085
   72ccc     H8 1949   6.019   6.424   9.636 -0.2141  0.5164 -0.2453
   72ccc     O1 1950   6.059   6.901   9.650  0.3846 -0.3549 -0.4484
   72ccc    H17 1951   5.877   6.445   9.564 -0.1741 -0.8776 -1.8354
   73ccc     C1 1952   6.215   7.043  10.447  0.1221  0.1062 -0.6529
   73ccc     H1 1953   6.292   6.966  10.460 -0.2032 -0.0867  0.1881
   73ccc     H2 1954   6.195   7.060  10.341  0.9839 -1.2255 -1.0632
   73ccc     C2 1955   6.263   7.171  10.508  0.1353  0.0384  0.2678
   73ccc     H3 1956   6.189   7.251  10.517  2.1111  1.8775  1.0725
   73ccc     H4 1957   6.286   7.150  10.613 -1.8442  0.2732  0.7796
   73ccc     C3 1958   6.376   7.233  10.421 -0.2272 -0.4137 -1.3070
   73ccc     H5 1959   6.460   7.163  10.413 -0.5905 -1.1458  0.7036
   73ccc     H6 1960   6.420   7.322  10.467 -0.4831 -0.4989 -0.8962
   73ccc     N1 1961   6.088   6.995  10.506 -0.5039 -0.2070 -0.0002
   73ccc     H7 1962   6.083   7.021  10.606 -0.9981 -2.1534  0.5212
   73ccc     H8 1963   6.006   7.028  10.453  0.5835  0.7286 -1.1655
   73ccc     O1 1964   6.336   7.257  10.282 -0.6192  0.4133  0.3277
   73ccc    H17 1965   6.089   6.892  10.503  0.3499 -0.2390  0.8445
   74ccc     C1 1966   4.764   8.148  11.147  0.8263 -0.2871 -0.1553
   74ccc     H1 1967   4.856   8.186  11.191  1.7579 -1.6176 -0.8711
   74ccc     H2 1968   4.736   8.074  11.223  1.1737 -0.0538  0.2049
   74ccc     C2 1969   4.785   8.079  11.008 -0.3119 -0.0088  0.4851
   74ccc     H3 1970   4.694   8.022  10.986 -0.7746  0.5085  1.0118
   74ccc     H4 1971   4.787   8.152  10.926 -0.7562  0.0592  0.5329
   74ccc     C3 1972   4.916   7.991  11.007 -0.1420  0.1290 -0.5814
   74ccc     H5 1973   4.898   7.902  11.069  2.6975  0.9253  1.6047
   74ccc     H6 1974   4.999   8.032  11.065 -0.7589 -0.1862  0.5513
   74ccc     N1 1975   4.671   8.263  11.154  1.2561  0.1880 -0.1023
   74ccc     H7 1976   4.573   8.241  11.127  1.0018 -2.2475  2.3485
   74ccc     H8 1977   4.671   8.294  11.252  1.1176 -2.4041  0.7903
   74ccc     O1 1978   4.956   7.952  10.869  0.2423  0.4192  0.1710
   74ccc    H17 1979   4.694   8.337  11.086  0.3583  0.5140 -0.0641
   75ccc     C1 1980   4.306   7.961  10.486  0.3588 -0.3542 -0.1273
   75ccc     H1 1981   4.201   7.938  10.506  0.3573 -0.5070 -0.2988
   75ccc     H2 1982   4.341   7.876  10.427 -0.8355  0.2890 -1.8681
   75ccc     C2 1983   4.391   7.962  10.614  0.6925  0.0850  0.0620
   75ccc     H3 1984   4.401   8.068  10.641  0.7779 -0.1086  0.8000
   75ccc     H4 1985   4.341   7.915  10.700 -0.0029  0.3162 -0.2078
   75ccc     C3 1986   4.521   7.893  10.596 -0.4461  0.3130 -0.4120
   75ccc     H5 1987   4.507   7.791  10.558  0.7044  0.2590 -0.7255
   75ccc     H6 1988   4.573   7.872  10.690  0.0294  0.5881 -0.6042
   75ccc     N1 1989   4.328   8.086  10.398  0.3135  0.7643 -0.1895
   75ccc     H7 1990   4.429   8.092  10.381  0.5543 -0.4742  0.6372
   75ccc     H8 1991   4.285   8.081  10.305  0.9388  3.0238 -0.6619
   75ccc     O1 1992   4.613   7.970  10.507  0.0051  0.1037 -0.9704
   75ccc    H17 1993   4.296   8.176  10.438  2.0398  1.7948 -1.0109
   76ccc     C1 1994   6.492   7.795  11.611 -0.3011  0.3202  0.3192
   76ccc     H1 1995   6.506   7.696  11.568  3.9651 -0.1587  2.3140
   76ccc     H2 1996   6.455   7.778  11.712 -1.6783 -0.9982 -0.3734
   76ccc     C2 1997   6.387   7.878  11.534  0.3620 -0.0841 -0.1821
   76ccc     H3 1998   6.299   7.867  11.598  0.0199  1.8393 -0.2688
   76ccc     H4 1999   6.405   7.986  11.534  0.0874 -0.0326 -0.8725
   76ccc     C3 2000   6.354   7.838  11.395  0.2650 -0.5865 -0.6411
   76ccc     H5 2001   6.285   7.912  11.352  0.9346 -0.3426 -1.3278
   76ccc     H6 2002   6.306   7.739  11.394 -1.9482  0.4137 -0.0115
   76ccc     N1 2003   6.621   7.875  11.614 -0.2719 -0.0776 -0.0408
   76ccc     H7 2004   6.666   7.909  11.528  0.2666  0.3617  0.4038
   76ccc     H8 2005   6.621   7.962  11.670  0.0288  2.1466 -3.2489
   76ccc     O1 2006   6.477   7.829  11.317 -0.2559 -0.7315  0.6810
   76ccc    H17 2007   6.701   7.823  11.652 -0.6304 -0.8194 -0.2871
   77ccc     C1 2008   6.580   7.239  11.411  0.5114 -0.0589 -0.2417
   77ccc     H1 2009   6.526   7.329  11.382  2.3733  1.2519  0.1659
   77ccc     H2 2010   6.686   7.253  11.391  0.3438 -0.5595 -1.6205
   77ccc     C2 2011   6.525   7.132  11.316 -0.3731  0.8516  0.4528
   77ccc     H3 2012   6.551   7.031  11.349  0.3009 -0.5515 -3.7034
   77ccc     H4 2013   6.416   7.139  11.306 -0.7719 -0.1320  3.2420
   77ccc     C3 2014   6.582   7.138  11.168  0.2104  0.2900  0.7631
   77ccc     H5 2015   6.523   7.078  11.097  0.1683 -0.5560  1.5037
   77ccc     H6 2016   6.681   7.092  11.164 -0.5288 -1.3294  0.2525
   77ccc     N1 2017   6.546   7.211  11.559  0.2986 -0.0430  0.6524
   77ccc     H7 2018   6.545   7.112  11.587  1.7070  0.0938  1.2913
   77ccc     H8 2019   6.613   7.241  11.632  0.3294 -2.3123  1.6493
   77ccc     O1 2020   6.585   7.272  11.115  0.0835 -0.3536  0.6994
   77ccc    H17 2021   6.451   7.244  11.583 -0.4575 -1.3991 -0.3496
   78ccc     C1 2022   5.299   8.679   9.241 -0.2881 -0.2261  0.8003
   78ccc     H1 2023   5.196   8.711   9.256 -0.0249  1.1021 -0.1069
   78ccc     H2 2024   5.308   8.641   9.140  0.7984  0.7696  0.5069
   78ccc     C2 2025   5.341   8.566   9.336 -0.5321  0.2790 -0.0020
   78ccc     H3 2026   5.440   8.531   9.305  0.3247  1.9499  0.7021
   78ccc     H4 2027   5.347   8.613   9.435  0.4797  0.4803 -0.1425
   78ccc     C3 2028   5.243   8.448   9.348 -0.0757 -0.2798  0.2990
   78ccc     H5 2029   5.254   8.385   9.259  1.9604  1.9957 -1.1812
   78ccc     H6 2030   5.139   8.485   9.345  1.1212  3.5006 -2.2699
   78ccc     N1 2031   5.388   8.796   9.251 -0.7769  0.0101  0.7413
   78ccc     H7 2032   5.390   8.832   9.347  1.7853  0.7213  0.4968
   78ccc     H8 2033   5.487   8.776   9.231 -0.3661  0.5860  2.0923
   78ccc     O1 2034   5.265   8.365   9.463 -0.6208  0.1003  0.0466
   78ccc    H17 2035   5.353   8.873   9.192 -0.0009 -1.0754 -1.2190
   79ccc     C1 2036   5.290   7.447  10.103  0.1866 -0.7049  0.0948
   79ccc     H1 2037   5.376   7.505  10.070 -1.5949  1.1583 -1.5798
   79ccc     H2 2038   5.266   7.381  10.019  2.8935 -1.8191  0.0954
   79ccc     C2 2039   5.173   7.538  10.155  0.2140 -0.1329 -0.2236
   79ccc     H3 2040   5.091   7.470  10.181  0.2774 -0.0007  0.3347
   79ccc     H4 2041   5.219   7.574  10.248  0.1264  3.4386 -1.3943
   79ccc     C3 2042   5.135   7.651  10.055  0.2959 -0.4242 -0.1348
   79ccc     H5 2043   5.036   7.696  10.070  0.2160  0.8161 -3.5637
   79ccc     H6 2044   5.116   7.605   9.957  0.6482 -0.2662 -0.2795
   79ccc     N1 2045   5.336   7.349  10.210 -0.3223 -0.6929  0.5855
   79ccc     H7 2046   5.394   7.284  10.156  0.8215  2.5384 -2.4688
   79ccc     H8 2047   5.388   7.390  10.289  1.9929 -2.8022  0.2916
   79ccc     O1 2048   5.242   7.745  10.046  0.4176  0.0406  0.1468
   79ccc    H17 2049   5.255   7.302  10.254 -1.7298 -1.0744 -2.2188
   80ccc     C1 2050   4.889   6.814   9.421 -0.3446 -0.0981 -0.1186
   80ccc     H1 2051   4.873   6.735   9.495 -0.1615 -0.2963 -0.2888
   80ccc     H2 2052   4.964   6.796   9.344 -0.6244  0.0296 -0.4269
   80ccc     C2 2053   4.922   6.944   9.498  0.1184  0.6624  0.0234
   80ccc     H3 2054   4.849   6.958   9.579 -1.1939 -0.5044 -0.9213
   80ccc     H4 2055   5.027   6.943   9.530  0.1928  1.2882 -0.1906
   80ccc     C3 2056   4.914   7.082   9.423 -0.0780 -0.0475  0.1372
   80ccc     H5 2057   4.815   7.130   9.426 -0.0708  0.1530 -1.7714
   80ccc     H6 2058   4.931   7.074   9.315 -0.9661  3.3332 -0.3731
   80ccc     N1 2059   4.770   6.832   9.337  0.0229 -0.7559  0.0080
   80ccc     H7 2060   4.795   6.872   9.245 -0.9344 -0.0337  0.0383
   80ccc     H8 2061   4.738   6.737   9.315 -0.7824 -0.1911 -1.4167
   80ccc     O1 2062   5.020   7.173   9.459  0.4462  0.2485 -0.1864
   80ccc    H17 2063   4.700   6.887   9.389  0.9820  0.5657 -0.0424
   81ccc     C1 2064   4.729   7.866  10.035 -0.0239  0.1205  0.4253
   81ccc     H1 2065   4.794   7.906  10.113  1.3494  1.8676 -1.5148
   81ccc     H2 2066   4.762   7.773   9.989 -0.2689  0.4568 -0.4593
   81ccc     C2 2067   4.716   7.977   9.922 -0.1802  0.0651  0.3243
   81ccc     H3 2068   4.650   7.944   9.841  1.0555  1.2859 -1.2511
   81ccc     H4 2069   4.683   8.072   9.966 -0.1262  0.2464 -0.0225
   81ccc     C3 2070   4.855   7.999   9.863 -0.4758  0.0784 -0.0420
   81ccc     H5 2071   4.931   8.018   9.940 -1.3815  1.6991  0.5188
   81ccc     H6 2072   4.852   8.076   9.785 -0.6601 -1.7197 -1.8817
   81ccc     N1 2073   4.593   7.828  10.090  0.4785  0.4927  0.2448
   81ccc     H7 2074   4.529   7.797  10.016 -0.7214  0.7842  1.1240
   81ccc     H8 2075   4.608   7.748  10.154  1.9896  0.6875  0.1655
   81ccc     O1 2076   4.902   7.876   9.795 -0.1847 -0.5602 -0.3878
   81ccc    H17 2077   4.544   7.906  10.135  0.2307 -0.1746  1.1821
   82ccc     C1 2078   5.991   9.028  10.819 -0.1397 -0.0294  0.0433
   82ccc     H1 2079   5.963   9.118  10.765  0.4026 -0.1011 -0.3637
   82ccc     H2 2080   6.097   9.010  10.835 -0.8350 -2.9645  2.2118
   82ccc     C2 2081   5.924   8.915  10.746  0.1338 -0.0551 -0.1522
   82ccc     H3 2082   5.825   8.952  10.720  0.3972 -1.3627 -3.5326
   82ccc     H4 2083   5.975   8.904  10.649 -0.5770  1.1412 -0.6800
   82ccc     C3 2084   5.918   8.779  10.819  0.7403  0.5667 -0.5993
   82ccc     H5 2085   5.848   8.711  10.769 -0.4475  0.1101  1.5672
   82ccc     H6 2086   5.876   8.802  10.918 -1.1244 -0.1840 -1.1724
   82ccc     N1 2087   5.931   9.051  10.961  0.1838 -0.3910 -0.2352
   82ccc     H7 2088   5.830   9.030  10.965 -0.0340  0.7343  0.5197
   82ccc     H8 2089   5.975   8.985  11.027 -1.1376 -0.0921  1.0046
   82ccc     O1 2090   6.048   8.714  10.819  0.3630  0.1631 -0.4251
   82ccc    H17 2091   5.958   9.138  11.008  1.6452 -1.4972  1.0780
   83ccc     C1 2092   6.624   9.073  11.542 -0.5989 -0.2876 -0.3836
   83ccc     H1 2093   6.723   9.026  11.546 -0.3300  0.3628  1.4546
   83ccc     H2 2094   6.588   9.103  11.640  2.8442  1.3025  0.5552
   83ccc     C2 2095   6.538   8.975  11.462  0.3190 -0.0131  0.4088
   83ccc     H3 2096   6.439   9.019  11.448  0.2259 -0.0085  1.0627
   83ccc     H4 2097   6.579   8.969  11.360  1.6124 -2.0188  0.9671
   83ccc     C3 2098   6.517   8.832  11.524 -0.1204 -0.4517  0.0060
   83ccc     H5 2099   6.475   8.846  11.625  1.5079  2.4928  0.4082
   83ccc     H6 2100   6.614   8.787  11.549 -0.9140 -0.9260  2.5918
   83ccc     N1 2101   6.651   9.207  11.473 -0.4826 -0.2449 -0.0489
   83ccc     H7 2102   6.677   9.194  11.375  2.0976  1.0478  0.3713
   83ccc     H8 2103   6.574   9.275  11.479 -0.8715 -0.7362  0.8488
   83ccc     O1 2104   6.437   8.758  11.433 -0.0423  0.5199  0.0445
   83ccc    H17 2105   6.734   9.248  11.518  0.3327  0.9204 -2.4847
   84ccc     C1 2106   6.369   9.330   9.896 -0.7157 -0.1101  0.1854
   84ccc     H1 2107   6.342   9.227   9.918  1.3005 -0.5825  0.6225
   84ccc     H2 2108   6.370   9.338   9.787  0.6200 -0.9054  0.1120
   84ccc     C2 2109   6.506   9.372   9.954  0.4786 -0.5495 -0.3753
   84ccc     H3 2110   6.576   9.334   9.879  1.0336 -0.9160  0.3142
   84ccc     H4 2111   6.530   9.479   9.962 -1.0305 -0.2841  0.9275
   84ccc     C3 2112   6.544   9.306  10.088 -0.8300  0.8267  0.1313
   84ccc     H5 2113   6.463   9.337  10.155 -0.4033 -0.1776  1.1491
   84ccc     H6 2114   6.640   9.343  10.125  0.7262 -1.3252 -1.4897
   84ccc     N1 2115   6.256   9.416   9.939 -0.1271 -0.3081 -0.3447
   84ccc     H7 2116   6.168   9.396   9.890 -1.5265  2.1725  0.9109
   84ccc     H8 2117   6.251   9.416  10.042  3.4553  0.1185 -0.0385
   84ccc     O1 2118   6.541   9.158  10.080 -0.3327 -0.1674  1.0298
   84ccc    H17 2119   6.276   9.513   9.910  0.2512 -0.1265  0.4806
   85ccc     C1 2120   6.691   9.000  10.930 -0.1253 -0.3333 -0.6506
   85ccc     H1 2121   6.652   9.100  10.908 -1.1849 -0.6797 -0.3797
   85ccc     H2 2122   6.726   8.964  10.833  0.0281 -0.1414 -0.6690
   85ccc     C2 2123   6.577   8.911  10.985  0.2528  0.2490 -0.6267
   85ccc     H3 2124   6.618   8.814  11.015  0.3336  0.4601 -0.0354
   85ccc     H4 2125   6.536   8.946  11.081  0.1442  0.6965 -0.8330
   85ccc     C3 2126   6.466   8.889  10.874  0.3235 -0.5413  0.1953
   85ccc     H5 2127   6.431   8.986  10.836 -0.2893 -0.9539 -0.2943
   85ccc     H6 2128   6.372   8.845  10.909  0.0994  0.5659  1.0721
   85ccc     N1 2129   6.814   9.005  11.022 -0.6431  0.1588 -0.0168
   85ccc     H7 2130   6.860   8.914  11.012 -0.9367 -0.3768  2.6484
   85ccc     H8 2131   6.878   9.081  10.994  0.3429 -0.8121 -0.4549
   85ccc     O1 2132   6.515   8.800  10.773  0.2180 -0.5165 -0.0631
   85ccc    H17 2133   6.791   9.023  11.121  0.0289  2.0025 -0.1478
   86ccc     C1 2134   6.843   7.050   8.416 -0.8784 -0.3375 -0.5198
   86ccc     H1 2135   6.795   7.047   8.318  1.3299  2.3992 -1.8482
   86ccc     H2 2136   6.949   7.027   8.404 -0.4694  1.9109 -1.8487
   86ccc     C2 2137   6.761   6.972   8.516  0.1488  0.1736  0.8111
   86ccc     H3 2138   6.757   7.011   8.618  0.6152 -0.2962  1.0121
   86ccc     H4 2139   6.659   6.977   8.475  0.9616  0.4385 -1.3264
   86ccc     C3 2140   6.805   6.820   8.511  0.2382 -0.0993 -0.2106
   86ccc     H5 2141   6.756   6.760   8.588  1.8915  0.5837  1.4425
   86ccc     H6 2142   6.912   6.808   8.530 -0.1548 -0.9960  1.6313
   86ccc     N1 2143   6.852   7.198   8.454 -0.2655 -0.1512 -0.2683
   86ccc     H7 2144   6.761   7.245   8.453  0.1144  0.8171  2.4352
   86ccc     H8 2145   6.898   7.214   8.545 -1.6635 -1.3170  0.6922
   86ccc     O1 2146   6.772   6.770   8.380  0.4148 -0.0316 -0.2198
   86ccc    H17 2147   6.900   7.256   8.384 -0.6674 -0.6414 -0.9653
   87ccc     C1 2148   6.155   6.477   7.670 -0.2730 -0.1466 -0.6855
   87ccc     H1 2149   6.209   6.388   7.705  3.4557  1.6708 -1.3355
   87ccc     H2 2150   6.225   6.554   7.638 -0.3924  0.4237  0.3922
   87ccc     C2 2151   6.078   6.538   7.785 -0.1442 -0.2503  0.4418
   87ccc     H3 2152   6.014   6.621   7.752  0.2109 -0.2892 -0.3913
   87ccc     H4 2153   6.020   6.457   7.830  0.2296 -1.4252 -1.1010
   87ccc     C3 2154   6.173   6.595   7.891  0.1945  0.3936  0.0727
   87ccc     H5 2155   6.124   6.615   7.987  0.8906 -3.0162  1.2794
   87ccc     H6 2156   6.217   6.688   7.854  1.1946  0.5580  1.5761
   87ccc     N1 2157   6.070   6.428   7.557 -0.4960 -0.5952 -0.5570
   87ccc     H7 2158   6.016   6.346   7.589  0.3561 -1.0257 -0.1884
   87ccc     H8 2159   6.017   6.505   7.514 -1.0457 -0.0275  1.0938
   87ccc     O1 2160   6.283   6.500   7.923  0.1689  0.1058 -0.3291
   87ccc    H17 2161   6.127   6.388   7.481  0.8270  1.2661 -0.6077
   88ccc     C1 2162   7.365   6.804   6.761  0.1632 -0.1150  0.0713
   88ccc     H1 2163   7.402   6.805   6.658 -0.4976  1.7731 -0.1874
   88ccc     H2 2164   7.296   6.888   6.769  0.3183 -0.0437  0.6732
   88ccc     C2 2165   7.491   6.824   6.850 -1.0789 -0.7390  0.2166
   88ccc     H3 2166   7.561   6.740   6.837  0.7927  0.8026 -0.1269
   88ccc     H4 2167   7.541   6.917   6.820 -0.7550 -1.0143 -0.1072
   88ccc     C3 2168   7.469   6.840   7.000  0.4824  0.8834  0.4714
   88ccc     H5 2169   7.514   6.770   7.071 -0.4528  1.9050  2.1418
   88ccc     H6 2170   7.360   6.837   7.009  0.2407 -0.1651 -1.9387
   88ccc     N1 2171   7.281   6.676   6.782  0.1284  0.1706 -0.1375
   88ccc     H7 2172   7.355   6.605   6.793  1.0636  0.8223 -1.7720
   88ccc     H8 2173   7.228   6.688   6.869 -1.0921  1.3522 -1.0044
   88ccc     O1 2174   7.526   6.960   7.038 -0.0406  0.2472 -0.3420
   88ccc    H17 2175   7.215   6.647   6.709  0.9662 -0.9445 -0.4758
   89ccc     C1 2176   8.252   7.315   7.290  0.7835  0.3176  1.0937
   89ccc     H1 2177   8.267   7.216   7.246  0.8967  0.3878  0.9718
   89ccc     H2 2178   8.191   7.304   7.380  0.5814  0.1872  0.9411
   89ccc     C2 2179   8.186   7.403   7.180  0.8359  0.1952 -0.1112
   89ccc     H3 2180   8.173   7.504   7.220  1.0223 -0.4402  1.6243
   89ccc     H4 2181   8.253   7.411   7.093 -0.2424 -0.2086 -1.0168
   89ccc     C3 2182   8.044   7.347   7.148 -0.9065  0.2248  0.2249
   89ccc     H5 2183   8.051   7.240   7.125  1.7507  0.0163  1.6486
   89ccc     H6 2184   8.012   7.399   7.056  0.2141  1.1574  0.3333
   89ccc     N1 2185   8.390   7.359   7.343  0.9027  0.1381  0.7397
   89ccc     H7 2186   8.464   7.345   7.272 -0.5544 -0.4628 -0.7307
   89ccc     H8 2187   8.397   7.459   7.367 -1.8136  0.7512 -0.5627
   89ccc     O1 2188   7.957   7.367   7.263  0.1456 -0.4330 -0.3133
   89ccc    H17 2189   8.420   7.303   7.424 -0.1073 -0.4621  0.7174
   90ccc     C1 2190   7.756   6.664   9.927 -0.6247 -0.5338  0.2585
   90ccc     H1 2191   7.652   6.633   9.927 -0.8831  0.1956  2.1630
   90ccc     H2 2192   7.761   6.772   9.942 -1.3055  0.0168 -2.8243
   90ccc     C2 2193   7.826   6.620   9.795 -0.9599 -0.5563 -0.3370
   90ccc     H3 2194   7.926   6.666   9.800 -0.8436 -0.9179  2.0097
   90ccc     H4 2195   7.843   6.512   9.792 -0.0145 -0.4539  0.6905
   90ccc     C3 2196   7.735   6.660   9.665 -0.6123 -0.6316 -1.1966
   90ccc     H5 2197   7.638   6.609   9.668  0.2322 -2.2692  0.5615
   90ccc     H6 2198   7.788   6.625   9.576 -0.2755 -1.0131 -0.8515
   90ccc     N1 2199   7.813   6.597  10.043 -0.2355  0.2641  0.1648
   90ccc     H7 2200   7.817   6.495  10.039 -0.6641  0.2698 -0.6050
   90ccc     H8 2201   7.912   6.623  10.056  0.1999 -1.2201 -0.0037
   90ccc     O1 2202   7.722   6.801   9.658 -0.0373  0.3140 -0.0716
   90ccc    H17 2203   7.763   6.629  10.128  0.1981 -1.1144  0.9729
   91ccc     C1 2204   7.879   6.825   9.290 -0.0531  0.6649  0.1074
   91ccc     H1 2205   7.793   6.860   9.348 -2.6073 -0.6219 -2.6729
   91ccc     H2 2206   7.969   6.801   9.348  0.5156 -0.5854 -1.2526
   91ccc     C2 2207   7.923   6.935   9.190  0.3603 -0.6244 -0.0568
   91ccc     H3 2208   7.951   7.023   9.250  0.4794  0.8368 -2.1443
   91ccc     H4 2209   8.011   6.901   9.134 -0.3103 -0.9312 -0.9577
   91ccc     C3 2210   7.809   6.983   9.094 -0.5665 -0.8030 -0.5407
   91ccc     H5 2211   7.768   6.904   9.030  1.6513  0.2912 -3.5194
   91ccc     H6 2212   7.839   7.066   9.030  0.8077 -0.1569  0.8815
   91ccc     N1 2213   7.841   6.699   9.209  0.2776  0.2026  0.2496
   91ccc     H7 2214   7.811   6.624   9.273  1.8870  0.7690  1.7434
   91ccc     H8 2215   7.763   6.716   9.144  0.0564  1.3072  0.7945
   91ccc     O1 2216   7.709   7.050   9.179  0.4669  0.0362 -0.0481
   91ccc    H17 2217   7.919   6.660   9.153  0.9425 -2.4134  2.7168
   92ccc     C1 2218   5.682   7.471   8.422  0.3764  0.1265  0.2802
   92ccc     H1 2219   5.787   7.473   8.394  0.3002  1.9335  0.0144
   92ccc     H2 2220   5.664   7.541   8.504 -0.4347 -0.6377  0.7876
   92ccc     C2 2221   5.627   7.324   8.448  0.2301  0.1504  0.7643
   92ccc     H3 2222   5.518   7.324   8.457  0.1732 -1.6621  0.2997
   92ccc     H4 2223   5.648   7.260   8.362  0.3278  0.3547  0.6361
   92ccc     C3 2224   5.698   7.270   8.575  0.3363  0.2889  0.4261
   92ccc     H5 2225   5.804   7.289   8.556  0.6675  0.4469  2.2441
   92ccc     H6 2226   5.681   7.163   8.591 -0.4862  0.2167 -0.7985
   92ccc     N1 2227   5.603   7.538   8.313 -0.2045  0.3667  0.6308
   92ccc     H7 2228   5.644   7.625   8.277 -0.1168 -0.0221 -0.2545
   92ccc     H8 2229   5.594   7.472   8.234 -1.6471 -0.8333  1.7439
   92ccc     O1 2230   5.653   7.334   8.696  0.1346 -0.4614 -0.1962
   92ccc    H17 2231   5.507   7.560   8.342  0.3784 -0.1517  3.2389
   93ccc     C1 2232   5.360   6.796   8.954  0.2013 -0.4122 -0.1648
   93ccc     H1 2233   5.453   6.853   8.945 -1.0922  1.5954 -1.9956
   93ccc     H2 2234   5.281   6.860   8.913  0.6711 -0.0067 -0.4518
   93ccc     C2 2235   5.326   6.755   9.096  0.2342  0.3929 -0.3694
   93ccc     H3 2236   5.251   6.674   9.100  0.3817  0.2719 -0.0663
   93ccc     H4 2237   5.415   6.710   9.142  0.5704  2.0238  0.6167
   93ccc     C3 2238   5.272   6.880   9.176 -0.1943  0.2478  0.7892
   93ccc     H5 2239   5.233   6.845   9.272  2.9415  0.5437  2.2988
   93ccc     H6 2240   5.186   6.928   9.126  0.0738  0.7286  0.7791
   93ccc     N1 2241   5.389   6.685   8.857 -0.1202  0.4342 -0.0445
   93ccc     H7 2242   5.416   6.723   8.766  2.3902 -0.5121  0.1910
   93ccc     H8 2243   5.469   6.624   8.881 -0.1658  0.3326 -0.1541
   93ccc     O1 2244   5.382   6.966   9.205 -0.0684  0.0374  0.2986
   93ccc    H17 2245   5.299   6.642   8.835 -0.2237  0.4083  0.4079
   94ccc     C1 2246   8.275   4.763   8.627 -0.4510 -0.2386  0.2384
   94ccc     H1 2247   8.298   4.703   8.539  2.0398  1.0125 -0.0641
   94ccc     H2 2248   8.171   4.796   8.625 -0.1511  0.7853  0.7037
   94ccc     C2 2249   8.370   4.884   8.624  0.6322  0.6108 -0.2120
   94ccc     H3 2250   8.337   4.942   8.711  0.7955  0.5436 -0.1032
   94ccc     H4 2251   8.476   4.855   8.624  0.6128  0.5116 -1.2182
   94ccc     C3 2252   8.349   4.975   8.502  0.3840  0.2866 -0.6514
   94ccc     H5 2253   8.361   4.912   8.413  0.0600 -0.0881 -0.4336
   94ccc     H6 2254   8.425   5.054   8.494  1.1169 -0.5599 -3.9388
   94ccc     N1 2255   8.307   4.677   8.750 -0.1961  0.5966  0.3450
   94ccc     H7 2256   8.247   4.593   8.741 -1.0776  1.2505 -0.0103
   94ccc     H8 2257   8.406   4.647   8.755 -0.2253 -0.0237 -1.8125
   94ccc     O1 2258   8.218   5.021   8.529  0.7816 -0.4935  0.1146
   94ccc    H17 2259   8.275   4.726   8.835 -2.4656  0.7055 -0.5278
   95ccc     C1 2260   8.274   5.346   9.178 -0.0411  0.3377  0.1262
   95ccc     H1 2261   8.324   5.443   9.180  0.1418  0.2516  3.0628
   95ccc     H2 2262   8.303   5.301   9.273 -0.5326 -1.2214 -0.4305
   95ccc     C2 2263   8.327   5.265   9.055  0.0594  1.2497 -0.2947
   95ccc     H3 2264   8.435   5.246   9.066 -0.1523  0.4526  0.4980
   95ccc     H4 2265   8.276   5.168   9.060  0.4796  1.0683  0.9336
   95ccc     C3 2266   8.302   5.335   8.925 -0.2084 -0.4637 -0.1871
   95ccc     H5 2267   8.362   5.289   8.846  0.6682 -0.1235  0.2705
   95ccc     H6 2268   8.335   5.440   8.934 -0.8580 -0.3971  1.7600
   95ccc     N1 2269   8.125   5.367   9.195  0.0651  0.1920  0.1579
   95ccc     H7 2270   8.086   5.417   9.114 -1.5436 -1.0607  0.1031
   95ccc     H8 2271   8.084   5.274   9.180  2.6131 -0.7931 -1.2735
   95ccc     O1 2272   8.160   5.336   8.883  0.0942 -0.4030  0.2314
   95ccc    H17 2273   8.102   5.406   9.288  2.0062  0.2481  0.6692
   96ccc     C1 2274   5.823   5.264   7.077 -0.8748  0.5134 -0.2322
   96ccc     H1 2275   5.751   5.316   7.140 -0.6901  2.3424 -1.4341
   96ccc     H2 2276   5.808   5.157   7.091  2.6206 -0.3402 -1.8257
   96ccc     C2 2277   5.968   5.306   7.107 -0.2580  0.5863 -0.0816
   96ccc     H3 2278   6.042   5.293   7.027  0.4324 -1.6968  0.8352
   96ccc     H4 2279   5.957   5.414   7.123  1.1271  1.0805 -2.0663
   96ccc     C3 2280   6.038   5.255   7.238  0.1202  0.1286  0.0732
   96ccc     H5 2281   6.028   5.146   7.246 -0.2252  0.2120  0.8861
   96ccc     H6 2282   5.992   5.311   7.320  1.2040  0.3380  0.5569
   96ccc     N1 2283   5.780   5.288   6.935  0.2547  0.1492 -0.3497
   96ccc     H7 2284   5.784   5.387   6.907 -1.5869  0.3044 -0.2109
   96ccc     H8 2285   5.829   5.219   6.876 -1.9998 -0.7793 -1.2505
   96ccc     O1 2286   6.179   5.306   7.257  1.0068  0.3051  0.6599
   96ccc    H17 2287   5.685   5.259   6.909  0.2802  0.5473 -0.8833
   97ccc     C1 2288   6.181   5.992   7.480  0.0362  0.0205 -0.0424
   97ccc     H1 2289   6.164   6.097   7.454 -0.0144  0.3559  1.2576
   97ccc     H2 2290   6.190   5.975   7.588  1.4628 -1.4662 -0.3516
   97ccc     C2 2291   6.316   5.964   7.415  0.5903  0.1581 -0.7954
   97ccc     H3 2292   6.311   5.977   7.306 -0.3702  1.2793 -0.6366
   97ccc     H4 2293   6.391   6.031   7.459  0.5674 -0.7540  0.6813
   97ccc     C3 2294   6.353   5.816   7.443 -0.2731 -0.0058 -0.5475
   97ccc     H5 2295   6.292   5.742   7.389 -0.6689 -1.0606  1.2707
   97ccc     H6 2296   6.339   5.793   7.549 -1.2663 -2.4790 -1.1493
   97ccc     N1 2297   6.062   5.919   7.420 -0.1848  0.6553 -0.3555
   97ccc     H7 2298   6.063   5.821   7.453  0.1683  1.0334  0.8321
   97ccc     H8 2299   5.968   5.953   7.445 -0.6811  0.4482 -1.8628
   97ccc     O1 2300   6.500   5.804   7.414  0.4289  0.0328  0.3727
   97ccc    H17 2301   6.061   5.909   7.318  0.2475 -0.4367 -0.2731
   98ccc     C1 2302   7.948   4.783   9.715 -0.3023  0.9570  0.4634
   98ccc     H1 2303   7.845   4.799   9.747  0.1907  0.9044  2.1920
   98ccc     H2 2304   7.983   4.861   9.648  1.4628 -0.3054 -0.1479
   98ccc     C2 2305   7.973   4.641   9.657 -0.2089 -0.0176  0.5255
   98ccc     H3 2306   8.071   4.636   9.609 -1.2947  1.5761 -2.0963
   98ccc     H4 2307   7.966   4.570   9.741 -1.0531  1.7223  1.9978
   98ccc     C3 2308   7.875   4.595   9.549  0.2053  0.5661 -0.3598
   98ccc     H5 2309   7.773   4.631   9.566 -1.1442 -2.9359 -0.0803
   98ccc     H6 2310   7.874   4.485   9.552  0.2914  0.5888  1.8732
   98ccc     N1 2311   8.033   4.819   9.835  0.2679 -0.0788 -0.3128
   98ccc     H7 2312   8.121   4.855   9.794  0.6307 -1.4927 -0.8657
   98ccc     H8 2313   7.995   4.900   9.886 -0.6090  0.2608 -1.4838
   98ccc     O1 2314   7.911   4.635   9.419  0.7193 -0.3966  0.0296
   98ccc    H17 2315   8.072   4.746   9.898  0.3450  0.4355  0.2496
   99ccc     C1 2316   7.530   4.396   9.714  0.1984 -0.0009  0.1373
   99ccc     H1 2317   7.450   4.416   9.642 -0.7780 -0.1508  1.1396
   99ccc     H2 2318   7.611   4.464   9.687 -1.0536  1.3411 -0.3829
   99ccc     C2 2319   7.586   4.251   9.699 -0.3254 -0.4156 -0.7711
   99ccc     H3 2320   7.671   4.239   9.767  0.0973  0.7277 -1.0814
   99ccc     H4 2321   7.507   4.182   9.731  0.0595  0.2606  1.8613
   99ccc     C3 2322   7.646   4.220   9.562  0.2816  0.0441 -0.0561
   99ccc     H5 2323   7.699   4.125   9.554 -0.7263 -0.4715 -0.8132
   99ccc     H6 2324   7.707   4.303   9.523 -0.9640  2.3495  2.4943
   99ccc     N1 2325   7.486   4.428   9.856  0.2156 -0.5476  0.1675
   99ccc     H7 2326   7.561   4.436   9.926  0.3020 -1.8303  0.2333
   99ccc     H8 2327   7.452   4.525   9.852 -0.4685 -0.8140 -0.6992
   99ccc     O1 2328   7.530   4.217   9.473  0.2929 -0.1817  0.5457
   99ccc    H17 2329   7.412   4.365   9.888 -0.9639  0.3222 -0.7670
  100ccc     C1 2330   6.917   4.390   8.449  0.5009  0.1690  0.1872
  100ccc     H1 2331   6.927   4.370   8.343  1.8072  0.7441  0.1889
  100ccc     H2 2332   6.822   4.350   8.486  0.2872  0.5360  0.0418
  100ccc     C2 2333   6.908   4.546   8.482  0.8607 -0.1104 -0.4501
  100ccc     H3 2334   6.914   4.563   8.590 -1.2249 -3.3437  0.2902
  100ccc     H4 2335   7.002   4.597   8.455  0.8575  0.7788  1.0852
  100ccc     C3 2336   6.792   4.619   8.406 -0.3029  0.4026 -0.1125
  100ccc     H5 2337   6.752   4.695   8.474 -0.5282 -0.2103  0.4518
  100ccc     H6 2338   6.716   4.550   8.368 -1.1166  0.7932  0.7689
  100ccc     N1 2339   7.031   4.325   8.516 -0.0067  0.1483  0.2367
  100ccc     H7 2340   7.020   4.352   8.615 -1.1177  1.4605 -0.2102
  100ccc     H8 2341   7.039   4.225   8.492 -1.9612 -0.1063  0.5040
  100ccc     O1 2342   6.838   4.668   8.276 -0.3780  0.4044 -0.0428
  100ccc    H17 2343   7.119   4.375   8.493  0.9158 -1.4380  0.1644
  101ccc     C1 2344   6.292   5.466   8.499  0.1032 -0.7168  0.0540
  101ccc     H1 2345   6.202   5.426   8.452 -1.0530  1.7403  0.0036
  101ccc     H2 2346   6.267   5.541   8.576 -0.3105  0.3004 -1.0394
  101ccc     C2 2347   6.373   5.532   8.388  0.4951  0.4226 -0.1235
  101ccc     H3 2348   6.326   5.630   8.369 -0.8225 -0.2747 -0.6205
  101ccc     H4 2349   6.469   5.568   8.426 -0.2661  1.6214  0.7425
  101ccc     C3 2350   6.391   5.444   8.263 -0.9671 -0.3611  0.6255
  101ccc     H5 2351   6.452   5.499   8.190 -0.0361  2.4628  3.2895
  101ccc     H6 2352   6.293   5.436   8.216 -0.7698  1.1224 -0.1038
  101ccc     N1 2353   6.361   5.355   8.582 -0.1693 -0.7361  0.3107
  101ccc     H7 2354   6.450   5.387   8.623 -0.3090 -1.9771  1.6985
  101ccc     H8 2355   6.296   5.335   8.660 -0.3425 -1.7019 -0.0767
  101ccc     O1 2356   6.466   5.318   8.287  0.6190  0.3172  0.1762
  101ccc    H17 2357   6.376   5.269   8.527 -0.8822 -0.8744  0.3229
  102ccc     C1 2358   6.110   8.976   9.391 -0.2416  0.2837  0.0156
  102ccc     H1 2359   6.029   8.933   9.332  1.7707 -1.7455 -1.4748
  102ccc     H2 2360   6.198   8.912   9.377 -0.2704  0.5466 -1.5012
  102ccc     C2 2361   6.080   8.965   9.540 -0.1743  0.3151  0.6858
  102ccc     H3 2362   6.148   9.011   9.613  0.6229  0.5321 -0.1720
  102ccc     H4 2363   5.984   9.011   9.563 -0.0654  0.5462  0.6811
  102ccc     C3 2364   6.049   8.814   9.567  0.1073  0.2421  0.7575
  102ccc     H5 2365   5.949   8.789   9.528 -0.3730 -0.0235  2.0976
  102ccc     H6 2366   6.043   8.806   9.676 -0.1899  1.2480  0.8279
  102ccc     N1 2367   6.159   9.110   9.346 -0.1828 -0.3544 -0.0361
  102ccc     H7 2368   6.220   9.096   9.264 -0.6520 -1.1445 -0.2585
  102ccc     H8 2369   6.088   9.160   9.290 -0.4253  0.1835  0.7313
  102ccc     O1 2370   6.144   8.732   9.500  0.0947  0.5640  0.6550
  102ccc    H17 2371   6.194   9.166   9.425  2.4666 -1.9461  0.0318
  103ccc     C1 2372   6.780   8.431   9.250  0.5720  0.7954 -0.1885
  103ccc     H1 2373   6.690   8.491   9.266  0.0128 -0.3116  1.0339
  103ccc     H2 2374   6.752   8.328   9.227 -1.3968  1.3307 -0.3760
  103ccc     C2 2375   6.860   8.433   9.383 -0.1867  0.4115  0.3824
  103ccc     H3 2376   6.964   8.403   9.368 -0.2622  1.0408 -1.7338
  103ccc     H4 2377   6.872   8.535   9.421  0.5880 -0.0253  1.3379
  103ccc     C3 2378   6.804   8.335   9.479 -0.1507  0.0508  0.5649
  103ccc     H5 2379   6.869   8.332   9.568  2.0962 -2.4422 -0.9954
  103ccc     H6 2380   6.812   8.229   9.452  0.3865 -0.2458  1.8159
  103ccc     N1 2381   6.848   8.486   9.125  0.7052  0.6308 -0.5736
  103ccc     H7 2382   6.899   8.421   9.062  2.0757  2.0453 -1.0017
  103ccc     H8 2383   6.770   8.523   9.069  0.1758 -0.2621 -0.4572
  103ccc     O1 2384   6.665   8.360   9.519 -0.3640  0.0081  0.7798
  103ccc    H17 2385   6.907   8.566   9.151 -0.4814  1.1521  0.5596
  104ccc     C1 2386   5.111   7.081   8.598 -0.0788  0.4744  0.6379
  104ccc     H1 2387   5.065   7.140   8.678 -2.7537 -1.8114  0.9433
  104ccc     H2 2388   5.117   6.978   8.635  0.6610 -1.2794 -3.7455
  104ccc     C2 2389   5.255   7.129   8.579 -0.0497 -0.4382 -0.1624
  104ccc     H3 2390   5.307   7.068   8.504  0.1776 -1.2401  0.6294
  104ccc     H4 2391   5.263   7.234   8.548  2.2404 -0.7911 -0.9425
  104ccc     C3 2392   5.341   7.120   8.706 -0.2687  0.4376  0.2948
  104ccc     H5 2393   5.444   7.153   8.687  0.0138  0.1608  1.2733
  104ccc     H6 2394   5.349   7.016   8.741  1.0981 -0.1845 -1.6565
  104ccc     N1 2395   5.019   7.098   8.483  0.3572  0.1137  0.1931
  104ccc     H7 2396   5.012   7.200   8.468  2.0833  0.5178  1.7410
  104ccc     H8 2397   5.047   7.062   8.390 -2.3888 -1.2137 -0.2067
  104ccc     O1 2398   5.283   7.201   8.809  0.3586 -0.4118  0.2759
  104ccc    H17 2399   4.925   7.067   8.511  0.8270 -0.9169  0.6679
  105ccc     C1 2400   4.738   8.192   8.987  0.0385  0.3604  0.1573
  105ccc     H1 2401   4.804   8.279   8.989  0.2630  0.1808  0.5519
  105ccc     H2 2402   4.692   8.186   9.086 -2.7606 -1.2106 -1.1223
  105ccc     C2 2403   4.834   8.068   8.975  0.3093  0.3505 -0.0530
  105ccc     H3 2404   4.824   8.024   8.875 -0.4870  0.8780 -0.2210
  105ccc     H4 2405   4.933   8.110   8.995  0.1039  0.3815  1.0062
  105ccc     C3 2406   4.814   7.954   9.072 -0.7366 -0.6243 -0.0702
  105ccc     H5 2407   4.753   7.868   9.043  1.5467 -2.0162 -1.0185
  105ccc     H6 2408   4.775   7.995   9.166 -0.4396  2.3997 -1.1435
  105ccc     N1 2409   4.631   8.201   8.874  0.3768  0.0276  0.5287
  105ccc     H7 2410   4.661   8.226   8.778 -4.0097  2.3669 -0.4952
  105ccc     H8 2411   4.567   8.121   8.864  0.9710 -0.3128 -0.9078
  105ccc     O1 2412   4.946   7.892   9.096 -0.1316  0.1261 -0.7442
  105ccc    H17 2413   4.581   8.285   8.905 -0.4599 -0.4276  0.4256
  106ccc     C1 2414   5.899   7.946   7.579 -0.3088  0.7661  0.0340
  106ccc     H1 2415   5.926   8.044   7.541 -0.3030  0.9360  0.4644
  106ccc     H2 2416   5.791   7.931   7.580 -0.2252  0.1368  0.4547
  106ccc     C2 2417   5.953   7.938   7.724  0.1581 -0.2757  0.0674
  106ccc     H3 2418   5.952   7.837   7.766  1.8353  0.0874  1.0827
  106ccc     H4 2419   6.057   7.972   7.719  0.0629  0.1948  0.9852
  106ccc     C3 2420   5.880   8.036   7.814  0.0720  0.8763 -0.0964
  106ccc     H5 2421   5.901   8.137   7.777  0.2228  0.4381 -1.2530
  106ccc     H6 2422   5.916   8.027   7.917 -2.7722 -2.9757  0.7674
  106ccc     N1 2423   5.967   7.834   7.503 -0.0500  0.4388 -0.4111
  106ccc     H7 2424   6.067   7.834   7.529 -0.0537  0.6060 -0.3917
  106ccc     H8 2425   5.931   7.739   7.518  0.2679  0.5710  1.4359
  106ccc     O1 2426   5.736   8.027   7.797  0.1392  0.4584  0.7413
  106ccc    H17 2427   5.962   7.850   7.401  2.8968  0.0440 -0.7116
  107ccc     C1 2428   4.763   7.971   8.064  0.1891  0.1351 -0.4844
  107ccc     H1 2429   4.869   7.962   8.091 -0.2073 -0.1086  1.1210
  107ccc     H2 2430   4.742   7.873   8.021  1.0677  1.0600 -3.1865
  107ccc     C2 2431   4.743   8.076   7.958 -0.0903 -0.0319  0.1693
  107ccc     H3 2432   4.645   8.069   7.910 -0.2514  1.0771  0.3128
  107ccc     H4 2433   4.759   8.176   8.000 -1.1380 -0.2243  1.0809
  107ccc     C3 2434   4.843   8.062   7.841  0.4970  0.7506 -0.8926
  107ccc     H5 2435   4.827   8.128   7.755  1.3006 -0.4493 -2.0184
  107ccc     H6 2436   4.848   7.959   7.802 -3.0288 -0.2875  0.9683
  107ccc     N1 2437   4.670   7.996   8.187  0.3606 -0.2535 -0.1211
  107ccc     H7 2438   4.679   8.093   8.219  0.1910  0.1304 -1.2105
  107ccc     H8 2439   4.569   7.985   8.167  0.1204  3.3755 -1.4802
  107ccc     O1 2440   4.964   8.098   7.897 -0.6978  0.6903 -0.8379
  107ccc    H17 2441   4.692   7.937   8.269  1.6554  2.3614  1.5715
  108ccc     C1 2442   5.411   8.556   9.808  0.3223 -0.2515 -0.5410
  108ccc     H1 2443   5.488   8.627   9.836  0.2493  1.9798 -5.1593
  108ccc     H2 2444   5.367   8.497   9.889 -1.6320  0.5577 -0.9532
  108ccc     C2 2445   5.478   8.451   9.728  0.2722  0.8561 -0.1263
  108ccc     H3 2446   5.409   8.371   9.698 -0.7233  1.7831 -0.3985
  108ccc     H4 2447   5.528   8.493   9.640  2.8282  0.5927  1.1182
  108ccc     C3 2448   5.595   8.379   9.797  0.6471  0.3331 -0.9789
  108ccc     H5 2449   5.549   8.319   9.877  1.8726  1.1147  0.3636
  108ccc     H6 2450   5.671   8.446   9.840  0.9692 -0.0159 -1.0031
  108ccc     N1 2451   5.308   8.633   9.734  0.2029 -0.5078  0.1400
  108ccc     H7 2452   5.262   8.692   9.804 -0.7524 -1.2499  0.1526
  108ccc     H8 2453   5.331   8.684   9.647 -1.4155  2.0449  1.0829
  108ccc     O1 2454   5.653   8.295   9.702 -0.4065  0.9474  0.2318
  108ccc    H17 2455   5.235   8.564   9.710 -1.4579  0.2476  2.6898
  109ccc     C1 2456   5.304   7.940   8.843 -0.3907  0.2971 -0.1340
  109ccc     H1 2457   5.199   7.911   8.831 -0.4221 -0.3475  1.4228
  109ccc     H2 2458   5.340   7.881   8.928  0.5359  1.8742  0.6186
  109ccc     C2 2459   5.326   8.083   8.876 -0.5501  0.7661  0.4634
  109ccc     H3 2460   5.431   8.113   8.861  0.7265 -1.9762  2.9726
  109ccc     H4 2461   5.264   8.144   8.808 -2.0062  0.6297  1.6224
  109ccc     C3 2462   5.283   8.105   9.022  0.3354 -0.3578  0.6558
  109ccc     H5 2463   5.174   8.092   9.026 -0.2444  2.5570 -1.5802
  109ccc     H6 2464   5.306   8.210   9.046  0.6800 -0.0709 -0.7864
  109ccc     N1 2465   5.365   7.888   8.718  0.9555 -0.5422  0.4109
  109ccc     H7 2466   5.356   7.786   8.705  0.5971 -0.5151  0.4115
  109ccc     H8 2467   5.314   7.940   8.645 -0.0335 -0.0922  1.3836
  109ccc     O1 2468   5.351   8.013   9.115 -0.1154 -0.1383 -0.3217
  109ccc    H17 2469   5.466   7.906   8.725  1.2346 -2.0525  0.5238
  110ccc     C1 2470   8.658   5.542   6.689  0.1390  0.4644 -0.2410
  110ccc     H1 2471   8.624   5.640   6.725 -0.2863 -0.1530  1.1072
  110ccc     H2 2472   8.614   5.539   6.589  0.7888  0.4027 -0.5285
  110ccc     C2 2473   8.590   5.432   6.774  0.0302  0.2140  0.0597
  110ccc     H3 2474   8.483   5.421   6.754 -0.5567  0.3124  2.7158
  110ccc     H4 2475   8.639   5.340   6.741 -1.4172 -0.4033 -0.4630
  110ccc     C3 2476   8.613   5.447   6.924  0.0308  0.4874  0.4717
  110ccc     H5 2477   8.717   5.419   6.945  1.0086  0.8369 -3.1976
  110ccc     H6 2478   8.555   5.387   6.994  0.5292 -0.5181  0.0378
  110ccc     N1 2479   8.810   5.544   6.678  0.1195  0.0289  0.5352
  110ccc     H7 2480   8.855   5.543   6.771  0.2623 -1.9089  0.4994
  110ccc     H8 2481   8.849   5.461   6.631  0.6270  1.4120 -1.5956
  110ccc     O1 2482   8.586   5.582   6.971 -0.2307 -0.0368 -0.5332
  110ccc    H17 2483   8.834   5.632   6.630  0.7378 -1.5797 -2.3347
  111ccc     C1 2484   8.112   5.166   6.873 -0.3502  0.8404  0.3042
  111ccc     H1 2485   8.130   5.100   6.958  0.9789 -0.3983 -0.8885
  111ccc     H2 2486   8.185   5.247   6.877 -0.1678  0.6872  0.0982
  111ccc     C2 2487   7.968   5.219   6.871  0.2241 -0.3001  0.1840
  111ccc     H3 2488   7.960   5.286   6.784 -2.0178  0.7775  1.1435
  111ccc     H4 2489   7.900   5.136   6.848  0.3610 -0.0187 -1.3273
  111ccc     C3 2490   7.928   5.276   7.008  0.0449 -0.1055  0.3173
  111ccc     H5 2491   7.935   5.192   7.078 -0.8163 -0.2749  0.2139
  111ccc     H6 2492   7.825   5.313   7.007 -0.1490 -0.4909  2.4409
  111ccc     N1 2493   8.159   5.089   6.747  0.3782 -0.3849  0.0109
  111ccc     H7 2494   8.090   5.027   6.702  0.5880 -0.3646 -0.3511
  111ccc     H8 2495   8.180   5.152   6.668 -0.3186  0.9736  0.8757
  111ccc     O1 2496   8.019   5.374   7.060  0.6817  1.0134 -0.7865
  111ccc    H17 2497   8.235   5.020   6.758 -0.3506 -1.0570  1.0467
  112ccc     C1 2498   7.367   4.954   7.364 -0.3089 -0.3249  0.5178
  112ccc     H1 2499   7.465   4.919   7.396  1.1679  0.4002 -2.7692
  112ccc     H2 2500   7.383   4.999   7.266 -2.1861 -0.5525  0.0738
  112ccc     C2 2501   7.333   5.078   7.456  0.0787  0.2582  0.2095
  112ccc     H3 2502   7.255   5.133   7.401 -0.4744  0.1385  0.8505
  112ccc     H4 2503   7.296   5.033   7.549  0.9314  2.1285  1.5135
  112ccc     C3 2504   7.455   5.157   7.502  0.3871  0.5294 -1.1545
  112ccc     H5 2505   7.535   5.098   7.546 -2.6709 -1.0897  2.7894
  112ccc     H6 2506   7.423   5.218   7.587 -0.6924  2.0235 -2.5463
  112ccc     N1 2507   7.256   4.855   7.356  0.1181 -0.2721 -0.5397
  112ccc     H7 2508   7.166   4.905   7.356  1.6659  2.8225 -2.4678
  112ccc     H8 2509   7.253   4.808   7.264  0.7198  1.7310 -1.6364
  112ccc     O1 2510   7.502   5.236   7.392  0.4650  0.1595  0.6238
  112ccc    H17 2511   7.264   4.783   7.430  1.8577 -0.4006 -0.8154
  113ccc     C1 2512   7.996   5.318   7.891 -0.1927 -0.9675 -0.1745
  113ccc     H1 2513   7.988   5.242   7.813  0.4738 -0.6394 -0.5704
  113ccc     H2 2514   7.914   5.319   7.962  0.3114  1.0837  0.4451
  113ccc     C2 2515   8.011   5.461   7.828  0.2678  0.3076  0.2276
  113ccc     H3 2516   8.032   5.533   7.908 -0.7028 -0.6988  1.4187
  113ccc     H4 2517   8.089   5.476   7.752 -0.4230 -1.2518 -0.8299
  113ccc     C3 2518   7.876   5.510   7.772 -0.1762 -0.0879  0.1419
  113ccc     H5 2519   7.802   5.493   7.851 -0.0419 -1.3952  0.0179
  113ccc     H6 2520   7.853   5.441   7.689 -1.6072 -0.3442  0.7120
  113ccc     N1 2521   8.119   5.281   7.966  0.6555  0.3374 -0.1737
  113ccc     H7 2522   8.202   5.283   7.905  1.9266  2.0782  1.4986
  113ccc     H8 2523   8.138   5.345   8.044  3.4749  1.2875 -1.5036
  113ccc     O1 2524   7.889   5.651   7.745  0.0286 -0.0221  0.1447
  113ccc    H17 2525   8.116   5.181   7.994 -3.3115  0.4955  0.6191
  114ccc     C1 2526   6.222   5.771   5.525 -0.1187 -0.1098  0.9361
  114ccc     H1 2527   6.231   5.715   5.619 -0.4180 -1.2752  0.2910
  114ccc     H2 2528   6.260   5.712   5.441  0.4873 -0.6641  1.5825
  114ccc     C2 2529   6.324   5.892   5.539  0.4928 -0.1188 -0.6973
  114ccc     H3 2530   6.329   5.949   5.445 -0.4022  2.3757  0.6783
  114ccc     H4 2531   6.284   5.970   5.605 -1.2850 -0.2427 -1.5760
  114ccc     C3 2532   6.466   5.847   5.583  0.4560 -0.4853  0.3470
  114ccc     H5 2533   6.519   5.936   5.619 -0.1106 -0.2797  0.6717
  114ccc     H6 2534   6.510   5.788   5.501 -1.0926 -2.9623  1.2099
  114ccc     N1 2535   6.084   5.807   5.479 -0.1386  0.4011 -0.0699
  114ccc     H7 2536   6.033   5.839   5.562  0.5426 -1.0739  0.9669
  114ccc     H8 2537   6.095   5.872   5.400  2.5011 -2.0740 -1.9652
  114ccc     O1 2538   6.453   5.766   5.702  0.2048  0.3517 -0.3117
  114ccc    H17 2539   6.029   5.730   5.438 -0.5117  0.8871 -0.4987
  115ccc     C1 2540   7.251   5.836   5.422 -0.3733 -0.2328 -0.5683
  115ccc     H1 2541   7.355   5.868   5.423  0.2410 -1.7560  2.9449
  115ccc     H2 2542   7.246   5.783   5.327 -0.1953  1.3191 -1.4790
  115ccc     C2 2543   7.159   5.952   5.414 -0.1251  0.0108 -0.0463
  115ccc     H3 2544   7.152   6.010   5.321  0.4439  0.2092  0.0300
  115ccc     H4 2545   7.056   5.917   5.425 -0.3598  0.8217  0.4128
  115ccc     C3 2546   7.189   6.058   5.521 -0.0348 -0.3869 -0.2939
  115ccc     H5 2547   7.121   6.143   5.509 -2.1269 -2.1912 -2.0139
  115ccc     H6 2548   7.292   6.094   5.524 -0.4421  0.8750 -0.8817
  115ccc     N1 2549   7.230   5.737   5.532  0.2056  0.0646  0.0048
  115ccc     H7 2550   7.280   5.648   5.518 -0.8270 -0.5526  0.0970
  115ccc     H8 2551   7.253   5.773   5.626 -4.1593  0.9431  0.9648
  115ccc     O1 2552   7.173   6.007   5.660  0.3086  0.0642  0.2426
  115ccc    H17 2553   7.134   5.698   5.530  0.5325 -1.1163  2.6295
  116ccc     C1 2554   8.692   6.170   6.841 -0.5693  0.2231  0.3758
  116ccc     H1 2555   8.742   6.227   6.920  0.5183 -0.7278  0.4044
  116ccc     H2 2556   8.589   6.206   6.841 -0.6993 -0.1417 -0.0233
  116ccc     C2 2557   8.694   6.020   6.880 -0.0574 -0.2729  0.0662
  116ccc     H3 2558   8.796   5.979   6.881 -0.2484 -0.8822 -1.5148
  116ccc     H4 2559   8.645   6.004   6.976 -2.7320 -2.1766 -1.4988
  116ccc     C3 2560   8.593   5.931   6.797  0.7378  0.0130  0.3291
  116ccc     H5 2561   8.599   5.826   6.830  0.8042  0.1624  0.8017
  116ccc     H6 2562   8.624   5.927   6.692  2.2458 -0.2475  0.7627
  116ccc     N1 2563   8.752   6.191   6.704 -0.1060  0.7111  0.2270
  116ccc     H7 2564   8.722   6.135   6.623  0.8463 -0.6420  0.7849
  116ccc     H8 2565   8.740   6.292   6.688  2.1436  0.8844 -0.7509
  116ccc     O1 2566   8.461   5.983   6.808  0.3342 -0.1763 -0.3380
  116ccc    H17 2567   8.852   6.167   6.705 -0.6477 -1.8942 -0.8149
  117ccc     C1 2568   8.125   6.335   6.439  0.1586  0.1722 -0.1423
  117ccc     H1 2569   8.042   6.402   6.460 -0.2219 -0.9931  2.4709
  117ccc     H2 2570   8.076   6.239   6.420 -2.7510  1.2396  1.3664
  117ccc     C2 2571   8.221   6.334   6.570  0.2902  0.8938 -0.0711
  117ccc     H3 2572   8.279   6.240   6.570 -1.5439 -0.2968  0.5750
  117ccc     H4 2573   8.288   6.420   6.564 -1.0987  1.9724 -0.8377
  117ccc     C3 2574   8.147   6.351   6.705  0.4148 -0.1942 -0.7355
  117ccc     H5 2575   8.089   6.444   6.704 -1.2029 -1.1481 -2.6465
  117ccc     H6 2576   8.212   6.346   6.793 -2.3752 -0.0658  1.4751
  117ccc     N1 2577   8.197   6.380   6.320 -0.0059  0.1944 -0.4608
  117ccc     H7 2578   8.252   6.465   6.335  0.0229  0.0028  0.5535
  117ccc     H8 2579   8.261   6.308   6.281  0.5071 -0.0425  0.7785
  117ccc     O1 2580   8.065   6.233   6.719  0.3200  0.2619 -0.7263
  117ccc    H17 2581   8.129   6.406   6.247 -1.1094 -1.9801 -0.2910
  118ccc     C1 2582   6.692   5.005   8.675  0.4328 -0.0102  0.0482
  118ccc     H1 2583   6.688   4.952   8.579  0.6734 -0.3334  0.2134
  118ccc     H2 2584   6.663   5.108   8.655 -1.8925 -0.4599  0.8238
  118ccc     C2 2585   6.831   4.988   8.735 -0.0380  0.2808  0.1805
  118ccc     H3 2586   6.838   5.010   8.842 -1.6693  1.5346  0.0648
  118ccc     H4 2587   6.864   4.883   8.738 -1.1179 -0.0930 -0.4307
  118ccc     C3 2588   6.942   5.069   8.661  0.3145  0.0908 -0.5848
  118ccc     H5 2589   6.938   5.038   8.556  2.8319  0.4156 -0.8316
  118ccc     H6 2590   7.041   5.050   8.705  0.5026  0.5872 -0.7815
  118ccc     N1 2591   6.571   4.956   8.761  0.3126 -0.5610 -0.4346
  118ccc     H7 2592   6.480   4.985   8.723  0.2534 -1.7429 -1.2408
  118ccc     H8 2593   6.570   4.853   8.758 -0.3228 -0.5832  0.2720
  118ccc     O1 2594   6.900   5.210   8.676  0.1235 -0.1808  0.1082
  118ccc    H17 2595   6.581   4.988   8.859  1.2816 -0.8399 -0.4287
  119ccc     C1 2596   7.552   6.010   8.338  0.2328  0.4245 -0.6555
  119ccc     H1 2597   7.449   5.986   8.366  0.2871  1.9163  1.0612
  119ccc     H2 2598   7.559   6.058   8.240 -0.6722  0.5703 -0.6632
  119ccc     C2 2599   7.627   5.882   8.351 -0.1111 -0.1030 -0.5889
  119ccc     H3 2600   7.734   5.891   8.326  0.1775 -0.0615  0.5844
  119ccc     H4 2601   7.632   5.843   8.454 -1.5789 -0.8773 -0.7954
  119ccc     C3 2602   7.573   5.776   8.254 -0.6625  0.0333 -0.2560
  119ccc     H5 2603   7.646   5.705   8.215  0.8346  0.2859  1.9375
  119ccc     H6 2604   7.520   5.821   8.170 -0.4191 -1.5388 -1.2856
  119ccc     N1 2605   7.602   6.117   8.426  0.0168  0.5083  0.7221
  119ccc     H7 2606   7.521   6.173   8.456 -1.5659 -1.0753 -0.4448
  119ccc     H8 2607   7.649   6.084   8.512  0.6217 -0.2265  0.1220
  119ccc     O1 2608   7.472   5.700   8.332 -0.2250  0.5350  0.4766
  119ccc    H17 2609   7.663   6.180   8.371 -0.0677  0.0176  0.0544
  120ccc     C1 2610   6.194   4.633   7.118 -0.3275  0.0104 -0.1930
  120ccc     H1 2611   6.114   4.628   7.192  1.5093 -3.3974  1.8341
  120ccc     H2 2612   6.288   4.655   7.170 -0.0759  1.3358 -1.1538
  120ccc     C2 2613   6.191   4.758   7.029  0.0965  0.0668  0.0559
  120ccc     H3 2614   6.275   4.757   6.959  1.5953 -1.5888  1.7763
  120ccc     H4 2615   6.095   4.762   6.975 -0.3561 -0.3177  0.8089
  120ccc     C3 2616   6.202   4.892   7.117  0.1176  0.0911  0.0008
  120ccc     H5 2617   6.111   4.902   7.178 -0.6579 -1.0953 -0.9013
  120ccc     H6 2618   6.214   4.982   7.055 -1.7523  0.7475  0.5327
  120ccc     N1 2619   6.204   4.498   7.057 -0.2855  0.2341  0.4439
  120ccc     H7 2620   6.296   4.467   7.022 -0.5909 -0.8981  0.6013
  120ccc     H8 2621   6.178   4.425   7.124  0.7276  0.2426  0.8700
  120ccc     O1 2622   6.313   4.876   7.209 -0.4553  0.3178  0.7317
  120ccc    H17 2623   6.136   4.494   6.980  0.1414  1.8379 -0.0607
  121ccc     C1 2624   5.808   4.432   7.329 -0.2571 -0.1062 -0.4949
  121ccc     H1 2625   5.907   4.422   7.284  0.0600 -0.0421  0.1779
  121ccc     H2 2626   5.738   4.485   7.264 -0.2908  0.4363 -0.0340
  121ccc     C2 2627   5.809   4.506   7.463  0.7894 -0.3964 -0.1977
  121ccc     H3 2628   5.707   4.517   7.501  1.2764  0.7153  0.8627
  121ccc     H4 2629   5.854   4.445   7.542 -0.9959 -2.4022 -0.6563
  121ccc     C3 2630   5.886   4.632   7.458  0.1609 -0.2439 -0.7307
  121ccc     H5 2631   5.872   4.704   7.539  2.9644  0.2184 -0.5614
  121ccc     H6 2632   5.862   4.673   7.359  1.5074 -0.7545 -1.3022
  121ccc     N1 2633   5.747   4.294   7.339 -0.2687  0.3435 -0.3468
  121ccc     H7 2634   5.658   4.306   7.390  0.6555 -0.2847  1.5354
  121ccc     H8 2635   5.731   4.242   7.252  2.6817 -0.9051 -0.2748
  121ccc     O1 2636   6.023   4.593   7.437 -0.4998  0.6467 -0.0931
  121ccc    H17 2637   5.807   4.235   7.400 -1.3758  0.4358  0.8756
  122ccc     C1 2638   6.986   4.964   5.996  0.0017 -0.3893 -0.4877
  122ccc     H1 2639   7.031   5.003   5.905 -0.3229  2.5096  0.4993
  122ccc     H2 2640   6.880   4.987   5.988  0.4023  1.9326  0.1311
  122ccc     C2 2641   7.038   5.029   6.125  0.6253 -0.6408 -0.1144
  122ccc     H3 2642   6.958   5.029   6.200  1.5497  0.5923  0.9112
  122ccc     H4 2643   7.118   4.961   6.159  0.2210 -0.1120  2.0671
  122ccc     C3 2644   7.092   5.175   6.095  0.1887  0.1371  0.5922
  122ccc     H5 2645   7.006   5.239   6.118 -0.3097 -1.0256  2.2168
  122ccc     H6 2646   7.126   5.177   5.991 -1.0814  0.8050  0.1602
  122ccc     N1 2647   6.993   4.813   5.985  0.2324  0.8162  0.0696
  122ccc     H7 2648   6.941   4.775   6.066 -0.6473 -0.1085 -0.8868
  122ccc     H8 2649   6.949   4.768   5.904  2.3353 -1.0354 -0.1194
  122ccc     O1 2650   7.198   5.204   6.183 -0.1336  0.3023  0.4888
  122ccc    H17 2651   7.092   4.788   5.997  0.0167  0.7233  2.1499
  123ccc     C1 2652   7.593   5.821   6.211 -0.3383 -0.1922 -0.2949
  123ccc     H1 2653   7.535   5.881   6.282  1.4521 -0.0680  1.1410
  123ccc     H2 2654   7.551   5.722   6.194  0.3292 -0.0530 -3.1520
  123ccc     C2 2655   7.720   5.798   6.286 -0.3450  0.9267 -0.0924
  123ccc     H3 2656   7.789   5.737   6.227  0.4724  1.5599  0.1961
  123ccc     H4 2657   7.782   5.888   6.300  1.9691 -0.4722 -0.8347
  123ccc     C3 2658   7.701   5.722   6.424 -0.4768 -0.4176  0.1906
  123ccc     H5 2659   7.653   5.790   6.495  0.2930  0.6559 -0.2967
  123ccc     H6 2660   7.799   5.708   6.471 -0.9652 -1.4098  0.9425
  123ccc     N1 2661   7.599   5.874   6.068  0.0372  0.4996  0.1526
  123ccc     H7 2662   7.518   5.923   6.028 -0.5668 -1.4092 -1.1049
  123ccc     H8 2663   7.682   5.936   6.066  0.0878  0.4132 -0.6559
  123ccc     O1 2664   7.630   5.594   6.417 -0.1597 -0.3131 -0.2480
  123ccc    H17 2665   7.623   5.795   6.006 -1.1900  0.0572  0.2142
  124ccc     C1 2666   8.075   5.853   8.056 -0.0102  0.4656 -0.0745
  124ccc     H1 2667   8.123   5.893   7.967  1.3369  2.1489  1.3195
  124ccc     H2 2668   8.124   5.756   8.067 -0.0568  0.4792  0.2773
  124ccc     C2 2669   7.925   5.848   8.044 -0.0625  0.9687 -0.6403
  124ccc     H3 2670   7.903   5.760   7.983  1.0398 -0.6856  1.2302
  124ccc     H4 2671   7.876   5.827   8.139  1.0512 -0.8882 -0.4282
  124ccc     C3 2672   7.849   5.968   7.989  0.4261 -0.4159 -0.5063
  124ccc     H5 2673   7.859   5.970   7.880 -0.7675  0.1480 -0.6180
  124ccc     H6 2674   7.873   6.058   8.046 -1.8014 -0.0772 -0.0120
  124ccc     N1 2675   8.126   5.928   8.177 -0.2798 -0.2209 -0.1144
  124ccc     H7 2676   8.099   5.878   8.263 -0.6044 -0.1665 -0.1875
  124ccc     H8 2677   8.228   5.940   8.163 -0.5493  1.1815 -1.0544
  124ccc     O1 2678   7.708   5.922   8.015  0.7109 -1.0315 -0.7865
  124ccc    H17 2679   8.086   6.022   8.185  0.9903  0.4176 -0.8660
  125ccc     C1 2680   7.742   6.911   8.131 -0.1279 -0.3660 -0.2389
  125ccc     H1 2681   7.831   6.901   8.193  0.4297 -0.6922 -1.0728
  125ccc     H2 2682   7.701   7.007   8.162  2.3019  0.9181 -0.7403
  125ccc     C2 2683   7.632   6.800   8.170  0.5624 -0.0083 -0.3390
  125ccc     H3 2684   7.631   6.803   8.279  1.4198  0.0622 -0.3246
  125ccc     H4 2685   7.533   6.822   8.128 -0.7751 -0.2649  2.4695
  125ccc     C3 2686   7.645   6.656   8.129  0.4219  0.3564  0.0114
  125ccc     H5 2687   7.556   6.603   8.165 -0.4677  0.9180 -1.3108
  125ccc     H6 2688   7.739   6.613   8.168  0.6704 -2.0123 -2.8991
  125ccc     N1 2689   7.768   6.920   7.987  0.0939  0.0866  0.3692
  125ccc     H7 2690   7.838   6.993   7.967 -0.2300  0.3198  0.0771
  125ccc     H8 2691   7.803   6.831   7.947  0.8097  1.1803 -1.5780
  125ccc     O1 2692   7.647   6.630   7.986  0.1732  0.4051 -0.0789
  125ccc    H17 2693   7.683   6.952   7.940 -0.2524 -1.1635  0.1250
  126SOL     OW 2694   7.435   3.114   7.559 -0.1181  0.5249  0.0579
  126SOL    HW1 2695   7.414   3.143   7.470 -0.2810  0.9966  0.2473
  126SOL    HW2 2696   7.522   3.075   7.552  1.3642  3.5248  0.2901
  127SOL     OW 2697   8.045   2.975   7.422 -0.1292  0.2744 -0.4594
  127SOL    HW1 2698   7.975   2.925   7.380 -1.0967  0.1862  1.1902
  127SOL    HW2 2699   8.030   3.065   7.395 -0.5666  0.1799 -0.5341
  128SOL     OW 2700   9.837   2.469   1.952 -0.4350  0.2434 -0.1029
  128SOL    HW1 2701   9.862   2.531   2.021 -0.0889 -0.1629  0.1465
  128SOL    HW2 2702   9.904   2.482   1.885 -1.7826  1.9253 -1.2023
  129SOL     OW 2703   8.196   9.223   1.036  0.5343  0.0738  0.5003
  129SOL    HW1 2704   8.184   9.128   1.026  1.2257  0.1480 -1.4626
  129SOL    HW2 2705   8.121   9.261   0.990  1.5721  0.4485 -0.9645
  130SOL     OW 2706   0.127   7.410   1.176  0.4766  0.1949 -0.0515
  130SOL    HW1 2707   0.117   7.355   1.254  2.0828 -0.7472 -0.4676
  130SOL    HW2 2708   0.098   7.354   1.103 -0.4402  0.8577 -0.2122
  131SOL     OW 2709   5.460   1.223   7.998  0.4891 -0.0158  0.5990
  131SOL    HW1 2710   5.378   1.242   8.043  0.4254  0.0451  0.4577
  131SOL    HW2 2711   5.434   1.170   7.922  0.6089 -0.2230  0.7041
  132SOL     OW 2712   1.203   1.428   7.483 -0.1621 -0.4190  0.2043
  132SOL    HW1 2713   1.112   1.454   7.497  0.0532 -0.0646  0.9930
  132SOL    HW2 2714   1.200   1.332   7.478 -0.7067 -0.3570 -0.8176
  133SOL     OW 2715  10.413  10.190   8.559 -0.0331 -0.4038 -0.1146
  133SOL    HW1 2716  10.493  10.199   8.508 -1.3447  0.5721 -2.1081
  133SOL    HW2 2717  10.417  10.102   8.596  1.0161 -1.1201 -1.8568
  134SOL     OW 2718   0.625   6.357   7.593  0.3018  0.5247  0.5352
  134SOL    HW1 2719   0.636   6.269   7.629  2.8804  0.8743  0.7959
  134SOL    HW2 2720   0.592   6.410   7.666 -0.6085 -0.0530  0.5587
  135SOL     OW 2721   1.019   0.703   2.365 -0.2056 -0.1401 -0.1026
  135SOL    HW1 2722   1.090   0.767   2.362 -0.3368  0.0311  0.3843
  135SOL    HW2 2723   0.982   0.704   2.277 -0.8626  1.1985  0.1647
  136SOL     OW 2724   6.325   9.963   7.409 -0.4583 -0.2931  0.1743
  136SOL    HW1 2725   6.265  10.008   7.469 -1.1000 -0.7009 -0.1455
  136SOL    HW2 2726   6.354  10.031   7.348 -1.0136 -0.1942  0.0113
  137SOL     OW 2727   4.776  10.145   3.360 -0.2172 -0.3164  0.6302
  137SOL    HW1 2728   4.683  10.158   3.342 -0.5583 -1.4057  1.5084
  137SOL    HW2 2729   4.791  10.051   3.347  0.5975 -0.2799  1.1743
  138SOL     OW 2730   1.407   5.266   4.345  0.0299  0.4206 -0.0400
  138SOL    HW1 2731   1.354   5.262   4.425  0.2756  0.4028  0.1226
  138SOL    HW2 2732   1.490   5.225   4.369  0.0457  0.2704 -0.3520
  139SOL     OW 2733   4.151   2.877   5.760 -0.2434  0.0731  0.2191
  139SOL    HW1 2734   4.179   2.955   5.808  0.5886 -0.3457  0.4372
  139SOL    HW2 2735   4.115   2.912   5.678 -0.6836  0.7298  0.6748
  140SOL     OW 2736   3.255   8.517   3.951 -0.3926 -0.4864 -0.3491
  140SOL    HW1 2737   3.256   8.485   4.041 -1.2995 -2.1467 -0.8785
  140SOL    HW2 2738   3.169   8.491   3.918  0.3570 -0.9379 -2.0341
  141SOL     OW 2739   0.707   1.435   5.069 -0.0645  0.3441 -0.0062
  141SOL    HW1 2740   0.771   1.489   5.116  0.5795  0.1626 -0.6530
  141SOL    HW2 2741   0.728   1.345   5.094 -0.1472  0.2958 -0.1108
  142SOL     OW 2742   5.238   5.426  10.373 -0.2545 -0.1066 -0.0120
  142SOL    HW1 2743   5.230   5.396  10.464  0.7468 -0.1664  0.0761
  142SOL    HW2 2744   5.255   5.520  10.379  1.2865 -0.3534 -0.0382
  143SOL     OW 2745   5.258   6.510  10.129  0.3213  0.2597 -0.2206
  143SOL    HW1 2746   5.260   6.445  10.199 -0.2443  0.4038 -0.0658
  143SOL    HW2 2747   5.165   6.517  10.105  0.5325  0.0629 -1.1254
  144SOL     OW 2748   4.866   0.644   2.874  0.0003  0.0991 -0.5835
  144SOL    HW1 2749   4.802   0.714   2.865 -1.1694 -0.7830  0.4079
  144SOL    HW2 2750   4.813   0.567   2.896  1.4803 -0.3869  1.5860
  145SOL     OW 2751   6.718  10.348   2.315  0.1332  0.1655 -0.3474
  145SOL    HW1 2752   6.722  10.424   2.373 -0.1858  0.1636 -0.3185
  145SOL    HW2 2753   6.636  10.305   2.339  1.4619 -1.5818  1.3807
  146SOL     OW 2754   6.980   4.244   2.224  0.0654  0.2144  0.1776
  146SOL    HW1 2755   7.030   4.313   2.269  2.2029  0.0185 -1.6928
  146SOL    HW2 2756   7.041   4.210   2.158 -2.1212 -1.0663 -1.3020
  147SOL     OW 2757   7.985   7.249   3.620  0.4803  0.2022  0.2677
  147SOL    HW1 2758   7.967   7.168   3.668  0.4015  0.9031  1.4684
  147SOL    HW2 2759   7.924   7.313   3.657 -0.2312  0.5547 -1.4393
  148SOL     OW 2760   2.053   2.969   8.060  0.0420 -0.5522 -0.7524
  148SOL    HW1 2761   2.088   2.962   7.972 -1.9162 -0.4805 -1.5848
  148SOL    HW2 2762   1.959   2.984   8.048 -0.0416  1.1486  1.3007
  149SOL     OW 2763   0.866   1.707   4.122 -0.7132  0.2083  0.0527
  149SOL    HW1 2764   0.786   1.676   4.081 -0.4521  0.1960 -0.4534
  149SOL    HW2 2765   0.929   1.715   4.050 -0.8721  2.3061  0.0865
  150SOL     OW 2766   4.088   1.406   0.856  0.0817 -0.4121 -0.2888
  150SOL    HW1 2767   4.075   1.312   0.844  2.2236 -0.6157 -1.4030
  150SOL    HW2 2768   4.178   1.415   0.885  0.1361  1.3432 -0.8656
  151SOL     OW 2769   9.050   7.320   3.540  0.1111  1.2463 -0.3517
  151SOL    HW1 2770   9.126   7.305   3.596  1.2704 -2.9380 -2.5934
  151SOL    HW2 2771   9.077   7.389   3.480  1.9450  0.3234 -0.6476
  152SOL     OW 2772   5.757   7.209   6.796 -0.0417 -0.0794  0.3970
  152SOL    HW1 2773   5.853   7.212   6.792  0.0351 -1.1108  1.1118
  152SOL    HW2 2774   5.729   7.276   6.734  1.1388 -0.1676 -0.2690
  153SOL     OW 2775   0.835   2.006  10.386  0.4716  0.1011 -0.5261
  153SOL    HW1 2776   0.924   2.042  10.391  0.7559 -0.6194 -0.2418
  153SOL    HW2 2777   0.843   1.931  10.328  0.3601 -0.8271  0.6171
  154SOL     OW 2778   1.148   1.899   8.918  0.0353 -0.2460 -0.2528
  154SOL    HW1 2779   1.160   1.928   8.827  0.2173  0.3161 -0.0525
  154SOL    HW2 2780   1.191   1.966   8.970 -1.5624  0.3575  0.3486
  155SOL     OW 2781   3.855   8.727   6.758  0.5337  0.4277 -0.7407
  155SOL    HW1 2782   3.851   8.665   6.831  0.2027  0.1883 -0.9575
  155SOL    HW2 2783   3.831   8.811   6.797  1.8016  0.5918 -0.2708
  156SOL     OW 2784   2.991   7.714  10.025 -0.6724 -0.1444 -0.0006
  156SOL    HW1 2785   3.068   7.770  10.014 -1.5264  1.2168  0.6691
  156SOL    HW2 2786   2.919   7.766   9.990 -1.2944 -1.4272 -0.6858
  157SOL     OW 2787   6.070   1.480   8.110 -0.1394 -0.2537 -0.4384
  157SOL    HW1 2788   6.028   1.395   8.100  0.4476 -0.4466 -1.3911
  157SOL    HW2 2789   6.001   1.538   8.143 -0.5800 -1.0590  0.0652
  158SOL     OW 2790   2.561   7.680   9.205 -0.3465 -0.4604 -0.9513
  158SOL    HW1 2791   2.654   7.678   9.227 -0.4276  1.1650 -0.2956
  158SOL    HW2 2792   2.558   7.709   9.113 -0.1583 -2.8450 -1.7575
  159SOL     OW 2793   3.148   9.311   6.146  0.1296  0.2067  0.1636
  159SOL    HW1 2794   3.062   9.345   6.123  0.4210  2.2980  1.8434
  159SOL    HW2 2795   3.139   9.281   6.236  0.5965 -1.8383 -0.4208
  160SOL     OW 2796   2.684   5.300   4.389 -0.2824  0.1663  0.2948
  160SOL    HW1 2797   2.643   5.377   4.350 -0.5555 -1.3578 -2.6979
  160SOL    HW2 2798   2.613   5.236   4.397  0.4955 -0.7742 -0.1170
  161SOL     OW 2799   4.884   0.217   9.518 -0.1426  0.3743  0.8839
  161SOL    HW1 2800   4.802   0.201   9.566 -0.0703 -1.5570  0.4405
  161SOL    HW2 2801   4.855   0.252   9.434 -0.6899 -1.8321  0.0831
  162SOL     OW 2802   3.322   9.799   4.645  0.2905  0.6420  0.1172
  162SOL    HW1 2803   3.401   9.826   4.691  0.7262 -0.5219  0.0744
  162SOL    HW2 2804   3.308   9.708   4.671 -0.8902  0.7464 -0.0829
  163SOL     OW 2805   0.885   3.856   6.039  0.8937  0.4572  0.6677
  163SOL    HW1 2806   0.832   3.930   6.070  0.0449  0.3796 -0.5262
  163SOL    HW2 2807   0.865   3.850   5.945  0.9976 -1.2583  0.7313
  164SOL     OW 2808   2.237   4.602   9.102 -0.2507 -0.1737  0.4549
  164SOL    HW1 2809   2.331   4.616   9.094 -0.6203  1.6150 -1.6550
  164SOL    HW2 2810   2.218   4.533   9.038 -0.5518  0.5166 -0.2149
  165SOL     OW 2811   2.527   8.807   8.311 -0.2965 -0.2215 -0.3109
  165SOL    HW1 2812   2.584   8.795   8.235  0.5258  0.9316  0.0772
  165SOL    HW2 2813   2.578   8.774   8.385 -0.5533 -0.1246 -0.0871
  166SOL     OW 2814   0.942   4.953   7.215 -0.7372 -0.2151 -0.3699
  166SOL    HW1 2815   0.911   5.017   7.152 -2.4422  0.1770  0.7981
  166SOL    HW2 2816   0.976   5.005   7.287 -0.7067 -0.6321 -0.0760
  167SOL     OW 2817   8.652   9.162   4.166  0.1378  0.1230  0.3062
  167SOL    HW1 2818   8.574   9.108   4.153 -0.1458  0.6727 -0.3290
  167SOL    HW2 2819   8.638   9.238   4.110  1.2893  0.0782 -0.0566
  168SOL     OW 2820   1.674   6.336  10.381 -0.1924 -0.1642 -0.2200
  168SOL    HW1 2821   1.622   6.338  10.462  0.3278 -1.8670  0.2181
  168SOL    HW2 2822   1.729   6.414  10.386  0.5439 -0.7366  1.6026
  169SOL     OW 2823   8.220   2.470   4.060  0.2909  0.0304  0.4057
  169SOL    HW1 2824   8.231   2.418   4.139 -1.1687 -2.5379 -0.9341
  169SOL    HW2 2825   8.140   2.519   4.074  1.1824  1.2871  1.3118
  170SOL     OW 2826   8.040  10.151   5.061 -0.7944 -0.0214 -0.0819
  170SOL    HW1 2827   7.958  10.114   5.028 -1.0293 -0.7295  1.2392
  170SOL    HW2 2828   8.040  10.132   5.155  0.2899  1.1086  0.1809
  171SOL     OW 2829   2.509  10.005   0.870 -0.0690 -0.1011  0.2231
  171SOL    HW1 2830   2.562   9.985   0.793 -0.6006  0.4492 -0.2879
  171SOL    HW2 2831   2.566   9.983   0.944  0.7130  0.0571 -0.3186
  172SOL     OW 2832   4.940   9.983   4.597 -0.3513  0.2174  0.0333
  172SOL    HW1 2833   4.870   9.929   4.559 -1.1780  0.9569  0.4575
  172SOL    HW2 2834   4.944  10.060   4.539 -1.4390  1.2299  1.2266
  173SOL     OW 2835   3.324   2.743   2.167  0.2404 -0.2209  0.3793
  173SOL    HW1 2836   3.416   2.741   2.143  0.3976  1.0426  0.8080
  173SOL    HW2 2837   3.278   2.723   2.085  0.7857  3.5092 -1.0614
  174SOL     OW 2838   2.156   8.244   7.955  0.4135  0.1314  0.0431
  174SOL    HW1 2839   2.068   8.206   7.961  0.1209  0.7475 -0.2750
  174SOL    HW2 2840   2.156   8.291   7.872  2.0542 -2.3330 -1.4984
  175SOL     OW 2841   1.420   1.485   7.630  0.1400 -0.5432  0.1208
  175SOL    HW1 2842   1.384   1.437   7.705 -0.0014  0.4952  0.7336
  175SOL    HW2 2843   1.356   1.471   7.560 -0.1973 -0.7559  0.4679
  176SOL     OW 2844   4.227   5.107   4.619 -0.0006  0.1692 -0.1514
  176SOL    HW1 2845   4.226   5.193   4.660 -0.6796  0.0730  0.0420
  176SOL    HW2 2846   4.175   5.118   4.539 -0.3401 -0.1320  0.0252
  177SOL     OW 2847   2.686   1.350   4.328 -0.1246 -0.6397  0.5431
  177SOL    HW1 2848   2.628   1.423   4.349 -0.7304 -1.4574  1.8968
  177SOL    HW2 2849   2.726   1.326   4.412  0.6353 -1.3849 -0.0113
  178SOL     OW 2850   6.746   6.277   1.674 -0.2559 -0.0899 -0.5645
  178SOL    HW1 2851   6.745   6.198   1.620 -1.5045  1.8416 -3.6038
  178SOL    HW2 2852   6.815   6.331   1.636 -0.4342  0.9298  0.5045
  179SOL     OW 2853   7.346   1.192   6.084  0.3338 -0.3245 -0.5950
  179SOL    HW1 2854   7.343   1.134   6.160 -0.3595  0.6899  0.1799
  179SOL    HW2 2855   7.385   1.273   6.118 -0.3615  0.2818 -1.2175
  180SOL     OW 2856   3.499   4.234   4.457 -0.5150  0.9335 -0.0166
  180SOL    HW1 2857   3.409   4.232   4.426 -0.6531 -0.5766  0.3759
  180SOL    HW2 2858   3.551   4.203   4.382 -0.2170  2.5108 -0.4884
  181SOL     OW 2859   9.788   6.229   2.838 -0.0711 -0.1354 -0.0594
  181SOL    HW1 2860   9.737   6.236   2.758  0.3551  2.0380 -0.2123
  181SOL    HW2 2861   9.738   6.279   2.903  0.8707  0.3709  0.3008
  182SOL     OW 2862   0.161   5.193   4.259 -0.1161 -0.5063  0.1278
  182SOL    HW1 2863   0.114   5.184   4.176 -0.1982  0.1091  0.1064
  182SOL    HW2 2864   0.137   5.114   4.309  0.1199 -0.9951 -0.5204
  183SOL     OW 2865   6.722   1.889   4.915  0.2649  0.2745 -0.5951
  183SOL    HW1 2866   6.776   1.813   4.893 -0.1877 -1.0044  2.2725
  183SOL    HW2 2867   6.771   1.964   4.880  2.6773 -1.0256 -0.1976
  184SOL     OW 2868   3.128   0.190   9.881 -0.2418 -0.1038 -0.1260
  184SOL    HW1 2869   3.155   0.279   9.857  2.7648 -0.9167 -0.0613
  184SOL    HW2 2870   3.052   0.173   9.825 -1.6606  2.8607  0.6621
  185SOL     OW 2871   8.544   4.215   1.304  0.6908 -0.0944 -0.2556
  185SOL    HW1 2872   8.589   4.132   1.287 -0.3460 -0.5475 -0.8901
  185SOL    HW2 2873   8.534   4.254   1.217  1.6567  0.9689  0.0905
  186SOL     OW 2874   7.831   0.359   5.493 -0.2514  0.0947 -0.5134
  186SOL    HW1 2875   7.848   0.339   5.402  0.1931  0.4389 -0.5107
  186SOL    HW2 2876   7.742   0.396   5.494 -0.1622  0.3160 -0.8401
  187SOL     OW 2877   8.203  10.172   7.242  0.0581  0.2307 -0.4860
  187SOL    HW1 2878   8.133  10.180   7.177  1.8202 -0.3866 -2.5798
  187SOL    HW2 2879   8.268  10.115   7.200  1.7865  0.7120  1.3990
  188SOL     OW 2880   9.021   5.230   1.672  0.0076 -0.0106 -0.5404
  188SOL    HW1 2881   9.106   5.231   1.628  0.0570  1.0553 -0.4556
  188SOL    HW2 2882   9.002   5.137   1.685  1.0949 -0.2731 -0.6760
  189SOL     OW 2883   9.155   5.472   2.507 -0.3549  0.0890  0.2992
  189SOL    HW1 2884   9.102   5.547   2.481  0.5995  0.5843 -0.2386
  189SOL    HW2 2885   9.209   5.505   2.579  0.1442 -0.0595 -0.0120
  190SOL     OW 2886   3.139   4.819   5.596  0.1847 -0.0965  0.3774
  190SOL    HW1 2887   3.208   4.754   5.579  0.8060  0.4554  0.7459
  190SOL    HW2 2888   3.096   4.831   5.512  0.5059 -0.4860  0.1538
  191SOL     OW 2889   3.191   0.951   8.654  0.1972 -0.0585 -0.0619
  191SOL    HW1 2890   3.143   0.869   8.642  2.8687 -1.9618  1.1218
  191SOL    HW2 2891   3.197   0.988   8.566 -2.1357 -0.4291 -0.4385
  192SOL     OW 2892   8.898   5.452   0.678  0.2376  0.1494  0.0902
  192SOL    HW1 2893   8.902   5.524   0.615 -0.1991  0.7394  0.7253
  192SOL    HW2 2894   8.812   5.412   0.663 -0.0775  0.5999  0.6236
  193SOL     OW 2895   0.625   8.947   5.989 -0.4409  0.1477  0.1988
  193SOL    HW1 2896   0.666   9.033   5.982  0.6105 -0.3266  0.4084
  193SOL    HW2 2897   0.662   8.909   6.068 -0.2975 -0.8124 -0.3153
  194SOL     OW 2898   2.284   5.056   8.602 -0.0068  0.1239  0.1937
  194SOL    HW1 2899   2.239   4.971   8.601 -0.8534  0.5636 -1.2813
  194SOL    HW2 2900   2.225   5.114   8.650 -0.9060  0.6134 -1.4402
  195SOL     OW 2901   1.198   8.400  10.455  0.5352  0.3568 -0.3148
  195SOL    HW1 2902   1.192   8.325  10.515  2.1740  0.0955 -0.4433
  195SOL    HW2 2903   1.130   8.460  10.486  0.0684 -0.6004  0.6093
  196SOL     OW 2904   6.244   7.422   6.597  0.3105  0.0471 -0.3460
  196SOL    HW1 2905   6.273   7.377   6.517  2.4400  0.0907  0.3486
  196SOL    HW2 2906   6.188   7.493   6.565  2.1580  0.8871 -1.9359
  197SOL     OW 2907   9.186   4.665   0.128  0.1782  0.3172  0.2016
  197SOL    HW1 2908   9.272   4.669   0.171  0.3258  0.9366 -0.1486
  197SOL    HW2 2909   9.140   4.595   0.175  1.1035 -0.4844 -0.0259
  198SOL     OW 2910   1.444   0.764   7.692  0.5325 -0.2628 -0.0703
  198SOL    HW1 2911   1.392   0.750   7.613 -1.3432  1.1293  0.8317
  198SOL    HW2 2912   1.382   0.749   7.764  1.9972 -0.7974  1.1379
  199SOL     OW 2913   6.696   2.622   8.730  0.1073  0.5451 -0.0410
  199SOL    HW1 2914   6.644   2.606   8.651  1.2839 -0.4105 -0.6562
  199SOL    HW2 2915   6.714   2.716   8.729 -1.4280  0.8697  0.0936
  200SOL     OW 2916   0.359   3.691   3.135 -0.0947  0.0833 -0.0381
  200SOL    HW1 2917   0.335   3.766   3.190 -1.2737 -0.4971  0.2689
  200SOL    HW2 2918   0.453   3.701   3.121 -0.2792  1.7819 -0.2589
  201SOL     OW 2919   1.265   1.307   8.962 -0.1658  0.1272  0.4368
  201SOL    HW1 2920   1.317   1.378   9.000 -0.2041  1.2704 -1.5347
  201SOL    HW2 2921   1.291   1.305   8.870 -3.9585  1.1326 -0.8193
  202SOL     OW 2922   6.619   4.136   0.134  0.1714 -0.0967 -0.0276
  202SOL    HW1 2923   6.703   4.163   0.097 -0.2832  0.0051 -1.0170
  202SOL    HW2 2924   6.555   4.159   0.067 -0.6275 -0.3763  0.6213
  203SOL     OW 2925   9.864   9.766   9.793  0.5548 -0.1326 -0.1060
  203SOL    HW1 2926   9.770   9.775   9.810  0.4435  0.0401 -0.7739
  203SOL    HW2 2927   9.903   9.753   9.880 -0.1390 -0.7232  0.1265
  204SOL     OW 2928   6.605   5.060   9.056 -0.5753 -0.0516  0.3347
  204SOL    HW1 2929   6.688   5.048   9.102 -0.6476  0.9933  0.7435
  204SOL    HW2 2930   6.539   5.024   9.115 -0.5651  0.4357  0.6499
  205SOL     OW 2931   7.539   1.028   7.198  0.2426  0.5808 -0.1311
  205SOL    HW1 2932   7.456   0.985   7.174 -0.5739  0.8678  1.9748
  205SOL    HW2 2933   7.548   1.011   7.292  0.7801  3.5017  0.4420
  206SOL     OW 2934   1.821   2.879   9.716 -0.4700  0.4622  0.2982
  206SOL    HW1 2935   1.876   2.927   9.778 -0.0583 -1.2009  1.2963
  206SOL    HW2 2936   1.770   2.947   9.671  2.6500  2.1545 -1.0090
  207SOL     OW 2937   4.690   9.799   0.006  0.2680  0.4603  0.1729
  207SOL    HW1 2938   4.686   9.803   0.102 -1.9818 -2.0177  0.2954
  207SOL    HW2 2939   4.777   9.833  -0.016  1.2004  0.2667  3.1366
  208SOL     OW 2940   4.242   8.967   1.900 -0.4755  0.4350  0.2603
  208SOL    HW1 2941   4.180   8.929   1.962 -1.8906  0.0126 -1.3371
  208SOL    HW2 2942   4.219   9.060   1.897  1.6948  1.1332  2.6911
  209SOL     OW 2943   6.215   3.224   5.402  0.0818 -0.0609 -0.7214
  209SOL    HW1 2944   6.200   3.171   5.481 -0.7021  0.9579 -0.1559
  209SOL    HW2 2945   6.297   3.270   5.419 -0.8611  1.3419  0.2109
  210SOL     OW 2946   5.699   8.620   0.892 -0.0548 -0.7771 -0.4475
  210SOL    HW1 2947   5.638   8.632   0.820  0.7439 -1.2177 -1.2198
  210SOL    HW2 2948   5.784   8.605   0.850  0.3609 -1.4238  0.5676
  211SOL     OW 2949   3.160   7.990   6.611  0.3071  0.2053 -0.0573
  211SOL    HW1 2950   3.110   7.981   6.692  0.9072  0.4187  0.3432
  211SOL    HW2 2951   3.096   8.021   6.546 -0.2564 -0.3273  0.2371
  212SOL     OW 2952   4.168   8.387   8.681 -0.0668  0.4162  0.0873
  212SOL    HW1 2953   4.184   8.481   8.672 -3.1180  1.2830  2.1076
  212SOL    HW2 2954   4.106   8.367   8.610 -0.4053  0.2422  0.4264
  213SOL     OW 2955   3.623   2.605   8.010 -0.2327  0.3331 -0.4818
  213SOL    HW1 2956   3.531   2.596   7.983 -0.7290  2.5634  0.2248
  213SOL    HW2 2957   3.618   2.632   8.101  1.0994  1.1090 -0.6224
  214SOL     OW 2958   2.356   6.448   2.670 -0.3599  0.1540  0.4175
  214SOL    HW1 2959   2.372   6.490   2.586 -0.6930 -2.3425 -1.0107
  214SOL    HW2 2960   2.443   6.433   2.707 -0.1103 -0.2273 -0.3028
  215SOL     OW 2961   0.275   6.971  10.589  0.5427  0.1832 -0.3958
  215SOL    HW1 2962   0.190   6.928  10.587 -0.8563  2.6381  1.0575
  215SOL    HW2 2963   0.297   6.986  10.497 -0.2488 -1.0808 -0.8089
  216SOL     OW 2964   5.035   1.520   0.087  0.2697  0.1332  0.5087
  216SOL    HW1 2965   4.977   1.589   0.056 -0.7042 -1.3418 -1.2091
  216SOL    HW2 2966   5.110   1.566   0.124  0.4453  2.1376 -2.0466
  217SOL     OW 2967   0.098   2.214   2.156 -0.3773 -0.0888  0.3145
  217SOL    HW1 2968   0.076   2.183   2.244 -1.5531 -0.7060 -0.1870
  217SOL    HW2 2969   0.146   2.296   2.171 -0.8215 -0.0325  1.5143
  218SOL     OW 2970   6.819   3.099   6.279  0.4336  0.4466  0.2859
  218SOL    HW1 2971   6.839   3.183   6.320  0.6618  0.4190  0.2350
  218SOL    HW2 2972   6.851   3.107   6.190  1.4024 -0.0422  0.5646
  219SOL     OW 2973   9.691   9.881   1.392 -0.4164  0.4845  0.1668
  219SOL    HW1 2974   9.779   9.916   1.406 -0.1801  0.3188 -0.7906
  219SOL    HW2 2975   9.656   9.933   1.320 -0.2430 -0.8811 -0.9528
  220SOL     OW 2976  10.523   0.046   8.486 -0.4083 -0.8451 -0.4161
  220SOL    HW1 2977  10.477  -0.019   8.540 -1.8727  1.2462  1.0147
  220SOL    HW2 2978  10.456   0.078   8.426  0.7342 -1.7706 -2.2806
  221SOL     OW 2979   2.049   5.408   6.586 -0.0328  0.4738  0.2133
  221SOL    HW1 2980   1.998   5.327   6.588  1.0129 -0.1872  1.4696
  221SOL    HW2 2981   1.986   5.476   6.612 -0.8030  0.0152 -0.4026
  222SOL     OW 2982   0.379   0.481   9.989 -0.1439  0.4219 -0.2755
  222SOL    HW1 2983   0.445   0.510  10.052  0.0909 -1.1825  0.2466
  222SOL    HW2 2984   0.297   0.480  10.039 -0.1809  0.3339 -0.3386
  223SOL     OW 2985   3.142   4.091   8.178 -0.1976 -0.5203 -0.4405
  223SOL    HW1 2986   3.172   4.049   8.097  2.5749 -0.3109  0.3867
  223SOL    HW2 2987   3.112   4.020   8.233 -0.1242 -0.8878 -0.8710
  224SOL     OW 2988   7.586   8.039   0.437 -0.4082  0.1474  0.0358
  224SOL    HW1 2989   7.567   8.007   0.525 -0.8455 -0.6310 -0.3327
  224SOL    HW2 2990   7.555   7.970   0.379  1.4352 -0.1305 -0.6875
  225SOL     OW 2991  10.296   5.504   3.199 -0.1078  0.6461  0.2325
  225SOL    HW1 2992  10.349   5.514   3.279  1.4421 -0.0943 -0.6461
  225SOL    HW2 2993  10.208   5.484   3.231  0.4575  0.4435  1.7554
  226SOL     OW 2994   1.914   9.442   7.396  1.0192 -0.1485 -0.4503
  226SOL    HW1 2995   2.002   9.406   7.407  1.2548  0.1390 -1.3053
  226SOL    HW2 2996   1.928   9.536   7.382  0.6666 -0.2373 -1.5567
  227SOL     OW 2997   6.031   9.600   9.973  0.1064 -0.4671  0.1211
  227SOL    HW1 2998   6.034   9.695   9.981 -0.4543 -0.4924  0.6674
  227SOL    HW2 2999   5.974   9.571  10.045 -1.5127 -1.0405 -1.3221
  228SOL     OW 3000   6.361  10.508   9.146  0.2861  0.4384 -0.6484
  228SOL    HW1 3001   6.281  10.516   9.199  0.1335  1.6104 -1.0245
  228SOL    HW2 3002   6.425  10.562   9.192  0.5798  0.2898 -0.8810
  229SOL     OW 3003   3.502   4.427   7.595 -0.3618 -0.1744  0.1847
  229SOL    HW1 3004   3.419   4.387   7.568 -0.2153 -0.1404 -0.3181
  229SOL    HW2 3005   3.515   4.395   7.684 -0.6728 -0.5701  0.0929
  230SOL     OW 3006   8.430   9.997   7.909 -0.0885 -0.5848  0.0424
  230SOL    HW1 3007   8.425  10.061   7.980  2.9151 -1.0145  0.7603
  230SOL    HW2 3008   8.476  10.043   7.839 -0.0441 -1.2321 -0.3562
  231SOL     OW 3009  10.137   6.685   7.082 -0.2154  0.2108  0.0599
  231SOL    HW1 3010  10.219   6.636   7.087 -0.6794 -1.0729 -2.9758
  231SOL    HW2 3011  10.089   6.646   7.009 -2.3214  2.7518 -0.0794
  232SOL     OW 3012   3.311   3.961   1.972 -0.3078  0.5641  0.2220
  232SOL    HW1 3013   3.314   3.976   1.878 -2.2767  1.8588  0.2983
  232SOL    HW2 3014   3.218   3.967   1.994  0.0289 -0.4242  2.1493
  233SOL     OW 3015   5.691   4.258   0.671  0.4450 -0.3940  0.0155
  233SOL    HW1 3016   5.739   4.205   0.735  0.3202 -0.4336  0.0749
  233SOL    HW2 3017   5.743   4.338   0.663  1.2293 -0.9674 -0.8805
  234SOL     OW 3018   6.328   0.849   5.975 -0.0660 -0.3458 -0.0809
  234SOL    HW1 3019   6.409   0.865   5.927 -0.9786 -0.6611 -1.8100
  234SOL    HW2 3020   6.284   0.780   5.926 -1.7775  0.4099  0.3043
  235SOL     OW 3021   0.573   7.368   3.679 -0.2362 -0.2926 -0.5818
  235SOL    HW1 3022   0.506   7.405   3.622 -1.4911  2.4626  2.3700
  235SOL    HW2 3023   0.608   7.443   3.727  2.3476 -2.1496  0.6957
  236SOL     OW 3024   4.044   4.773   7.768 -0.3519 -0.1292  0.0616
  236SOL    HW1 3025   4.136   4.749   7.780 -0.4757 -0.2705  0.8206
  236SOL    HW2 3026   3.998   4.727   7.839 -0.8449  0.9169  0.4435
  237SOL     OW 3027   4.109   7.677   0.911 -0.3048  0.1003 -0.3196
  237SOL    HW1 3028   4.139   7.661   1.000 -0.2677 -1.0204 -0.5180
  237SOL    HW2 3029   4.050   7.604   0.892 -2.1804  1.5399 -0.4073
  238SOL     OW 3030   0.506   8.007   7.497  0.1901 -0.2361 -0.2645
  238SOL    HW1 3031   0.480   8.087   7.452  1.6304 -0.2288 -1.1687
  238SOL    HW2 3032   0.547   8.038   7.578  0.0733 -0.0999 -0.2562
  239SOL     OW 3033   6.240   5.196   0.220 -0.2598  0.3676 -0.3444
  239SOL    HW1 3034   6.206   5.277   0.182 -0.2043 -0.3645 -2.0457
  239SOL    HW2 3035   6.250   5.137   0.145 -0.0591 -1.1330  0.8220
  240SOL     OW 3036   1.569   0.883   1.180  0.4613 -0.0370 -0.5545
  240SOL    HW1 3037   1.510   0.868   1.255  0.0456  1.2079 -0.5970
  240SOL    HW2 3038   1.519   0.854   1.104 -0.0814  0.9257 -0.5793
  241SOL     OW 3039  10.112   0.543   1.532  0.5376 -0.0011  0.1793
  241SOL    HW1 3040  10.194   0.537   1.581  1.0837  1.9650 -0.3964
  241SOL    HW2 3041  10.131   0.501   1.448  0.9668  0.3822  0.0750
  242SOL     OW 3042   7.979   6.772   5.161 -0.3164  0.1617  0.4996
  242SOL    HW1 3043   8.058   6.754   5.111  0.1251  0.2115  1.1631
  242SOL    HW2 3044   7.940   6.848   5.118 -0.6220 -0.5604 -0.5271
  243SOL     OW 3045   0.212   2.265   1.113  0.3046 -0.7642  0.4236
  243SOL    HW1 3046   0.165   2.189   1.147  0.7759 -0.7298  1.1663
  243SOL    HW2 3047   0.286   2.228   1.066  0.9149 -0.7601  1.3583
  244SOL     OW 3048   7.725   3.223   5.075  0.6532 -0.1300 -0.2079
  244SOL    HW1 3049   7.734   3.246   4.982 -2.3676  2.5822 -0.0216
  244SOL    HW2 3050   7.794   3.273   5.118 -0.6630  2.2504 -0.6771
  245SOL     OW 3051   5.384   7.275   7.026  0.1031  0.1448 -0.5047
  245SOL    HW1 3052   5.331   7.209   6.982  0.5170 -0.2371 -0.4385
  245SOL    HW2 3053   5.474   7.245   7.014  0.1897 -0.4487  1.3358
  246SOL     OW 3054  10.539   4.035   9.109  0.3465  0.8812  0.5323
  246SOL    HW1 3055  10.561   4.025   9.017  0.8499  2.1458  0.4849
  246SOL    HW2 3056  10.520   4.128   9.119  1.0081  0.9081  1.8400
  247SOL     OW 3057   4.193   9.466   7.895 -0.1799 -0.4543 -0.0708
  247SOL    HW1 3058   4.171   9.509   7.978  1.1712  1.1801 -0.4933
  247SOL    HW2 3059   4.140   9.511   7.830  1.3397  0.7367 -0.5370
  248SOL     OW 3060   1.521   0.128   1.199 -0.2473 -0.0310  0.3564
  248SOL    HW1 3061   1.564   0.163   1.121 -1.3699  0.9045  0.1348
  248SOL    HW2 3062   1.579   0.150   1.271  0.8586 -1.0044 -0.2046
  249SOL     OW 3063   1.775   4.944   8.026 -0.3398  0.4161 -0.0787
  249SOL    HW1 3064   1.786   5.027   8.071 -0.2621  0.1235  0.4556
  249SOL    HW2 3065   1.858   4.897   8.041 -0.9674 -0.3863  0.9650
  250SOL     OW 3066   2.727   2.699   6.574 -0.3048  0.1531 -0.0350
  250SOL    HW1 3067   2.643   2.741   6.589 -0.9272 -0.7493 -0.9034
  250SOL    HW2 3068   2.707   2.606   6.571  0.7239 -0.0699 -0.2843
  251SOL     OW 3069   5.552   0.659   9.295 -0.4921  0.5271  0.0088
  251SOL    HW1 3070   5.598   0.632   9.374  0.9329  0.0727 -0.9332
  251SOL    HW2 3071   5.535   0.752   9.307  1.7768  1.0069 -0.0946
  252SOL     OW 3072   6.330   3.380   6.597  0.3406  0.2815  0.3036
  252SOL    HW1 3073   6.308   3.294   6.631  1.2126 -0.2715 -0.4792
  252SOL    HW2 3074   6.358   3.430   6.674 -0.0190 -0.1794  0.7388
  253SOL     OW 3075   0.294   7.592   6.069 -0.2590  0.2404  0.4607
  253SOL    HW1 3076   0.222   7.580   6.007  1.8782 -0.2848 -2.1260
  253SOL    HW2 3077   0.279   7.526   6.137 -1.7752 -0.3804 -0.4229
  254SOL     OW 3078   3.416   5.057   3.461 -0.1822  0.0873 -0.1160
  254SOL    HW1 3079   3.354   5.113   3.507 -1.6088 -0.4556 -1.2755
  254SOL    HW2 3080   3.500   5.072   3.505 -1.1663  0.6634  1.6717
  255SOL     OW 3081   5.897   3.856   0.500  0.5692  0.4814 -0.0093
  255SOL    HW1 3082   5.824   3.818   0.451  1.0817 -0.6407  0.0633
  255SOL    HW2 3083   5.912   3.941   0.459 -0.3190  0.4206 -0.4774
  256SOL     OW 3084   0.796   5.090   3.216  0.2452 -0.2824  0.4679
  256SOL    HW1 3085   0.812   5.013   3.162 -0.5736  0.5437 -1.0398
  256SOL    HW2 3086   0.745   5.058   3.290 -0.5230 -1.1155 -0.4064
  257SOL     OW 3087   3.270   2.487   9.184 -0.0635  0.1963  0.4370
  257SOL    HW1 3088   3.276   2.411   9.126  0.5885  0.8691 -0.4024
  257SOL    HW2 3089   3.201   2.464   9.246 -0.4746 -0.7266 -0.3277
  258SOL     OW 3090  10.248   4.252   6.183 -0.2861  0.0002 -0.4127
  258SOL    HW1 3091  10.250   4.158   6.169 -1.8571 -0.0974 -0.0474
  258SOL    HW2 3092  10.320   4.269   6.244  0.6525 -0.7949 -1.2529
  259SOL     OW 3093   9.939   2.214   1.199  0.5551 -0.9206 -0.1500
  259SOL    HW1 3094   9.905   2.250   1.117  1.4280 -0.2204 -0.2201
  259SOL    HW2 3095   9.861   2.179   1.243 -0.0014 -0.8613 -1.0421
  260SOL     OW 3096   6.833   6.568   4.569  0.0283  0.0408  0.2771
  260SOL    HW1 3097   6.890   6.496   4.542  0.9942  0.1507  1.9062
  260SOL    HW2 3098   6.860   6.641   4.514  0.3393 -0.3455 -0.0917
  261SOL     OW 3099   9.964  10.325   4.560 -0.8486 -0.6278  0.1054
  261SOL    HW1 3100   9.946  10.313   4.467  1.4196 -0.0848 -0.4617
  261SOL    HW2 3101   9.998  10.414   4.566  2.5141 -1.8035  0.7776
  262SOL     OW 3102   2.081   2.097  10.355  0.2025 -0.0769 -0.2033
  262SOL    HW1 3103   2.108   2.182  10.322 -0.6656  0.4123  0.2935
  262SOL    HW2 3104   2.071   2.043  10.277 -0.9783  0.8101 -0.6955
  263SOL     OW 3105   4.511   0.114   0.401  0.1724 -0.0489 -0.0226
  263SOL    HW1 3106   4.419   0.122   0.374  0.4562  0.9038 -0.7603
  263SOL    HW2 3107   4.539   0.031   0.362 -0.3776 -0.3660  0.2391
  264SOL     OW 3108   3.531   7.145   2.272  0.0357  0.2985  0.2532
  264SOL    HW1 3109   3.562   7.165   2.360 -1.6216  2.1315  0.4855
  264SOL    HW2 3110   3.441   7.113   2.285 -0.0679  0.1674 -0.7343
  265SOL     OW 3111   3.763   0.607   0.096 -0.0787  0.4234  0.0701
  265SOL    HW1 3112   3.712   0.618   0.015 -0.9755  1.8037  0.7855
  265SOL    HW2 3113   3.834   0.548   0.071 -1.0595 -0.2179 -1.4037
  266SOL     OW 3114   9.862   2.373   3.655 -0.6930  0.0895 -0.4482
  266SOL    HW1 3115   9.803   2.334   3.721  1.0196  1.3978  2.0236
  266SOL    HW2 3116   9.803   2.422   3.598 -2.1934  0.0076  0.9183
  267SOL     OW 3117   3.154   9.739   0.865  0.6592 -0.0028 -0.4008
  267SOL    HW1 3118   3.166   9.657   0.817  0.1772 -2.3316  3.0842
  267SOL    HW2 3119   3.083   9.784   0.819  0.2272 -2.0428 -1.8678
  268SOL     OW 3120   1.964   2.523   4.965 -0.1081  0.3008  0.3527
  268SOL    HW1 3121   1.979   2.589   4.897 -0.9576 -1.0449 -1.2132
  268SOL    HW2 3122   2.049   2.513   5.008  0.8055  0.2801 -1.3785
  269SOL     OW 3123   5.056   1.749   2.271  0.1270  0.2580  0.0395
  269SOL    HW1 3124   5.051   1.658   2.241 -1.2853 -0.1888  1.4997
  269SOL    HW2 3125   5.042   1.801   2.192 -2.0172 -0.8641 -0.4117
  270SOL     OW 3126   0.582   8.910   3.111 -0.1245 -0.2630  0.3763
  270SOL    HW1 3127   0.642   8.900   3.038 -1.7389  0.7795 -1.1728
  270SOL    HW2 3128   0.610   8.990   3.155 -0.0913 -0.0237 -0.0737
  271SOL     OW 3129   8.566   0.499   9.122 -0.0083  0.1198  0.4047
  271SOL    HW1 3130   8.582   0.411   9.157 -2.1431 -1.0178 -1.1599
  271SOL    HW2 3131   8.653   0.536   9.107  0.9712 -1.9648  0.5742
  272SOL     OW 3132   2.284   6.374   3.170  0.1073 -0.2106 -0.7740
  272SOL    HW1 3133   2.277   6.427   3.249  1.0101  0.6113 -1.2300
  272SOL    HW2 3134   2.198   6.331   3.162 -0.4114  0.6640 -0.0445
  273SOL     OW 3135   0.812   8.685   5.894 -0.3718  0.5348  0.0149
  273SOL    HW1 3136   0.802   8.761   5.837  0.9448 -1.0995 -2.5519
  273SOL    HW2 3137   0.782   8.611   5.842 -1.1184 -0.8434  2.2488
  274SOL     OW 3138   1.723   1.112   9.597 -0.0853  0.2439 -0.1674
  274SOL    HW1 3139   1.815   1.095   9.576 -0.3563 -1.4053 -0.1269
  274SOL    HW2 3140   1.725   1.192   9.650  1.2155  0.7920 -0.9849
  275SOL     OW 3141   9.119   9.393   0.575  0.2363  0.0857  0.1071
  275SOL    HW1 3142   9.106   9.329   0.645 -2.9783 -0.5958 -0.9451
  275SOL    HW2 3143   9.174   9.347   0.511 -0.3962 -0.9168  0.2581
  276SOL     OW 3144   9.644   2.310   7.795  0.0709  0.2401  0.6199
  276SOL    HW1 3145   9.593   2.304   7.714  0.2174  2.4954  0.3003
  276SOL    HW2 3146   9.579   2.303   7.865 -0.1234 -1.1115  0.3458
  277SOL     OW 3147  10.121   9.107   4.758 -0.3063  0.0044  0.3846
  277SOL    HW1 3148  10.054   9.139   4.697  0.3611  0.2010 -0.2524
  277SOL    HW2 3149  10.108   9.012   4.760 -1.1555  0.1171  0.9324
  278SOL     OW 3150   9.141   8.977  10.211  0.4177 -0.2482  0.3962
  278SOL    HW1 3151   9.159   9.044  10.277  1.3865  0.1832 -0.2888
  278SOL    HW2 3152   9.079   9.020  10.151 -0.1131 -0.4886  0.7609
  279SOL     OW 3153   4.184   6.387   7.451  0.1945 -0.1181  0.4098
  279SOL    HW1 3154   4.238   6.388   7.530  0.3611  0.6926  0.2951
  279SOL    HW2 3155   4.096   6.369   7.482  0.2272  0.4043  0.7992
  280SOL     OW 3156  10.183   3.471   0.327  0.4666 -0.2234 -0.3273
  280SOL    HW1 3157  10.140   3.503   0.248 -1.2217 -1.7371 -0.0956
  280SOL    HW2 3158  10.237   3.398   0.296  1.6143  0.6133 -0.3692
  281SOL     OW 3159  10.198   3.947   3.177 -0.1650  0.0838 -0.1241
  281SOL    HW1 3160  10.139   3.968   3.250 -0.8678  1.1740 -0.9726
  281SOL    HW2 3161  10.268   4.012   3.184 -0.0461 -0.0363 -0.2044
  282SOL     OW 3162   8.627   5.846   2.003  0.3860 -1.0203 -0.1038
  282SOL    HW1 3163   8.660   5.762   2.034 -0.2780 -1.1991  0.1344
  282SOL    HW2 3164   8.534   5.843   2.022  0.3036 -0.3590 -0.3951
  283SOL     OW 3165   1.321   2.051   6.801 -0.3428 -0.0407 -0.0865
  283SOL    HW1 3166   1.333   1.956   6.796 -1.7031 -0.2049 -0.6716
  283SOL    HW2 3167   1.262   2.072   6.730 -0.6260  1.1597  0.4670
  284SOL     OW 3168   7.975   0.182   4.631 -0.3727 -0.3262  0.1159
  284SOL    HW1 3169   7.963   0.210   4.722 -1.0646 -1.2043  0.3090
  284SOL    HW2 3170   7.983   0.264   4.582  0.5308  0.1511  1.0229
  285SOL     OW 3171   3.052   5.287   6.312  0.0026 -0.3154  0.3915
  285SOL    HW1 3172   3.095   5.307   6.396 -1.4763  1.6382  0.7586
  285SOL    HW2 3173   3.065   5.193   6.300  0.0165 -0.7231  2.9852
  286SOL     OW 3174   4.394  10.587   6.698 -0.7584 -0.0474 -0.0528
  286SOL    HW1 3175   4.478  10.545   6.717 -0.9881 -1.1339 -1.2898
  286SOL    HW2 3176   4.384  10.654   6.766  0.6287 -0.5801  0.7040
  287SOL     OW 3177   1.467   0.706   4.306  0.0920  0.4842  0.0976
  287SOL    HW1 3178   1.437   0.637   4.247  0.3004  2.0096 -1.8989
  287SOL    HW2 3179   1.388   0.740   4.346 -0.2097  0.2971 -0.3289
  288SOL     OW 3180   0.110   5.490   1.713 -0.1820  0.2223  0.6383
  288SOL    HW1 3181   0.168   5.426   1.674 -0.1101  0.8415 -0.2850
  288SOL    HW2 3182   0.035   5.494   1.654  0.7238  2.4756 -0.4831
  289SOL     OW 3183   5.672   6.679   8.893  0.3692 -0.6135 -0.0915
  289SOL    HW1 3184   5.742   6.617   8.877 -0.3646 -1.1996 -1.1372
  289SOL    HW2 3185   5.710   6.765   8.873  0.5980 -0.9887 -1.3418
  290SOL     OW 3186   8.981   5.296   4.597  0.4795 -0.7216  0.5136
  290SOL    HW1 3187   9.005   5.300   4.689 -2.1442  3.2311  1.2966
  290SOL    HW2 3188   9.030   5.367   4.556 -2.1629  1.0288  0.1377
  291SOL     OW 3189   9.561   6.684  10.285  0.3066 -0.3034 -0.2022
  291SOL    HW1 3190   9.528   6.595  10.299 -3.8961  0.7723 -1.9209
  291SOL    HW2 3191   9.543   6.703  10.193 -1.1972  3.0482  0.6185
  292SOL     OW 3192   1.600   4.285   6.713  0.0523 -0.6865  0.3369
  292SOL    HW1 3193   1.644   4.363   6.678 -0.2699 -0.4364  0.4927
  292SOL    HW2 3194   1.514   4.286   6.671 -0.2041 -0.5832  0.8676
  293SOL     OW 3195   4.718   5.138   5.954  0.4643 -0.1880  0.2319
  293SOL    HW1 3196   4.744   5.171   6.040  0.5654  0.3829 -0.0123
  293SOL    HW2 3197   4.687   5.049   5.971  0.7957 -0.2019  0.8086
  294SOL     OW 3198   7.949   0.121   6.138  0.3209 -0.3155 -0.3038
  294SOL    HW1 3199   7.895   0.081   6.207 -0.6702  0.6005 -0.5255
  294SOL    HW2 3200   7.887   0.170   6.084  1.2095 -0.2795 -1.3302
  295SOL     OW 3201   7.856   7.681   1.186 -0.2669  0.1021  0.1836
  295SOL    HW1 3202   7.788   7.746   1.203  0.1451  0.5694  0.0728
  295SOL    HW2 3203   7.849   7.619   1.258  0.3026  1.0786  1.1061
  296SOL     OW 3204   0.678   9.592   7.838 -0.4817  0.4343 -0.2748
  296SOL    HW1 3205   0.698   9.643   7.916  0.5878  0.6633 -0.6731
  296SOL    HW2 3206   0.652   9.657   7.773 -1.8126  0.2030  0.0108
  297SOL     OW 3207   4.012   4.088   3.971 -0.1867 -0.4275  0.1191
  297SOL    HW1 3208   4.006   4.151   3.900  0.9799 -1.2742 -0.7754
  297SOL    HW2 3209   3.938   4.109   4.029 -0.3293  1.1621 -0.6047
  298SOL     OW 3210   1.244   7.497   0.470 -0.1467 -0.5594  0.3615
  298SOL    HW1 3211   1.241   7.517   0.564  1.6903  1.7418  0.0296
  298SOL    HW2 3212   1.333   7.521   0.444 -0.2237 -2.3129 -1.7717
  299SOL     OW 3213   5.538   1.235   2.567  0.1389 -0.2091 -0.1212
  299SOL    HW1 3214   5.598   1.305   2.541  1.3357 -0.5954  1.4187
  299SOL    HW2 3215   5.457   1.280   2.588  0.7721  0.6935  0.4767
  300SOL     OW 3216   7.037   4.028   5.951  0.9621  0.4788  0.1218
  300SOL    HW1 3217   7.044   3.985   6.037  0.7332  2.4893  1.1920
  300SOL    HW2 3218   6.943   4.044   5.940  1.0804  1.0180 -0.1035
  301SOL     OW 3219   2.136   0.063   8.743 -0.2531 -0.3762  0.3442
  301SOL    HW1 3220   2.101   0.133   8.688 -2.2002 -0.5496  1.2919
  301SOL    HW2 3221   2.209   0.105   8.789  1.0614 -0.0762 -1.8572
  302SOL     OW 3222   7.937   8.086   0.544 -0.7136  0.4747 -0.5547
  302SOL    HW1 3223   7.928   8.029   0.467  0.5796 -0.6868  0.1013
  302SOL    HW2 3224   7.959   8.172   0.508  3.8303 -0.8414 -1.5625
  303SOL     OW 3225   4.825   5.249   3.889  0.5393  0.7721 -0.6156
  303SOL    HW1 3226   4.767   5.179   3.859  0.1894 -0.0882  1.8021
  303SOL    HW2 3227   4.777   5.330   3.873 -0.4835  0.2035 -0.4684
  304SOL     OW 3228   1.031   7.112   6.125 -0.2300  0.9746  0.3288
  304SOL    HW1 3229   0.947   7.085   6.088 -1.4158  0.1797  3.2682
  304SOL    HW2 3230   1.035   7.207   6.110 -0.9473  0.7924 -1.1136
  305SOL     OW 3231   4.388   8.189   5.245 -0.0144  0.4867  0.3025
  305SOL    HW1 3232   4.296   8.173   5.228 -0.1064  0.9571  0.3392
  305SOL    HW2 3233   4.390   8.223   5.335  0.2624 -0.1298  0.5369
  306SOL     OW 3234  10.213   0.458   0.598  0.2227 -0.7183 -0.0154
  306SOL    HW1 3235  10.256   0.543   0.611 -2.3224  0.6976 -0.3373
  306SOL    HW2 3236  10.185   0.432   0.686  0.0423 -0.6902 -0.0649
  307SOL     OW 3237   1.588   1.108   0.459 -0.1469 -0.8857 -0.2128
  307SOL    HW1 3238   1.594   1.125   0.553  2.6390 -0.0033 -0.4586
  307SOL    HW2 3239   1.528   1.175   0.427 -2.5807 -2.3011  1.0894
  308SOL     OW 3240   9.921   4.385   4.056 -0.4489  0.4940 -0.0911
  308SOL    HW1 3241   9.993   4.448   4.059 -0.2872  0.3597 -0.8333
  308SOL    HW2 3242   9.948   4.314   4.114 -0.2922  0.7541  0.1589
  309SOL     OW 3243   0.795  10.060   5.858 -0.3639 -0.0893 -0.3253
  309SOL    HW1 3244   0.730  10.106   5.911 -0.1638  0.5169 -0.5931
  309SOL    HW2 3245   0.876  10.109   5.871 -0.0137 -0.6977 -0.1856
  310SOL     OW 3246   8.432   0.029   7.190  0.3574  0.1647 -0.4150
  310SOL    HW1 3247   8.344  -0.006   7.185  0.1341  0.6110  0.1508
  310SOL    HW2 3248   8.424   0.105   7.248  0.9943  0.5853 -0.8582
  311SOL     OW 3249   0.632   1.332   7.329 -0.1955 -0.3033  0.4618
  311SOL    HW1 3250   0.654   1.241   7.348  0.3966 -0.2807 -0.0726
  311SOL    HW2 3251   0.579   1.360   7.404  2.1288 -0.1791  2.1834
  312SOL     OW 3252   7.611   5.481   0.554 -0.7401 -0.3396 -0.1113
  312SOL    HW1 3253   7.704   5.502   0.549 -0.4867 -1.2414  0.6248
  312SOL    HW2 3254   7.577   5.500   0.467  0.2982 -0.7977 -0.6195
  313SOL     OW 3255   2.566   3.748   6.161 -0.3094  0.3396  0.3737
  313SOL    HW1 3256   2.552   3.766   6.068 -0.8872  0.6936  0.5233
  313SOL    HW2 3257   2.483   3.771   6.203 -0.5148 -1.0967  0.8095
  314SOL     OW 3258   2.143   6.806   6.879 -0.0833 -0.4202 -0.2767
  314SOL    HW1 3259   2.165   6.722   6.920 -0.7047 -0.2801  0.3588
  314SOL    HW2 3260   2.193   6.806   6.797  0.0077 -1.3628 -0.2352
  315SOL     OW 3261   1.611   1.053   6.904 -0.1683 -0.3527 -0.2698
  315SOL    HW1 3262   1.585   1.113   6.974  0.0051 -0.5345 -0.0506
  315SOL    HW2 3263   1.607   1.107   6.825  1.7765  0.5016  0.1374
  316SOL     OW 3264   6.680   7.470   3.954 -0.0260  0.2322  0.4322
  316SOL    HW1 3265   6.724   7.386   3.965 -0.0504  0.1482 -0.0827
  316SOL    HW2 3266   6.597   7.448   3.911  1.0260  0.7409 -2.0115
  317SOL     OW 3267   3.522   3.132   5.290 -0.2038 -0.1965 -0.4920
  317SOL    HW1 3268   3.477   3.105   5.209 -1.1198 -1.8746  0.5085
  317SOL    HW2 3269   3.615   3.125   5.269 -0.4223 -0.3788 -1.4660
  318SOL     OW 3270   6.433   6.727   6.504 -0.2189 -0.5332  0.0113
  318SOL    HW1 3271   6.411   6.635   6.516  1.2052 -0.8126  0.6709
  318SOL    HW2 3272   6.348   6.771   6.498 -0.9354 -1.7483  0.7419
  319SOL     OW 3273   1.707   4.732   8.269  0.0264 -0.3780 -0.0569
  319SOL    HW1 3274   1.741   4.697   8.352  0.5002 -1.7110 -0.7837
  319SOL    HW2 3275   1.720   4.827   8.276 -0.9694 -0.3294  1.8430
  320SOL     OW 3276   8.280   0.516   3.635  0.3419 -0.3453 -0.7212
  320SOL    HW1 3277   8.219   0.524   3.709  0.9413  0.7210 -0.3136
  320SOL    HW2 3278   8.322   0.602   3.630  1.0718 -0.7419 -1.6472
  321SOL     OW 3279   4.541   2.524   1.038  0.0746 -0.1254  0.2922
  321SOL    HW1 3280   4.510   2.458   1.101  0.1200 -0.3483  0.0847
  321SOL    HW2 3281   4.477   2.520   0.967  0.3486 -0.2958  0.0526
  322SOL     OW 3282   5.718   5.365   6.670  0.2757  0.5108  0.0386
  322SOL    HW1 3283   5.629   5.351   6.636  0.0935  2.4367 -0.4053
  322SOL    HW2 3284   5.773   5.370   6.592  0.8358 -0.8606  0.3191
  323SOL     OW 3285   9.309   8.089   5.696 -0.5231 -0.2284 -0.4750
  323SOL    HW1 3286   9.373   8.100   5.766 -1.2154 -1.0738  0.3141
  323SOL    HW2 3287   9.293   8.177   5.663  0.3850  0.0855 -0.1008
  324SOL     OW 3288   7.853   4.081  10.091 -0.1582  0.4666  0.1168
  324SOL    HW1 3289   7.927   4.114  10.040  0.9765 -0.0395  1.3581
  324SOL    HW2 3290   7.857   3.986  10.082 -1.0663  0.4685 -0.3418
  325SOL     OW 3291  10.444   2.644   9.934 -0.1990  0.3827 -0.3285
  325SOL    HW1 3292  10.506   2.579   9.967  0.8365  0.8781 -1.2410
  325SOL    HW2 3293  10.439   2.628   9.840 -0.7486  0.9343 -0.4009
  326SOL     OW 3294   5.034   7.926   6.949  0.4469  0.0934 -0.3851
  326SOL    HW1 3295   4.998   8.014   6.936 -1.4473 -0.4564  0.8245
  326SOL    HW2 3296   5.002   7.875   6.874  0.6856  0.1685 -0.5402
  327SOL     OW 3297   0.482   3.962   7.994 -0.2618 -0.2197 -0.1432
  327SOL    HW1 3298   0.512   3.926   8.077  3.1008 -3.5045 -2.4607
  327SOL    HW2 3299   0.561   3.990   7.949 -1.7488 -0.0645 -2.9061
  328SOL     OW 3300   8.827   0.639   3.286 -0.0462  0.3355  0.2711
  328SOL    HW1 3301   8.908   0.590   3.299 -0.9637 -0.9566  1.4485
  328SOL    HW2 3302   8.841   0.721   3.333  0.3412 -0.1796  1.0890
  329SOL     OW 3303   1.969   6.878   1.802 -0.5732 -0.1211 -0.1311
  329SOL    HW1 3304   1.996   6.884   1.894 -0.4958  1.9868 -0.2291
  329SOL    HW2 3305   2.014   6.801   1.768  1.1010  0.2781  1.0715
  330SOL     OW 3306   1.345   6.066   8.291 -0.0142  0.4358 -0.1103
  330SOL    HW1 3307   1.439   6.051   8.300 -0.0232  0.2224 -0.3712
  330SOL    HW2 3308   1.325   6.131   8.359  0.1304 -0.2822  0.6388
  331SOL     OW 3309  10.305   8.311   7.898 -0.1097 -0.2082  0.2698
  331SOL    HW1 3310  10.308   8.253   7.822  0.8017  0.4854 -0.2455
  331SOL    HW2 3311  10.348   8.261   7.968  1.1782  0.0325 -0.3188
  332SOL     OW 3312   3.728   9.010   0.536 -0.3773  0.0436 -0.0366
  332SOL    HW1 3313   3.735   8.975   0.447  0.5772 -0.7994  0.3477
  332SOL    HW2 3314   3.635   9.030   0.546 -0.2218  1.9849 -1.8688
  333SOL     OW 3315   0.565   1.703   6.217  0.1601  0.5520 -0.1787
  333SOL    HW1 3316   0.640   1.695   6.158 -0.8715  1.1828 -1.6308
  333SOL    HW2 3317   0.567   1.794   6.246  0.5225  0.3067  0.6075
  334SOL     OW 3318   4.306   1.511   3.180 -0.3405  0.5026 -0.4499
  334SOL    HW1 3319   4.364   1.493   3.255 -1.9982 -1.1281  0.5477
  334SOL    HW2 3320   4.352   1.578   3.130  1.7364  0.2959  1.0126
  335SOL     OW 3321   2.423   8.838   5.706  0.0920 -0.7035  0.1589
  335SOL    HW1 3322   2.403   8.781   5.631 -0.8486  1.3295 -1.2108
  335SOL    HW2 3323   2.337   8.858   5.743  0.4028 -0.1640  0.5909
  336SOL     OW 3324   1.772   1.430   5.522 -0.5395  0.2953 -0.1347
  336SOL    HW1 3325   1.768   1.450   5.428 -1.7936  0.2952 -0.1073
  336SOL    HW2 3326   1.822   1.502   5.560  1.5367 -0.6087 -1.0071
  337SOL     OW 3327   8.631   3.703   6.660 -0.2950  0.3729 -0.0368
  337SOL    HW1 3328   8.557   3.752   6.623 -1.4494 -1.7849 -0.7116
  337SOL    HW2 3329   8.593   3.622   6.692  1.3450  0.4356  2.3170
  338SOL     OW 3330   5.722   9.600   4.487  0.0368 -0.0239  0.5629
  338SOL    HW1 3331   5.799   9.549   4.511  0.4511  1.0982  1.7233
  338SOL    HW2 3332   5.744   9.690   4.512 -1.7628  0.2708  1.2280
  339SOL     OW 3333   5.130   5.444   0.814  0.8567 -0.4198 -0.0340
  339SOL    HW1 3334   5.140   5.469   0.722 -1.1857  1.3486  0.1269
  339SOL    HW2 3335   5.176   5.361   0.822 -0.6664 -1.7298 -3.1787
  340SOL     OW 3336   9.727   1.822  10.403  0.5214 -0.4703 -0.5070
  340SOL    HW1 3337   9.729   1.892  10.468  0.9571  2.4806 -3.3961
  340SOL    HW2 3338   9.639   1.785  10.409  0.9400 -1.2244  2.4808
  341SOL     OW 3339   3.265   6.825   9.038 -0.0692 -0.7559  0.4825
  341SOL    HW1 3340   3.231   6.811   9.127 -1.4391  0.4690  0.1805
  341SOL    HW2 3341   3.285   6.737   9.006  1.0194 -1.1790  2.2044
  342SOL     OW 3342   4.633   5.036   0.085 -0.6826 -0.6712  0.4078
  342SOL    HW1 3343   4.581   4.960   0.108 -0.3750 -1.7667 -2.1485
  342SOL    HW2 3344   4.705   5.036   0.148 -0.0860 -3.1688 -0.1697
  343SOL     OW 3345  10.303   8.983   2.785 -0.3330 -0.0799 -0.5335
  343SOL    HW1 3346  10.228   8.956   2.837  0.1114  1.1692  0.8293
  343SOL    HW2 3347  10.351   9.044   2.842 -0.2770  2.0300 -2.6760
  344SOL     OW 3348   9.275   0.187   6.581  0.0528 -0.6615  0.0307
  344SOL    HW1 3349   9.274   0.165   6.488 -0.5041 -1.3766  0.1914
  344SOL    HW2 3350   9.367   0.208   6.600 -0.1249  1.2093 -1.0417
  345SOL     OW 3351   9.028   8.540   9.862 -0.4488 -0.6799 -0.2733
  345SOL    HW1 3352   9.039   8.588   9.780  0.2460 -0.2836  0.0464
  345SOL    HW2 3353   8.964   8.472   9.841 -0.4195 -0.4687 -1.0917
  346SOL     OW 3354   6.936   0.041   0.071 -0.0992  0.0863  0.4244
  346SOL    HW1 3355   7.030   0.021   0.070 -0.1979 -0.7179  2.3292
  346SOL    HW2 3356   6.931   0.129   0.108 -0.1189 -0.1144  0.9052
  347SOL     OW 3357   3.058   7.119   9.544  0.4440 -1.1634 -1.1598
  347SOL    HW1 3358   3.050   7.209   9.576  0.6215 -2.1872  2.2098
  347SOL    HW2 3359   2.971   7.098   9.509  0.6988  0.5644 -3.0252
  348SOL     OW 3360   0.117   5.479   1.158 -0.2789  0.0461  0.1226
  348SOL    HW1 3361   0.132   5.389   1.186  0.1939  0.3000  0.7105
  348SOL    HW2 3362   0.022   5.489   1.160 -0.3299 -0.4037  0.1656
  349SOL     OW 3363  10.165   4.208   7.053  0.8465  0.2180 -0.4258
  349SOL    HW1 3364  10.095   4.222   7.117 -0.7723 -0.6514 -1.8963
  349SOL    HW2 3365  10.162   4.287   6.998  2.5817  1.2031  0.8062
  350SOL     OW 3366   2.243   4.321   6.651  0.4939 -0.3055  0.3941
  350SOL    HW1 3367   2.284   4.305   6.736  0.1970  0.4245  0.6859
  350SOL    HW2 3368   2.303   4.382   6.608 -0.3006  0.8441  0.8608
  351SOL     OW 3369   6.022   2.028   2.854  0.0585  0.4541 -0.5054
  351SOL    HW1 3370   5.999   2.039   2.762  2.3861 -0.2380 -1.2451
  351SOL    HW2 3371   6.113   1.998   2.853 -0.2991 -1.0522  1.9653
  352SOL     OW 3372   5.722   4.162   3.324 -0.1932  0.1121 -0.3959
  352SOL    HW1 3373   5.720   4.231   3.390 -0.3975 -0.6162  0.3798
  352SOL    HW2 3374   5.638   4.117   3.335  0.2731 -0.7664 -0.3226
  353SOL     OW 3375   7.930   3.817   6.722  0.0842  0.0807  0.0831
  353SOL    HW1 3376   7.886   3.820   6.637  0.4990  2.1538 -0.1303
  353SOL    HW2 3377   7.953   3.725   6.734 -2.7056 -0.8057 -0.5961
  354SOL     OW 3378   7.178   7.693   5.789 -0.2110 -0.2426  0.1742
  354SOL    HW1 3379   7.130   7.692   5.872 -1.5586 -0.1743 -0.5771
  354SOL    HW2 3380   7.167   7.783   5.757  2.2922  0.4337  1.0054
  355SOL     OW 3381  10.402   6.196   4.221  0.2566 -0.1742  0.7418
  355SOL    HW1 3382  10.351   6.129   4.177  0.8387  0.8196 -1.6003
  355SOL    HW2 3383  10.395   6.175   4.314 -0.2447 -2.9568  0.1488
  356SOL     OW 3384   1.617   2.384   3.230  0.1039 -0.3047  0.1439
  356SOL    HW1 3385   1.681   2.410   3.163 -1.8306  1.0021 -1.2918
  356SOL    HW2 3386   1.648   2.426   3.310  1.0833  0.2396 -0.4917
  357SOL     OW 3387   2.856   4.367   7.875  0.0711  0.3892  0.4979
  357SOL    HW1 3388   2.778   4.334   7.920  0.3820  0.3319  1.0096
  357SOL    HW2 3389   2.827   4.386   7.786 -0.8161  1.4679  0.9951
  358SOL     OW 3390   4.945   2.347   3.307  0.2124 -0.0727 -0.3376
  358SOL    HW1 3391   4.896   2.363   3.387  0.0132  0.2175 -0.5105
  358SOL    HW2 3392   4.882   2.305   3.248 -0.4260  2.0001 -1.2244
  359SOL     OW 3393   0.928   3.536   9.777 -0.0835 -0.2057 -0.2684
  359SOL    HW1 3394   0.943   3.498   9.864  1.8786 -1.5866 -1.1118
  359SOL    HW2 3395   0.999   3.500   9.723 -1.1201  0.7504 -2.4060
  360SOL     OW 3396   0.942   1.833   8.447  0.2458 -0.4567  0.6432
  360SOL    HW1 3397   0.895   1.761   8.406  0.1147  0.1882 -0.3534
  360SOL    HW2 3398   0.893   1.911   8.423  1.2676  0.1304  0.4081
  361SOL     OW 3399   9.854   5.050   0.196  0.0317 -0.3461 -0.1637
  361SOL    HW1 3400   9.768   5.063   0.235 -1.0446 -0.8043 -2.2710
  361SOL    HW2 3401   9.866   4.955   0.195 -0.4634 -0.4219 -1.8870
  362SOL     OW 3402   4.649   3.704   1.023 -0.4213 -0.1099  0.1532
  362SOL    HW1 3403   4.654   3.792   1.060  0.1868 -0.0547 -0.0390
  362SOL    HW2 3404   4.602   3.653   1.088  0.3257  0.0629  0.8498
  363SOL     OW 3405   2.416   4.094   9.665  0.1525 -0.1346 -0.1591
  363SOL    HW1 3406   2.439   4.182   9.695  1.1495 -1.0399  1.9749
  363SOL    HW2 3407   2.482   4.037   9.705 -0.2420 -1.8216 -1.7938
  364SOL     OW 3408   8.027   6.781   8.552 -0.2959  0.0695  0.3951
  364SOL    HW1 3409   8.120   6.784   8.526 -0.3538 -0.1811  0.1562
  364SOL    HW2 3410   8.020   6.701   8.605 -0.3513  0.1492  0.5076
  365SOL     OW 3411   2.327   2.155   7.861  0.1144 -0.9775  0.1261
  365SOL    HW1 3412   2.353   2.138   7.770 -1.0338  0.5749 -0.5488
  365SOL    HW2 3413   2.288   2.074   7.891 -1.0870 -1.0030 -1.3841
  366SOL     OW 3414   5.921   8.042   6.299  0.2066  1.0512  0.1760
  366SOL    HW1 3415   5.930   7.990   6.219 -2.7280  1.5980 -0.6066
  366SOL    HW2 3416   5.829   8.034   6.323  0.8420  1.4733  3.1693
  367SOL     OW 3417   9.051   2.018   5.559  0.1503 -0.1607 -0.4862
  367SOL    HW1 3418   9.011   2.015   5.646  0.9540 -2.4939 -0.1521
  367SOL    HW2 3419   9.012   1.944   5.512  0.1912  0.6934 -1.9363
  368SOL     OW 3420   2.859   4.235   3.345 -0.9263 -0.1053 -0.2007
  368SOL    HW1 3421   2.824   4.260   3.431  0.5828  2.1130 -0.1380
  368SOL    HW2 3422   2.836   4.308   3.288  0.1760 -0.4093 -1.0813
  369SOL     OW 3423   6.592   2.737   3.720 -0.2321  0.2894 -0.0535
  369SOL    HW1 3424   6.600   2.780   3.635 -0.4662 -2.3409 -1.5176
  369SOL    HW2 3425   6.676   2.694   3.734 -0.7621 -0.6948  0.2194
  370SOL     OW 3426   5.517   8.737   8.883  0.1695 -0.4935 -0.5793
  370SOL    HW1 3427   5.520   8.831   8.900  2.3396 -0.6599  0.2073
  370SOL    HW2 3428   5.578   8.723   8.811  0.0325 -1.3194 -0.5475
  371SOL     OW 3429   9.133   8.107   4.810 -0.4966 -0.4686  0.3687
  371SOL    HW1 3430   9.093   8.177   4.758  0.3962 -0.1048  0.1612
  371SOL    HW2 3431   9.191   8.063   4.749  1.4679  0.6949  1.3062
  372SOL     OW 3432   3.967   4.594   0.409 -0.0980 -0.1145 -0.2352
  372SOL    HW1 3433   3.927   4.582   0.323  0.6365  0.0682 -0.6118
  372SOL    HW2 3434   4.007   4.681   0.406  0.0836 -0.1731  0.2296
  373SOL     OW 3435   3.129   0.205   1.918 -0.0049  0.3488 -0.5829
  373SOL    HW1 3436   3.087   0.181   1.836  0.3369 -0.5528 -0.5007
  373SOL    HW2 3437   3.189   0.133   1.936 -2.1536 -0.9892  1.9510
  374SOL     OW 3438   9.545   1.810   4.355 -0.0010 -0.4321  0.2296
  374SOL    HW1 3439   9.559   1.740   4.418  0.2057 -0.8606 -0.2859
  374SOL    HW2 3440   9.467   1.784   4.307 -0.5186  0.1971  0.7101
  375SOL     OW 3441   9.576   5.899   3.300 -0.0134  0.6223  0.6992
  375SOL    HW1 3442   9.647   5.901   3.236 -0.5777 -0.3326  0.0302
  375SOL    HW2 3443   9.549   5.808   3.303 -2.3885  1.2384 -0.3567
  376SOL     OW 3444   5.984   0.588   5.565 -0.0563 -0.1308  0.1530
  376SOL    HW1 3445   6.028   0.673   5.564  0.2896 -0.3122 -0.3147
  376SOL    HW2 3446   6.034   0.534   5.503  0.2388 -0.9352  1.0650
  377SOL     OW 3447   5.014   3.488   5.098 -0.1901  0.0022 -0.3253
  377SOL    HW1 3448   5.050   3.563   5.144 -1.3077 -0.3862  1.2937
  377SOL    HW2 3449   5.060   3.413   5.135 -0.8738 -0.2934 -0.0540
  378SOL     OW 3450   2.852   7.838   2.314  0.2176 -0.4057 -0.8824
  378SOL    HW1 3451   2.860   7.913   2.256  0.9031 -1.3296 -2.0209
  378SOL    HW2 3452   2.765   7.803   2.297  0.5312 -0.8603 -1.6218
  379SOL     OW 3453   4.772   3.100   1.874 -0.2082 -0.0194  0.2833
  379SOL    HW1 3454   4.703   3.120   1.811  0.7711 -0.4943 -0.9907
  379SOL    HW2 3455   4.853   3.109   1.824  0.7684  1.7151  2.0249
  380SOL     OW 3456   0.582   2.101   3.660 -0.0828 -0.4884  0.2286
  380SOL    HW1 3457   0.577   2.084   3.566 -1.7520  1.6786 -0.1776
  380SOL    HW2 3458   0.673   2.085   3.682  0.3823 -0.9648 -1.7898
  381SOL     OW 3459   0.613   9.596   0.399 -0.3178 -0.4164 -0.7225
  381SOL    HW1 3460   0.700   9.608   0.361  0.8451 -1.1432  1.5754
  381SOL    HW2 3461   0.616   9.642   0.483 -2.5618  0.5125 -1.0772
  382SOL     OW 3462   5.585   3.961   5.225 -0.1261  0.0389 -0.3429
  382SOL    HW1 3463   5.658   3.924   5.175  0.6997  0.2926  0.6287
  382SOL    HW2 3464   5.553   3.888   5.278  0.1273  0.1900  0.0211
  383SOL     OW 3465   0.067   9.289   8.398 -0.6135  0.0061  0.3283
  383SOL    HW1 3466   0.070   9.328   8.486 -1.0087 -3.3468  1.9928
  383SOL    HW2 3467   0.139   9.226   8.398 -0.8420 -0.3176 -1.6634
  384SOL     OW 3468   9.445  10.399   1.139  0.2372 -0.0263 -0.0921
  384SOL    HW1 3469   9.469  10.322   1.089  0.0634 -0.3439  0.3057
  384SOL    HW2 3470   9.527  10.428   1.180  0.2946 -0.0236 -0.2095
  385SOL     OW 3471   1.154   6.339   0.206  0.2786 -0.3004 -0.2636
  385SOL    HW1 3472   1.165   6.312   0.115 -0.1413 -0.3457 -0.3033
  385SOL    HW2 3473   1.060   6.334   0.221  0.3767 -0.6234  0.2772
  386SOL     OW 3474   4.581   6.608   7.842  0.4062  0.0001  0.3484
  386SOL    HW1 3475   4.676   6.623   7.835  0.4528 -0.3714  0.1623
  386SOL    HW2 3476   4.550   6.613   7.752  0.4278 -1.0300  0.2753
  387SOL     OW 3477   0.494   9.762   8.792 -0.3546  0.3917  0.3823
  387SOL    HW1 3478   0.405   9.735   8.773 -0.3386  0.7065 -0.1621
  387SOL    HW2 3479   0.523   9.702   8.861 -1.1511  0.6094  0.9205
  388SOL     OW 3480   1.942   2.189   3.166 -0.0643 -0.1757 -0.3339
  388SOL    HW1 3481   1.926   2.276   3.130 -1.3486 -0.5783 -0.7720
  388SOL    HW2 3482   2.029   2.165   3.132 -0.2304  0.4252 -1.2173
  389SOL     OW 3483   5.814   4.225   9.025 -0.1338  0.3392  0.0784
  389SOL    HW1 3484   5.858   4.183   8.952  0.0637  0.2055  0.2698
  389SOL    HW2 3485   5.874   4.212   9.099  0.0367  1.1418  0.0968
  390SOL     OW 3486   9.384   0.714   8.816 -0.2887 -0.2483  0.1291
  390SOL    HW1 3487   9.437   0.641   8.784 -0.1600  0.2961 -0.9488
  390SOL    HW2 3488   9.323   0.674   8.878  1.2755 -0.9105  1.3080
  391SOL     OW 3489   1.268   9.833   5.567 -0.0883  0.1783  0.1732
  391SOL    HW1 3490   1.246   9.926   5.577  0.3064  0.2447  0.4189
  391SOL    HW2 3491   1.309   9.827   5.481  0.4654  0.3455  0.4178
  392SOL     OW 3492   7.443   4.494   3.672  0.0808 -0.2520  0.1709
  392SOL    HW1 3493   7.421   4.473   3.763  3.5234 -0.3634  1.1333
  392SOL    HW2 3494   7.424   4.587   3.663  0.3141 -0.0967  1.2245
  393SOL     OW 3495   1.877   9.245   4.175 -0.2070  0.3586 -0.9058
  393SOL    HW1 3496   1.959   9.277   4.212  0.7179 -1.2381 -1.4576
  393SOL    HW2 3497   1.810   9.270   4.239  0.8610  0.6697  0.1284
  394SOL     OW 3498   7.215   4.815   1.368 -0.2328 -0.1692 -0.2884
  394SOL    HW1 3499   7.241   4.747   1.430 -1.0214 -0.2542 -0.0388
  394SOL    HW2 3500   7.125   4.794   1.346 -0.5186  0.8419 -0.1443
  395SOL     OW 3501   8.607   6.045   9.999 -0.0862  0.0239 -0.0169
  395SOL    HW1 3502   8.627   5.992   9.921 -2.9453 -1.3547  0.0572
  395SOL    HW2 3503   8.631   5.989  10.073 -0.5422 -0.0690  0.0643
  396SOL     OW 3504   1.697   4.790   9.388 -0.5125  0.0148  0.4845
  396SOL    HW1 3505   1.730   4.850   9.321 -1.2082 -0.9976 -0.8145
  396SOL    HW2 3506   1.607   4.820   9.405 -0.5851 -0.1769  0.4357
  397SOL     OW 3507   4.732   1.748   2.075  0.2003  0.1734  0.6556
  397SOL    HW1 3508   4.698   1.767   2.162  0.3564 -0.6359  0.9047
  397SOL    HW2 3509   4.752   1.655   2.077 -0.7995 -0.0974 -0.5975
  398SOL     OW 3510   0.549   3.508   2.944  0.5159  0.2048 -0.1691
  398SOL    HW1 3511   0.540   3.518   3.038  0.2323 -2.5605  0.1680
  398SOL    HW2 3512   0.465   3.539   2.909  0.8664  1.8632  0.3756
  399SOL     OW 3513   9.839   1.746   3.066  0.5264  0.3768  0.3686
  399SOL    HW1 3514   9.804   1.791   3.142 -1.0764 -0.6553  0.2957
  399SOL    HW2 3515   9.880   1.667   3.102 -2.3981 -1.4395  0.1297
  400SOL     OW 3516   8.007   0.030   5.270 -0.5626  0.2129  0.0948
  400SOL    HW1 3517   8.040  -0.050   5.229 -0.9574 -0.4472  1.0415
  400SOL    HW2 3518   8.070   0.098   5.243 -0.5254 -0.2897 -1.1648
  401SOL     OW 3519   9.178   3.917   0.998 -0.3320 -0.6300  0.3794
  401SOL    HW1 3520   9.160   3.914   0.904 -0.1031  1.9654  0.1766
  401SOL    HW2 3521   9.095   3.941   1.038 -0.4139 -1.6700  0.8434
  402SOL     OW 3522   5.639   2.913   5.741 -0.1064  0.5275 -0.0783
  402SOL    HW1 3523   5.642   2.895   5.647 -0.0274  0.5151 -0.0735
  402SOL    HW2 3524   5.681   2.998   5.751 -1.2378  1.1208 -0.1977
  403SOL     OW 3525   5.996   7.189   5.781 -0.0215 -0.1797 -0.3889
  403SOL    HW1 3526   6.054   7.212   5.708 -1.3873 -2.1369 -2.2647
  403SOL    HW2 3527   5.917   7.240   5.765  0.4899  1.1742  1.1654
  404SOL     OW 3528   4.657   8.494   7.132  0.8600  0.6476  0.3881
  404SOL    HW1 3529   4.587   8.468   7.193 -0.8347 -1.1797 -2.1478
  404SOL    HW2 3530   4.632   8.582   7.104  0.5897  0.7159  0.8229
  405SOL     OW 3531   1.288   4.327   9.509 -0.6203  0.9100 -0.0388
  405SOL    HW1 3532   1.243   4.300   9.589  0.9192 -1.2369  0.1894
  405SOL    HW2 3533   1.357   4.386   9.538 -1.2380  1.6355 -0.0231
  406SOL     OW 3534   1.063   6.896   9.999  0.1545 -0.1484 -0.2247
  406SOL    HW1 3535   1.097   6.970  10.049  0.8670 -1.0264  0.6281
  406SOL    HW2 3536   1.036   6.934   9.915 -1.2168  1.3820  0.8477
  407SOL     OW 3537   1.179   8.976   9.280 -0.0179 -0.2518  0.3593
  407SOL    HW1 3538   1.265   8.941   9.302 -1.1267 -1.7857  2.6647
  407SOL    HW2 3539   1.148   8.921   9.208  0.9912  0.4733 -0.6541
  408SOL     OW 3540   6.915   8.798   6.266  0.8039 -0.3522 -0.4748
  408SOL    HW1 3541   6.900   8.888   6.237 -0.7992 -1.0481 -1.9532
  408SOL    HW2 3542   6.998   8.802   6.314 -0.2447  2.2996  1.3821
  409SOL     OW 3543   7.253   1.178   4.002  0.3729 -0.4979  0.0583
  409SOL    HW1 3544   7.214   1.155   4.086  1.5328  1.7400  1.3045
  409SOL    HW2 3545   7.179   1.182   3.941 -0.4899 -2.1626  0.9155
  410SOL     OW 3546   6.086   9.881   5.602 -0.2491  0.0652 -0.6157
  410SOL    HW1 3547   6.057   9.825   5.530 -0.8413  1.3851 -1.4290
  410SOL    HW2 3548   6.018   9.947   5.610  0.5440  0.8109  0.1745
  411SOL     OW 3549   3.393   5.680   5.592  0.3813 -0.8958 -0.8069
  411SOL    HW1 3550   3.479   5.646   5.616  0.5380 -0.5262 -0.8400
  411SOL    HW2 3551   3.409   5.771   5.565 -0.0590 -0.7347 -0.5391
  412SOL     OW 3552   5.192   1.682   6.906  0.3065  0.1363 -1.2169
  412SOL    HW1 3553   5.277   1.720   6.929  0.5813 -2.2921  2.8626
  412SOL    HW2 3554   5.214   1.609   6.848  1.0089 -0.2187 -0.5242
  413SOL     OW 3555   5.101  10.311  10.588  0.0127  0.2284 -0.2252
  413SOL    HW1 3556   5.144  10.270  10.663  0.4847  0.8552 -0.1413
  413SOL    HW2 3557   5.058  10.239  10.543  1.3716 -0.4915 -0.4509
  414SOL     OW 3558   6.049   1.706   3.283  0.4344 -0.2010 -0.2877
  414SOL    HW1 3559   6.098   1.651   3.345  1.2149 -0.2470 -0.9301
  414SOL    HW2 3560   6.105   1.710   3.206  0.0235  0.8659 -0.5410
  415SOL     OW 3561   3.014   9.759   2.146 -0.2420 -0.0419 -0.4973
  415SOL    HW1 3562   2.952   9.825   2.117  0.3225  1.0253  0.6243
  415SOL    HW2 3563   2.979   9.726   2.229  1.0168  1.1110  0.5330
  416SOL     OW 3564   4.518   5.287   1.504 -0.1148  0.1581 -0.3268
  416SOL    HW1 3565   4.569   5.234   1.442 -0.4810  0.9024 -1.2874
  416SOL    HW2 3566   4.435   5.240   1.512  0.8032 -1.2740  1.5491
  417SOL     OW 3567   9.634   9.217   4.329  0.2360 -0.3536  0.0217
  417SOL    HW1 3568   9.614   9.269   4.251 -1.0584  0.3294  0.7956
  417SOL    HW2 3569   9.556   9.223   4.383  0.8011 -1.5254  1.0063
  418SOL     OW 3570   9.224   5.929   6.468  0.6600  1.1346  0.0097
  418SOL    HW1 3571   9.223   6.025   6.467 -1.3609  1.1614  0.7777
  418SOL    HW2 3572   9.291   5.907   6.534  0.6229  2.0217  0.3632
  419SOL     OW 3573   1.762   9.963   6.850  0.4346  0.2057  0.1219
  419SOL    HW1 3574   1.824   9.920   6.791  0.2391  1.0257 -0.7130
  419SOL    HW2 3575   1.770   9.915   6.932  0.5926 -1.0794 -0.6136
  420SOL     OW 3576   1.646   5.934   4.305  0.6955  0.2083 -0.1276
  420SOL    HW1 3577   1.646   5.966   4.215 -1.9555  0.2959 -0.1801
  420SOL    HW2 3578   1.640   5.839   4.295  2.4027  0.0638  0.0029
  421SOL     OW 3579   8.284   5.210   1.174 -0.5779 -0.1468  0.1776
  421SOL    HW1 3580   8.239   5.292   1.151  1.0444  0.7024 -0.1292
  421SOL    HW2 3581   8.213   5.148   1.192 -1.8656  0.9654 -0.8333
  422SOL     OW 3582   1.296   7.317   0.729  0.0124 -0.2649 -0.5446
  422SOL    HW1 3583   1.316   7.410   0.719 -0.1070 -0.2305 -0.4787
  422SOL    HW2 3584   1.200   7.314   0.730 -0.0137 -0.5593 -2.0530
  423SOL     OW 3585   1.000   5.426   3.595 -0.4357 -0.0839 -0.6493
  423SOL    HW1 3586   1.095   5.428   3.585 -0.5777 -0.2436 -2.1606
  423SOL    HW2 3587   0.969   5.363   3.530 -1.6814  0.8765 -1.0330
  424SOL     OW 3588   3.383   7.443   9.784 -0.1554 -0.6473  0.0367
  424SOL    HW1 3589   3.474   7.459   9.760 -0.6691  0.3232 -1.4517
  424SOL    HW2 3590   3.379   7.350   9.804  0.7860 -1.1480 -1.8297
  425SOL     OW 3591   3.964   1.421   9.378  0.2381  0.5251 -0.3029
  425SOL    HW1 3592   4.045   1.469   9.362 -0.0240  1.1085  0.0747
  425SOL    HW2 3593   3.906   1.445   9.306  0.3698  0.1761 -0.5264
  426SOL     OW 3594   0.342   7.396   1.972 -0.0276 -0.1492 -0.1887
  426SOL    HW1 3595   0.435   7.377   1.983  0.1133 -0.6470 -1.9425
  426SOL    HW2 3596   0.333   7.487   1.998  0.5228 -0.6862  2.0862
  427SOL     OW 3597   4.570   1.151   7.042 -0.5154  0.0520 -0.3333
  427SOL    HW1 3598   4.498   1.156   7.105  0.3852 -0.2944  0.7623
  427SOL    HW2 3599   4.612   1.237   7.048 -1.1745  0.4694 -1.4167
  428SOL     OW 3600   7.779   2.044   4.026 -0.2306  0.1210 -0.5563
  428SOL    HW1 3601   7.776   2.050   4.122 -1.2067  1.1168 -0.6239
  428SOL    HW2 3602   7.850   1.983   4.008 -0.7152 -0.9177  0.8338
  429SOL     OW 3603   5.552   8.801   2.049  0.6932  0.6891 -0.4737
  429SOL    HW1 3604   5.500   8.721   2.046  0.6466  0.7274 -0.7168
  429SOL    HW2 3605   5.504   8.863   1.994  0.6239  0.9459 -0.1329
  430SOL     OW 3606   5.916   2.052   8.181  0.0142 -0.3250  0.1980
  430SOL    HW1 3607   5.843   2.105   8.149  1.2549  1.0132 -0.5401
  430SOL    HW2 3608   5.876   1.970   8.209 -1.5753 -0.2006 -1.5373
  431SOL     OW 3609   7.292   6.560   1.247  0.1817  0.0457  0.5644
  431SOL    HW1 3610   7.206   6.521   1.231  0.4107 -1.6404  2.8965
  431SOL    HW2 3611   7.273   6.648   1.279 -0.5989  0.1666 -0.2081
  432SOL     OW 3612   1.588   7.150   7.912  0.7301  0.2050 -0.1519
  432SOL    HW1 3613   1.567   7.058   7.903 -1.1527  0.2024  2.8093
  432SOL    HW2 3614   1.522   7.195   7.859 -0.2517 -0.1316  0.7358
  433SOL     OW 3615  10.528   1.317   8.760  0.1586  0.3495  0.1488
  433SOL    HW1 3616  10.531   1.222   8.775 -1.3804  0.4761  1.5024
  433SOL    HW2 3617  10.528   1.326   8.665  0.7964 -0.9820 -0.0091
  434SOL     OW 3618   8.948   4.929   7.986  0.3558 -0.5971 -0.1053
  434SOL    HW1 3619   8.902   4.929   7.903  1.1078 -0.7693 -0.5316
  434SOL    HW2 3620   8.911   4.856   8.035 -2.9394  1.8090  1.3549
  435SOL     OW 3621   2.958   8.800   2.899 -0.9488  0.8084  0.3400
  435SOL    HW1 3622   2.929   8.890   2.885 -1.4384  0.7092  0.6598
  435SOL    HW2 3623   3.026   8.807   2.966 -0.7174  0.9790  0.0855
  436SOL     OW 3624   6.394   2.399   3.985  0.6309  0.3947 -0.2563
  436SOL    HW1 3625   6.356   2.330   4.039 -0.2387  0.6853 -0.4797
  436SOL    HW2 3626   6.319   2.447   3.951  1.1394  0.0498 -1.9721
  437SOL     OW 3627   6.365   4.960   5.052 -0.1134 -0.0617 -0.1904
  437SOL    HW1 3628   6.397   5.016   5.123 -1.1787 -0.6485  0.7746
  437SOL    HW2 3629   6.413   4.991   4.975 -1.2838  2.8346  0.0911
  438SOL     OW 3630   5.256   3.889   8.359  0.0084  0.4706  0.2785
  438SOL    HW1 3631   5.316   3.828   8.402 -0.2319 -1.6825 -2.1653
  438SOL    HW2 3632   5.311   3.962   8.331  0.4791  1.0052  2.4245
  439SOL     OW 3633   9.446   1.416   9.668 -0.2283 -0.0650  0.4458
  439SOL    HW1 3634   9.392   1.412   9.747 -0.4752  0.1684  0.2927
  439SOL    HW2 3635   9.453   1.325   9.639 -0.9902 -0.0498  0.1770
  440SOL     OW 3636   9.861   0.750   2.940 -0.5622  0.3825 -0.1355
  440SOL    HW1 3637   9.805   0.777   3.013 -0.2540  0.8921 -0.0850
  440SOL    HW2 3638   9.950   0.770   2.969 -0.3790 -0.0670 -0.3718
  441SOL     OW 3639   5.386   3.622   4.155 -0.0603 -0.1936 -0.4577
  441SOL    HW1 3640   5.384   3.700   4.100 -0.8611 -1.5163 -2.4000
  441SOL    HW2 3641   5.466   3.576   4.128  0.3892 -0.1083  0.6553
  442SOL     OW 3642   8.856  10.509   7.908 -0.3679 -0.1508  0.2867
  442SOL    HW1 3643   8.904  10.441   7.860  0.6829  1.0918 -0.4815
  442SOL    HW2 3644   8.921  10.578   7.923 -1.4038  0.6851  1.0562
  443SOL     OW 3645   3.911   8.134   3.899  0.4030 -0.0097 -0.2348
  443SOL    HW1 3646   3.923   8.208   3.959 -1.0666  1.2655 -1.4464
  443SOL    HW2 3647   3.833   8.089   3.931  1.0945 -0.8712  0.2922
  444SOL     OW 3648   9.708   6.399   6.723 -0.5138  0.2246 -0.2164
  444SOL    HW1 3649   9.732   6.481   6.679  1.0019 -0.2089 -0.2270
  444SOL    HW2 3650   9.769   6.392   6.797 -0.8188 -0.7552 -0.0414
  445SOL     OW 3651   2.675   7.634   5.784  0.9646 -0.3447 -0.4243
  445SOL    HW1 3652   2.613   7.693   5.740  0.5045 -1.3129 -1.0987
  445SOL    HW2 3653   2.722   7.591   5.712 -0.1466 -2.3216 -0.0136
  446SOL     OW 3654   0.054   7.218   7.449  0.2218  0.2041  0.3221
  446SOL    HW1 3655   0.134   7.223   7.396  0.6460 -0.8627  0.8313
  446SOL    HW2 3656   0.084   7.234   7.539 -0.5510  2.4368  0.2567
  447SOL     OW 3657   2.670   4.427   2.708  0.3490  0.2752 -0.0835
  447SOL    HW1 3658   2.670   4.440   2.613  0.8544  0.0211 -0.1233
  447SOL    HW2 3659   2.736   4.359   2.723 -0.5014 -0.4697  0.3531
  448SOL     OW 3660   5.835   4.983   1.760  0.2387  0.4658  0.2679
  448SOL    HW1 3661   5.744   4.998   1.785  0.4603 -0.3141  1.6467
  448SOL    HW2 3662   5.874   4.942   1.837  1.8844  1.2432 -0.1112
  449SOL     OW 3663   9.970   2.555   1.010 -0.1354 -0.0680 -0.3025
  449SOL    HW1 3664   9.972   2.483   0.948 -0.8100  0.2454 -0.7105
  449SOL    HW2 3665  10.020   2.625   0.967  2.9757 -1.1454  1.2786
  450SOL     OW 3666   2.559   4.513   4.695  0.1550 -0.5818 -0.5784
  450SOL    HW1 3667   2.629   4.558   4.741 -1.5439 -0.0304  1.6304
  450SOL    HW2 3668   2.560   4.551   4.607  0.5235  1.8527  0.3914
  451SOL     OW 3669   1.419   7.267   0.014 -0.0036  0.0424 -0.1999
  451SOL    HW1 3670   1.460   7.198   0.067  0.5417  0.5741  0.0741
  451SOL    HW2 3671   1.377   7.219  -0.058  1.0245 -0.5226 -0.4391
  452SOL     OW 3672   3.929   0.080   8.046  0.1107  0.1186  0.1830
  452SOL    HW1 3673   4.020   0.108   8.039 -0.0440  0.5097 -0.3834
  452SOL    HW2 3674   3.917   0.017   7.976  0.6885 -2.1210  1.9899
  453SOL     OW 3675   4.230   4.000   9.867  0.1952 -0.0063  0.4964
  453SOL    HW1 3676   4.160   4.066   9.865  0.9354  0.8775  2.0630
  453SOL    HW2 3677   4.273   4.013   9.951  2.1527 -0.6241 -0.3439
  454SOL     OW 3678   6.540   3.126   9.382  0.3549  0.2169  0.5700
  454SOL    HW1 3679   6.585   3.098   9.302 -0.6844 -2.3606  0.7928
  454SOL    HW2 3680   6.447   3.126   9.358  0.1916  3.4458  0.6981
  455SOL     OW 3681   7.660   7.119   3.825  0.0045 -0.2143 -0.3715
  455SOL    HW1 3682   7.733   7.076   3.781  1.0043  0.4143  0.5917
  455SOL    HW2 3683   7.641   7.196   3.771 -0.2512 -0.6297 -0.8704
  456SOL     OW 3684   8.357  10.368   3.881  0.1427 -0.1071  0.2491
  456SOL    HW1 3685   8.280  10.388   3.935  0.9878  0.6890  1.1993
  456SOL    HW2 3686   8.432  10.383   3.939  1.0931  0.7968 -1.1507
  457SOL     OW 3687   7.269   7.786   6.752 -0.1803 -0.0671  0.7041
  457SOL    HW1 3688   7.352   7.831   6.731 -0.4716 -0.5412 -1.7394
  457SOL    HW2 3689   7.205   7.857   6.760 -0.8409  0.2114 -4.0536
  458SOL     OW 3690   9.848  10.510   5.080 -0.7162 -0.4121  0.6984
  458SOL    HW1 3691   9.753  10.501   5.073 -0.6591 -0.2668 -0.5451
  458SOL    HW2 3692   9.882  10.423   5.058 -0.4850  0.2869 -2.0495
  459SOL     OW 3693   4.430   3.850   8.357 -0.1633  0.3501 -0.2633
  459SOL    HW1 3694   4.491   3.801   8.412 -0.6327  0.4894  0.4039
  459SOL    HW2 3695   4.371   3.784   8.322 -1.0563  0.4436  0.9727
  460SOL     OW 3696   8.393   1.405   1.720 -0.1388 -0.1675 -0.9528
  460SOL    HW1 3697   8.335   1.481   1.713 -0.2892 -0.1169  0.5675
  460SOL    HW2 3698   8.472   1.439   1.762 -0.9475 -1.1651  1.5780
  461SOL     OW 3699  10.048   4.904   7.199 -0.0589 -0.0922  0.3722
  461SOL    HW1 3700  10.015   4.944   7.279 -1.6314  0.5337 -0.5266
  461SOL    HW2 3701   9.994   4.826   7.187 -0.2712  0.1626 -0.3945
  462SOL     OW 3702   1.255   1.767   6.501 -0.2137 -0.2382 -0.0781
  462SOL    HW1 3703   1.173   1.743   6.459 -0.7510 -0.2596  0.9507
  462SOL    HW2 3704   1.303   1.685   6.510  0.4549 -0.0681 -1.7330
  463SOL     OW 3705   7.535   3.126   1.485 -0.5683  0.1075  0.2003
  463SOL    HW1 3706   7.519   3.191   1.553 -0.5407 -0.0584  0.3652
  463SOL    HW2 3707   7.589   3.172   1.420 -0.1436  0.0996  0.5490
  464SOL     OW 3708  10.244   5.986   2.566  0.0773  0.1025  0.6105
  464SOL    HW1 3709  10.220   5.969   2.475 -1.7122 -1.2893  1.2830
  464SOL    HW2 3710  10.293   6.068   2.563  2.0063 -1.0129 -1.8572
  465SOL     OW 3711   4.738   9.069   0.541  0.3458  0.0840 -0.2619
  465SOL    HW1 3712   4.755   8.988   0.494  1.3135  0.5743 -0.7769
  465SOL    HW2 3713   4.653   9.098   0.508  1.4070  0.9112 -2.4773
  466SOL     OW 3714   6.699   7.205   4.533 -0.5750  0.7577  0.1931
  466SOL    HW1 3715   6.668   7.116   4.547  2.0265 -0.4613 -1.1269
  466SOL    HW2 3716   6.708   7.241   4.622 -0.7795 -0.6210  0.8058
  467SOL     OW 3717   4.851   4.657   5.850  0.1663  0.2722 -0.2054
  467SOL    HW1 3718   4.828   4.718   5.780 -0.9862 -0.8971 -0.9113
  467SOL    HW2 3719   4.944   4.671   5.865 -0.5379  4.1014  1.6277
  468SOL     OW 3720  10.332   9.391   9.320  0.2443  0.0378 -0.3401
  468SOL    HW1 3721  10.392   9.380   9.246 -0.4844 -2.1794 -0.6702
  468SOL    HW2 3722  10.322   9.303   9.355 -0.2337  0.8960  1.7939
  469SOL     OW 3723   9.533   3.842   3.098  0.1947 -0.1539  1.0330
  469SOL    HW1 3724   9.558   3.775   3.035  0.1758  0.9953 -0.2539
  469SOL    HW2 3725   9.607   3.848   3.158  1.4692  0.6504 -0.5488
  470SOL     OW 3726   2.569   2.001   7.415  0.0925  0.2945 -0.1290
  470SOL    HW1 3727   2.513   2.016   7.491  0.2535 -2.6412  0.6937
  470SOL    HW2 3728   2.656   1.987   7.451  0.6561  1.1488 -1.0881
  471SOL     OW 3729   1.506   5.576   4.605 -0.5708  0.4478 -0.5546
  471SOL    HW1 3730   1.558   5.498   4.586 -0.9337  0.0466  0.0410
  471SOL    HW2 3731   1.440   5.579   4.536 -2.3209 -1.3864  0.9443
  472SOL     OW 3732   2.529   4.500   3.219 -0.7132 -0.4564 -0.3353
  472SOL    HW1 3733   2.619   4.500   3.250 -1.3665  0.5005  1.6885
  472SOL    HW2 3734   2.504   4.407   3.220 -0.0621 -0.6341  0.0183
  473SOL     OW 3735   1.483   8.126  10.077 -0.6708 -0.5850  0.0348
  473SOL    HW1 3736   1.413   8.107  10.139  0.1815  1.4161  1.7187
  473SOL    HW2 3737   1.515   8.213  10.102 -0.0664  0.2119 -3.0272
  474SOL     OW 3738   3.003   2.138   7.983 -0.6454 -0.3894  0.0802
  474SOL    HW1 3739   2.986   2.054   8.027 -3.9196 -2.1677 -3.9265
  474SOL    HW2 3740   2.994   2.203   8.053 -1.0465 -3.1292  2.8357
  475SOL     OW 3741   7.636  10.239   9.694 -0.1350  0.2895 -0.2046
  475SOL    HW1 3742   7.680  10.162   9.729 -1.4759 -0.3903  0.0537
  475SOL    HW2 3743   7.632  10.223   9.599  0.6663  0.6255 -0.2992
  476SOL     OW 3744   8.687   0.076   3.379  0.1893 -0.3008 -0.2853
  476SOL    HW1 3745   8.632   0.003   3.351 -1.2564  0.8919 -0.7154
  476SOL    HW2 3746   8.654   0.098   3.467  1.2311 -0.7234  0.2275
  477SOL     OW 3747   2.516   2.319   8.954  0.3422 -0.5824 -0.3340
  477SOL    HW1 3748   2.571   2.334   9.031 -1.6282  0.1897  1.0108
  477SOL    HW2 3749   2.575   2.331   8.880  1.7794  1.1937  0.9936
  478SOL     OW 3750   2.287   3.827   6.120 -0.2028 -0.1814 -0.0210
  478SOL    HW1 3751   2.232   3.841   6.197  3.3110  3.1620  2.2784
  478SOL    HW2 3752   2.275   3.905   6.067  2.0010  0.5422  0.4427
  479SOL     OW 3753  10.034   8.325   1.211 -0.3582 -0.3563  0.7767
  479SOL    HW1 3754  10.062   8.405   1.257  0.7080 -1.0459  1.3814
  479SOL    HW2 3755  10.116   8.278   1.194 -1.1046 -2.4566  2.5656
  480SOL     OW 3756   6.399   5.095   3.462  0.0034  0.4399 -0.4484
  480SOL    HW1 3757   6.354   5.174   3.491 -1.5929 -0.4032 -0.4882
  480SOL    HW2 3758   6.422   5.112   3.371 -1.8733  0.2736 -1.0016
  481SOL     OW 3759   1.546   5.746   5.037  1.0292 -0.4498  0.2187
  481SOL    HW1 3760   1.519   5.801   4.963 -2.4593  1.4493  2.6409
  481SOL    HW2 3761   1.508   5.660   5.018  1.5552 -0.4750 -0.8504
  482SOL     OW 3762   9.043   4.949   5.513  0.1293  0.0877  0.6119
  482SOL    HW1 3763   9.106   4.912   5.451  0.2972  0.4531  0.5633
  482SOL    HW2 3764   9.020   4.875   5.570  0.5622 -0.0593  0.5987
  483SOL     OW 3765   7.018   0.822   8.686  0.4049 -0.8038 -0.8247
  483SOL    HW1 3766   6.930   0.788   8.671 -0.3178  1.0286 -0.9245
  483SOL    HW2 3767   7.052   0.841   8.599  0.0019  0.6168 -0.6887
  484SOL     OW 3768   6.307   8.565   7.084 -0.9622  0.0472  0.0162
  484SOL    HW1 3769   6.331   8.543   6.994 -0.0796  0.4036  0.1526
  484SOL    HW2 3770   6.223   8.611   7.076 -0.4426  0.8931 -0.7238
  485SOL     OW 3771   6.612  10.081   8.921  0.5141  0.3736  0.1643
  485SOL    HW1 3772   6.677  10.112   8.858  1.9167 -0.9945  0.8761
  485SOL    HW2 3773   6.615  10.146   8.992 -0.2214  1.2797 -0.6131
  486SOL     OW 3774   0.769   5.072   9.436  0.0150  0.9323  0.3022
  486SOL    HW1 3775   0.750   5.090   9.344  1.0784  1.5480  0.1853
  486SOL    HW2 3776   0.853   5.116   9.452  0.6121 -0.4567  1.1498
  487SOL     OW 3777   7.214   4.815   4.360 -0.6899  0.2640  0.3959
  487SOL    HW1 3778   7.222   4.720   4.368  0.0746  0.3525  0.7678
  487SOL    HW2 3779   7.142   4.828   4.299 -0.3834 -0.5618 -0.1487
  488SOL     OW 3780   3.786   9.799   1.733 -0.1733 -0.2162  0.1368
  488SOL    HW1 3781   3.729   9.793   1.811 -0.7461 -0.1636 -0.2694
  488SOL    HW2 3782   3.725   9.800   1.660  0.3718 -0.3285 -0.3187
  489SOL     OW 3783   9.875   1.546  10.078  0.3005  0.1526  0.3668
  489SOL    HW1 3784   9.875   1.642  10.084  1.5497  0.5166 -3.1332
  489SOL    HW2 3785   9.946   1.518  10.137  0.5442  1.4715  0.7267
  490SOL     OW 3786  10.460   8.522   6.425 -0.0681 -0.3134  0.2778
  490SOL    HW1 3787  10.380   8.549   6.380 -0.1936  0.8354  1.1399
  490SOL    HW2 3788  10.531   8.555   6.370 -0.2211  1.1350  0.9149
  491SOL     OW 3789   0.452   3.464   7.330  0.4583 -0.0618 -0.4469
  491SOL    HW1 3790   0.450   3.558   7.313 -1.2848 -0.0136 -0.1265
  491SOL    HW2 3791   0.474   3.425   7.245  0.8924  0.6056 -0.6496
  492SOL     OW 3792   0.462   3.597   2.644 -0.0917 -0.9494  0.0893
  492SOL    HW1 3793   0.534   3.623   2.702 -0.1513  0.7124 -0.5394
  492SOL    HW2 3794   0.477   3.647   2.564 -2.4194  0.1130  0.2470
  493SOL     OW 3795   8.153   9.481   8.161  0.2093 -0.1903 -0.5307
  493SOL    HW1 3796   8.182   9.464   8.071 -1.9837 -1.0894 -1.1308
  493SOL    HW2 3797   8.058   9.475   8.157 -0.0803  1.7094  1.4853
  494SOL     OW 3798   2.458   2.442   2.451 -0.0733 -0.6923 -0.3752
  494SOL    HW1 3799   2.523   2.465   2.517 -0.4157  1.0309 -0.5852
  494SOL    HW2 3800   2.374   2.466   2.490 -0.1386  2.5089 -2.1669
  495SOL     OW 3801   1.291   0.096   8.970  0.2342  0.0177  0.2034
  495SOL    HW1 3802   1.212   0.047   8.992 -0.1491  0.4685 -0.1587
  495SOL    HW2 3803   1.294   0.168   9.033  0.8058 -0.4658  0.7454
  496SOL     OW 3804   6.702   4.730   4.796  0.1161  0.1247 -0.6052
  496SOL    HW1 3805   6.635   4.734   4.728 -0.1790  0.0481 -0.3218
  496SOL    HW2 3806   6.752   4.811   4.784 -1.1826  1.1119  0.3387
  497SOL     OW 3807   4.348   0.511   8.569  0.1116 -0.6737  0.3599
  497SOL    HW1 3808   4.392   0.432   8.602 -1.4011 -1.3893  0.7569
  497SOL    HW2 3809   4.297   0.542   8.644 -1.1102 -0.6497 -0.4557
  498SOL     OW 3810   4.307   2.051   2.702  0.3537  0.2255 -0.0029
  498SOL    HW1 3811   4.235   2.044   2.639 -2.0602  0.3197  2.5210
  498SOL    HW2 3812   4.293   1.976   2.761  2.9997 -0.3398 -0.0025
  499SOL     OW 3813   2.383   6.048   8.507 -0.1663 -0.3027 -0.1282
  499SOL    HW1 3814   2.417   6.030   8.419 -2.1601  0.4970 -1.1226
  499SOL    HW2 3815   2.292   6.020   8.503 -0.1595 -0.7500  1.8845
  500SOL     OW 3816   2.538   7.666   3.633  0.1763  0.3443 -0.3879
  500SOL    HW1 3817   2.500   7.734   3.577  0.7649  1.1222  0.1219
  500SOL    HW2 3818   2.466   7.638   3.689 -0.2991 -0.1079 -1.2157
  501SOL     OW 3819   4.009   9.351   5.701  0.1491  0.3303 -0.3198
  501SOL    HW1 3820   3.956   9.428   5.723  0.5889  0.5404  0.0224
  501SOL    HW2 3821   3.944   9.282   5.683 -0.2867  0.1570  1.5981
  502SOL     OW 3822   4.930   1.241   2.866 -0.4778  0.2422 -0.4329
  502SOL    HW1 3823   4.968   1.265   2.951 -1.3762 -1.8740  0.6495
  502SOL    HW2 3824   4.988   1.174   2.832 -0.8761  0.1013 -0.8380
  503SOL     OW 3825   3.406   8.488   8.016  0.4609 -0.1904  0.2392
  503SOL    HW1 3826   3.322   8.517   8.052 -0.1362 -0.3991 -0.9354
  503SOL    HW2 3827   3.469   8.502   8.087 -0.8553 -1.7455  1.8029
  504SOL     OW 3828   9.498   6.318   2.961 -0.0578 -0.3785 -0.1559
  504SOL    HW1 3829   9.563   6.386   2.980 -0.2129 -0.2260 -0.1813
  504SOL    HW2 3830   9.430   6.331   3.026 -0.4054 -0.0984 -0.5787
  505SOL     OW 3831   2.940   2.193   2.631 -0.0774 -0.5491 -0.4132
  505SOL    HW1 3832   2.890   2.257   2.682 -0.7822 -1.5611  0.1850
  505SOL    HW2 3833   2.951   2.235   2.546  0.1501  0.6977  0.1965
  506SOL     OW 3834   8.608   0.245   8.310 -0.2059  0.4191  0.7450
  506SOL    HW1 3835   8.662   0.188   8.255 -1.0867 -1.1950  1.4778
  506SOL    HW2 3836   8.669   0.287   8.370  0.3726 -0.4708  0.7892
  507SOL     OW 3837   2.873   8.112   4.335  0.0834  0.4572  0.1701
  507SOL    HW1 3838   2.817   8.094   4.259 -0.9083  0.8768  0.7836
  507SOL    HW2 3839   2.813   8.115   4.409  1.3028 -2.3945  1.3929
  508SOL     OW 3840   3.392   2.532   7.070  0.3274 -0.0190  0.1079
  508SOL    HW1 3841   3.365   2.623   7.082 -0.6551  0.1192 -2.5825
  508SOL    HW2 3842   3.475   2.526   7.117 -0.0141  2.0030  1.0863
  509SOL     OW 3843   9.646   0.457   3.515 -0.4354 -0.1612  0.2280
  509SOL    HW1 3844   9.710   0.461   3.586 -0.5406  1.3019  0.2758
  509SOL    HW2 3845   9.670   0.379   3.466  0.7176 -0.2382  0.8686
  510SOL     OW 3846  10.316  10.479   1.146 -0.2763  0.0082 -0.3792
  510SOL    HW1 3847  10.294  10.451   1.057 -1.7525 -2.4561  0.6820
  510SOL    HW2 3848  10.233  10.503   1.185  0.2387  0.1794  0.6483
  511SOL     OW 3849   8.309   0.787   2.838  0.1087  0.0800 -0.1730
  511SOL    HW1 3850   8.358   0.728   2.895  0.8246  1.4355  0.6675
  511SOL    HW2 3851   8.356   0.785   2.755  0.2968 -0.2960 -0.0588
  512SOL     OW 3852   0.897   2.224   0.884  0.4776  0.0236  0.1794
  512SOL    HW1 3853   0.847   2.153   0.924 -0.2388 -0.0582 -0.8383
  512SOL    HW2 3854   0.979   2.225   0.933 -0.2601 -0.2394  1.4722
  513SOL     OW 3855   2.698   7.225   8.248 -0.4664  0.5990  0.4102
  513SOL    HW1 3856   2.723   7.252   8.337 -1.7190  0.2391  0.8932
  513SOL    HW2 3857   2.708   7.130   8.248 -0.3774  0.6073  0.1319
  514SOL     OW 3858   7.570   3.251   9.502 -0.0849 -0.4263  0.5434
  514SOL    HW1 3859   7.506   3.323   9.508  0.0445 -0.3614  1.1649
  514SOL    HW2 3860   7.638   3.285   9.444 -0.9158 -0.7305 -0.6494
  515SOL     OW 3861   2.584   9.792   4.640 -0.1809  0.4727 -0.4999
  515SOL    HW1 3862   2.646   9.738   4.591 -0.6484 -1.0461  0.4992
  515SOL    HW2 3863   2.519   9.819   4.576  1.1813  1.6362 -1.4556
  516SOL     OW 3864   2.797   5.744   4.002 -0.2078  0.5018  0.5916
  516SOL    HW1 3865   2.724   5.806   3.997  0.0259  0.7591  0.3567
  516SOL    HW2 3866   2.875   5.797   3.985  0.2634  0.6391  2.8331
  517SOL     OW 3867   9.275   5.457   2.019 -0.4201  0.5245 -0.0511
  517SOL    HW1 3868   9.283   5.551   2.035 -2.6234  0.6965  0.3878
  517SOL    HW2 3869   9.346   5.437   1.957 -0.8408  2.7873 -1.3783
  518SOL     OW 3870   9.353   0.715   3.430  0.1631  0.1887 -0.5392
  518SOL    HW1 3871   9.275   0.719   3.374  0.2546 -0.1384 -0.6866
  518SOL    HW2 3872   9.419   0.672   3.377 -0.0853 -1.1688  0.2145
  519SOL     OW 3873   0.447   1.834   8.868 -0.7257 -0.0687 -0.2786
  519SOL    HW1 3874   0.486   1.830   8.955  0.6633  1.2932 -0.7707
  519SOL    HW2 3875   0.472   1.751   8.826 -0.5330 -0.2970  0.2842
  520SOL     OW 3876   3.052   3.381   9.086  0.3578 -0.3984  0.1521
  520SOL    HW1 3877   3.098   3.319   9.144  0.3181  0.5268  1.2120
  520SOL    HW2 3878   2.986   3.422   9.143  0.4477  0.6877 -0.4991
  521SOL     OW 3879   4.266   9.296   2.271  0.3572  0.1938  0.1906
  521SOL    HW1 3880   4.174   9.273   2.259 -0.1262  2.2641 -0.5210
  521SOL    HW2 3881   4.299   9.306   2.182  1.3414 -0.7219  0.4404
  522SOL     OW 3882   9.151   2.284   9.702  0.1157 -0.7623  0.3592
  522SOL    HW1 3883   9.209   2.209   9.713  0.8348 -0.2711  0.0480
  522SOL    HW2 3884   9.193   2.336   9.633 -2.1299 -1.7628 -1.9147
  523SOL     OW 3885   9.574   2.079   7.418  0.3447  0.3270  0.1486
  523SOL    HW1 3886   9.564   2.109   7.328  2.8761  2.0023  0.3189
  523SOL    HW2 3887   9.656   2.029   7.418  1.9489  2.7101  1.9542
  524SOL     OW 3888   1.867   8.322   8.825 -0.8666 -0.0083 -0.3790
  524SOL    HW1 3889   1.894   8.231   8.820  0.0504  0.2795 -0.9428
  524SOL    HW2 3890   1.828   8.331   8.912 -1.2457 -1.0018 -0.4314
  525SOL     OW 3891   3.193   0.619   9.864 -0.4195  0.4060 -0.0540
  525SOL    HW1 3892   3.187   0.551   9.796 -1.5498  0.9195 -0.4900
  525SOL    HW2 3893   3.205   0.701   9.816 -1.3236  0.7864  0.3518
  526SOL     OW 3894   3.724   6.099   0.710 -0.1497  0.6909  0.2716
  526SOL    HW1 3895   3.736   6.004   0.711  1.6847  0.8541 -0.8481
  526SOL    HW2 3896   3.716   6.121   0.618 -0.9835  1.6011  0.5477
  527SOL     OW 3897   5.935   5.278   9.600  0.1895  0.1931  0.7588
  527SOL    HW1 3898   5.857   5.329   9.621  0.9803  1.8887 -0.2407
  527SOL    HW2 3899   5.928   5.261   9.506  1.4028  1.0782  0.4866
  528SOL     OW 3900   2.035   8.514   8.082  0.2430  0.0242 -0.8346
  528SOL    HW1 3901   2.102   8.581   8.075 -0.4382  0.9849  1.0989
  528SOL    HW2 3902   2.072   8.448   8.141 -0.7422  0.9221  0.8363
  529SOL     OW 3903   8.497   4.521   8.455 -0.7226 -0.1050 -0.3041
  529SOL    HW1 3904   8.505   4.599   8.401  2.5653  0.6762  1.0772
  529SOL    HW2 3905   8.579   4.474   8.442 -1.2919 -1.6751  1.3480
  530SOL     OW 3906   6.775   4.179   0.937  0.0338 -0.1917  0.4105
  530SOL    HW1 3907   6.763   4.259   0.885 -0.0403 -0.9363 -0.7504
  530SOL    HW2 3908   6.749   4.108   0.879  0.3656 -1.0964  1.3273
  531SOL     OW 3909   9.790   0.285   8.705 -0.3512 -0.1663 -0.0677
  531SOL    HW1 3910   9.790   0.369   8.659 -1.3716 -0.5827 -0.8641
  531SOL    HW2 3911   9.732   0.229   8.653 -1.7262 -0.6030  1.8188
  532SOL     OW 3912   5.636   4.353   5.538  0.6524 -0.5103 -0.6981
  532SOL    HW1 3913   5.578   4.290   5.496  0.7355 -0.2146 -1.2741
  532SOL    HW2 3914   5.628   4.336   5.632  0.8236 -1.5068 -0.8567
  533SOL     OW 3915   3.692   9.507  10.423 -0.0951 -0.1827  0.0909
  533SOL    HW1 3916   3.660   9.423  10.390  1.4773 -0.5652 -0.5648
  533SOL    HW2 3917   3.757   9.483  10.489  2.4173  0.3753 -2.0329
  534SOL     OW 3918   6.208   0.813   0.624 -0.2291 -0.8935 -0.0920
  534SOL    HW1 3919   6.122   0.770   0.621 -1.3273  1.0404  1.2523
  534SOL    HW2 3920   6.244   0.788   0.709  0.6056 -1.7485 -0.6792
  535SOL     OW 3921   4.567   1.029   9.885  0.4254  0.4147 -0.1783
  535SOL    HW1 3922   4.508   1.087   9.837 -0.0425 -0.4385 -0.6459
  535SOL    HW2 3923   4.565   0.946   9.837  0.3362 -0.3076  1.0271
  536SOL     OW 3924   1.997   3.560   3.379  0.3185 -0.2270  0.1471
  536SOL    HW1 3925   2.077   3.597   3.417  0.5378  0.4188 -0.9007
  536SOL    HW2 3926   1.999   3.589   3.288 -1.6693  0.7113  0.3681
  537SOL     OW 3927   1.924   6.684   6.012  0.1768 -0.6372  0.3334
  537SOL    HW1 3928   1.986   6.754   5.994  1.2816 -1.9213 -1.0826
  537SOL    HW2 3929   1.936   6.665   6.105  0.5623  0.3703  0.5012
  538SOL     OW 3930   2.779   8.931   9.156  0.3555  0.0586 -0.1477
  538SOL    HW1 3931   2.737   8.943   9.070  0.4522 -0.5902 -0.2922
  538SOL    HW2 3932   2.843   8.861   9.141  2.7802  2.1608 -0.3855
  539SOL     OW 3933  10.238   6.468   7.619 -0.2183  0.0688 -0.6650
  539SOL    HW1 3934  10.236   6.507   7.707  1.1486 -1.0039 -0.1121
  539SOL    HW2 3935  10.323   6.425   7.614  0.2561  1.1416 -3.0168
  540SOL     OW 3936   3.999   8.558   4.810 -0.2724 -0.2752  0.5361
  540SOL    HW1 3937   3.927   8.589   4.865  0.1722  2.8075 -0.3938
  540SOL    HW2 3938   3.959   8.493   4.752 -1.9492  0.2182  1.0810
  541SOL     OW 3939  10.188   6.208   6.612 -0.2131 -0.1652  0.5656
  541SOL    HW1 3940  10.241   6.278   6.650  1.9765 -1.6163  0.3794
  541SOL    HW2 3941  10.149   6.164   6.687 -0.0281  0.0712  0.8020
  542SOL     OW 3942   5.536   4.947   8.546  0.1798  0.0942  0.2318
  542SOL    HW1 3943   5.462   4.914   8.495 -0.6603 -1.3942  2.2499
  542SOL    HW2 3944   5.496   4.979   8.627  1.6027  0.7980  0.6771
  543SOL     OW 3945   6.729   9.413   0.053  0.3277  0.2043 -0.5159
  543SOL    HW1 3946   6.677   9.466  -0.006 -0.6347 -1.3208 -1.1022
  543SOL    HW2 3947   6.726   9.459   0.137 -0.9299  0.7815 -0.8597
  544SOL     OW 3948   2.885   7.728   5.307 -0.5685  0.2572  0.5347
  544SOL    HW1 3949   2.892   7.812   5.262  1.0723 -0.0164  0.2171
  544SOL    HW2 3950   2.924   7.744   5.393 -0.3706 -0.1578  0.5211
  545SOL     OW 3951   9.677   5.841   2.005  0.2631  0.1830  0.0267
  545SOL    HW1 3952   9.667   5.873   2.095  2.1649  1.0119 -0.0107
  545SOL    HW2 3953   9.717   5.914   1.958 -0.4822 -0.3128 -1.4748
  546SOL     OW 3954   6.426   5.147   6.406 -0.7289  0.0021  0.3081
  546SOL    HW1 3955   6.395   5.171   6.318  1.6196  0.2214 -0.5352
  546SOL    HW2 3956   6.379   5.066   6.427 -0.6161 -0.6121 -1.6019
  547SOL     OW 3957   7.680   4.704   2.680  0.3924 -0.2869 -0.1045
  547SOL    HW1 3958   7.702   4.796   2.663  0.4844 -0.6620 -2.4229
  547SOL    HW2 3959   7.595   4.692   2.637  1.2007 -1.6764 -1.4225
  548SOL     OW 3960   9.881   1.746   4.172  0.2176 -0.2512 -0.1939
  548SOL    HW1 3961   9.878   1.829   4.124 -0.4779  0.2987  0.7450
  548SOL    HW2 3962   9.943   1.763   4.244  0.0404 -0.5273  0.0237
  549SOL     OW 3963   2.161   7.126   8.638 -0.1104 -0.0580 -0.0069
  549SOL    HW1 3964   2.170   7.045   8.689 -0.6784 -0.7556 -0.9683
  549SOL    HW2 3965   2.251   7.151   8.617  0.0451 -0.9150 -0.4071
  550SOL     OW 3966   1.515   6.922   7.319  1.0948 -0.3353  0.0880
  550SOL    HW1 3967   1.457   6.846   7.324  0.3896  0.2021  0.3664
  550SOL    HW2 3968   1.456   6.995   7.300  1.1985  0.7308  3.2753
  551SOL     OW 3969   4.159   0.305   4.709 -0.1939 -0.0068  0.0822
  551SOL    HW1 3970   4.217   0.368   4.666  2.1505 -0.8618  1.7840
  551SOL    HW2 3971   4.150   0.338   4.799  0.2181 -1.5095  0.6997
  552SOL     OW 3972   9.966   1.461   3.908 -0.1743  0.4945 -0.4488
  552SOL    HW1 3973  10.038   1.400   3.898 -0.8674 -0.3035 -0.6690
  552SOL    HW2 3974   9.899   1.412   3.956  0.0443  1.7443  1.2260
  553SOL     OW 3975   7.504   8.273   0.327  0.2108 -0.3012  0.4152
  553SOL    HW1 3976   7.562   8.258   0.252  0.4857 -1.1221  0.7781
  553SOL    HW2 3977   7.528   8.205   0.390 -1.6417 -1.1416  0.2839
  554SOL     OW 3978   6.746   6.981   1.249 -0.0624  0.0444 -0.7547
  554SOL    HW1 3979   6.747   6.908   1.312  1.3851 -0.3045 -1.1363
  554SOL    HW2 3980   6.685   7.044   1.287 -1.1629 -1.2442 -0.2844
  555SOL     OW 3981   9.169   7.231   8.889 -0.6862 -0.6474 -0.1767
  555SOL    HW1 3982   9.239   7.294   8.872  0.8096 -2.6860 -2.1842
  555SOL    HW2 3983   9.182   7.204   8.979  1.2287 -1.0711 -0.5456
  556SOL     OW 3984   9.047   2.399   5.824  0.2587  0.4370  0.1846
  556SOL    HW1 3985   9.006   2.352   5.896 -1.2654  0.7693 -0.4269
  556SOL    HW2 3986   9.012   2.488   5.829  1.5515  0.9812  0.1153
  557SOL     OW 3987   0.155   0.336   4.364 -0.1409 -0.1957  0.5779
  557SOL    HW1 3988   0.210   0.327   4.442 -1.6016 -0.3403  1.6164
  557SOL    HW2 3989   0.203   0.288   4.296  0.9176 -0.4807  1.4884
  558SOL     OW 3990   0.576   6.894   7.257 -0.4166 -0.2113  0.1435
  558SOL    HW1 3991   0.546   6.821   7.312  0.6402 -0.6075  0.2205
  558SOL    HW2 3992   0.615   6.955   7.319  2.3547 -1.4407 -0.2540
  559SOL     OW 3993   0.579   8.059   1.151 -0.2980 -0.8173  0.2197
  559SOL    HW1 3994   0.597   8.008   1.072 -1.6829  0.7512 -1.2010
  559SOL    HW2 3995   0.550   7.994   1.215 -1.4739 -1.9132 -1.3372
  560SOL     OW 3996   4.516   2.338   9.151 -0.0719 -0.2828  0.2908
  560SOL    HW1 3997   4.432   2.319   9.110  0.8892 -1.3409 -1.3534
  560SOL    HW2 3998   4.495   2.392   9.227 -2.0848  0.7651 -0.9280
  561SOL     OW 3999   9.466   3.589   1.520  0.1513 -0.0479 -0.4421
  561SOL    HW1 4000   9.518   3.538   1.458  1.8266  0.4845  0.4915
  561SOL    HW2 4001   9.526   3.654   1.556 -0.3913 -1.0695  2.6458
  562SOL     OW 4002   1.847   0.076   9.789  0.0294 -0.8021  0.2730
  562SOL    HW1 4003   1.806   0.022   9.856 -1.8424  0.6637  0.4168
  562SOL    HW2 4004   1.816   0.039   9.706 -0.2955 -0.6801  0.3375
  563SOL     OW 4005   8.470   6.551   3.719 -0.2655 -0.3029  0.4410
  563SOL    HW1 4006   8.563   6.569   3.708  0.3065 -2.6943  0.6654
  563SOL    HW2 4007   8.434   6.631   3.757  1.4746  1.0359 -0.5509
  564SOL     OW 4008   2.307   1.301   1.050 -0.3973  0.5866 -0.9298
  564SOL    HW1 4009   2.223   1.285   1.007 -1.7052 -1.5424  2.0754
  564SOL    HW2 4010   2.292   1.379   1.103 -1.0199 -0.5582  0.6541
  565SOL     OW 4011   3.871   2.280   3.559 -0.2342  0.5508 -0.0539
  565SOL    HW1 4012   3.792   2.306   3.606 -1.1166  1.2322 -1.7945
  565SOL    HW2 4013   3.858   2.315   3.470  1.0419 -1.2049 -0.9837
  566SOL     OW 4014   4.305   8.294   0.237  0.3685  0.1063 -0.0345
  566SOL    HW1 4015   4.267   8.212   0.268 -0.1118 -0.4353 -1.9747
  566SOL    HW2 4016   4.262   8.361   0.289 -0.7297 -0.7350  0.1692
  567SOL     OW 4017   4.320   5.684   7.306 -0.2504  0.1743 -0.2052
  567SOL    HW1 4018   4.373   5.607   7.287 -0.5353 -0.3749  1.1246
  567SOL    HW2 4019   4.262   5.692   7.230  0.1806 -0.5672 -0.6232
  568SOL     OW 4020   3.833   3.742   8.398 -0.0029 -0.6011  0.6376
  568SOL    HW1 4021   3.780   3.769   8.323 -0.2690 -2.2242  0.1944
  568SOL    HW2 4022   3.911   3.797   8.394 -0.9337  0.7486  0.3931
  569SOL     OW 4023   3.507   3.621   6.953 -0.5902  0.2079 -0.1910
  569SOL    HW1 4024   3.526   3.639   6.861  0.0004  0.5727 -0.0029
  569SOL    HW2 4025   3.468   3.702   6.985 -2.0045 -0.3461 -0.4311
  570SOL     OW 4026   1.710   0.341   0.317 -0.0432 -0.0551 -0.2565
  570SOL    HW1 4027   1.774   0.412   0.321 -0.4697  0.2641  1.4753
  570SOL    HW2 4028   1.686   0.337   0.224  1.2581  0.8997 -0.6755
  571SOL     OW 4029   0.166   1.561   8.197  0.3531  0.4448 -0.3421
  571SOL    HW1 4030   0.254   1.556   8.160  1.1807  2.9185  1.0697
  571SOL    HW2 4031   0.174   1.521   8.284 -0.1549 -0.0627 -0.5185
  572SOL     OW 4032   3.458   9.801   5.859 -0.3597 -0.3412  0.3263
  572SOL    HW1 4033   3.366   9.780   5.841 -0.2037  0.2230 -1.2905
  572SOL    HW2 4034   3.485   9.856   5.786  1.5038 -1.1695  0.3224
  573SOL     OW 4035   1.550   1.339   4.589 -0.1119  0.2404  0.4642
  573SOL    HW1 4036   1.572   1.307   4.501  0.4010 -1.1894  1.0774
  573SOL    HW2 4037   1.455   1.348   4.589  0.0167  2.1565 -0.8254
  574SOL     OW 4038   7.466   2.707   9.514 -0.1346 -0.4594 -0.1747
  574SOL    HW1 4039   7.499   2.796   9.501 -0.5011 -0.1729  0.7196
  574SOL    HW2 4040   7.463   2.697   9.609 -1.3014 -0.9629 -0.2469
  575SOL     OW 4041   5.590   2.701   3.535 -0.4682  0.4524  0.0220
  575SOL    HW1 4042   5.676   2.728   3.502  0.8153 -2.1642  0.9392
  575SOL    HW2 4043   5.530   2.725   3.464  1.6511 -1.5966 -2.7438
  576SOL     OW 4044   0.160   2.436   8.343  0.0828  0.0329  0.3728
  576SOL    HW1 4045   0.165   2.381   8.265  0.8977  1.9571 -1.0185
  576SOL    HW2 4046   0.066   2.451   8.356 -0.0410  0.3649 -0.7712
  577SOL     OW 4047   9.696   5.766   7.066  0.2515  0.6327  0.2204
  577SOL    HW1 4048   9.710   5.798   7.155 -1.2416  2.2007 -0.0734
  577SOL    HW2 4049   9.659   5.678   7.078 -2.5354  1.8445  1.2880
  578SOL     OW 4050   2.107   6.792   7.195  0.0134  0.1638  0.3282
  578SOL    HW1 4051   2.096   6.856   7.125  0.2520 -0.7072 -0.5204
  578SOL    HW2 4052   2.135   6.712   7.151 -2.7357 -1.3141  1.0373
  579SOL     OW 4053   0.691   3.035   8.708 -0.1611  0.0232  0.1080
  579SOL    HW1 4054   0.631   3.081   8.766 -0.5774 -1.2040  0.6814
  579SOL    HW2 4055   0.766   3.012   8.764  0.2662  0.4169 -0.2904
  580SOL     OW 4056   3.262   4.735   2.361  0.0101  0.8791  0.5171
  580SOL    HW1 4057   3.186   4.686   2.330  0.2019  1.0905 -0.3088
  580SOL    HW2 4058   3.231   4.825   2.369  0.2643  1.0387 -0.1964
  581SOL     OW 4059   1.582   4.585   0.560  0.0458 -0.2830 -0.4666
  581SOL    HW1 4060   1.506   4.638   0.584  0.4044  0.5412 -1.0821
  581SOL    HW2 4061   1.626   4.567   0.644 -0.4494 -0.1761 -0.1792
  582SOL     OW 4062   3.736   5.036   8.729  0.3424 -0.2266  0.3338
  582SOL    HW1 4063   3.675   4.972   8.765 -1.5936  0.9416 -0.6896
  582SOL    HW2 4064   3.812   4.984   8.703 -0.6446 -1.9286  0.6687
  583SOL     OW 4065   5.723   0.592   4.406  0.1766 -0.0416 -0.2133
  583SOL    HW1 4066   5.807   0.627   4.438  1.2666 -2.4729 -0.1925
  583SOL    HW2 4067   5.696   0.654   4.339  1.1136  1.7206  0.9499
  584SOL     OW 4068   0.246   2.408   2.652 -0.5903  0.2907 -0.0322
  584SOL    HW1 4069   0.202   2.488   2.682 -0.7490 -0.2105  1.1076
  584SOL    HW2 4070   0.176   2.355   2.613 -0.6241  0.3767 -0.0885
  585SOL     OW 4071   8.421   7.290   0.497  0.4341 -0.1058  0.0573
  585SOL    HW1 4072   8.470   7.297   0.579 -0.6673  0.9727  0.6622
  585SOL    HW2 4073   8.349   7.231   0.517 -0.0904  0.5103  0.0036
  586SOL     OW 4074   9.965   7.292   1.190  0.2370  0.6467  1.0675
  586SOL    HW1 4075   9.982   7.215   1.244  0.3744  0.1980  0.3979
  586SOL    HW2 4076  10.038   7.296   1.129 -1.2572 -0.4587 -0.8813
  587SOL     OW 4077   9.940   9.135   5.801 -0.1187  0.1636  0.0744
  587SOL    HW1 4078  10.009   9.069   5.810  0.3072  0.5145 -0.4932
  587SOL    HW2 4079   9.876   9.112   5.868  0.2766 -0.5087  0.2365
  588SOL     OW 4080   1.613   8.460   5.793 -0.2167  0.1506  0.0092
  588SOL    HW1 4081   1.677   8.402   5.750 -1.8293 -0.7667 -1.2806
  588SOL    HW2 4082   1.666   8.519   5.845  1.6877 -0.6642 -0.8922
  589SOL     OW 4083   1.181   6.982   0.010 -0.2735 -0.1119 -0.4586
  589SOL    HW1 4084   1.125   7.050   0.048 -2.2739 -2.1850  0.5159
  589SOL    HW2 4085   1.241   7.030  -0.048 -0.7746  2.5711  1.0791
  590SOL     OW 4086   9.188   9.969   5.841  0.2296  0.1044 -0.2376
  590SOL    HW1 4087   9.251  10.014   5.785  0.6787 -0.6265 -0.3324
  590SOL    HW2 4088   9.227   9.883   5.857 -0.5611 -0.2150  0.0273
  591SOL     OW 4089   2.425   5.013   1.604 -0.2561 -0.2333 -0.1953
  591SOL    HW1 4090   2.444   5.103   1.632 -0.8003 -0.4265  0.8494
  591SOL    HW2 4091   2.341   4.993   1.645  0.3071 -1.5585  0.3623
  592SOL     OW 4092   1.619   3.850   4.404  0.1693  0.8063 -0.9347
  592SOL    HW1 4093   1.687   3.787   4.428  1.9985  1.6934 -3.4278
  592SOL    HW2 4094   1.559   3.849   4.478  2.7758 -0.1462  1.3250
  593SOL     OW 4095   4.324   2.582   8.041 -0.0232  0.1921  0.2869
  593SOL    HW1 4096   4.363   2.626   7.965 -1.3022 -0.9228 -1.0787
  593SOL    HW2 4097   4.343   2.489   8.029 -1.8383 -0.2332  0.2840
  594SOL     OW 4098   6.956   9.471   6.169  0.4771  0.2355 -0.0188
  594SOL    HW1 4099   6.954   9.409   6.097  0.6722  0.5689 -0.3147
  594SOL    HW2 4100   6.898   9.543   6.142  0.3493  0.2435  0.2657
  595SOL     OW 4101   1.518   3.383   9.217  0.5987  0.1235  0.3181
  595SOL    HW1 4102   1.596   3.390   9.271  1.3770 -3.4806 -0.0972
  595SOL    HW2 4103   1.547   3.406   9.128  1.9333 -3.3393 -0.2743
  596SOL     OW 4104   9.848   3.283   1.568  0.4208  0.0219 -0.3127
  596SOL    HW1 4105   9.809   3.251   1.487  2.1956  1.0172 -1.6303
  596SOL    HW2 4106   9.914   3.347   1.540  0.7173  0.8111  1.9478
  597SOL     OW 4107  10.517   4.439   0.428  0.0943 -0.0058 -0.2711
  597SOL    HW1 4108  10.462   4.426   0.505 -0.3742 -0.8528 -0.7401
  597SOL    HW2 4109  10.485   4.522   0.390  1.6642  1.5126  1.5209
  598SOL     OW 4110   2.886   4.186   5.383  0.0434 -0.4037  0.0139
  598SOL    HW1 4111   2.887   4.152   5.472  0.9600  0.3904  0.3269
  598SOL    HW2 4112   2.962   4.146   5.341 -0.3060 -0.6676 -0.3819
  599SOL     OW 4113   2.216   5.684   6.839 -0.3299 -0.0370 -0.0751
  599SOL    HW1 4114   2.134   5.701   6.794 -0.0314 -0.0100 -0.6116
  599SOL    HW2 4115   2.242   5.597   6.810  0.5762  0.5448 -1.0655
  600SOL     OW 4116   2.123   1.984   7.969 -0.3089 -0.0144  0.2972
  600SOL    HW1 4117   2.047   1.937   8.004 -0.7208  1.1539  1.0110
  600SOL    HW2 4118   2.087   2.055   7.916  0.2953  0.0605 -0.0318
  601SOL     OW 4119   9.884   7.982   7.705  0.3098 -0.0397 -0.1868
  601SOL    HW1 4120   9.829   7.909   7.734 -0.5739  0.8170  0.3527
  601SOL    HW2 4121   9.962   7.941   7.669  0.3279 -1.2076  1.1396
  602SOL     OW 4122   8.141   6.785   0.510 -0.2398 -0.2532  0.7258
  602SOL    HW1 4123   8.195   6.741   0.576  0.6446 -0.4225 -0.0774
  602SOL    HW2 4124   8.204   6.832   0.456 -0.9082 -0.4332 -0.2302
  603SOL     OW 4125  10.191   9.679   3.010  0.1150  0.2451 -0.7152
  603SOL    HW1 4126  10.106   9.706   2.977 -0.8068 -0.2169  1.1570
  603SOL    HW2 4127  10.178   9.589   3.040  1.6407 -0.3277 -1.6133
  604SOL     OW 4128  10.065   3.219   9.513  0.6719  0.3632  0.4676
  604SOL    HW1 4129  10.142   3.276   9.509  0.4288  0.6484 -0.1710
  604SOL    HW2 4130  10.089   3.144   9.459  0.2360  0.7795 -0.3161
  605SOL     OW 4131   2.894   8.043   8.288 -0.0255  0.1008 -0.4831
  605SOL    HW1 4132   2.871   7.978   8.354 -0.0552  2.3754  1.9211
  605SOL    HW2 4133   2.937   7.994   8.218  0.0895 -2.4199  1.2713
  606SOL     OW 4134   3.918   7.286   4.238 -0.7157 -0.1411 -0.0679
  606SOL    HW1 4135   3.829   7.296   4.206 -0.7635  0.7301  0.3227
  606SOL    HW2 4136   3.925   7.194   4.262 -0.5485 -0.9982 -2.9768
  607SOL     OW 4137   1.238   2.084   0.903  0.7711  0.0236 -0.6510
  607SOL    HW1 4138   1.259   2.005   0.852 -0.2610 -0.2836 -0.6262
  607SOL    HW2 4139   1.302   2.149   0.874  1.1310 -0.5882 -1.2638
  608SOL     OW 4140   5.542   5.805   1.010  0.5189 -0.2890  0.5762
  608SOL    HW1 4141   5.532   5.772   0.921  0.7339  0.7975  0.1423
  608SOL    HW2 4142   5.512   5.733   1.066 -1.3518 -0.3370 -0.4216
  609SOL     OW 4143   4.085   9.127   8.539  0.3052 -0.4008  0.3332
  609SOL    HW1 4144   4.044   9.129   8.453 -0.4776  1.0817  0.7035
  609SOL    HW2 4145   4.134   9.208   8.544  1.3243 -1.0268  0.8510
  610SOL     OW 4146   7.843   0.122   5.070 -0.7047  0.1292 -0.0695
  610SOL    HW1 4147   7.889   0.074   5.140  0.6090 -1.8781 -2.1692
  610SOL    HW2 4148   7.765   0.070   5.053 -1.1235  0.7214  0.0381
  611SOL     OW 4149   7.994   8.835   7.770  0.6201 -0.4591 -0.3430
  611SOL    HW1 4150   8.053   8.761   7.753  2.4132  1.3918 -2.8530
  611SOL    HW2 4151   8.045   8.912   7.746 -2.2674  1.4004 -0.9082
  612SOL     OW 4152   9.791   9.704   9.466  0.3242 -0.2453 -0.3215
  612SOL    HW1 4153   9.861   9.709   9.531  1.0879  0.4594 -1.1866
  612SOL    HW2 4154   9.746   9.622   9.486  0.8183 -0.2573  0.8183
  613SOL     OW 4155   9.261   4.875   2.574  0.3635 -0.5806  0.5666
  613SOL    HW1 4156   9.291   4.871   2.664  1.8714  1.3145  0.2149
  613SOL    HW2 4157   9.271   4.967   2.549 -0.4603 -0.9604 -1.3894
  614SOL     OW 4158   6.639   0.402   2.819 -0.2703  0.4891  0.2647
  614SOL    HW1 4159   6.663   0.311   2.803 -0.2598  0.5063  0.1845
  614SOL    HW2 4160   6.688   0.426   2.898 -1.7675 -0.1855  1.4466
  615SOL     OW 4161   7.840   7.644   9.127  0.3115  0.6566 -0.3870
  615SOL    HW1 4162   7.784   7.717   9.100  1.7283  1.3121 -1.6952
  615SOL    HW2 4163   7.879   7.673   9.210  0.1413  0.9949 -0.4243
  616SOL     OW 4164   6.849   7.887   3.573 -0.5931 -0.2834 -0.1332
  616SOL    HW1 4165   6.940   7.870   3.551 -0.4629 -0.6874  0.6555
  616SOL    HW2 4166   6.843   7.982   3.581  0.0794 -0.3201  1.0482
  617SOL     OW 4167   2.481   7.338  10.433  0.2940  0.3177 -0.7276
  617SOL    HW1 4168   2.414   7.405  10.444 -1.3003 -1.0493 -1.5361
  617SOL    HW2 4169   2.467   7.277  10.506 -0.1871 -0.6056 -1.5537
  618SOL     OW 4170   2.551   9.111  10.485 -0.3327  0.3685 -0.2642
  618SOL    HW1 4171   2.631   9.077  10.446  0.1854  1.0907  0.1563
  618SOL    HW2 4172   2.480   9.072  10.433  0.2337 -1.2121  0.0858
  619SOL     OW 4173   5.515   7.894   2.732 -0.1242  0.1348 -1.0258
  619SOL    HW1 4174   5.476   7.823   2.783 -0.9705  1.1852 -0.1872
  619SOL    HW2 4175   5.487   7.877   2.642  0.9321 -1.4262 -1.0960
  620SOL     OW 4176   8.590   4.542   0.320  0.0257 -0.3658  0.1004
  620SOL    HW1 4177   8.647   4.469   0.293  1.6628  0.8820  0.0081
  620SOL    HW2 4178   8.580   4.531   0.415  1.6619  0.1858  0.3695
  621SOL     OW 4179   4.798   8.305   2.871  0.0506  0.4898  0.1033
  621SOL    HW1 4180   4.822   8.303   2.964  1.8682 -0.8913 -0.3194
  621SOL    HW2 4181   4.726   8.243   2.863  0.2230  0.2262  0.5415
  622SOL     OW 4182   4.856   0.820   8.582 -0.2605  0.1072  0.2063
  622SOL    HW1 4183   4.859   0.904   8.536  1.7710  1.4133  2.4599
  622SOL    HW2 4184   4.804   0.838   8.661  2.4725  0.1759  2.1285
  623SOL     OW 4185   2.462   1.352   4.629 -0.0560 -0.7000  0.0168
  623SOL    HW1 4186   2.558   1.354   4.637 -0.0400  0.3949 -0.2665
  623SOL    HW2 4187   2.431   1.340   4.719  0.3501 -1.2542  0.0862
  624SOL     OW 4188   0.646   9.627   1.676 -0.1393  0.1831  0.5235
  624SOL    HW1 4189   0.603   9.706   1.710  0.8451  0.5981  0.8364
  624SOL    HW2 4190   0.668   9.649   1.586  0.6458  0.4804  0.7848
  625SOL     OW 4191   5.354   1.779  10.165 -0.1533  0.4899  0.2141
  625SOL    HW1 4192   5.334   1.815  10.079  0.3257 -0.2522 -0.2215
  625SOL    HW2 4193   5.271   1.782  10.212 -0.9912 -1.1368 -1.0373
  626SOL     OW 4194   5.648   5.365   4.886 -0.1497  0.0519 -0.1158
  626SOL    HW1 4195   5.655   5.273   4.861  0.3903  0.3068 -0.9502
  626SOL    HW2 4196   5.557   5.389   4.868 -0.1822 -0.2099 -0.2923
  627SOL     OW 4197  10.592   2.100   2.398  0.1322 -0.0791 -0.6790
  627SOL    HW1 4198  10.536   2.041   2.449 -0.1308  0.3330 -0.4898
  627SOL    HW2 4199  10.680   2.081   2.429  0.0618 -0.4533 -0.6981
  628SOL     OW 4200   5.631   2.945   9.313  0.1561  0.3424 -0.0273
  628SOL    HW1 4201   5.662   2.927   9.224  0.2684  2.3941 -0.4355
  628SOL    HW2 4202   5.711   2.952   9.365  0.2504  1.9517 -0.3501
  629SOL     OW 4203   3.235   7.412   0.806 -0.2312 -0.1071 -0.2880
  629SOL    HW1 4204   3.256   7.493   0.853 -1.9759 -0.3710  1.0571
  629SOL    HW2 4205   3.244   7.343   0.872  0.7976 -0.9640 -1.3016
  630SOL     OW 4206   7.539   5.933   3.981 -0.0456 -0.2886 -0.1675
  630SOL    HW1 4207   7.516   5.854   3.931 -0.5693 -0.2765  0.0473
  630SOL    HW2 4208   7.590   5.986   3.919 -3.0904  1.0513 -1.7301
  631SOL     OW 4209  10.098   3.100   5.582  0.1490 -0.3313 -0.7850
  631SOL    HW1 4210  10.150   3.063   5.511 -1.6610 -1.5561 -1.5414
  631SOL    HW2 4211  10.024   3.141   5.538 -1.2642 -1.5348  0.3777
  632SOL     OW 4212   5.442   1.716   7.013  0.0995 -0.2608 -0.5409
  632SOL    HW1 4213   5.444   1.775   7.088  0.4264 -1.0361  0.0837
  632SOL    HW2 4214   5.532   1.682   7.008 -0.1894 -1.0258 -0.6179
  633SOL     OW 4215   0.741   7.755   4.242 -0.0624  0.0969  0.0601
  633SOL    HW1 4216   0.752   7.782   4.334 -1.0687 -0.2076  0.2893
  633SOL    HW2 4217   0.663   7.699   4.243 -0.6555  0.8504 -1.1279
  634SOL     OW 4218   1.391   0.995   3.229 -0.4444 -0.2996 -0.1146
  634SOL    HW1 4219   1.442   1.068   3.264 -2.6091  0.2009  2.2339
  634SOL    HW2 4220   1.446   0.918   3.245  0.2829  0.3821  0.8005
  635SOL     OW 4221   7.732  10.198   8.590  0.2747  0.4237 -0.1109
  635SOL    HW1 4222   7.742  10.283   8.549 -0.2987 -0.3132 -1.8502
  635SOL    HW2 4223   7.780  10.137   8.535  0.5441 -0.4266  1.0092
  636SOL     OW 4224   6.769   3.095   8.487 -0.1178  0.5248  0.1769
  636SOL    HW1 4225   6.856   3.086   8.527 -0.1141  2.0216  0.5554
  636SOL    HW2 4226   6.713   3.123   8.560 -0.1809  2.9858 -0.7313
  637SOL     OW 4227   6.986   4.225   7.600  0.3768  0.5592  0.1839
  637SOL    HW1 4228   6.900   4.185   7.592  0.3062  0.4999  1.0742
  637SOL    HW2 4229   7.037   4.188   7.528  0.5189 -1.6762  1.3455
  638SOL     OW 4230   0.978  10.246   9.298  0.2007  0.6544 -0.2066
  638SOL    HW1 4231   1.030  10.286   9.368 -2.6630 -0.4773  2.8191
  638SOL    HW2 4232   0.913  10.312   9.276 -0.6387 -0.0151  0.2339
  639SOL     OW 4233   6.578   0.439   7.975  0.3667 -0.0250 -0.1234
  639SOL    HW1 4234   6.603   0.531   7.964 -0.1356 -0.0120 -1.3574
  639SOL    HW2 4235   6.628   0.392   7.908 -0.3563 -0.4573 -0.3756
  640SOL     OW 4236   7.745   9.145  10.568  0.4076  0.2788  0.2933
  640SOL    HW1 4237   7.826   9.127  10.615  0.7152  0.5571 -0.1213
  640SOL    HW2 4238   7.728   9.066  10.517  1.1066  0.6811 -0.5953
  641SOL     OW 4239  10.535   3.950   4.037  0.3625 -0.0355 -0.0467
  641SOL    HW1 4240  10.551   4.035   4.076  1.0811 -1.2007  2.4018
  641SOL    HW2 4241  10.599   3.944   3.966  0.5100  1.3263 -0.0597
  642SOL     OW 4242   9.981   5.782   3.046 -0.0278  0.1423  0.2541
  642SOL    HW1 4243  10.026   5.754   2.966 -0.2251  0.7418 -0.0732
  642SOL    HW2 4244   9.949   5.870   3.026  0.1007  0.3839  1.0722
  643SOL     OW 4245   4.284   6.573   3.892 -0.3899 -0.4096  0.3393
  643SOL    HW1 4246   4.210   6.527   3.932 -1.1041 -0.5087 -1.0616
  643SOL    HW2 4247   4.253   6.663   3.881 -0.2310 -0.4048 -0.0756
  644SOL     OW 4248   8.382   0.711   1.545 -0.0032  0.0410  0.7191
  644SOL    HW1 4249   8.438   0.679   1.474 -0.6821  0.0608  0.1547
  644SOL    HW2 4250   8.336   0.786   1.506  1.6066  1.7921  2.0246
  645SOL     OW 4251   9.733   1.498   7.286  0.4441  0.0838 -0.0597
  645SOL    HW1 4252   9.652   1.460   7.321  0.8429 -0.7551 -0.0389
  645SOL    HW2 4253   9.715   1.512   7.193  0.0438  0.5531  0.0791
  646SOL     OW 4254   7.261   3.985   5.388  0.2234 -0.0017  0.0083
  646SOL    HW1 4255   7.356   3.993   5.376  0.0403  0.9520 -1.0471
  646SOL    HW2 4256   7.240   4.047   5.457  0.6125 -1.7573  1.7884
  647SOL     OW 4257   7.003   1.494   0.866  0.5146  0.1502 -0.0143
  647SOL    HW1 4258   7.093   1.497   0.833  0.4932  1.0669 -0.0028
  647SOL    HW2 4259   7.002   1.558   0.938  0.5086 -1.6299  1.6583
  648SOL     OW 4260   8.677   7.391   9.813 -0.4201  0.1859 -0.4313
  648SOL    HW1 4261   8.730   7.317   9.781 -0.5497  0.4030 -1.1405
  648SOL    HW2 4262   8.608   7.350   9.864  0.6818 -0.0913  0.9149
  649SOL     OW 4263   7.099   1.008   6.718  0.1732  0.3794 -0.5069
  649SOL    HW1 4264   7.079   1.098   6.693  0.3895 -0.0364 -2.2899
  649SOL    HW2 4265   7.116   1.013   6.813  0.5425  2.2661 -0.6312
  650SOL     OW 4266   9.382   3.316   4.672  0.2236  0.0134 -0.5702
  650SOL    HW1 4267   9.451   3.260   4.707  0.4102 -0.5114 -1.7450
  650SOL    HW2 4268   9.337   3.349   4.750 -0.2120 -2.1606  0.1659
  651SOL     OW 4269   9.453   6.222   9.078 -0.7533  0.3167 -0.4032
  651SOL    HW1 4270   9.464   6.260   8.991  2.3677 -1.8198 -1.0772
  651SOL    HW2 4271   9.522   6.264   9.131 -0.8644 -0.3759  0.3047
  652SOL     OW 4272   4.333   0.520  10.158  0.4050  0.1625 -0.1090
  652SOL    HW1 4273   4.390   0.467  10.212  1.8433  0.5021 -1.2147
  652SOL    HW2 4274   4.258   0.541  10.214  1.8371  0.5490  1.7573
  653SOL     OW 4275   5.614   9.644   0.632 -0.1968 -0.0453 -0.5222
  653SOL    HW1 4276   5.663   9.726   0.632 -0.6930  0.2829 -2.1366
  653SOL    HW2 4277   5.531   9.666   0.589 -0.3689 -1.3760 -0.9010
  654SOL     OW 4278   1.849   7.306   0.214  0.2264  0.0956  0.3936
  654SOL    HW1 4279   1.944   7.319   0.223  0.3868 -0.4289 -0.4114
  654SOL    HW2 4280   1.836   7.287   0.121 -0.6557  0.0336  0.5204
  655SOL     OW 4281   6.993   6.328   3.476 -0.6508  0.2014  0.2703
  655SOL    HW1 4282   7.054   6.338   3.403 -0.7815 -1.7062 -0.1515
  655SOL    HW2 4283   7.048   6.336   3.554  0.0404 -0.7394 -0.0965
  656SOL     OW 4284   0.053   4.803   9.978 -0.0911  0.0680 -0.1024
  656SOL    HW1 4285   0.117   4.873   9.992  1.2264 -1.2428  0.5974
  656SOL    HW2 4286   0.053   4.790   9.883  1.5517 -0.6829 -0.0274
  657SOL     OW 4287   0.662   6.484   3.980 -0.0300 -0.7040  0.2197
  657SOL    HW1 4288   0.651   6.419   3.910  0.0978  0.6324 -1.0980
  657SOL    HW2 4289   0.575   6.523   3.990  0.1066 -0.4274  0.3239
  658SOL     OW 4290   4.521   9.015   6.426  0.0727 -0.2180 -0.1800
  658SOL    HW1 4291   4.591   8.967   6.471 -0.1540 -0.5589 -0.1866
  658SOL    HW2 4292   4.480   9.068   6.494 -0.7476 -1.2831  0.1926
  659SOL     OW 4293   3.472   6.568   1.820 -0.6430 -0.0049  0.0121
  659SOL    HW1 4294   3.460   6.614   1.737 -1.5358  0.7511  0.5353
  659SOL    HW2 4295   3.563   6.538   1.819 -0.9781 -1.1118 -1.7702
  660SOL     OW 4296   7.067   6.673   4.414  0.2781  0.1583  0.0882
  660SOL    HW1 4297   7.087   6.663   4.507  0.8791  0.1602 -0.0371
  660SOL    HW2 4298   7.041   6.765   4.404 -2.1696 -0.3911  0.6747
  661SOL     OW 4299   3.156   5.949   1.705 -0.5051 -0.5428  0.0475
  661SOL    HW1 4300   3.239   5.911   1.735  0.3394  0.5045 -0.8334
  661SOL    HW2 4301   3.182   6.005   1.631 -1.6649  1.6139  1.1706
  662SOL     OW 4302  10.037   6.741   8.401  0.4134  0.1589  0.0707
  662SOL    HW1 4303   9.992   6.818   8.437  1.8591  1.4805 -0.7996
  662SOL    HW2 4304  10.126   6.772   8.383 -0.0336 -0.3986 -4.2772
  663SOL     OW 4305   7.781   4.659   1.156  0.2313 -0.3043  0.6753
  663SOL    HW1 4306   7.716   4.601   1.195 -0.5011 -0.5106 -0.7942
  663SOL    HW2 4307   7.863   4.637   1.201 -0.7591  0.3665  2.9752
  664SOL     OW 4308   7.821   8.047   9.349 -0.3398 -0.0624  0.3911
  664SOL    HW1 4309   7.856   8.108   9.284 -0.3592 -0.0502  0.3916
  664SOL    HW2 4310   7.894   8.031   9.408 -0.4636  0.2953  0.6407
  665SOL     OW 4311   3.185   1.095   4.463 -0.0884  0.1624  0.8389
  665SOL    HW1 4312   3.212   1.008   4.434 -0.5145  0.1637  0.4138
  665SOL    HW2 4313   3.251   1.154   4.427 -0.1143  0.0721  0.6446
  666SOL     OW 4314   9.338   9.244  10.500  0.1414  0.4000  0.3305
  666SOL    HW1 4315   9.316   9.199  10.581 -2.4273 -1.7103 -1.3705
  666SOL    HW2 4316   9.429   9.219  10.482  1.1216  1.7382  2.9373
  667SOL     OW 4317   9.600   0.573   2.977 -0.7928  0.1721  0.4715
  667SOL    HW1 4318   9.664   0.603   2.913 -0.2881  0.5392  1.1315
  667SOL    HW2 4319   9.563   0.654   3.013 -0.3408  0.0006  1.3562
  668SOL     OW 4320   0.365   4.408   7.884  1.0846 -0.3789 -0.4091
  668SOL    HW1 4321   0.370   4.504   7.890  0.9307 -0.2960 -1.4507
  668SOL    HW2 4322   0.273   4.388   7.904  0.6559 -0.1377 -2.0044
  669SOL     OW 4323   0.578   2.806   1.573  1.0906 -0.6775  0.0989
  669SOL    HW1 4324   0.582   2.735   1.508  0.7749 -0.6920  0.0921
  669SOL    HW2 4325   0.485   2.812   1.595  0.7478  1.1733 -1.5178
  670SOL     OW 4326   4.693   0.451  10.145 -0.2418  0.1858  0.0180
  670SOL    HW1 4327   4.619   0.450  10.085 -0.6601 -2.1169  0.5034
  670SOL    HW2 4328   4.661   0.409  10.225  1.2176  0.3265  0.7228
  671SOL     OW 4329   2.287   4.642   8.156 -0.4284  0.4879  0.3966
  671SOL    HW1 4330   2.258   4.730   8.132 -1.1822  0.9567  2.7360
  671SOL    HW2 4331   2.380   4.640   8.134 -0.2424  2.1149  0.8994
  672SOL     OW 4332   1.054   7.280  10.396  0.0956  0.0472 -0.5793
  672SOL    HW1 4333   1.112   7.350  10.428  1.0456 -0.8336 -0.3447
  672SOL    HW2 4334   1.021   7.238  10.476  0.2772 -0.3861 -0.7336
  673SOL     OW 4335   2.496   6.402   8.855  0.1065 -0.5860  1.0060
  673SOL    HW1 4336   2.452   6.360   8.781  0.0837 -0.3805  0.9036
  673SOL    HW2 4337   2.424   6.440   8.907  0.1418 -0.5005  0.9926
  674SOL     OW 4338   6.376   2.544   8.319  0.0402  0.2048  1.1947
  674SOL    HW1 4339   6.390   2.470   8.260  0.8651  0.6530  0.8094
  674SOL    HW2 4340   6.284   2.567   8.308 -0.1572 -0.6089  1.1360
  675SOL     OW 4341   4.094   5.083   9.651  0.7338  0.3265 -0.0550
  675SOL    HW1 4342   4.172   5.136   9.665  0.9669 -0.1067  0.3276
  675SOL    HW2 4343   4.128   5.000   9.615  0.6823 -0.6387  1.9660
  676SOL     OW 4344   7.324   2.485   8.114 -0.0198  0.2804 -0.3102
  676SOL    HW1 4345   7.339   2.548   8.044  3.1869 -0.0425 -0.0763
  676SOL    HW2 4346   7.333   2.537   8.195 -2.3794  0.3975 -0.0579
  677SOL     OW 4347   4.121   9.579   8.151 -0.2176  0.1538 -0.2209
  677SOL    HW1 4348   4.040   9.591   8.102 -0.8272  1.3299  1.0240
  677SOL    HW2 4349   4.150   9.668   8.173 -0.5456 -0.3082  2.4553
  678SOL     OW 4350   0.008   2.718   8.820  0.8342 -0.4687  0.8994
  678SOL    HW1 4351   0.075   2.700   8.886  0.9241 -1.2521  0.6007
  678SOL    HW2 4352   0.028   2.659   8.748  0.6367  0.2561  0.2283
  679SOL     OW 4353   9.313   4.974   6.529 -0.0026 -0.4960 -0.5576
  679SOL    HW1 4354   9.236   5.015   6.490 -0.6414  0.3534  1.4338
  679SOL    HW2 4355   9.300   4.880   6.516 -2.4831 -0.5376  1.4622
  680SOL     OW 4356   8.075   1.305   0.717  0.0489  0.2045  0.5145
  680SOL    HW1 4357   8.061   1.232   0.657  1.6132 -1.2992  1.8633
  680SOL    HW2 4358   8.054   1.383   0.666 -1.8323 -1.1672 -0.9379
  681SOL     OW 4359   5.144  10.585   7.598 -0.1542 -0.1786  0.2679
  681SOL    HW1 4360   5.087  10.652   7.561 -0.9214  0.1105  1.8843
  681SOL    HW2 4361   5.188  10.628   7.671  0.2227 -1.1178  0.6125
  682SOL     OW 4362   5.766   6.055   6.423  0.5539  0.4421  0.9749
  682SOL    HW1 4363   5.726   6.003   6.493  0.0113  1.2690  1.2988
  682SOL    HW2 4364   5.838   6.100   6.466  1.7454 -0.8819  0.4383
  683SOL     OW 4365   7.876   2.277   0.614  0.3482  0.7878  0.4604
  683SOL    HW1 4366   7.840   2.236   0.693 -0.9350  1.9349  0.5057
  683SOL    HW2 4367   7.897   2.366   0.642  0.7797  0.9160 -0.2642
  684SOL     OW 4368   6.596   5.629   8.675 -0.2461  0.1306  0.4736
  684SOL    HW1 4369   6.589   5.643   8.770  0.0104 -1.5126  0.7578
  684SOL    HW2 4370   6.633   5.541   8.666  0.4593  0.5617 -1.1612
  685SOL     OW 4371   2.017   8.415   4.569  0.0037  0.3717 -0.1485
  685SOL    HW1 4372   2.025   8.364   4.649 -0.1042 -0.9264 -0.9422
  685SOL    HW2 4373   1.975   8.497   4.596 -0.6900 -0.3464  1.0027
  686SOL     OW 4374   7.276   9.439   2.523  0.1579  0.3292 -0.0812
  686SOL    HW1 4375   7.356   9.398   2.556 -0.3214  0.1237  0.8687
  686SOL    HW2 4376   7.306   9.513   2.471  1.0207 -0.8455 -1.3117
  687SOL     OW 4377   8.932   3.698   0.888 -0.6091  0.1637  0.0529
  687SOL    HW1 4378   8.988   3.731   0.818 -2.4241  2.1540 -0.5498
  687SOL    HW2 4379   8.844   3.723   0.862 -1.9010 -3.0866  0.8294
  688SOL     OW 4380   6.246  10.561   5.744  0.0139 -0.6850 -0.0687
  688SOL    HW1 4381   6.240  10.484   5.802  0.6349 -0.2830  0.5417
  688SOL    HW2 4382   6.338  10.563   5.717 -0.1912 -0.6560 -0.7952
  689SOL     OW 4383   2.817   8.759   8.480 -0.3551 -0.1441  0.4057
  689SOL    HW1 4384   2.865   8.842   8.477 -0.5840  0.0278  1.1281
  689SOL    HW2 4385   2.823   8.732   8.572  0.3852 -1.3367  0.0315
  690SOL     OW 4386   1.461   9.045   9.690 -0.5776 -0.3475  0.7906
  690SOL    HW1 4387   1.549   9.049   9.726 -0.3618 -0.1481  0.2448
  690SOL    HW2 4388   1.455   9.119   9.630 -1.2518 -0.1236  1.1144
  691SOL     OW 4389   3.598   5.857  10.461 -0.2593 -0.4544 -0.2342
  691SOL    HW1 4390   3.619   5.921  10.393  0.0221 -0.9476 -0.6238
  691SOL    HW2 4391   3.666   5.790  10.451 -0.2941 -0.5946  0.4505
  692SOL     OW 4392   0.069  10.235   9.228 -0.0651 -0.6856 -0.1480
  692SOL    HW1 4393   0.136  10.172   9.255  1.0772  1.4752  2.4788
  692SOL    HW2 4394   0.114  10.320   9.229 -2.3163  0.5969 -0.4556
  693SOL     OW 4395   9.507   7.804   4.444  0.1770 -0.9940  0.5396
  693SOL    HW1 4396   9.594   7.818   4.483 -0.6551  0.0882  2.1571
  693SOL    HW2 4397   9.448   7.801   4.519 -1.1820 -1.8455 -0.5211
  694SOL     OW 4398   0.837   0.073   3.081  0.5534 -0.2843  0.1383
  694SOL    HW1 4399   0.826   0.142   3.016  0.5826 -0.4680 -0.0591
  694SOL    HW2 4400   0.749   0.036   3.091 -0.0058  1.3324  1.9719
  695SOL     OW 4401   7.751   9.486   4.568 -0.9327 -0.0348 -0.7147
  695SOL    HW1 4402   7.680   9.426   4.593 -1.1325 -0.0971 -1.3936
  695SOL    HW2 4403   7.743   9.494   4.473  0.4054 -0.5897 -0.9004
  696SOL     OW 4404   2.685   7.507   9.976 -0.0677 -0.6151  0.0303
  696SOL    HW1 4405   2.602   7.500  10.023  0.1622  0.5797  0.6531
  696SOL    HW2 4406   2.751   7.518  10.045  0.4972 -0.6601 -0.4908
  697SOL     OW 4407   4.001   9.400   0.296  0.0377  0.6550 -0.4068
  697SOL    HW1 4408   3.994   9.309   0.323  2.4536  0.2543 -0.8458
  697SOL    HW2 4409   3.911   9.430   0.285 -0.9694 -0.5259  3.3622
  698SOL     OW 4410   8.899   3.458   8.296 -0.4567 -0.3405 -0.4912
  698SOL    HW1 4411   8.811   3.466   8.259 -0.3721 -0.7772 -0.7833
  698SOL    HW2 4412   8.898   3.376   8.345 -0.1064 -0.5227 -0.7839
  699SOL     OW 4413   9.233   5.558   4.191  0.4163 -0.1537  0.4051
  699SOL    HW1 4414   9.315   5.568   4.237  0.5135  0.9324  0.0471
  699SOL    HW2 4415   9.245   5.483   4.134  1.6004  0.6978 -0.5090
  700SOL     OW 4416   7.508   1.268   3.308 -0.1900  0.4332  0.3277
  700SOL    HW1 4417   7.522   1.194   3.367 -0.8403 -0.3872 -0.5131
  700SOL    HW2 4418   7.473   1.337   3.364 -1.4157 -0.5418  0.8123
  701SOL     OW 4419   7.639   0.403   7.554 -0.0632 -0.0099 -0.2085
  701SOL    HW1 4420   7.609   0.492   7.573  0.7233  0.3408 -0.5612
  701SOL    HW2 4421   7.727   0.399   7.591  0.5894 -0.0692 -1.6953
  702SOL     OW 4422   7.271   0.447   0.425  0.0372 -0.3043  0.5035
  702SOL    HW1 4423   7.342   0.465   0.487  0.2465 -0.8955  0.4508
  702SOL    HW2 4424   7.259   0.352   0.430  1.2803 -0.6431 -1.6609
  703SOL     OW 4425   5.739   2.753   4.187 -0.1630 -0.1316  0.5216
  703SOL    HW1 4426   5.651   2.756   4.225 -0.1619 -0.5425  0.5582
  703SOL    HW2 4427   5.777   2.672   4.220 -0.0847 -0.3906 -0.1822
  704SOL     OW 4428   7.793   7.045   5.383 -0.2985  0.6533 -0.0558
  704SOL    HW1 4429   7.748   6.979   5.330 -0.5190  1.1561 -0.5083
  704SOL    HW2 4430   7.728   7.071   5.449 -0.7852  1.5904 -0.8904
  705SOL     OW 4431   5.270   4.753   7.974  0.0479 -0.0049 -0.3205
  705SOL    HW1 4432   5.220   4.758   8.055 -0.0730  0.5846 -0.4266
  705SOL    HW2 4433   5.204   4.745   7.905  0.1789 -1.5938 -0.2953
  706SOL     OW 4434   5.842   4.094   7.748 -0.2984  0.0386  0.6100
  706SOL    HW1 4435   5.896   4.040   7.806 -1.1216 -0.8822  0.5584
  706SOL    HW2 4436   5.801   4.158   7.807 -0.3304 -0.2405  0.8979
  707SOL     OW 4437   0.355  10.072   3.552 -0.3453  0.0236  0.7386
  707SOL    HW1 4438   0.266  10.055   3.583 -0.9616  1.9972  0.1618
  707SOL    HW2 4439   0.411  10.020   3.609 -1.8160 -0.7983  1.4869
  708SOL     OW 4440   1.364   6.709   6.638 -0.5319  0.1002  0.4014
  708SOL    HW1 4441   1.281   6.704   6.590 -0.2537  2.2026 -0.3947
  708SOL    HW2 4442   1.374   6.802   6.660  0.8050 -0.3604  1.9745
  709SOL     OW 4443   7.733   9.206   6.829 -0.2418  0.6363  0.0457
  709SOL    HW1 4444   7.784   9.270   6.780  0.1727 -1.3438 -2.3365
  709SOL    HW2 4445   7.666   9.258   6.875  1.3174  2.8922 -0.0661
  710SOL     OW 4446   7.956   5.046   8.072 -0.1453  0.2971  0.0282
  710SOL    HW1 4447   7.899   4.973   8.094  0.6815  0.2665  2.2948
  710SOL    HW2 4448   8.026   5.007   8.020 -0.0302 -0.4329  0.7132
  711SOL     OW 4449   8.624   2.504   5.577 -0.3575 -0.4383 -0.2791
  711SOL    HW1 4450   8.697   2.456   5.537  1.8352  0.7481  1.9853
  711SOL    HW2 4451   8.613   2.581   5.521  1.0487 -0.0083 -0.0298
  712SOL     OW 4452   8.694   5.090   9.104  0.3250 -0.5318 -0.1977
  712SOL    HW1 4453   8.784   5.070   9.129  0.9661  0.7711 -1.3207
  712SOL    HW2 4454   8.668   5.161   9.162 -0.5763 -1.9304  1.1848
  713SOL     OW 4455   0.390   9.428   6.219 -0.0357 -0.1244  0.2006
  713SOL    HW1 4456   0.335   9.504   6.201 -1.0935 -0.7542  0.6672
  713SOL    HW2 4457   0.328   9.356   6.233  0.9338 -1.1330 -0.4609
  714SOL     OW 4458   9.745   3.045   3.046 -0.0106  0.4077 -0.4120
  714SOL    HW1 4459   9.819   3.061   2.989  0.5469 -0.6631 -0.0194
  714SOL    HW2 4460   9.683   2.995   2.991 -1.4267  3.0625 -1.4077
  715SOL     OW 4461   7.560   9.755   3.812  0.1996  0.0169 -0.0575
  715SOL    HW1 4462   7.609   9.824   3.857 -0.7452  0.4030  0.4287
  715SOL    HW2 4463   7.626   9.705   3.764  0.9649  0.9742 -0.0393
  716SOL     OW 4464  10.178   9.353   1.148 -0.0468  0.3907 -0.4039
  716SOL    HW1 4465  10.187   9.391   1.061 -1.6702  2.6701  0.3149
  716SOL    HW2 4466  10.206   9.262   1.139  0.2056  0.6829 -3.1819
  717SOL     OW 4467   6.690   1.631   9.132 -0.2380 -0.5747 -0.1080
  717SOL    HW1 4468   6.658   1.586   9.054 -2.0656  0.3197  0.0690
  717SOL    HW2 4469   6.749   1.698   9.098 -0.8113 -0.3656 -0.7124
  718SOL     OW 4470   0.483   7.098   1.812  0.5133 -0.0638 -0.4157
  718SOL    HW1 4471   0.458   7.036   1.743  0.9391 -0.6899 -0.0267
  718SOL    HW2 4472   0.460   7.184   1.778 -0.2752 -0.4563 -0.8946
  719SOL     OW 4473   3.948   8.225   1.077  0.6256 -0.1085  0.3142
  719SOL    HW1 4474   3.904   8.140   1.078 -0.5016  0.4340 -0.4684
  719SOL    HW2 4475   3.939   8.255   0.987  0.8297  0.9224  0.6243
  720SOL     OW 4476   9.669   4.944   0.950  0.0270 -0.1598 -0.0681
  720SOL    HW1 4477   9.764   4.941   0.942  0.2212  1.3633  1.2112
  720SOL    HW2 4478   9.652   5.019   1.006 -1.9266 -0.6370  0.0497
  721SOL     OW 4479   3.374   3.901   6.773 -0.3357 -0.3228  0.0753
  721SOL    HW1 4480   3.459   3.930   6.740 -0.0059  0.5077  1.5599
  721SOL    HW2 4481   3.357   3.819   6.727  0.2649  0.5687 -1.7985
  722SOL     OW 4482   5.491   5.528   2.191 -0.3864  0.2551 -0.3030
  722SOL    HW1 4483   5.396   5.519   2.177 -0.2360 -0.0995 -1.1200
  722SOL    HW2 4484   5.513   5.611   2.149 -0.4004  0.5470  0.2572
  723SOL     OW 4485   1.551   5.905   8.396 -0.0022 -0.4395 -0.6627
  723SOL    HW1 4486   1.526   5.897   8.488 -1.2141 -0.8895 -1.0196
  723SOL    HW2 4487   1.566   5.815   8.367  0.0176 -0.3257 -1.0121
  724SOL     OW 4488   9.923   0.854   4.171 -0.4929 -0.0778 -0.1285
  724SOL    HW1 4489   9.859   0.868   4.240 -0.0658  1.3535  0.0101
  724SOL    HW2 4490  10.007   0.848   4.217 -0.2304  0.6960 -0.4773
  725SOL     OW 4491  10.062   7.982   0.552 -0.0041 -0.7094  0.1925
  725SOL    HW1 4492  10.107   8.014   0.630 -1.1553  1.1957  0.1668
  725SOL    HW2 4493   9.971   7.968   0.580 -1.5123  3.8366 -1.4468
  726SOL     OW 4494   5.828   5.029   6.779 -0.0690 -0.4939  0.6242
  726SOL    HW1 4495   5.738   5.062   6.772 -0.3478 -0.9033  1.8711
  726SOL    HW2 4496   5.846   4.988   6.695 -1.2308 -0.8227  0.5208
  727SOL     OW 4497   2.459   8.124   8.205  0.0888  0.7552  0.1265
  727SOL    HW1 4498   2.433   8.159   8.120 -0.2259  0.1095 -0.0516
  727SOL    HW2 4499   2.388   8.063   8.228 -0.1022  1.3339  1.1011
  728SOL     OW 4500   0.972  10.068   6.941 -0.0303 -0.1922 -0.0299
  728SOL    HW1 4501   0.990  10.123   7.017 -0.0015 -0.1312 -0.0806
  728SOL    HW2 4502   1.039  10.092   6.877  0.4062 -0.7775  0.2019
  729SOL     OW 4503   0.110  10.495   9.736 -0.2013  0.7898 -0.6455
  729SOL    HW1 4504   0.074  10.578   9.764  1.2815  0.9911  0.8107
  729SOL    HW2 4505   0.035  10.435   9.735 -1.2682  2.0668 -1.6222
  730SOL     OW 4506   4.965  10.292   7.575 -0.1577 -0.4213  0.4989
  730SOL    HW1 4507   4.898  10.313   7.640 -0.5894  0.0307 -0.0990
  730SOL    HW2 4508   5.010  10.374   7.559 -0.8942 -0.2383 -0.7364
  731SOL     OW 4509   2.110   1.437   5.282 -0.1705 -0.8571 -0.2214
  731SOL    HW1 4510   2.179   1.385   5.242  1.1195  1.0788 -0.6245
  731SOL    HW2 4511   2.049   1.454   5.211  0.4025 -0.2149 -0.5656
  732SOL     OW 4512   6.089   9.457   3.480 -0.2743  0.3543 -0.1597
  732SOL    HW1 4513   6.090   9.539   3.528  1.0031  0.0916  0.3073
  732SOL    HW2 4514   6.153   9.402   3.525  0.4179 -0.1683 -1.7095
  733SOL     OW 4515   0.655   9.086   1.904 -0.3696  0.3349 -0.1489
  733SOL    HW1 4516   0.706   9.011   1.934  1.9542  0.7043 -2.7334
  733SOL    HW2 4517   0.716   9.159   1.906 -1.9297  1.6906  0.1776
  734SOL     OW 4518   8.084   2.764   6.211 -0.5275  0.0964 -0.5023
  734SOL    HW1 4519   8.089   2.841   6.268 -0.7550  1.2227 -1.9385
  734SOL    HW2 4520   8.149   2.781   6.144 -1.2487 -0.5065 -1.3700
  735SOL     OW 4521   8.332   0.432   1.580 -0.2827  0.1580  0.3746
  735SOL    HW1 4522   8.364   0.383   1.504 -1.2407  0.5166 -0.2839
  735SOL    HW2 4523   8.349   0.523   1.557 -1.3378  0.3196  0.2146
  736SOL     OW 4524  10.143   5.325   2.409 -0.6379 -0.3763  0.3622
  736SOL    HW1 4525  10.106   5.311   2.322  1.1439 -1.1845 -0.3074
  736SOL    HW2 4526  10.205   5.397   2.397  0.0845 -0.9174  0.8052
  737SOL     OW 4527   4.075   2.368   7.247 -0.2469  0.2521  0.6600
  737SOL    HW1 4528   3.989   2.410   7.258 -0.5998 -0.2608 -0.0328
  737SOL    HW2 4529   4.092   2.327   7.332 -1.0855 -0.3397  0.5572
  738SOL     OW 4530   2.045   0.319   6.294 -0.0976 -0.6079  0.4745
  738SOL    HW1 4531   2.008   0.407   6.286  1.1297 -0.1931 -1.2119
  738SOL    HW2 4532   2.134   0.327   6.261  0.0412 -2.4807  0.2860
  739SOL     OW 4533   0.846   4.023   7.259 -0.0761  0.2955 -0.1589
  739SOL    HW1 4534   0.939   4.029   7.236 -0.2330  3.1183 -0.4303
  739SOL    HW2 4535   0.837   4.076   7.338 -1.3609 -0.4234  0.1950
  740SOL     OW 4536  10.535   0.061   5.498 -0.1341  0.3503  0.0448
  740SOL    HW1 4537  10.574   0.087   5.415  0.6306 -0.9752 -0.0270
  740SOL    HW2 4538  10.523   0.143   5.546 -0.0105  1.0597 -1.1186
  741SOL     OW 4539   0.477   3.183   2.769 -0.2308  0.1607 -0.0934
  741SOL    HW1 4540   0.553   3.223   2.726  0.6799  1.2037  2.2936
  741SOL    HW2 4541   0.461   3.240   2.845 -0.8951 -2.2443  1.6705
  742SOL     OW 4542   0.485   0.865  10.286 -0.1410  0.5755 -0.4294
  742SOL    HW1 4543   0.535   0.944  10.263  0.6727  0.4211  0.7168
  742SOL    HW2 4544   0.495   0.857  10.380 -1.9956  0.2739 -0.2246
  743SOL     OW 4545  10.228   6.067   4.051 -0.5423 -0.3168  0.3303
  743SOL    HW1 4546  10.251   6.127   3.981  1.4712 -1.4192 -0.0057
  743SOL    HW2 4547  10.218   5.982   4.008 -0.6362 -0.7507  1.1914
  744SOL     OW 4548   0.308   3.710   5.262  0.0773  0.4304  0.1790
  744SOL    HW1 4549   0.214   3.727   5.261 -0.0992 -0.1447  2.0286
  744SOL    HW2 4550   0.315   3.615   5.261  0.6804  0.4765 -0.6970
  745SOL     OW 4551   2.153   1.013   4.441  0.0287 -0.4102  0.3504
  745SOL    HW1 4552   2.067   1.056   4.433 -0.0369 -0.5087  0.5123
  745SOL    HW2 4553   2.189   1.047   4.523  0.7582  0.7050 -0.4082
  746SOL     OW 4554   6.592   0.219   5.473 -0.2747  0.0301 -0.7983
  746SOL    HW1 4555   6.528   0.152   5.451  0.5230 -0.7782 -0.7081
  746SOL    HW2 4556   6.676   0.182   5.446  0.2983  0.5553  0.2036
  747SOL     OW 4557   4.727   2.159   2.707  0.0279 -0.2463  0.0280
  747SOL    HW1 4558   4.798   2.220   2.727  2.0690 -2.3342 -0.4150
  747SOL    HW2 4559   4.740   2.137   2.615 -1.2368 -0.6649 -0.0723
  748SOL     OW 4560   5.246   6.421   0.105  0.0432  0.0701 -0.4011
  748SOL    HW1 4561   5.305   6.495   0.091  0.2375  0.5745  2.4455
  748SOL    HW2 4562   5.165   6.461   0.137 -0.4371 -0.8441 -0.4499
  749SOL     OW 4563   0.219   8.610  10.090 -0.2192  0.2158 -0.0558
  749SOL    HW1 4564   0.264   8.642  10.011  0.1653 -0.3391 -0.0623
  749SOL    HW2 4565   0.289   8.592  10.152 -0.3925 -1.0677 -0.2128
  750SOL     OW 4566   3.533   2.225   6.178  0.3061 -0.5622  0.0575
  750SOL    HW1 4567   3.610   2.278   6.158  0.1492 -0.4156 -0.1737
  750SOL    HW2 4568   3.564   2.135   6.177  0.9222 -0.4277  1.9871
  751SOL     OW 4569   3.815   5.535   1.371  0.6917  0.5772 -0.6403
  751SOL    HW1 4570   3.775   5.463   1.322  1.6005 -0.3991 -0.0029
  751SOL    HW2 4571   3.867   5.492   1.439  0.3327  1.8688  0.5106
  752SOL     OW 4572   0.165   4.947   5.465 -0.1275  0.4802 -0.1098
  752SOL    HW1 4573   0.075   4.917   5.470  0.1755 -0.7760 -1.5233
  752SOL    HW2 4574   0.161   5.040   5.487 -1.4822  0.0370  1.6984
  753SOL     OW 4575   0.521   3.347   0.784  0.8344 -0.1234 -0.5972
  753SOL    HW1 4576   0.537   3.315   0.695 -0.2611 -0.0412 -0.8333
  753SOL    HW2 4577   0.443   3.401   0.776 -0.1093 -1.2390  0.6517
  754SOL     OW 4578   5.294   6.982  10.267 -0.4344 -0.0110 -0.0143
  754SOL    HW1 4579   5.228   7.044  10.299 -0.3913  0.3723 -0.6555
  754SOL    HW2 4580   5.248   6.929  10.202 -0.3118 -0.2689  0.1046
  755SOL     OW 4581   6.763   6.622   4.838 -0.0841 -0.0975 -0.0065
  755SOL    HW1 4582   6.767   6.583   4.750 -3.0337 -1.2765  0.2788
  755SOL    HW2 4583   6.671   6.646   4.850  0.0612 -0.6488  3.0390
  756SOL     OW 4584   2.187   5.785   5.662  0.2719 -0.4602  0.1628
  756SOL    HW1 4585   2.270   5.799   5.707  0.8973 -1.2498 -0.7120
  756SOL    HW2 4586   2.130   5.855   5.694  2.2305  2.1603 -1.6716
  757SOL     OW 4587   6.347   0.239   1.718  0.5571  0.4888 -0.1184
  757SOL    HW1 4588   6.407   0.306   1.685  0.4745  0.0927 -1.0995
  757SOL    HW2 4589   6.292   0.217   1.643 -1.0135  1.0421  0.8166
  758SOL     OW 4590   9.238  10.014   8.803  0.2844 -0.1302 -0.4300
  758SOL    HW1 4591   9.271   9.932   8.767  1.3181 -0.0449  0.2741
  758SOL    HW2 4592   9.192  10.055   8.730 -0.0393 -1.2178 -0.8568
  759SOL     OW 4593   4.863   9.236  10.425 -0.4283 -0.1708 -0.5122
  759SOL    HW1 4594   4.927   9.294  10.465 -1.0088 -0.1848  0.4647
  759SOL    HW2 4595   4.787   9.291  10.408 -0.4405 -0.3221 -0.9773
  760SOL     OW 4596   4.065   7.449   2.791  0.6247 -0.1292 -0.1552
  760SOL    HW1 4597   4.085   7.521   2.730 -1.4202  1.3356  0.7850
  760SOL    HW2 4598   4.145   7.439   2.843  0.5457  2.4631  0.6087
  761SOL     OW 4599   9.825   5.279   1.991  0.4275  0.1839 -0.1853
  761SOL    HW1 4600   9.862   5.194   2.013 -1.9774 -1.4022 -1.7995
  761SOL    HW2 4601   9.788   5.268   1.904 -0.6435  2.6665 -0.1514
  762SOL     OW 4602   2.093   0.152   9.338 -0.0545 -0.1581 -0.2137
  762SOL    HW1 4603   2.067   0.211   9.409  0.4503 -0.6556  0.3870
  762SOL    HW2 4604   2.070   0.200   9.258 -2.2722 -0.3070  0.2592
  763SOL     OW 4605  10.135   5.772   3.267  0.1346  0.1071 -0.1860
  763SOL    HW1 4606  10.085   5.768   3.349  0.3611  0.8165 -0.0036
  763SOL    HW2 4607  10.069   5.789   3.199 -0.2314 -1.7975 -0.3516
  764SOL     OW 4608   6.165   8.418   7.828  0.4599 -0.3295 -0.1117
  764SOL    HW1 4609   6.158   8.478   7.903 -1.9416 -0.0171 -0.4991
  764SOL    HW2 4610   6.245   8.445   7.784  0.9679  0.6716  1.3323
  765SOL     OW 4611   8.506   7.149   6.296 -0.0067 -0.1015  0.0619
  765SOL    HW1 4612   8.516   7.054   6.294 -0.0621 -0.1122  0.3360
  765SOL    HW2 4613   8.574   7.179   6.355  0.7164  0.1219 -0.8512
  766SOL     OW 4614  10.570   2.033   4.095  0.1676  0.2610 -0.4966
  766SOL    HW1 4615  10.496   2.092   4.107 -0.1991 -0.1498 -0.7225
  766SOL    HW2 4616  10.626   2.077   4.031  2.4119  2.7566  2.8407
  767SOL     OW 4617   6.351   0.624   4.845 -0.6186  0.4020  0.0328
  767SOL    HW1 4618   6.381   0.659   4.928  0.2516 -0.4242  0.0763
  767SOL    HW2 4619   6.375   0.691   4.781  0.0274  0.3924  0.2576
  768SOL     OW 4620   0.911   0.738   3.604 -0.5321  0.7512  0.5988
  768SOL    HW1 4621   0.941   0.647   3.607  0.0909  0.9443  0.4669
  768SOL    HW2 4622   0.882   0.751   3.514 -1.0269  0.5571  0.7311
  769SOL     OW 4623   2.764   7.593   6.931 -0.6097 -0.5337  0.4578
  769SOL    HW1 4624   2.839   7.582   6.873  0.0235  1.3960  0.8453
  769SOL    HW2 4625   2.776   7.526   6.999 -0.4263 -1.6520 -0.6357
  770SOL     OW 4626   0.691   9.471   8.559 -0.5665 -0.6249 -0.1708
  770SOL    HW1 4627   0.736   9.500   8.638  1.2147  1.3028 -1.7829
  770SOL    HW2 4628   0.730   9.385   8.540  2.4921  0.8865 -1.3976
  771SOL     OW 4629   9.826   2.373   7.377  0.5106 -0.3929 -0.2811
  771SOL    HW1 4630   9.859   2.450   7.423  1.0453 -0.8327  0.0879
  771SOL    HW2 4631   9.905   2.326   7.349  0.1891 -0.7603 -0.5774
  772SOL     OW 4632   6.938   3.384   6.094 -0.0101 -0.0781  0.3502
  772SOL    HW1 4633   6.863   3.326   6.105 -1.2936  1.6668  1.1592
  772SOL    HW2 4634   6.936   3.409   6.002 -0.5344  0.1106  0.4114
  773SOL     OW 4635   3.023   0.859   9.114 -0.3728  0.2045  0.0064
  773SOL    HW1 4636   2.967   0.906   9.053 -1.2010  0.2678  0.7861
  773SOL    HW2 4637   3.007   0.901   9.199 -1.5179 -1.7411  0.8210
  774SOL     OW 4638   6.782   7.283   6.998  0.0577  0.2113 -0.4282
  774SOL    HW1 4639   6.802   7.292   6.905 -1.2900  0.3834 -0.7320
  774SOL    HW2 4640   6.783   7.372   7.032 -0.3367  0.2462 -0.4954
  775SOL     OW 4641   2.478   4.547   1.758  0.4220  0.4187 -0.0546
  775SOL    HW1 4642   2.455   4.635   1.789 -1.2837  0.0754 -0.2779
  775SOL    HW2 4643   2.544   4.563   1.690  0.4760  1.4908  0.2291
  776SOL     OW 4644   4.228   9.865   1.405 -0.3326  0.2229 -0.4393
  776SOL    HW1 4645   4.226   9.932   1.473 -0.4360  0.9960 -1.1942
  776SOL    HW2 4646   4.138   9.833   1.400 -0.6848  1.3251 -1.3409
  777SOL     OW 4647   1.944   1.569   1.663  0.7509 -0.0250 -0.2261
  777SOL    HW1 4648   1.980   1.481   1.655  1.3745  0.2114 -0.1284
  777SOL    HW2 4649   1.990   1.607   1.738 -0.2564  0.0357  0.3828
  778SOL     OW 4650   8.100   0.477   7.566  0.3316  0.2123  0.7312
  778SOL    HW1 4651   8.115   0.561   7.609 -0.1004  0.0429  1.2120
  778SOL    HW2 4652   8.179   0.464   7.513  0.3329  0.9901  0.5294
  779SOL     OW 4653   2.034   3.865   2.795 -0.3245 -0.0896 -0.4497
  779SOL    HW1 4654   1.988   3.864   2.712 -0.7322  0.7559 -0.2462
  779SOL    HW2 4655   1.980   3.921   2.852 -0.6043 -1.4898  0.7060
  780SOL     OW 4656   5.490   1.729   2.215  0.6659  0.0373  0.3393
  780SOL    HW1 4657   5.493   1.805   2.156 -0.7575  1.1200  1.5852
  780SOL    HW2 4658   5.556   1.747   2.282 -0.0359  0.4626  0.9319
  781SOL     OW 4659   0.694   1.833   4.536 -0.0661 -0.3751  0.3024
  781SOL    HW1 4660   0.771   1.793   4.496 -0.0923 -0.0682 -0.0632
  781SOL    HW2 4661   0.706   1.927   4.521 -2.0202 -0.4654 -2.5841
  782SOL     OW 4662   6.558   4.257   1.791  0.2815 -0.4556 -0.2446
  782SOL    HW1 4663   6.637   4.293   1.753  0.5774 -1.5295 -0.6996
  782SOL    HW2 4664   6.497   4.249   1.717 -0.2369  0.3260  0.0938
  783SOL     OW 4665   3.734  10.208   7.244 -0.8906 -0.0083 -0.1865
  783SOL    HW1 4666   3.780  10.132   7.278 -1.6714  0.2123  1.4940
  783SOL    HW2 4667   3.642  10.182   7.244 -1.0182  0.4068 -1.0971
  784SOL     OW 4668   1.584   7.755   3.194 -0.0029  0.2218 -0.3337
  784SOL    HW1 4669   1.673   7.768   3.162  0.9714 -1.9635  1.2542
  784SOL    HW2 4670   1.529   7.799   3.129  2.2224  2.4484 -0.8762
  785SOL     OW 4671  10.066   1.233   6.821  0.0397  0.0031 -0.1555
  785SOL    HW1 4672   9.987   1.241   6.767 -0.1338  0.2019  0.1285
  785SOL    HW2 4673  10.134   1.205   6.759 -0.3580 -0.6294 -0.3137
  786SOL     OW 4674   2.376   2.321   0.185  0.4133  0.5515  0.2792
  786SOL    HW1 4675   2.283   2.316   0.205  0.7951  0.8697  2.2834
  786SOL    HW2 4676   2.415   2.367   0.259  2.3739 -0.7854  0.1548
  787SOL     OW 4677   2.645   7.991   9.510 -0.3004 -0.1035 -0.1200
  787SOL    HW1 4678   2.592   7.958   9.438 -0.8127  0.3464  0.0450
  787SOL    HW2 4679   2.637   8.086   9.505 -1.7309 -0.0839  1.5514
  788SOL     OW 4680   5.409   8.341   0.325  0.5169  0.1426 -0.3344
  788SOL    HW1 4681   5.372   8.410   0.270  0.3492  0.1915 -0.1608
  788SOL    HW2 4682   5.385   8.259   0.280  0.6776  0.1961 -0.5163
  789SOL     OW 4683   2.975   3.092   5.105  0.4703  0.1577  0.2344
  789SOL    HW1 4684   2.963   3.002   5.075 -1.4185 -0.0523  1.4187
  789SOL    HW2 4685   3.015   3.137   5.031  2.5089 -1.8756 -0.0067
  790SOL     OW 4686   0.514   3.034   7.092  0.1430  0.1574 -0.0947
  790SOL    HW1 4687   0.563   2.983   7.156  0.1692 -1.1912 -1.1527
  790SOL    HW2 4688   0.484   3.110   7.141  2.8075  0.7808  0.7243
  791SOL     OW 4689   8.228   0.174   4.244 -0.2442  0.2621  0.3659
  791SOL    HW1 4690   8.242   0.156   4.337 -0.7385 -0.3454  0.3317
  791SOL    HW2 4691   8.305   0.138   4.200  0.0339  0.6347  0.5463
  792SOL     OW 4692   6.578   9.912   7.058  0.4827 -0.1884  0.0564
  792SOL    HW1 4693   6.649   9.849   7.071 -0.3384 -1.0199  0.6353
  792SOL    HW2 4694   6.498   9.862   7.073 -0.2439  0.7052 -0.6816
  793SOL     OW 4695   9.086   2.898   1.806  0.4881 -0.4255  0.2999
  793SOL    HW1 4696   9.167   2.847   1.805 -0.0889 -1.3824  0.9803
  793SOL    HW2 4697   9.047   2.880   1.892 -0.4923 -0.0500 -0.0528
  794SOL     OW 4698   5.296   7.171   6.218 -0.0603  0.0032  0.3157
  794SOL    HW1 4699   5.337   7.182   6.132 -0.6081 -0.2756  0.0117
  794SOL    HW2 4700   5.361   7.205   6.280 -0.7352  2.8579 -0.3883
  795SOL     OW 4701   5.813   7.966   5.105 -0.6815 -0.1616  0.5724
  795SOL    HW1 4702   5.730   7.993   5.066  1.4552  3.8072 -1.9292
  795SOL    HW2 4703   5.821   8.019   5.185 -0.5661 -0.5221  0.8029
  796SOL     OW 4704   8.980   3.465   0.535 -0.7150  0.7324  1.0250
  796SOL    HW1 4705   8.933   3.434   0.457  0.6051  0.2302  0.3784
  796SOL    HW2 4706   8.962   3.400   0.602  0.3763 -0.3760  0.2819
  797SOL     OW 4707   6.631   1.913   3.590  0.6242 -0.5263 -0.3534
  797SOL    HW1 4708   6.702   1.853   3.567  1.3178 -0.1827  0.8282
  797SOL    HW2 4709   6.554   1.856   3.602  1.1578 -1.1288  0.2618
  798SOL     OW 4710   0.598   8.237   6.357 -0.4467  0.0283 -0.1895
  798SOL    HW1 4711   0.657   8.291   6.409 -0.8364 -0.3879  0.6941
  798SOL    HW2 4712   0.549   8.300   6.303 -3.3202  1.0268  3.1856
  799SOL     OW 4713   7.987   4.998   4.435  0.0008 -0.3573 -0.6274
  799SOL    HW1 4714   8.052   5.011   4.504 -2.0434 -1.2292  1.5895
  799SOL    HW2 4715   7.944   5.083   4.426  0.1564 -0.2868 -0.7081
  800SOL     OW 4716   1.636   3.606   7.968  0.2748 -0.0929  0.0007
  800SOL    HW1 4717   1.629   3.675   7.902  0.1987  0.0670  0.1736
  800SOL    HW2 4718   1.715   3.558   7.945 -0.4146 -0.8102 -0.9289
  801SOL     OW 4719   2.281   0.181   2.623  0.0375  0.1553  0.0817
  801SOL    HW1 4720   2.189   0.202   2.638 -0.3068  1.0138 -2.5927
  801SOL    HW2 4721   2.301   0.111   2.685 -2.3160  0.1342  0.9139
  802SOL     OW 4722  10.071   5.142   1.892 -0.2432 -0.1449 -0.3083
  802SOL    HW1 4723  10.085   5.048   1.905  1.2954 -0.0035 -0.7782
  802SOL    HW2 4724  10.155   5.182   1.915 -1.1740  1.2300  0.8834
  803SOL     OW 4725   8.381   2.319   4.562 -0.2302 -0.1679  0.2722
  803SOL    HW1 4726   8.441   2.245   4.556 -1.2903 -1.0768  0.5453
  803SOL    HW2 4727   8.310   2.288   4.617 -1.5202  0.4777 -0.9574
  804SOL     OW 4728   7.824   8.597   1.488  0.4467  0.2137 -0.0054
  804SOL    HW1 4729   7.797   8.505   1.494 -1.9940  0.9557  1.8474
  804SOL    HW2 4730   7.784   8.629   1.408  1.0075 -0.2258 -0.4706
  805SOL     OW 4731   5.497   5.578   1.146  0.2310 -0.3171 -0.2604
  805SOL    HW1 4732   5.417   5.550   1.191  0.4715 -0.0127  0.3708
  805SOL    HW2 4733   5.558   5.505   1.157  1.2045  0.7630  2.2552
  806SOL     OW 4734   3.828   8.611   5.904 -0.3271 -0.0611  0.3762
  806SOL    HW1 4735   3.812   8.661   5.984  0.1037 -0.9461  1.0313
  806SOL    HW2 4736   3.916   8.574   5.917 -1.1436 -2.0726  0.5130
  807SOL     OW 4737   0.692  10.278   3.772 -0.0477  0.1712 -0.8130
  807SOL    HW1 4738   0.599  10.254   3.774  0.1930 -0.7187  0.0440
  807SOL    HW2 4739   0.702  10.341   3.843  0.0382  0.1494 -0.8065
  808SOL     OW 4740   7.830   1.987   6.736  0.3745  0.2210  0.3749
  808SOL    HW1 4741   7.838   1.940   6.819 -1.1486 -0.7311  0.0209
  808SOL    HW2 4742   7.875   1.931   6.672  2.6853  1.5672  0.7126
  809SOL     OW 4743   9.240   8.476   1.381  0.1319  0.2898  0.0404
  809SOL    HW1 4744   9.175   8.492   1.450  0.8532  0.2457  0.7479
  809SOL    HW2 4745   9.224   8.386   1.353  0.1768  0.1257  0.5340
  810SOL     OW 4746   9.365   0.032   4.669 -0.4622 -0.2848 -0.5835
  810SOL    HW1 4747   9.296   0.032   4.603 -1.2561 -1.6664  0.2054
  810SOL    HW2 4748   9.431   0.091   4.634 -2.0639  1.1557 -1.3268
  811SOL     OW 4749   6.444  10.285   9.848 -0.9739  0.1958  0.1253
  811SOL    HW1 4750   6.466  10.360   9.904 -0.4939  0.1716 -0.0240
  811SOL    HW2 4751   6.480  10.209   9.894 -1.1376  0.1012  0.0978
  812SOL     OW 4752   1.570   0.223   9.029  0.5902  0.2726 -0.4043
  812SOL    HW1 4753   1.632   0.249   9.097  0.6877 -0.6258 -0.1262
  812SOL    HW2 4754   1.494   0.191   9.077 -0.1304  1.4092 -0.7422
  813SOL     OW 4755   6.712   1.399  10.552  0.1803 -0.1229 -0.1399
  813SOL    HW1 4756   6.793   1.427  10.593  0.3857 -0.2523 -0.4537
  813SOL    HW2 4757   6.728   1.408  10.458 -0.4876  0.7317 -0.1843
  814SOL     OW 4758   7.581   1.250   4.001 -0.3214  0.6346  0.7215
  814SOL    HW1 4759   7.620   1.337   4.004 -0.0058  0.5650 -0.6296
  814SOL    HW2 4760   7.651   1.192   4.033 -0.0485  0.7342  0.3113
  815SOL     OW 4761   6.826   5.081   9.290 -0.3765 -0.4238  0.0475
  815SOL    HW1 4762   6.822   4.987   9.305  2.0317 -0.6841 -0.5926
  815SOL    HW2 4763   6.813   5.120   9.376  0.7139 -1.4375  0.7020
  816SOL     OW 4764   7.237   5.980   0.519 -0.0994  0.1658 -0.0606
  816SOL    HW1 4765   7.312   6.037   0.501  1.8196 -2.0273  0.5310
  816SOL    HW2 4766   7.256   5.899   0.472 -2.5950 -0.1514 -0.6570
  817SOL     OW 4767  10.084   9.549   8.487 -0.1748  0.0688  0.6090
  817SOL    HW1 4768  10.091   9.633   8.533  1.2040  0.4251 -0.1902
  817SOL    HW2 4769  10.163   9.544   8.434 -0.3676 -1.6272  0.4205
  818SOL     OW 4770   2.010   1.068   0.187 -0.1891 -0.0279  0.0812
  818SOL    HW1 4771   2.028   1.144   0.131 -1.9334  0.6193  0.3556
  818SOL    HW2 4772   1.957   1.010   0.134 -0.2750 -0.2809  0.4391
  819SOL     OW 4773   8.197   4.581   2.301  0.4744  0.5470 -0.0010
  819SOL    HW1 4774   8.225   4.596   2.211 -1.1705  0.3060 -0.5876
  819SOL    HW2 4775   8.160   4.492   2.300 -1.7297  1.3822  0.2809
  820SOL     OW 4776   4.320   1.745   8.248  0.2805  0.2989  0.3225
  820SOL    HW1 4777   4.363   1.795   8.179  1.2576  0.2132  0.8408
  820SOL    HW2 4778   4.338   1.653   8.226 -0.2696  0.2273  0.1528
  821SOL     OW 4779   0.075   7.855   3.835  0.6029  0.3903  0.7245
  821SOL    HW1 4780   0.120   7.921   3.783 -1.3046  1.8347  0.7841
  821SOL    HW2 4781   0.051   7.902   3.916 -0.7381 -0.3842  0.7934
  822SOL     OW 4782   5.311   1.803   5.851  0.2273  0.9481  0.3340
  822SOL    HW1 4783   5.312   1.866   5.923 -0.1245  1.8757 -0.4620
  822SOL    HW2 4784   5.233   1.750   5.866  0.4007  0.8352  0.8766
  823SOL     OW 4785   4.543   9.614   5.503  0.0587 -0.3500  0.0715
  823SOL    HW1 4786   4.585   9.627   5.418 -1.6341  0.1877 -0.7269
  823SOL    HW2 4787   4.450   9.603   5.482 -0.6695  1.6469  1.9826
  824SOL     OW 4788   0.441   3.314  10.201  0.1269  0.0820 -0.1586
  824SOL    HW1 4789   0.483   3.354  10.125  0.2124 -0.8531 -0.6179
  824SOL    HW2 4790   0.376   3.255  10.164 -0.4335  0.2690  0.5214
  825SOL     OW 4791   5.538   3.853   3.395 -0.0346 -0.0228 -0.4392
  825SOL    HW1 4792   5.515   3.926   3.338  2.1972  0.4396 -0.8267
  825SOL    HW2 4793   5.625   3.825   3.365  1.0526 -0.0252  2.4588
  826SOL     OW 4794   0.504   7.151   4.430 -0.3341 -0.0654 -0.0106
  826SOL    HW1 4795   0.412   7.169   4.410 -0.4970 -1.0741 -0.2102
  826SOL    HW2 4796   0.502   7.078   4.492  0.3720 -2.3200 -2.4381
  827SOL     OW 4797  10.140   8.100   4.125  0.0701 -0.4016 -0.1057
  827SOL    HW1 4798  10.208   8.104   4.193 -0.0663 -3.5064  0.3841
  827SOL    HW2 4799  10.183   8.058   4.050 -0.3371  1.1069 -1.2212
  828SOL     OW 4800   9.036   0.252   6.952  0.5631  0.3534 -0.3345
  828SOL    HW1 4801   9.038   0.343   6.984  0.2618  0.9549 -1.9317
  828SOL    HW2 4802   9.012   0.260   6.860  1.4210 -1.3037 -0.7354
  829SOL     OW 4803   1.033   5.472   6.220  0.1573  0.1727 -0.4705
  829SOL    HW1 4804   1.025   5.529   6.144 -2.3414  1.2801  0.5194
  829SOL    HW2 4805   0.953   5.419   6.220 -0.9035  1.5409  2.3302
  830SOL     OW 4806   1.313  10.525   0.904  0.6200 -0.1543 -0.2703
  830SOL    HW1 4807   1.349  10.495   0.988 -1.2328  0.0713  0.6650
  830SOL    HW2 4808   1.234  10.472   0.892 -0.4487  1.4575 -0.6624
  831SOL     OW 4809   6.415   6.411   2.088  0.2110  0.2131  0.1622
  831SOL    HW1 4810   6.333   6.380   2.051  0.1244 -1.6713  1.7795
  831SOL    HW2 4811   6.482   6.382   2.026 -0.2975  1.9998 -1.3088
  832SOL     OW 4812   8.048   1.364   6.497  0.0967  0.7967  0.4210
  832SOL    HW1 4813   8.076   1.414   6.420 -1.8709 -1.7377 -2.1933
  832SOL    HW2 4814   8.079   1.275   6.479 -0.8580  0.0242  2.3643
  833SOL     OW 4815   3.642  10.375   9.520  0.2363  0.0400 -0.0523
  833SOL    HW1 4816   3.685  10.307   9.468 -1.0580  0.0817 -1.2263
  833SOL    HW2 4817   3.579  10.414   9.461 -0.3754  0.9895  1.1802
  834SOL     OW 4818   7.505   7.205   0.487 -0.5121 -0.3597  0.0460
  834SOL    HW1 4819   7.492   7.150   0.564 -2.5204 -0.3476 -0.2380
  834SOL    HW2 4820   7.464   7.289   0.510 -1.3272 -0.4216 -1.0709
  835SOL     OW 4821   9.656   7.933   6.107  0.2395  0.3008  0.1555
  835SOL    HW1 4822   9.688   7.923   6.196  0.8258 -1.2999 -0.1954
  835SOL    HW2 4823   9.649   7.843   6.074  3.2873  0.8371 -2.4788
  836SOL     OW 4824   5.651   4.150   8.448 -0.1292 -0.0536  0.0961
  836SOL    HW1 4825   5.596   4.121   8.520 -0.8897  1.0470 -0.0099
  836SOL    HW2 4826   5.626   4.241   8.434 -0.3388 -0.3609 -1.8501
  837SOL     OW 4827   0.137   6.219   5.895 -0.1571 -0.4129  0.3249
  837SOL    HW1 4828   0.118   6.311   5.877 -1.8489 -0.6847  0.6235
  837SOL    HW2 4829   0.076   6.193   5.963  0.1875 -1.8095  0.1522
  838SOL     OW 4830   2.369   2.065   0.040 -0.1051  0.5343  0.5251
  838SOL    HW1 4831   2.398   2.123  -0.031 -0.0122 -0.0194  0.1047
  838SOL    HW2 4832   2.400   2.108   0.120  0.1550  0.9526  0.2056
  839SOL     OW 4833   0.813   2.311   2.246 -0.2368 -0.0672  0.2088
  839SOL    HW1 4834   0.750   2.319   2.318  0.2862 -0.7044  0.7494
  839SOL    HW2 4835   0.759   2.313   2.167 -1.0691 -1.8397  0.6933
  840SOL     OW 4836  10.433   4.784   5.239  0.7419  0.3063 -0.3800
  840SOL    HW1 4837  10.445   4.782   5.144 -1.6500 -0.1822 -0.7374
  840SOL    HW2 4838  10.372   4.712   5.257  0.8803  0.5950  1.5067
  841SOL     OW 4839   5.633   9.645   1.948 -1.1814  0.1627 -0.3195
  841SOL    HW1 4840   5.564   9.666   1.885 -0.9558  1.8647 -0.0371
  841SOL    HW2 4841   5.601   9.677   2.032 -1.2730 -1.6587  0.3997
  842SOL     OW 4842   7.951   4.385   3.762  0.9878 -0.1027 -0.6439
  842SOL    HW1 4843   7.976   4.470   3.726  0.8180  0.3414  0.2670
  842SOL    HW2 4844   7.857   4.379   3.744  1.1255 -0.4147 -1.3177
  843SOL     OW 4845   7.347   6.376   6.403  0.4210 -0.2528  0.3512
  843SOL    HW1 4846   7.257   6.371   6.373  0.1155 -0.7307  1.2908
  843SOL    HW2 4847   7.389   6.297   6.370  0.4296 -0.1529  0.1241
  844SOL     OW 4848   5.290   4.144   2.693  0.4288  0.5107 -0.5968
  844SOL    HW1 4849   5.370   4.108   2.656 -0.3525 -0.8825 -1.0342
  844SOL    HW2 4850   5.273   4.089   2.770 -0.3130  0.5291 -0.7424
  845SOL     OW 4851   1.677   5.664   9.725  0.3319 -1.0173  0.3325
  845SOL    HW1 4852   1.672   5.586   9.780  0.2318 -0.4635  1.1196
  845SOL    HW2 4853   1.604   5.655   9.664  0.4993 -1.6811  0.2283
  846SOL     OW 4854   4.294   5.291   3.035 -0.2913 -0.1506 -0.0406
  846SOL    HW1 4855   4.352   5.242   3.093  0.2001  0.1613 -0.2654
  846SOL    HW2 4856   4.206   5.274   3.070 -0.1342 -1.1778 -0.1062
  847SOL     OW 4857   3.317   8.394   6.540 -0.0018  0.4741 -0.2524
  847SOL    HW1 4858   3.323   8.431   6.452  0.3707  1.5091  0.1880
  847SOL    HW2 4859   3.409   8.384   6.567 -0.0992 -0.6944 -0.3207
  848SOL     OW 4860   8.885   0.112   2.494  0.2218 -0.2219  0.1278
  848SOL    HW1 4861   8.934   0.094   2.574  0.5466 -2.1959 -0.4721
  848SOL    HW2 4862   8.869   0.207   2.496  2.5011  0.1925  1.2040
  849SOL     OW 4863   2.565   1.582   5.866 -0.6775  0.2924 -0.0464
  849SOL    HW1 4864   2.603   1.496   5.849  0.6132  1.0386 -1.1334
  849SOL    HW2 4865   2.612   1.614   5.944  1.4336  1.4008 -1.6426
  850SOL     OW 4866  10.142   3.931   5.451  0.3859 -0.1688 -0.5499
  850SOL    HW1 4867  10.101   3.974   5.526  0.0204 -0.3097 -0.6671
  850SOL    HW2 4868  10.212   3.877   5.490 -0.7045 -1.3488 -0.1513
  851SOL     OW 4869  10.038   2.867  10.161  0.6542  0.0309 -0.5321
  851SOL    HW1 4870  10.049   2.926  10.086  0.7170 -0.6751 -1.0943
  851SOL    HW2 4871   9.955   2.823  10.144  1.1099 -0.7980 -0.6683
  852SOL     OW 4872   3.164   5.910   8.219  0.4320  0.0089 -0.6216
  852SOL    HW1 4873   3.116   5.941   8.142  2.0872  2.6671 -0.7184
  852SOL    HW2 4874   3.188   5.820   8.197 -1.8546 -0.3986 -1.8033
  853SOL     OW 4875   7.514   1.519   2.304  0.2529 -0.2246 -0.2576
  853SOL    HW1 4876   7.599   1.554   2.275  0.1199 -0.9181 -1.5430
  853SOL    HW2 4877   7.467   1.596   2.338  0.8852  0.4112 -0.7786
  854SOL     OW 4878   2.428   8.322   2.416  0.4900  0.5250 -0.3073
  854SOL    HW1 4879   2.428   8.267   2.338  1.0909  0.4197 -0.2402
  854SOL    HW2 4880   2.387   8.268   2.484 -1.2916  1.1002 -0.8553
  855SOL     OW 4881   0.214   4.533   1.452 -0.1666  0.5017 -0.1845
  855SOL    HW1 4882   0.252   4.527   1.540 -0.8063 -0.4680  0.0453
  855SOL    HW2 4883   0.289   4.531   1.393  0.2305  0.3782  0.3161
  856SOL     OW 4884   1.036   3.497   8.292  0.2743  0.0953 -0.1203
  856SOL    HW1 4885   0.998   3.429   8.236  0.5448  0.7549 -1.1465
  856SOL    HW2 4886   1.114   3.457   8.330  0.8980  0.0547 -1.3685
  857SOL     OW 4887   9.089   7.506   0.463 -0.0964 -0.7395 -0.6579
  857SOL    HW1 4888   9.066   7.595   0.437  0.4033 -0.4198 -0.0284
  857SOL    HW2 4889   9.165   7.485   0.409  1.2324  0.0977  0.7972
  858SOL     OW 4890   6.213   2.552  10.357 -0.2839  0.3217  0.0573
  858SOL    HW1 4891   6.224   2.460  10.379 -1.4221  0.3590  0.9106
  858SOL    HW2 4892   6.225   2.556  10.263  0.9986 -0.4855  0.1658
  859SOL     OW 4893   0.163   4.844   7.778 -0.2063 -0.2871 -0.5179
  859SOL    HW1 4894   0.100   4.898   7.825 -1.6354 -1.8706 -0.5067
  859SOL    HW2 4895   0.197   4.900   7.708 -0.9658  0.8754  0.0313
  860SOL     OW 4896   5.025   8.047   8.688 -0.2454  0.1763  0.0722
  860SOL    HW1 4897   5.095   8.035   8.624 -0.3922 -0.0544 -0.0469
  860SOL    HW2 4898   4.946   8.018   8.642 -0.7638  2.3443 -0.5346
  861SOL     OW 4899   5.067   2.879   0.435 -0.1652 -0.1382 -0.6002
  861SOL    HW1 4900   5.119   2.853   0.359 -0.5545  0.6110 -1.1368
  861SOL    HW2 4901   5.005   2.943   0.401 -0.6034 -0.0771  0.2782
  862SOL     OW 4902   4.866   0.533   8.252  0.5850  0.2309  0.1134
  862SOL    HW1 4903   4.882   0.563   8.163  0.2804 -1.7921 -0.6675
  862SOL    HW2 4904   4.953   0.517   8.288  0.7121  1.1427  0.2359
  863SOL     OW 4905   7.562   4.648   2.938 -0.0330  0.6202 -0.7432
  863SOL    HW1 4906   7.501   4.586   2.898 -2.0928  1.2695  1.1585
  863SOL    HW2 4907   7.599   4.697   2.865 -3.6894  1.8656 -1.9708
  864SOL     OW 4908   0.356   3.313   9.474 -0.4419  0.2331  0.2031
  864SOL    HW1 4909   0.270   3.333   9.510 -0.7749  0.4844 -0.7153
  864SOL    HW2 4910   0.404   3.396   9.479 -1.1513  0.8014 -1.7346
  865SOL     OW 4911   6.295   8.349   4.668  0.4433  0.3198  0.1890
  865SOL    HW1 4912   6.365   8.284   4.677  1.3347  1.2241 -0.1283
  865SOL    HW2 4913   6.333   8.420   4.617  0.0165  1.8483  1.8978
  866SOL     OW 4914   7.349   9.038   7.884 -0.0722 -0.2393 -0.2460
  866SOL    HW1 4915   7.309   8.962   7.927  0.6820 -0.4338  0.1231
  866SOL    HW2 4916   7.363   9.009   7.793  1.6605 -1.1369  0.2559
  867SOL     OW 4917   4.768   9.196   8.736  0.5613 -0.2446 -0.2704
  867SOL    HW1 4918   4.678   9.222   8.755 -0.0385 -2.3904  0.1691
  867SOL    HW2 4919   4.822   9.271   8.761 -0.9763  0.4218  1.2105
  868SOL     OW 4920   8.926   6.919   1.643  0.0831 -0.1472 -0.4603
  868SOL    HW1 4921   8.985   6.876   1.581  0.3974  0.1926 -0.4046
  868SOL    HW2 4922   8.983   6.943   1.717 -0.1138  0.2323 -0.4299
  869SOL     OW 4923  10.260   7.129   8.606  0.3711 -0.5578  0.1883
  869SOL    HW1 4924  10.229   7.209   8.648 -0.6309 -0.8684  0.0731
  869SOL    HW2 4925  10.347   7.151   8.573 -1.1726  1.6048 -2.8643
  870SOL     OW 4926   6.877   8.683  10.294  0.0835  0.4014 -0.3675
  870SOL    HW1 4927   6.922   8.764  10.272  1.1443 -0.3313 -0.9850
  870SOL    HW2 4928   6.784   8.707  10.299  0.4118  1.7080 -0.1854
  871SOL     OW 4929   7.881   5.013   2.830  0.1956  0.2781  0.1248
  871SOL    HW1 4930   7.916   4.924   2.836 -1.3121 -0.3209  0.6361
  871SOL    HW2 4931   7.892   5.050   2.917  0.4384  0.4411  0.0253
  872SOL     OW 4932   8.206   9.959   3.759 -0.2479 -0.0978 -0.1107
  872SOL    HW1 4933   8.278   9.943   3.819  0.1137  0.8830 -0.2665
  872SOL    HW2 4934   8.207  10.053   3.743  0.0930 -0.3926 -2.1644
  873SOL     OW 4935   0.681   3.684   8.047 -0.5713 -0.4026  0.3846
  873SOL    HW1 4936   0.672   3.686   7.951 -2.1383 -1.4295  0.4710
  873SOL    HW2 4937   0.744   3.753   8.066 -0.3222 -0.0784 -1.3812
  874SOL     OW 4938   0.324   8.117   6.275 -0.2470 -0.3799 -0.4907
  874SOL    HW1 4939   0.359   8.145   6.191  0.7741  1.5213  0.5007
  874SOL    HW2 4940   0.401   8.098   6.328 -0.8396 -0.6353  0.3055
  875SOL     OW 4941   9.712   5.118   9.612  0.0701 -0.6147  0.6330
  875SOL    HW1 4942   9.774   5.051   9.581 -0.7442 -1.5322  0.9419
  875SOL    HW2 4943   9.765   5.197   9.621  0.6623 -0.7079 -1.5752
  876SOL     OW 4944   8.259   9.215   5.075  0.0487  0.0689  0.3326
  876SOL    HW1 4945   8.274   9.295   5.127  0.1848  0.8257 -0.8255
  876SOL    HW2 4946   8.294   9.145   5.129  0.6241  0.8871  1.0636
  877SOL     OW 4947   2.468   5.631   2.151  0.3593  0.0574  0.0428
  877SOL    HW1 4948   2.450   5.723   2.135 -2.4980 -0.3644  0.4013
  877SOL    HW2 4949   2.523   5.604   2.077  0.4362  1.7841 -0.5721
  878SOL     OW 4950   8.847   0.878   2.968  0.0363  0.1915  0.0751
  878SOL    HW1 4951   8.929   0.909   3.006  0.1105 -0.6675  0.6363
  878SOL    HW2 4952   8.861   0.785   2.951 -1.3774 -0.3949  1.8194
  879SOL     OW 4953   0.210   2.004   8.774 -0.0746 -0.3573  0.4749
  879SOL    HW1 4954   0.130   1.951   8.784 -0.2933 -0.0245  0.5078
  879SOL    HW2 4955   0.279   1.940   8.761 -0.4411 -0.6324 -0.1773
  880SOL     OW 4956   7.647  10.090   2.446 -0.4830  0.5832 -0.7273
  880SOL    HW1 4957   7.557  10.093   2.414 -1.4138  0.4287  1.7332
  880SOL    HW2 4958   7.679  10.180   2.436 -2.0766  1.4535  1.3836
  881SOL     OW 4959   1.555  10.287   9.092  0.3376 -0.3378 -0.0795
  881SOL    HW1 4960   1.621  10.337   9.045  0.5112  0.7016  1.1983
  881SOL    HW2 4961   1.602  10.247   9.166 -0.1328 -0.9904 -0.1256
  882SOL     OW 4962   9.015   4.044   2.554 -0.3241 -0.2009 -0.7946
  882SOL    HW1 4963   9.038   3.957   2.521  0.3191 -0.7143  0.8980
  882SOL    HW2 4964   8.987   4.028   2.644 -0.4353  1.3289 -0.5427
  883SOL     OW 4965   0.538   7.236   4.793  0.0694 -0.5468 -0.1255
  883SOL    HW1 4966   0.610   7.253   4.734  2.2866 -1.7065  2.0628
  883SOL    HW2 4967   0.543   7.142   4.812 -1.9471 -0.6449  0.2141
  884SOL     OW 4968   5.095   5.338   5.031  0.6654 -0.3666  0.5319
  884SOL    HW1 4969   5.044   5.275   4.980  0.9660 -1.0202  1.0159
  884SOL    HW2 4970   5.096   5.300   5.120  0.3047  0.6449  0.9812
  885SOL     OW 4971   8.732   1.266   4.387 -0.3641 -0.3153 -0.1350
  885SOL    HW1 4972   8.824   1.275   4.415 -0.0710 -1.8677 -0.5257
  885SOL    HW2 4973   8.721   1.172   4.371 -2.2728 -0.2810  0.7456
  886SOL     OW 4974   6.689   0.172   6.863  0.6185  0.1119  0.1377
  886SOL    HW1 4975   6.650   0.084   6.858  1.4665 -0.3847  1.6125
  886SOL    HW2 4976   6.637   0.224   6.802  0.7109 -1.6324 -1.5628
  887SOL     OW 4977   6.295   0.828   4.627 -0.2084 -0.0882  0.6558
  887SOL    HW1 4978   6.240   0.866   4.559  0.3691 -1.7346 -0.7854
  887SOL    HW2 4979   6.343   0.903   4.662 -1.1468  0.9228 -0.1427
  888SOL     OW 4980   2.628   2.508   0.933 -0.1105  0.5754 -0.7624
  888SOL    HW1 4981   2.613   2.576   0.867  1.9618  2.3902  0.4843
  888SOL    HW2 4982   2.720   2.519   0.958  0.2467 -2.5864 -0.3099
  889SOL     OW 4983   0.472   2.042   0.199  0.0037  0.3629  0.3972
  889SOL    HW1 4984   0.495   2.126   0.159 -0.2582  0.6187  0.7750
  889SOL    HW2 4985   0.426   1.994   0.129  2.1490 -0.3986 -0.5726
  890SOL     OW 4986   5.847   6.968   3.428  0.0820  0.0045 -0.3768
  890SOL    HW1 4987   5.930   6.944   3.388 -0.0460  1.2448 -1.4543
  890SOL    HW2 4988   5.871   7.006   3.512  0.6764  0.8900 -0.9294
  891SOL     OW 4989  10.439   0.886   9.454 -0.3092  0.6904 -0.4079
  891SOL    HW1 4990  10.442   0.969   9.503  1.5844  0.8100 -0.6796
  891SOL    HW2 4991  10.351   0.852   9.472 -0.3505  1.6577  1.5302
  892SOL     OW 4992   1.924   9.329   1.924 -0.8944  0.1643  0.4689
  892SOL    HW1 4993   2.006   9.308   1.970 -0.8463 -0.5102  0.0907
  892SOL    HW2 4994   1.930   9.281   1.841 -1.5607  0.3240  0.3201
  893SOL     OW 4995   3.802   3.707   0.567 -0.0114 -0.3083 -0.3325
  893SOL    HW1 4996   3.816   3.612   0.563 -0.4635 -0.5205  1.8168
  893SOL    HW2 4997   3.719   3.721   0.523  0.4188 -0.8002 -1.3247
  894SOL     OW 4998   6.811   1.312   2.578  0.7512  0.0928 -0.0169
  894SOL    HW1 4999   6.723   1.284   2.603  0.0534  1.8800 -0.3443
  894SOL    HW2 5000   6.857   1.324   2.661  0.0988  0.9036  0.2396
  895SOL     OW 5001   4.110   0.325   2.702  0.6018  0.0495  0.4746
  895SOL    HW1 5002   4.157   0.348   2.622  2.4542  0.9190  1.7415
  895SOL    HW2 5003   4.108   0.230   2.702  0.3395  0.0425 -0.7279
  896SOL     OW 5004   8.482   6.409   8.911 -0.4298  0.0050 -0.3777
  896SOL    HW1 5005   8.491   6.484   8.969 -0.2767 -0.4085  0.1395
  896SOL    HW2 5006   8.530   6.339   8.954  0.7889  0.0269 -1.6389
  897SOL     OW 5007   9.776  10.540   7.872  0.1343 -0.0329 -0.3282
  897SOL    HW1 5008   9.848  10.476   7.873  0.1431 -0.0362  1.0868
  897SOL    HW2 5009   9.734  10.528   7.787  0.5115 -1.5065 -0.3356
  898SOL     OW 5010   7.942   6.891   2.089 -0.4864 -0.6369  0.0813
  898SOL    HW1 5011   7.852   6.866   2.111  0.1228 -2.0607  1.0455
  898SOL    HW2 5012   7.986   6.899   2.173 -0.0141  1.3970 -0.3083
  899SOL     OW 5013  10.365   2.873   4.181 -0.0607  0.3744  0.1731
  899SOL    HW1 5014  10.416   2.799   4.216 -1.0246 -0.0894  0.6312
  899SOL    HW2 5015  10.420   2.950   4.199  1.0703 -0.2315 -0.5257
  900SOL     OW 5016   7.242   6.519   1.572 -0.1167  0.7370 -0.1636
  900SOL    HW1 5017   7.336   6.505   1.560 -0.5110 -1.1579 -1.7363
  900SOL    HW2 5018   7.233   6.544   1.664  1.9071  0.9999  0.0227
  901SOL     OW 5019   4.091   5.536   0.655  0.5273 -0.0038  0.4228
  901SOL    HW1 5020   4.057   5.539   0.566  0.1775  1.6479  0.5877
  901SOL    HW2 5021   4.182   5.562   0.647 -0.0429  2.3223  0.7474
  902SOL     OW 5022   2.923   6.462   8.829 -0.2807  0.6616 -0.2813
  902SOL    HW1 5023   2.834   6.435   8.852 -1.1119  0.6155 -3.1290
  902SOL    HW2 5024   2.976   6.439   8.905 -2.7227  0.9429  1.6241
  903SOL     OW 5025   0.184   8.355   7.488 -0.7613  0.6065  0.0897
  903SOL    HW1 5026   0.098   8.377   7.452 -1.1800 -1.0047  0.0203
  903SOL    HW2 5027   0.171   8.354   7.583  0.1344  4.0048  0.3600
  904SOL     OW 5028   5.449   3.041   8.199  0.5262 -0.2105  0.5173
  904SOL    HW1 5029   5.473   3.020   8.290  1.8763  0.1210  0.2577
  904SOL    HW2 5030   5.403   2.963   8.168  0.1546 -0.3791  1.4388
  905SOL     OW 5031   6.762   0.870   2.813 -0.0295 -0.1411 -0.0885
  905SOL    HW1 5032   6.754   0.924   2.734 -1.0550  0.2388  0.2559
  905SOL    HW2 5033   6.762   0.780   2.781 -0.9153 -0.0027 -0.4992
  906SOL     OW 5034   5.585   5.101  10.289  0.5264  0.2772 -0.6471
  906SOL    HW1 5035   5.510   5.050  10.320 -0.6700  3.2410  1.8089
  906SOL    HW2 5036   5.572   5.108  10.194 -1.7310 -0.1845 -0.4239
  907SOL     OW 5037   3.119   1.504   5.923 -0.3860 -0.1149  0.7198
  907SOL    HW1 5038   3.038   1.458   5.948 -0.7388 -0.0568 -0.2738
  907SOL    HW2 5039   3.118   1.583   5.977 -0.7977 -0.2965  0.9889
  908SOL     OW 5040   9.916   4.035   0.788 -0.6667  0.1923  0.2668
  908SOL    HW1 5041   9.910   4.064   0.879  1.0951 -1.3869  0.9597
  908SOL    HW2 5042  10.008   4.050   0.764 -0.0399 -3.0742  0.1550
  909SOL     OW 5043   2.347   9.772   5.055 -0.3458 -0.2219 -0.0728
  909SOL    HW1 5044   2.366   9.679   5.061 -0.0047 -0.2259 -1.0514
  909SOL    HW2 5045   2.363   9.794   4.963 -0.7964  0.7189  0.0600
  910SOL     OW 5046   4.430   7.093   8.405  0.4902 -0.0172 -0.2220
  910SOL    HW1 5047   4.344   7.056   8.424  0.6297 -1.0577 -1.4685
  910SOL    HW2 5048   4.417   7.188   8.407 -0.8609 -0.1550 -1.0929
  911SOL     OW 5049   2.050   4.199   8.222 -0.1396 -0.6774 -0.4336
  911SOL    HW1 5050   2.084   4.199   8.132  1.1029 -0.9793  0.0095
  911SOL    HW2 5051   1.959   4.228   8.214 -0.1420 -1.0074 -1.8207
  912SOL     OW 5052   9.873   1.679   1.552  0.3601  0.1671 -0.0069
  912SOL    HW1 5053   9.873   1.758   1.498 -1.1641 -0.0431 -0.3581
  912SOL    HW2 5054   9.848   1.608   1.493 -1.6366 -0.0187  0.9715
  913SOL     OW 5055   6.964  10.433   5.024  0.3227 -0.4058  0.6631
  913SOL    HW1 5056   6.964  10.434   4.928 -1.6721 -0.6101  0.6228
  913SOL    HW2 5057   7.018  10.508   5.049 -0.0930  0.3455 -0.6211
  914SOL     OW 5058   7.814   9.219   0.360  0.2780 -0.3559  0.7248
  914SOL    HW1 5059   7.895   9.175   0.333  0.7014  1.3407 -1.0068
  914SOL    HW2 5060   7.764   9.227   0.279  0.5304  2.8687  0.7716
  915SOL     OW 5061   1.192   4.435   1.523  0.6248 -0.7055 -0.3005
  915SOL    HW1 5062   1.219   4.438   1.615 -1.8790  1.2978  0.4948
  915SOL    HW2 5063   1.098   4.455   1.525 -0.0568 -3.0137 -3.1397
  916SOL     OW 5064   9.395   3.516   3.829 -0.4443  0.8859 -0.2719
  916SOL    HW1 5065   9.446   3.572   3.889 -0.4597  0.3530  0.2505
  916SOL    HW2 5066   9.348   3.578   3.773 -0.9505  1.4140  0.7084
  917SOL     OW 5067   5.337   7.053   4.874 -0.5733  0.1953 -0.4058
  917SOL    HW1 5068   5.284   7.133   4.872 -0.9471  0.0872  1.9335
  917SOL    HW2 5069   5.272   6.982   4.874 -0.4278  0.0283  1.0526
  918SOL     OW 5070   4.949   3.580   4.809 -0.1665  0.6141  0.0794
  918SOL    HW1 5071   4.998   3.643   4.755 -0.6685  1.4476  0.5825
  918SOL    HW2 5072   4.904   3.524   4.746 -0.5886  1.4515 -0.3723
  919SOL     OW 5073   4.697  10.559   1.816  0.2807  0.8969 -0.1328
  919SOL    HW1 5074   4.733  10.584   1.731  0.1301  2.8349  0.3317
  919SOL    HW2 5075   4.773  10.529   1.867  0.6541  1.3708 -0.3999
  920SOL     OW 5076   9.328   0.290  10.153 -0.5226  0.0155  0.3883
  920SOL    HW1 5077   9.267   0.269  10.083  0.0191 -0.4351  0.0388
  920SOL    HW2 5078   9.272   0.316  10.227 -1.0901  0.6133 -0.2371
  921SOL     OW 5079   3.875   2.721   4.642 -0.2350  0.2541  0.8337
  921SOL    HW1 5080   3.914   2.806   4.662 -0.3814  0.6809 -0.5423
  921SOL    HW2 5081   3.788   2.741   4.609  0.8499 -0.0200 -2.7380
  922SOL     OW 5082   7.079   8.104   8.512 -0.0301  0.3104  0.3192
  922SOL    HW1 5083   7.058   8.039   8.446 -0.9703 -0.0701  0.9748
  922SOL    HW2 5084   7.175   8.109   8.511  0.0195 -0.5549 -0.2362
  923SOL     OW 5085   6.896   9.300   7.203 -0.5768 -0.1670 -0.5699
  923SOL    HW1 5086   6.910   9.221   7.150  2.6262 -0.0580 -0.0721
  923SOL    HW2 5087   6.954   9.365   7.164 -1.4412  1.2529  0.4478
  924SOL     OW 5088   4.069   8.957   9.505  0.1494 -0.3115 -0.2122
  924SOL    HW1 5089   4.043   9.015   9.577 -0.3024  1.1946 -1.5319
  924SOL    HW2 5090   4.130   9.010   9.453 -0.9687 -0.6572 -1.9478
  925SOL     OW 5091   8.328   5.641   4.863 -0.0943 -0.0830 -0.1504
  925SOL    HW1 5092   8.381   5.565   4.887  0.2270  0.1108 -0.2426
  925SOL    HW2 5093   8.378   5.683   4.793 -0.7599 -0.3557 -0.8102
  926SOL     OW 5094   8.549   1.324   7.216 -0.1582 -0.1375  0.0199
  926SOL    HW1 5095   8.482   1.351   7.279  0.0838 -0.4007  0.3926
  926SOL    HW2 5096   8.628   1.369   7.245 -0.4415  1.2132 -1.1696
  927SOL     OW 5097   7.545   3.424   2.981 -0.6326 -0.2958 -0.3136
  927SOL    HW1 5098   7.585   3.369   2.913 -1.4962 -0.6691 -0.5464
  927SOL    HW2 5099   7.508   3.361   3.043  1.7923  0.0023  1.5900
  928SOL     OW 5100   5.031   5.546   5.248  0.1764  0.3087  0.4844
  928SOL    HW1 5101   5.120   5.579   5.263 -0.2817  2.6989 -1.4786
  928SOL    HW2 5102   5.033   5.510   5.160 -0.4901 -1.0250  0.9764
  929SOL     OW 5103   1.110   1.878   2.459 -0.2090  0.6267  0.3032
  929SOL    HW1 5104   1.058   1.911   2.385  0.4359  1.2855  0.1332
  929SOL    HW2 5105   1.059   1.903   2.537 -1.9770 -1.9280  0.0761
  930SOL     OW 5106   2.160   7.824   9.049  0.2747  0.0133  0.4157
  930SOL    HW1 5107   2.106   7.824   8.969 -0.3450  2.0438  0.7780
  930SOL    HW2 5108   2.161   7.733   9.077  0.4171 -0.7398 -1.8508
  931SOL     OW 5109   0.902   6.833   6.861  0.0334 -0.3470 -0.0259
  931SOL    HW1 5110   0.848   6.754   6.849 -0.9725  0.1999  0.7270
  931SOL    HW2 5111   0.855   6.884   6.927  1.8735 -0.2020  1.2525
  932SOL     OW 5112   2.890   5.225   1.560  0.2903 -0.3701 -0.2500
  932SOL    HW1 5113   2.940   5.144   1.550  0.0179 -1.2051  3.4761
  932SOL    HW2 5114   2.865   5.226   1.653  0.4406  4.1227 -0.0463
  933SOL     OW 5115   1.843   7.192   6.480 -0.2642 -0.4071 -0.5123
  933SOL    HW1 5116   1.927   7.214   6.439  0.9261 -1.4497  1.2539
  933SOL    HW2 5117   1.863   7.121   6.540 -2.2503 -0.0388  0.6796
  934SOL     OW 5118   4.149   3.545   3.525  0.3871  0.1757 -0.1590
  934SOL    HW1 5119   4.110   3.575   3.606 -1.3681  2.4319 -1.7207
  934SOL    HW2 5120   4.079   3.496   3.481 -0.0623  2.2999 -1.9717
  935SOL     OW 5121   3.611   3.374   8.708 -0.0950 -0.1820  0.1169
  935SOL    HW1 5122   3.651   3.443   8.761  0.4512 -0.2963 -0.1308
  935SOL    HW2 5123   3.629   3.293   8.757  0.1481 -0.2544 -0.0890
  936SOL     OW 5124   4.237   8.750   2.448 -0.0695  0.3990 -0.1498
  936SOL    HW1 5125   4.214   8.690   2.519 -2.0944  1.0065 -0.2401
  936SOL    HW2 5126   4.333   8.751   2.449  0.0231  0.9999  3.1322
  937SOL     OW 5127  10.382   7.547   7.966  0.2121  0.1168  0.6269
  937SOL    HW1 5128  10.422   7.558   7.880  0.3244 -1.0649  0.5147
  937SOL    HW2 5129  10.453   7.518   8.023  0.1094  0.7566  1.0932
  938SOL     OW 5130   3.967   9.441   4.326 -0.0316 -0.2189 -0.5786
  938SOL    HW1 5131   4.022   9.429   4.248  0.0718  1.1571 -0.7518
  938SOL    HW2 5132   4.009   9.513   4.373  0.1103 -1.2667  0.9521
  939SOL     OW 5133   8.226   3.551   8.267  0.5276 -0.4951 -0.2247
  939SOL    HW1 5134   8.212   3.591   8.353 -1.3790 -1.0103 -0.2424
  939SOL    HW2 5135   8.270   3.468   8.285  0.8113 -0.2625  0.1723
  940SOL     OW 5136   9.870   8.259   5.826 -0.2031  0.1563 -0.6751
  940SOL    HW1 5137   9.879   8.338   5.880 -0.1908 -0.0103 -0.4321
  940SOL    HW2 5138   9.856   8.189   5.889  0.4589 -0.1438 -0.8507
  941SOL     OW 5139   5.678   0.750   2.069  0.5284  0.0957  0.0151
  941SOL    HW1 5140   5.675   0.700   1.987 -1.6563 -0.7030  0.5039
  941SOL    HW2 5141   5.590   0.788   2.076 -0.0338 -1.5227  2.9610
  942SOL     OW 5142   7.978   2.110   8.088 -0.3548  0.0110  0.5185
  942SOL    HW1 5143   8.052   2.126   8.147  1.2489  0.5037 -1.5314
  942SOL    HW2 5144   7.994   2.022   8.054  1.1233  1.2617 -2.3175
  943SOL     OW 5145   7.209   8.478   5.923  0.1056 -0.2086  0.5407
  943SOL    HW1 5146   7.146   8.536   5.966  0.2323 -0.3177  0.8780
  943SOL    HW2 5147   7.253   8.534   5.858  1.0478  0.3948  1.6454
  944SOL     OW 5148   1.569   6.874  10.434  0.1424  0.2894  0.5226
  944SOL    HW1 5149   1.502   6.817  10.471  0.1368  1.0720  1.7816
  944SOL    HW2 5150   1.614   6.820  10.370 -0.8463 -0.6497  0.5913
  945SOL     OW 5151   4.018   5.310   8.995  0.3023  0.2678 -0.4171
  945SOL    HW1 5152   4.052   5.228   9.031  1.9218  1.4375  0.8618
  945SOL    HW2 5153   4.044   5.376   9.058 -1.1335  1.7651 -1.3327
  946SOL     OW 5154   5.158   7.217   2.455  0.4836 -0.0932  0.1707
  946SOL    HW1 5155   5.114   7.274   2.392  1.4269 -0.9565 -1.3296
  946SOL    HW2 5156   5.150   7.129   2.417 -1.3555 -1.1168  2.6559
  947SOL     OW 5157   0.639   4.463   2.646 -0.0114 -0.1272  1.2073
  947SOL    HW1 5158   0.588   4.518   2.705 -0.4693  0.3927  0.3482
  947SOL    HW2 5159   0.633   4.375   2.683 -2.2318 -0.2436  0.7065
  948SOL     OW 5160   0.861   7.706   6.594  0.0179 -0.4721  0.0002
  948SOL    HW1 5161   0.834   7.664   6.676  1.0665  0.9515  1.1175
  948SOL    HW2 5162   0.784   7.754   6.565 -0.3250 -0.8849  0.2250
  949SOL     OW 5163   5.059   3.502   3.764  0.0084 -0.3452  0.0346
  949SOL    HW1 5164   5.061   3.515   3.670 -0.4409  0.1465  0.0914
  949SOL    HW2 5165   5.141   3.456   3.784 -0.1283 -0.8935 -0.6518
  950SOL     OW 5166   2.396   9.862   9.467 -0.3726  0.0941 -0.2981
  950SOL    HW1 5167   2.322   9.865   9.527  0.7631  1.6094  1.1179
  950SOL    HW2 5168   2.434   9.950   9.471  1.5863 -0.6752 -0.8731
  951SOL     OW 5169   0.098   9.097   5.082  0.4922  0.4935 -0.7747
  951SOL    HW1 5170   0.087   9.152   5.159  0.5388 -2.1359  1.2584
  951SOL    HW2 5171   0.192   9.092   5.068  0.6514 -0.8293  0.5041
  952SOL     OW 5172  10.162   5.824   6.606  0.0522 -0.6968 -0.4158
  952SOL    HW1 5173  10.186   5.740   6.646 -1.8634 -1.4523 -0.7461
  952SOL    HW2 5174  10.222   5.832   6.532  2.3708 -0.1913  1.3949
  953SOL     OW 5175   8.258   2.157   4.761 -0.3920  0.1312 -0.4494
  953SOL    HW1 5176   8.185   2.096   4.756  0.1848 -0.6292  0.2630
  953SOL    HW2 5177   8.299   2.140   4.845 -0.8846  2.2773  0.2960
  954SOL     OW 5178   2.254   9.572   9.952 -0.4365  0.5855 -0.7892
  954SOL    HW1 5179   2.177   9.575  10.009  1.6172 -2.4301  2.5842
  954SOL    HW2 5180   2.292   9.485   9.968  3.2659  1.6346 -2.8297
  955SOL     OW 5181   0.394   3.967   5.195 -0.3713  0.4730  0.6182
  955SOL    HW1 5182   0.381   3.877   5.226  0.4858  0.1351  0.0310
  955SOL    HW2 5183   0.325   3.979   5.129  0.3878 -0.2794 -0.3537
  956SOL     OW 5184   6.778   9.292   8.236 -0.0912 -0.1576 -0.8930
  956SOL    HW1 5185   6.810   9.252   8.155  0.4645 -0.5907 -0.4622
  956SOL    HW2 5186   6.688   9.318   8.215  0.4405  0.8711 -2.0469
  957SOL     OW 5187   3.280   7.014   0.613  0.5238 -0.3446 -0.4027
  957SOL    HW1 5188   3.289   6.929   0.570 -1.1866 -0.8312  0.1065
  957SOL    HW2 5189   3.189   7.017   0.642  0.9732  0.9765  1.0427
  958SOL     OW 5190   2.085   3.391   9.551 -0.3283  0.3028  0.0994
  958SOL    HW1 5191   2.074   3.363   9.460 -0.3411  0.4378  0.0593
  958SOL    HW2 5192   1.999   3.425   9.576 -0.6827 -0.8728  0.5574
  959SOL     OW 5193   3.160   5.323   8.923 -0.0166  0.5494  0.2273
  959SOL    HW1 5194   3.071   5.338   8.955 -0.2226 -1.2629  0.6631
  959SOL    HW2 5195   3.149   5.264   8.849  0.7906  0.7096 -0.0277
  960SOL     OW 5196   8.771   2.159   7.471 -1.0813  0.3536 -0.3412
  960SOL    HW1 5197   8.692   2.169   7.524 -0.3701  1.4291  0.5720
  960SOL    HW2 5198   8.740   2.123   7.388 -2.1677 -2.0345  0.9822
  961SOL     OW 5199  10.149   7.705   5.499 -0.1214 -0.2170  0.1211
  961SOL    HW1 5200  10.227   7.751   5.470 -0.1372  0.6282  1.3149
  961SOL    HW2 5201  10.158   7.617   5.463  0.1485  0.5580 -1.8213
  962SOL     OW 5202  10.331   2.843   5.039 -0.4475  0.0801 -0.3231
  962SOL    HW1 5203  10.326   2.919   4.982  0.3666  0.4006  0.0189
  962SOL    HW2 5204  10.388   2.870   5.111 -0.8046 -0.5837  0.2260
  963SOL     OW 5205   1.408   3.410   7.563  0.4352  0.4534 -0.4629
  963SOL    HW1 5206   1.472   3.450   7.503  1.3179 -1.0263 -0.5576
  963SOL    HW2 5207   1.407   3.468   7.639  0.3172  1.6211 -1.3254
  964SOL     OW 5208   6.283   0.234   9.071  0.3286 -0.2805  0.7465
  964SOL    HW1 5209   6.319   0.178   9.139  0.0652  0.1324  1.2353
  964SOL    HW2 5210   6.355   0.292   9.047 -0.0378  0.6648  1.8506
  965SOL     OW 5211   7.239   9.359   6.436 -0.5148 -0.2643  0.0950
  965SOL    HW1 5212   7.304   9.352   6.506 -0.3994 -1.0880 -0.0836
  965SOL    HW2 5213   7.280   9.318   6.361 -1.3977 -1.1656  0.0879
  966SOL     OW 5214   7.962  10.412   6.260 -0.5296  0.1307  0.0066
  966SOL    HW1 5215   7.923  10.499   6.247 -0.2036  0.8766  3.2512
  966SOL    HW2 5216   8.040  10.412   6.204 -0.3842  2.0599  0.1520
  967SOL     OW 5217   1.524   8.154   0.335 -0.3006  0.1260 -0.2281
  967SOL    HW1 5218   1.490   8.065   0.345  0.4334 -0.2914 -1.2537
  967SOL    HW2 5219   1.455   8.201   0.288 -1.4116  0.5937  1.7638
  968SOL     OW 5220   2.245   1.438   9.680 -0.0160 -0.4826  0.9291
  968SOL    HW1 5221   2.156   1.416   9.651  0.0195 -2.1667  1.9403
  968SOL    HW2 5222   2.234   1.513   9.739 -0.4489  0.8837 -0.8157
  969SOL     OW 5223   9.409   7.449   4.468  0.5927  0.4547 -0.4101
  969SOL    HW1 5224   9.458   7.430   4.388  1.5056  1.0709 -0.0080
  969SOL    HW2 5225   9.409   7.367   4.516 -2.1330 -0.6908 -2.1225
  970SOL     OW 5226   4.130   8.777   0.251 -0.1811 -0.1136  0.1218
  970SOL    HW1 5227   4.162   8.704   0.304 -0.6462 -0.1202  0.4064
  970SOL    HW2 5228   4.207   8.831   0.236 -0.2046  0.3893  1.6336
  971SOL     OW 5229   3.453   8.947   0.833  0.2479  0.2171 -0.6937
  971SOL    HW1 5230   3.406   8.903   0.905  1.6732 -1.5823 -0.8047
  971SOL    HW2 5231   3.466   8.878   0.767 -0.2157  1.6140 -2.3051
  972SOL     OW 5232   4.002   6.472   9.246  0.1199  0.2299 -0.1878
  972SOL    HW1 5233   4.049   6.530   9.307  0.7141  0.0659 -0.4795
  972SOL    HW2 5234   3.990   6.525   9.167  0.3117  0.0903 -0.3124
  973SOL     OW 5235   8.244   3.672   2.026  0.2405 -0.5545  0.1806
  973SOL    HW1 5236   8.158   3.709   2.005  0.4577 -1.7157 -3.4768
  973SOL    HW2 5237   8.296   3.747   2.055 -0.7824  1.1022 -1.9826
  974SOL     OW 5238   1.884   0.242   6.511 -0.1340 -0.0673 -0.7299
  974SOL    HW1 5239   1.900   0.331   6.542  1.0008 -0.1161 -1.1466
  974SOL    HW2 5240   1.901   0.246   6.417 -0.1275 -0.7132 -0.7611
  975SOL     OW 5241   7.443   0.799   4.724  0.2250  0.7037 -0.1092
  975SOL    HW1 5242   7.529   0.829   4.694  1.5192 -0.2655  2.3723
  975SOL    HW2 5243   7.412   0.742   4.654  1.9876  0.4306 -0.7169
  976SOL     OW 5244   9.395  10.064   0.488 -0.2209  0.2989 -0.1271
  976SOL    HW1 5245   9.429  10.001   0.425  1.5876  2.4373 -1.4520
  976SOL    HW2 5246   9.335  10.119   0.437 -0.2928  0.8331  0.5254
  977SOL     OW 5247   5.760   8.712   2.191  0.3302  0.0168  0.4116
  977SOL    HW1 5248   5.689   8.744   2.134 -0.1161  0.4682  1.2077
  977SOL    HW2 5249   5.821   8.786   2.196  3.9673 -2.0238 -4.8847
  978SOL     OW 5250   2.491   0.386   7.143 -0.4132 -0.6406 -0.3351
  978SOL    HW1 5251   2.501   0.479   7.125 -0.4234 -1.1333 -3.4915
  978SOL    HW2 5252   2.580   0.351   7.141 -0.5885 -1.1421 -2.7177
  979SOL     OW 5253   2.736   2.098   6.521 -0.3502 -0.3800 -0.3028
  979SOL    HW1 5254   2.742   2.168   6.456  0.4623 -0.6678 -0.5558
  979SOL    HW2 5255   2.657   2.049   6.497  0.1104 -0.6760 -1.2857
  980SOL     OW 5256   0.510   3.354   7.096 -0.2685  0.1610  0.0355
  980SOL    HW1 5257   0.460   3.318   7.023  0.1042 -0.9463  0.3052
  980SOL    HW2 5258   0.598   3.364   7.062 -0.0087 -0.6967  0.4125
  981SOL     OW 5259   9.724   7.559   3.045 -0.8095 -0.5036  0.0575
  981SOL    HW1 5260   9.673   7.560   3.125 -1.4022  1.7319 -0.2778
  981SOL    HW2 5261   9.796   7.620   3.062 -1.8068  1.2277 -1.5739
  982SOL     OW 5262   1.446   7.700   2.671  0.0190  0.0430 -0.2658
  982SOL    HW1 5263   1.372   7.696   2.731 -0.7054 -1.7925 -1.2086
  982SOL    HW2 5264   1.523   7.687   2.727 -0.5279 -0.2739  0.4273
  983SOL     OW 5265   6.953   7.640   8.718  0.0311  0.1558  0.2032
  983SOL    HW1 5266   6.994   7.572   8.665  0.5433  0.1620  0.5936
  983SOL    HW2 5267   6.920   7.703   8.654  1.0465  0.3909 -0.0964
  984SOL     OW 5268   1.362   1.998   0.329 -0.4711 -0.3475  0.4866
  984SOL    HW1 5269   1.398   2.080   0.360  1.0220 -0.0681 -1.7730
  984SOL    HW2 5270   1.298   2.023   0.263 -1.5534 -0.9809  1.2575
  985SOL     OW 5271   1.819   2.460   9.600  0.0193 -0.0843 -0.1553
  985SOL    HW1 5272   1.826   2.389   9.663 -0.0689  0.0495  0.0060
  985SOL    HW2 5273   1.903   2.461   9.555  0.4825  0.5171  0.6978
  986SOL     OW 5274   9.029   4.799   1.410 -0.5008 -0.0928  0.1216
  986SOL    HW1 5275   8.963   4.768   1.471 -0.5470  0.1452  0.1894
  986SOL    HW2 5276   9.091   4.726   1.403  0.3731  0.4495  1.6702
  987SOL     OW 5277   8.128   0.743   2.526 -0.1145  0.4397 -0.4257
  987SOL    HW1 5278   8.058   0.809   2.526 -1.4249 -0.8975  0.1476
  987SOL    HW2 5279   8.088   0.665   2.564  0.9423 -1.1684 -2.3706
  988SOL     OW 5280   0.517   9.629   3.632 -0.1288 -0.5572  0.2416
  988SOL    HW1 5281   0.550   9.539   3.628 -0.5692 -0.6971 -0.6893
  988SOL    HW2 5282   0.574   9.678   3.572 -1.0372 -0.6311 -0.7255
  989SOL     OW 5283   2.978   9.105   0.270  0.1893  0.7342 -0.0254
  989SOL    HW1 5284   2.984   9.190   0.313  1.6829 -0.0656  1.4411
  989SOL    HW2 5285   2.897   9.067   0.305 -0.4052  1.4679 -0.5714
  990SOL     OW 5286   7.988  10.220  10.340 -0.1385 -0.4018  0.4436
  990SOL    HW1 5287   7.940  10.292  10.381 -0.1537 -0.2665  0.1894
  990SOL    HW2 5288   8.074  10.221  10.382 -0.2689 -0.4787  0.7135
  991SOL     OW 5289   9.438   5.703   3.649 -0.2511 -0.0334 -0.5053
  991SOL    HW1 5290   9.453   5.635   3.714  0.2161 -0.2182 -0.7985
  991SOL    HW2 5291   9.356   5.744   3.675  0.7677  1.0438  1.2134
  992SOL     OW 5292  10.128   1.276   1.027 -0.5804  0.0818  0.2613
  992SOL    HW1 5293  10.134   1.185   1.057  1.8717  0.2284  0.3884
  992SOL    HW2 5294  10.059   1.315   1.080  0.1407 -1.0310  2.0724
  993SOL     OW 5295   8.086   9.533   1.283  0.2394  0.0556  0.5822
  993SOL    HW1 5296   8.107   9.449   1.323  0.5777 -0.7855 -1.2958
  993SOL    HW2 5297   7.990   9.534   1.278  0.2279 -0.1501  0.7343
  994SOL     OW 5298   1.890   1.908   6.047 -0.2484 -0.5407  0.0261
  994SOL    HW1 5299   1.892   1.974   6.117  1.6414 -1.4509  0.8976
  994SOL    HW2 5300   1.797   1.892   6.032 -0.7121  0.6371  1.3976
  995SOL     OW 5301   0.212   0.783   9.309  0.4977 -0.4615  0.4006
  995SOL    HW1 5302   0.238   0.697   9.277 -0.0025  0.3653 -2.5411
  995SOL    HW2 5303   0.291   0.836   9.302 -0.3736  0.6141 -3.1282
  996SOL     OW 5304   3.984   5.995   9.141  0.0064  0.6300  0.5137
  996SOL    HW1 5305   3.991   6.077   9.190 -1.4157  1.6420 -0.8830
  996SOL    HW2 5306   3.890   5.980   9.131  0.1916 -1.6626  1.4557
  997SOL     OW 5307   9.771   2.787   1.499 -0.3313  0.2370  0.3999
  997SOL    HW1 5308   9.767   2.693   1.483  0.9185  0.1443  0.5093
  997SOL    HW2 5309   9.745   2.797   1.591  1.2348 -0.2167  0.9273
  998SOL     OW 5310   8.709   1.982   1.330  0.5047 -0.2738  0.7602
  998SOL    HW1 5311   8.732   1.962   1.421 -2.7320 -0.2107  1.7387
  998SOL    HW2 5312   8.615   1.962   1.325  0.4196  0.4672 -2.3823
  999SOL     OW 5313   9.445   8.377   9.989 -0.1299  0.1725 -0.1301
  999SOL    HW1 5314   9.369   8.430  10.011 -0.2516  0.1704 -0.5463
  999SOL    HW2 5315   9.500   8.380  10.068 -1.1131 -0.8199  0.6248
 1000SOL     OW 5316   9.319   0.679   6.237 -0.4420  0.4586  0.1825
 1000SOL    HW1 5317   9.400   0.644   6.272 -1.2546 -0.2456  1.4220
 1000SOL    HW2 5318   9.325   0.774   6.253 -0.4416  0.2540  1.5432
 1001SOL     OW 5319   3.211   5.925   7.592  0.1024 -0.0034 -0.0168
 1001SOL    HW1 5320   3.238   5.997   7.535 -0.7821 -0.7971 -1.4728
 1001SOL    HW2 5321   3.240   5.952   7.679 -1.5338  2.8527 -0.2402
 1002SOL     OW 5322   4.172   9.213   9.400 -0.0665  0.8177  0.0223
 1002SOL    HW1 5323   4.167   9.273   9.326 -2.3187  0.2724 -0.3646
 1002SOL    HW2 5324   4.102   9.241   9.459  0.2100 -0.1333  0.8458
 1003SOL     OW 5325   9.104   8.167   3.209 -0.2519 -0.5713 -0.9345
 1003SOL    HW1 5326   9.031   8.229   3.206 -1.3304 -1.6646  0.9093
 1003SOL    HW2 5327   9.172   8.211   3.259 -0.4253 -0.3130 -0.9259
 1004SOL     OW 5328   1.535   8.991   2.118 -0.1184  0.0356 -0.2381
 1004SOL    HW1 5329   1.468   9.045   2.161  0.0031 -1.9192  2.6561
 1004SOL    HW2 5330   1.596   9.055   2.081 -1.5189  1.8670  0.4375
 1005SOL     OW 5331   9.419   7.537   6.150  0.5618  0.4401  0.6387
 1005SOL    HW1 5332   9.419   7.599   6.077  0.9513  0.1571  0.3945
 1005SOL    HW2 5333   9.379   7.458   6.115  4.5481 -1.2627 -0.6679
 1006SOL     OW 5334   2.193   3.221   4.539 -0.7116 -0.2952 -0.0437
 1006SOL    HW1 5335   2.278   3.193   4.573 -0.5939 -0.3686 -0.3889
 1006SOL    HW2 5336   2.202   3.316   4.529 -0.6513 -0.3098 -0.1295
 1007SOL     OW 5337   3.815  10.501   6.403 -0.1824  0.3295  0.1064
 1007SOL    HW1 5338   3.783  10.443   6.471  0.1452 -0.5261 -0.4473
 1007SOL    HW2 5339   3.743  10.561   6.385 -0.3937  0.3293  0.9426
 1008SOL     OW 5340   5.298   4.177   6.696  0.4024 -0.1997  0.0308
 1008SOL    HW1 5341   5.351   4.212   6.625  1.5944 -0.8150  0.5743
 1008SOL    HW2 5342   5.362   4.145   6.760 -0.6178  0.8272  1.6480
 1009SOL     OW 5343   4.485   0.948   5.130  0.2718 -0.0382  0.4458
 1009SOL    HW1 5344   4.548   0.925   5.062 -1.5286  0.2807 -1.4387
 1009SOL    HW2 5345   4.457   1.037   5.108 -0.4046  0.0486  1.5828
 1010SOL     OW 5346  10.014   3.751   6.896  0.0077  0.9844 -0.0118
 1010SOL    HW1 5347   9.952   3.701   6.950 -0.6941  1.7249 -0.1100
 1010SOL    HW2 5348  10.063   3.803   6.960  0.9065  0.0290  0.1138
 1011SOL     OW 5349   4.519   4.086   3.968  0.0121 -0.5109  0.6153
 1011SOL    HW1 5350   4.461   4.032   3.915  1.4092  0.2959 -1.9031
 1011SOL    HW2 5351   4.581   4.124   3.905  2.3933 -0.2088  2.9620
 1012SOL     OW 5352   9.204  10.228   5.470 -0.2020  0.1433  0.3198
 1012SOL    HW1 5353   9.156  10.309   5.455 -0.8972 -0.4425 -0.7786
 1012SOL    HW2 5354   9.290  10.244   5.430 -0.7552 -0.0582 -1.0266
 1013SOL     OW 5355   6.252   1.080   6.221  0.1088  0.2022 -0.2742
 1013SOL    HW1 5356   6.277   1.046   6.135  1.6894 -1.4012  0.7514
 1013SOL    HW2 5357   6.331   1.121   6.255 -0.1423 -0.2403  0.8926
 1014SOL     OW 5358   1.974   8.965   4.999 -0.4192 -0.7830  0.0273
 1014SOL    HW1 5359   1.906   8.913   5.042  1.0808 -0.5282  2.9800
 1014SOL    HW2 5360   2.020   8.902   4.943 -2.2757 -1.2010 -1.1152
 1015SOL     OW 5361   4.692   2.745  10.349  0.1119 -1.3823 -0.5529
 1015SOL    HW1 5362   4.650   2.674  10.398 -0.7202 -0.2714  0.3872
 1015SOL    HW2 5363   4.775   2.759  10.395 -1.5357  1.0803  2.0780
 1016SOL     OW 5364  10.224   7.117   3.640  0.3732 -0.5162 -0.2723
 1016SOL    HW1 5365  10.252   7.206   3.617 -1.2001  0.5290  1.5237
 1016SOL    HW2 5366  10.304   7.065   3.638  1.1752  0.7046 -2.3185
 1017SOL     OW 5367   4.980   3.185   1.708 -0.0198  0.0871 -0.1502
 1017SOL    HW1 5368   4.948   3.245   1.641  1.0419  0.5387 -0.2774
 1017SOL    HW2 5369   5.069   3.163   1.680  0.4291  0.2538  1.0781
 1018SOL     OW 5370   9.638   1.122   7.448 -0.0428 -0.3373  0.5809
 1018SOL    HW1 5371   9.584   1.194   7.478 -1.7118  1.2010 -4.8463
 1018SOL    HW2 5372   9.576   1.062   7.405  2.0347 -0.2232 -2.9653
 1019SOL     OW 5373   9.457   7.768   2.330  0.7562  0.9061  0.3224
 1019SOL    HW1 5374   9.533   7.817   2.361  0.1871  2.3539 -0.4868
 1019SOL    HW2 5375   9.495   7.695   2.281  1.6219  0.9275  0.9305
 1020SOL     OW 5376   1.462   9.443   1.427  0.1660  0.6300 -0.1776
 1020SOL    HW1 5377   1.390   9.410   1.482 -0.1043  2.1784  0.4647
 1020SOL    HW2 5378   1.492   9.366   1.379  0.2393 -0.7795  1.9357
 1021SOL     OW 5379   3.952   8.510   7.491  0.2144 -0.7163  0.4728
 1021SOL    HW1 5380   3.886   8.547   7.549 -0.0778 -0.1647 -0.2037
 1021SOL    HW2 5381   3.961   8.419   7.520 -0.7283 -0.7520  0.6620
 1022SOL     OW 5382   3.948   0.843   2.660  0.5817  0.1002  0.9711
 1022SOL    HW1 5383   4.034   0.804   2.675  0.4684 -0.1082  1.0767
 1022SOL    HW2 5384   3.921   0.877   2.745  0.3529 -0.2512  1.0408
 1023SOL     OW 5385   2.337   6.782  10.576 -0.1591 -0.4827 -0.3098
 1023SOL    HW1 5386   2.276   6.734  10.632 -0.5274 -0.1137 -0.3918
 1023SOL    HW2 5387   2.282   6.818  10.506  0.2907 -0.9360 -0.9146
 1024SOL     OW 5388   4.594   6.641   3.375  0.7430  0.2681 -0.0623
 1024SOL    HW1 5389   4.544   6.664   3.297 -1.6853 -0.1781  1.2710
 1024SOL    HW2 5390   4.591   6.720   3.430  0.6803 -0.0781  0.4394
 1025SOL     OW 5391   4.435   6.756   8.785 -0.7627 -0.1046 -0.2400
 1025SOL    HW1 5392   4.472   6.678   8.744  0.7972  1.5251 -2.1438
 1025SOL    HW2 5393   4.500   6.783   8.850 -0.4693  0.5297 -0.7826
 1026SOL     OW 5394   8.808   4.941   3.630 -0.2450 -0.5525 -0.3305
 1026SOL    HW1 5395   8.713   4.925   3.636 -1.4263  4.8578  0.8455
 1026SOL    HW2 5396   8.826   4.941   3.536 -1.4171 -1.4524 -0.5816
 1027SOL     OW 5397   1.569   0.005   7.190 -0.8093  0.4858 -0.2022
 1027SOL    HW1 5398   1.561   0.005   7.095 -0.9015  0.1745 -0.1949
 1027SOL    HW2 5399   1.649  -0.044   7.208  1.0818  3.3633 -0.2616
 1028SOL     OW 5400   1.511   4.860   8.046  0.0333  0.3047  0.2967
 1028SOL    HW1 5401   1.567   4.937   8.036 -1.2764  1.2090 -0.3453
 1028SOL    HW2 5402   1.531   4.827   8.134  1.3846  0.7351  0.1708
 1029SOL     OW 5403   0.763   8.714   9.601  0.0828  0.2362 -0.3851
 1029SOL    HW1 5404   0.806   8.787   9.556  0.5524 -0.3097 -0.8320
 1029SOL    HW2 5405   0.800   8.635   9.561 -0.3367 -0.2536  0.1683
 1030SOL     OW 5406   4.986   0.207   3.419 -0.1205 -0.3669 -0.3173
 1030SOL    HW1 5407   4.965   0.159   3.339 -2.9146 -2.0409  1.2316
 1030SOL    HW2 5408   5.026   0.288   3.389 -1.5416 -0.6585 -3.4426
 1031SOL     OW 5409   3.040   7.431   9.297  0.2997 -0.2654  0.0951
 1031SOL    HW1 5410   3.128   7.396   9.279 -0.2124 -0.7496 -1.6600
 1031SOL    HW2 5411   3.052   7.526   9.300  0.5360 -0.0921 -2.8317
 1032SOL     OW 5412   3.601   2.642   2.170 -0.0079  1.2761  0.2245
 1032SOL    HW1 5413   3.604   2.573   2.235  2.9919  1.1353  0.0503
 1032SOL    HW2 5414   3.652   2.714   2.208  0.6643  1.7022 -1.3784
 1033SOL     OW 5415   9.033  10.107   1.253  0.2916  0.1345  0.0369
 1033SOL    HW1 5416   9.059  10.179   1.195 -2.1686  1.0339 -0.0498
 1033SOL    HW2 5417   8.983  10.048   1.196 -4.0811  2.0986  1.4340
 1034SOL     OW 5418   9.842   1.069   7.278 -0.2401  0.3678 -0.4143
 1034SOL    HW1 5419   9.794   1.033   7.204 -1.1161 -0.8602  0.7074
 1034SOL    HW2 5420   9.774   1.092   7.342  0.5795 -0.6497  0.8787
 1035SOL     OW 5421   2.781   4.896   3.659  0.0324  0.5663 -0.3293
 1035SOL    HW1 5422   2.717   4.875   3.727  0.7311  1.1649  0.5477
 1035SOL    HW2 5423   2.758   4.839   3.586 -0.9526  0.1454  0.2838
 1036SOL     OW 5424   3.319   3.836   8.338  0.0851  0.2672 -0.8127
 1036SOL    HW1 5425   3.230   3.830   8.373  0.8273 -0.0853  1.1212
 1036SOL    HW2 5426   3.329   3.757   8.285 -0.2457 -0.4649  0.1959
 1037SOL     OW 5427   7.928   3.324   1.240  0.3881 -0.7264 -0.0036
 1037SOL    HW1 5428   7.941   3.325   1.145  1.8273 -0.0460  0.1679
 1037SOL    HW2 5429   7.933   3.417   1.265 -0.8695 -0.8186  0.6343
 1038SOL     OW 5430   5.927   3.230   2.005  0.3771 -0.1214 -0.3029
 1038SOL    HW1 5431   5.946   3.298   1.940 -0.7170  0.2162 -0.2848
 1038SOL    HW2 5432   5.944   3.148   1.958  0.9205  0.1384 -0.5768
 1039SOL     OW 5433   1.103   7.897   1.633 -0.3144 -0.1807  0.0150
 1039SOL    HW1 5434   1.144   7.902   1.547  1.8824  1.3420  1.0605
 1039SOL    HW2 5435   1.176   7.879   1.693 -1.2422  1.8609  1.8889
 1040SOL     OW 5436  10.340   2.079   9.586  0.5818  0.1481 -0.0776
 1040SOL    HW1 5437  10.418   2.056   9.635  0.5446 -0.9609 -0.5013
 1040SOL    HW2 5438  10.280   2.006   9.600  0.7053 -0.3915 -2.0262
 1041SOL     OW 5439   0.250   6.509   5.503 -0.1815  0.1822 -0.1713
 1041SOL    HW1 5440   0.231   6.587   5.451 -1.9265  0.4867  0.8448
 1041SOL    HW2 5441   0.322   6.536   5.561  0.1895  0.5682 -0.8016
 1042SOL     OW 5442   3.883   4.657  10.419  0.0673  0.6980 -0.3954
 1042SOL    HW1 5443   3.887   4.562  10.408 -0.6808  0.6493 -0.2785
 1042SOL    HW2 5444   3.964   4.679  10.466 -0.2784 -0.0295  0.5636
 1043SOL     OW 5445   4.853   9.825   1.894 -0.0633  0.3254  0.3959
 1043SOL    HW1 5446   4.776   9.881   1.902 -0.4297 -0.1869  0.4577
 1043SOL    HW2 5447   4.904   9.843   1.973  0.5703  1.6881 -0.2860
 1044SOL     OW 5448   5.907   0.871   1.351 -0.1095 -0.0630  0.5034
 1044SOL    HW1 5449   5.877   0.929   1.281 -2.5420 -0.5721  1.0118
 1044SOL    HW2 5450   5.921   0.787   1.309  0.0574  0.0514  0.3336
 1045SOL     OW 5451   9.069   9.375   3.615 -0.3683  0.1749  0.7215
 1045SOL    HW1 5452   9.123   9.402   3.541  0.6344 -0.0917  1.3410
 1045SOL    HW2 5453   8.985   9.353   3.576 -0.2144  1.1144 -0.2002
 1046SOL     OW 5454   5.413   3.053   6.677 -0.0858 -0.0137 -0.3241
 1046SOL    HW1 5455   5.363   3.134   6.668  0.0720  0.1374  0.1246
 1046SOL    HW2 5456   5.448   3.036   6.590 -1.2729 -0.3579 -0.7471
 1047SOL     OW 5457   3.474   0.744   9.173  0.3641  0.4597 -0.0216
 1047SOL    HW1 5458   3.484   0.816   9.235 -1.2117  0.6104  0.1033
 1047SOL    HW2 5459   3.413   0.777   9.107  0.9100 -0.1928 -0.8718
 1048SOL     OW 5460   2.406   2.059   0.372 -0.6816  0.4360  0.0405
 1048SOL    HW1 5461   2.348   2.134   0.359 -1.8187  0.1504  2.7951
 1048SOL    HW2 5462   2.358   1.984   0.339 -0.2181  0.6514 -1.2004
 1049SOL     OW 5463   6.938   7.034   6.888  0.4706 -0.2141  0.0213
 1049SOL    HW1 5464   6.981   7.024   6.803 -1.1911 -0.1673 -0.8579
 1049SOL    HW2 5465   6.894   7.119   6.883 -0.3593 -0.6009  0.5962
 1050SOL     OW 5466   0.640   4.725   6.325  0.5137  0.0634 -0.5314
 1050SOL    HW1 5467   0.561   4.671   6.324  2.3350 -2.8858  0.7334
 1050SOL    HW2 5468   0.676   4.718   6.237 -0.4413  1.1730 -1.0246
 1051SOL     OW 5469   4.750   4.895   6.409 -0.1547  0.1522  0.5226
 1051SOL    HW1 5470   4.821   4.922   6.467  0.5721  1.2442 -0.8174
 1051SOL    HW2 5471   4.738   4.969   6.349 -2.2163 -0.1346  0.5090
 1052SOL     OW 5472   2.449   9.073   9.458  0.1294 -0.5019 -0.2134
 1052SOL    HW1 5473   2.520   9.013   9.435  3.3212  2.4979  0.8540
 1052SOL    HW2 5474   2.492   9.143   9.507 -3.4977  2.0542 -0.2655
 1053SOL     OW 5475   7.720   7.256   9.875  0.2538 -0.3949 -0.2341
 1053SOL    HW1 5476   7.731   7.259   9.970  0.0147 -2.6344 -0.0810
 1053SOL    HW2 5477   7.790   7.311   9.841 -0.8105  2.0165  1.2431
 1054SOL     OW 5478   9.958   6.071   0.568  0.3883 -0.4361 -0.5309
 1054SOL    HW1 5479   9.875   6.091   0.610  0.7296  0.6990 -0.3727
 1054SOL    HW2 5480  10.006   6.019   0.633 -0.1859 -1.1161 -0.6313
 1055SOL     OW 5481   8.072   1.840   2.227 -0.7845  0.0583 -0.1672
 1055SOL    HW1 5482   8.137   1.800   2.284 -2.3063 -2.2411  0.0587
 1055SOL    HW2 5483   8.116   1.849   2.143  0.4993  0.6446  0.5333
 1056SOL     OW 5484   6.444   8.369   5.782 -0.3327 -0.1476 -0.5211
 1056SOL    HW1 5485   6.366   8.422   5.764 -0.1612  0.0618 -0.6447
 1056SOL    HW2 5486   6.508   8.396   5.716  0.3821  0.7889  0.5325
 1057SOL     OW 5487   4.989   3.686  10.500 -0.2935 -0.0631  0.0946
 1057SOL    HW1 5488   4.935   3.612  10.472 -0.9595  0.6051 -0.4316
 1057SOL    HW2 5489   4.965   3.700  10.592 -1.1487  0.3244 -0.1764
 1058SOL     OW 5490   5.027   2.084   4.843 -0.1315  0.0346 -0.0798
 1058SOL    HW1 5491   4.962   2.152   4.854  0.0881  0.6351 -2.0525
 1058SOL    HW2 5492   4.993   2.029   4.772  1.2442  0.0852 -0.8254
 1059SOL     OW 5493   6.324  10.202   9.403 -0.0275  0.9573  0.2266
 1059SOL    HW1 5494   6.282  10.275   9.358 -0.3786  1.4999  1.4209
 1059SOL    HW2 5495   6.376  10.242   9.472 -0.7737  0.0542  1.3448
 1060SOL     OW 5496   1.189   2.490   1.456  0.2825 -0.0104 -0.1786
 1060SOL    HW1 5497   1.095   2.509   1.448  0.4659  0.3389 -1.8503
 1060SOL    HW2 5498   1.232   2.563   1.412  1.4772  0.8469  2.2207
 1061SOL     OW 5499   0.281   4.617   8.668  0.7906 -0.7824 -0.3472
 1061SOL    HW1 5500   0.312   4.599   8.757  0.5416 -0.6924 -0.2398
 1061SOL    HW2 5501   0.289   4.533   8.622 -0.3884 -1.1904  0.1557
 1062SOL     OW 5502   9.698   7.884   2.467 -0.0138  0.6782 -0.0021
 1062SOL    HW1 5503   9.778   7.831   2.470 -0.1380  0.4529 -0.5092
 1062SOL    HW2 5504   9.645   7.853   2.540 -0.3417 -0.3181 -0.6481
 1063SOL     OW 5505   2.569   2.006  10.255  0.1670 -0.2160 -0.6686
 1063SOL    HW1 5506   2.658   2.005  10.289 -0.3000  0.2099  0.6219
 1063SOL    HW2 5507   2.574   2.057  10.175  1.5575 -2.3902 -2.0692
 1064SOL     OW 5508   8.244   9.692   9.161 -0.7078  0.1955  0.5519
 1064SOL    HW1 5509   8.240   9.717   9.253 -0.2934 -0.9372  0.8869
 1064SOL    HW2 5510   8.315   9.746   9.125 -1.2531  1.0588  0.7489
 1065SOL     OW 5511  10.449   4.568   8.147  0.1399  0.2592  0.1264
 1065SOL    HW1 5512  10.540   4.584   8.124 -0.0863 -0.0448 -1.0543
 1065SOL    HW2 5513  10.442   4.473   8.155 -0.7152 -0.0271 -2.8891
 1066SOL     OW 5514   7.107   2.862   6.197  0.0206 -0.2777 -0.0777
 1066SOL    HW1 5515   7.081   2.925   6.264 -2.9479 -2.6347  1.1993
 1066SOL    HW2 5516   7.043   2.873   6.128  0.7900 -0.4696 -0.8424
 1067SOL     OW 5517   5.030   3.177   7.438  0.6162 -0.0057  0.3586
 1067SOL    HW1 5518   4.985   3.104   7.394 -0.0092  0.7386 -0.2537
 1067SOL    HW2 5519   5.073   3.136   7.513 -1.6823 -0.6556  1.3996
 1068SOL     OW 5520   6.387  10.211   5.102  0.3589  0.6135  0.1656
 1068SOL    HW1 5521   6.322  10.279   5.114  0.6157  0.7626  0.7561
 1068SOL    HW2 5522   6.359  10.140   5.160 -0.0305  0.1218 -0.6107
 1069SOL     OW 5523   8.635   4.206   8.825  0.3575 -0.4536 -0.2546
 1069SOL    HW1 5524   8.692   4.154   8.768 -0.4018 -1.3046 -0.2539
 1069SOL    HW2 5525   8.664   4.187   8.914  0.1030 -0.8562 -0.2566
 1070SOL     OW 5526   5.374  10.445   2.990 -0.3390  0.4597  0.4623
 1070SOL    HW1 5527   5.436  10.451   2.917  0.1381  1.3920  0.9278
 1070SOL    HW2 5528   5.321  10.524   2.983 -1.6531 -0.4330 -0.0613
 1071SOL     OW 5529   1.841   2.752   7.851 -0.1802 -0.2867  0.0151
 1071SOL    HW1 5530   1.802   2.785   7.771  0.9564 -1.5716 -1.1465
 1071SOL    HW2 5531   1.926   2.717   7.823  0.7155  0.1613  1.9727
 1072SOL     OW 5532   0.411   6.910   4.565 -0.4815 -0.0531 -0.0897
 1072SOL    HW1 5533   0.319   6.902   4.588 -0.9483 -0.8804 -2.0244
 1072SOL    HW2 5534   0.433   6.827   4.523  0.7635  0.6507 -0.9194
 1073SOL     OW 5535   6.851   0.993   0.121 -0.4515  0.2886  0.1599
 1073SOL    HW1 5536   6.876   1.058   0.187 -0.8271 -0.5541  1.1787
 1073SOL    HW2 5537   6.910   0.919   0.136 -0.4449  0.1414 -0.5543
 1074SOL     OW 5538   4.875   5.024   8.284  0.3225 -0.2270 -0.0718
 1074SOL    HW1 5539   4.926   5.045   8.206  0.4692 -1.1682 -0.2346
 1074SOL    HW2 5540   4.908   5.084   8.351  0.5607  0.2282 -0.5891
 1075SOL     OW 5541   2.338   2.023   7.582 -0.2400  0.0482 -0.6711
 1075SOL    HW1 5542   2.320   1.952   7.520 -0.1876 -0.7881  0.2331
 1075SOL    HW2 5543   2.287   2.097   7.550 -1.6170 -0.8924 -0.7490
 1076SOL     OW 5544   0.733   8.506   3.806 -0.7450 -0.0694  0.3971
 1076SOL    HW1 5545   0.732   8.573   3.738  0.4194 -0.5889 -0.1477
 1076SOL    HW2 5546   0.692   8.548   3.882 -0.4325  1.1029 -0.0745
 1077SOL     OW 5547   0.748   5.923   3.531  0.0005 -0.4713 -0.0294
 1077SOL    HW1 5548   0.717   5.953   3.617 -2.4158 -1.1479 -0.6136
 1077SOL    HW2 5549   0.790   5.839   3.549 -0.2439 -0.4775  0.5334
 1078SOL     OW 5550   7.759   1.045   7.007  0.0661 -0.3702  0.1131
 1078SOL    HW1 5551   7.692   1.072   7.070  0.5050  0.1567  0.3645
 1078SOL    HW2 5552   7.841   1.052   7.055  0.2622 -1.6227  0.0013
 1079SOL     OW 5553   4.130   2.275   4.882 -0.5872 -0.2818 -0.2404
 1079SOL    HW1 5554   4.084   2.314   4.808 -0.5415  0.7324  0.2475
 1079SOL    HW2 5555   4.135   2.345   4.947 -0.1096 -0.9765  0.4947
 1080SOL     OW 5556   7.074   0.625   2.394 -0.2074 -0.2935  0.0573
 1080SOL    HW1 5557   6.980   0.617   2.406 -0.4285  0.5084 -0.9574
 1080SOL    HW2 5558   7.107   0.655   2.479 -0.5147 -2.8177  1.1428
 1081SOL     OW 5559   8.053   7.676   4.096 -0.2878 -0.0908  0.1044
 1081SOL    HW1 5560   7.985   7.611   4.079  0.1601 -1.1983  2.2504
 1081SOL    HW2 5561   8.116   7.664   4.025 -0.0678 -2.2495  0.5967
 1082SOL     OW 5562   8.467   4.512   3.181  0.5870 -0.2939 -0.0761
 1082SOL    HW1 5563   8.553   4.550   3.195 -0.4079  2.1019  0.0072
 1082SOL    HW2 5564   8.412   4.549   3.250 -0.7813 -0.8379 -0.8137
 1083SOL     OW 5565   1.971   9.731   9.054 -0.1915  0.0086 -0.2521
 1083SOL    HW1 5566   2.052   9.685   9.033 -0.4435 -0.2670 -0.6255
 1083SOL    HW2 5567   1.933   9.754   8.970 -0.0850  0.8771 -0.0666
 1084SOL     OW 5568   1.979   1.548   0.348 -0.3452  0.2086  0.1730
 1084SOL    HW1 5569   1.947   1.515   0.264 -1.8783  0.7780  0.5017
 1084SOL    HW2 5570   2.052   1.605   0.325  0.2185 -0.8084 -0.6448
 1085SOL     OW 5571   2.168  10.518   5.353 -0.4546  0.4199  0.0848
 1085SOL    HW1 5572   2.074  10.525   5.341 -0.4675 -0.2451 -0.2885
 1085SOL    HW2 5573   2.179  10.442   5.410 -0.1634  0.7992  0.5447
 1086SOL     OW 5574   4.363   1.690   8.525  0.7028  0.3669 -0.4568
 1086SOL    HW1 5575   4.389   1.725   8.440  2.3064  0.4184  0.0200
 1086SOL    HW2 5576   4.397   1.600   8.525  1.5379  0.6596  0.4555
 1087SOL     OW 5577   9.495   7.594   8.985  0.7090 -0.3971  0.5362
 1087SOL    HW1 5578   9.583   7.616   9.015  0.5165 -0.2430  1.0050
 1087SOL    HW2 5579   9.450   7.565   9.064 -0.1769  1.1590  0.6587
 1088SOL     OW 5580   2.036   9.487   3.031  0.4321  0.2737 -0.2514
 1088SOL    HW1 5581   2.022   9.573   2.992  0.2868  0.1805 -0.4076
 1088SOL    HW2 5582   2.114   9.454   2.989  1.3628  0.9449  0.8794
 1089SOL     OW 5583   4.839   6.038  10.584  0.0649  0.0789  0.2123
 1089SOL    HW1 5584   4.879   5.953  10.600 -0.1568 -0.4328 -1.7249
 1089SOL    HW2 5585   4.912   6.097  10.568  0.2098  0.2348  1.3699
 1090SOL     OW 5586   8.111   2.207   8.915 -0.2851 -0.1809 -1.3479
 1090SOL    HW1 5587   8.058   2.280   8.947 -0.1598 -0.3567 -0.7244
 1090SOL    HW2 5588   8.103   2.211   8.820  1.8199  2.2408 -1.5305
 1091SOL     OW 5589   0.433   5.184   5.754  0.5076  0.6515  0.1555
 1091SOL    HW1 5590   0.519   5.151   5.729  0.9816  0.8056  1.4933
 1091SOL    HW2 5591   0.380   5.106   5.771  0.9401  0.5522  1.0930
 1092SOL     OW 5592   5.371   3.431   8.800 -0.1123 -0.7633 -0.0193
 1092SOL    HW1 5593   5.285   3.421   8.841 -0.1398  0.4466  0.2425
 1092SOL    HW2 5594   5.393   3.343   8.770 -0.3967 -1.5666  1.9778
 1093SOL     OW 5595   9.788   7.450   5.670 -0.1355  0.1609 -0.4769
 1093SOL    HW1 5596   9.762   7.513   5.603  0.3666 -0.5382 -1.3443
 1093SOL    HW2 5597   9.757   7.366   5.638  0.5270 -0.2527 -0.0660
 1094SOL     OW 5598   7.918   8.192   7.113  0.0593 -0.2139 -0.0868
 1094SOL    HW1 5599   7.835   8.226   7.146  0.2304 -0.0925  0.2270
 1094SOL    HW2 5600   7.980   8.264   7.126  0.0568 -0.0384 -0.9926
 1095SOL     OW 5601   4.402   2.198   8.868 -0.7808 -0.3302  0.4646
 1095SOL    HW1 5602   4.473   2.155   8.917  1.8231  2.6016 -0.3775
 1095SOL    HW2 5603   4.375   2.132   8.804  3.6073 -0.7151 -1.3933
 1096SOL     OW 5604   6.894   7.421   5.272  0.5542 -0.1826  0.7669
 1096SOL    HW1 5605   6.945   7.429   5.353 -0.3668  1.7829  1.2083
 1096SOL    HW2 5606   6.809   7.459   5.294  0.1242 -0.0705 -1.0010
 1097SOL     OW 5607   8.493   7.228   7.650  0.1741 -0.0319 -0.2501
 1097SOL    HW1 5608   8.534   7.230   7.563  0.7529 -3.1030 -0.1469
 1097SOL    HW2 5609   8.566   7.241   7.710 -0.0668  1.0322 -0.1717
 1098SOL     OW 5610   4.335   8.652   6.050  0.3872  0.2350  0.4009
 1098SOL    HW1 5611   4.398   8.681   6.116 -0.6631 -0.5821  1.8178
 1098SOL    HW2 5612   4.390   8.627   5.975  1.9320 -1.8844  2.1020
 1099SOL     OW 5613   3.116   6.609   5.363 -0.1585 -0.2621  0.0013
 1099SOL    HW1 5614   3.179   6.539   5.345  0.2951  0.2256 -0.3318
 1099SOL    HW2 5615   3.090   6.596   5.454 -1.5321 -2.0268 -0.5693
 1100SOL     OW 5616   9.727   1.881   5.192 -0.0020  0.0764  0.0135
 1100SOL    HW1 5617   9.631   1.883   5.188 -0.0608  0.6921  1.1582
 1100SOL    HW2 5618   9.748   1.935   5.269  1.2337 -0.6029  0.1637
 1101SOL     OW 5619   1.766   9.128   8.078  0.6307  0.5363 -0.4180
 1101SOL    HW1 5620   1.744   9.050   8.130  1.1155  1.2779  0.9707
 1101SOL    HW2 5621   1.711   9.122   8.001 -2.1660  0.7303  1.4334
 1102SOL     OW 5622   1.556   8.996   0.734 -0.0283  0.1145 -0.9623
 1102SOL    HW1 5623   1.548   9.090   0.750 -1.1977 -0.0374 -0.5350
 1102SOL    HW2 5624   1.470   8.961   0.758 -0.1603 -0.8363 -2.7157
 1103SOL     OW 5625   2.228   6.659   0.673  0.1843 -0.1466  0.1054
 1103SOL    HW1 5626   2.205   6.688   0.762 -0.7369 -2.0067  0.5290
 1103SOL    HW2 5627   2.150   6.678   0.621  0.5068  0.3997 -0.1863
 1104SOL     OW 5628   4.178   2.757   0.233  0.2417  0.4723 -0.6231
 1104SOL    HW1 5629   4.246   2.806   0.186 -0.7197  0.6552 -1.8890
 1104SOL    HW2 5630   4.115   2.824   0.260  0.9925  0.4285  1.3834
 1105SOL     OW 5631   1.621   1.370   2.671 -0.7058 -0.2891  0.2221
 1105SOL    HW1 5632   1.585   1.443   2.722  0.8235  0.7697 -0.1318
 1105SOL    HW2 5633   1.715   1.385   2.672 -0.3410 -2.3222  0.1734
 1106SOL     OW 5634   6.030   7.371   7.887 -0.6137  0.0484 -0.1739
 1106SOL    HW1 5635   5.951   7.415   7.919  0.2757  0.5302  1.4205
 1106SOL    HW2 5636   6.029   7.387   7.792 -2.2114  0.3746 -0.1408
 1107SOL     OW 5637   1.791   7.185   3.175 -0.2936  0.1165  0.3418
 1107SOL    HW1 5638   1.766   7.096   3.149 -1.6606  0.4693  0.3766
 1107SOL    HW2 5639   1.780   7.185   3.270 -0.6454  0.4264  0.3006
 1108SOL     OW 5640   1.405   5.437   1.172 -0.3562 -0.5109 -0.2738
 1108SOL    HW1 5641   1.394   5.376   1.099  0.2623 -0.6536 -0.2539
 1108SOL    HW2 5642   1.431   5.383   1.246 -0.7004 -0.3301 -0.0179
 1109SOL     OW 5643   4.064   8.988   0.937 -0.4220 -0.2507 -0.0544
 1109SOL    HW1 5644   4.009   8.987   0.859 -1.0177  1.4139  0.3062
 1109SOL    HW2 5645   4.004   9.012   1.008  0.6151  0.9691  0.4477
 1110SOL     OW 5646   5.518   9.831   6.952 -0.2761 -0.4980  0.0853
 1110SOL    HW1 5647   5.559   9.914   6.927  0.1175 -1.1743 -1.6932
 1110SOL    HW2 5648   5.569   9.765   6.906 -1.9611 -1.5529 -0.3619
 1111SOL     OW 5649   6.624   3.575   8.948 -0.1229 -0.2191  0.4424
 1111SOL    HW1 5650   6.586   3.601   8.864 -0.4409 -0.2050  0.5900
 1111SOL    HW2 5651   6.668   3.654   8.980 -0.3080 -0.1231  0.4593
 1112SOL     OW 5652   0.560   0.937   1.302  0.2564 -0.1972  0.2142
 1112SOL    HW1 5653   0.604   0.966   1.222 -2.4345  0.1230 -1.2765
 1112SOL    HW2 5654   0.529   1.018   1.343  2.1166 -0.2946  2.0404
 1113SOL     OW 5655   9.114   2.996   7.167 -0.3461  0.5574  0.6550
 1113SOL    HW1 5656   9.149   2.996   7.078  2.4157  2.2154  1.6318
 1113SOL    HW2 5657   9.083   2.906   7.181  1.1488 -0.3151 -1.2320
 1114SOL     OW 5658   2.445  10.426   2.859 -0.0281  0.2531  0.1129
 1114SOL    HW1 5659   2.392  10.468   2.790 -0.4416 -1.2887 -0.5449
 1114SOL    HW2 5660   2.397  10.346   2.881  1.0522 -0.2046  0.8845
 1115SOL     OW 5661   6.704   3.269   9.553 -0.3124  1.0683 -0.0428
 1115SOL    HW1 5662   6.661   3.200   9.503  0.4691 -1.1423  2.1283
 1115SOL    HW2 5663   6.659   3.269   9.638  0.2790  2.6871  0.3224
 1116SOL     OW 5664   6.570   3.488   4.152  0.1909  0.6109  0.0700
 1116SOL    HW1 5665   6.557   3.567   4.205  1.2836 -0.3216  1.8525
 1116SOL    HW2 5666   6.483   3.448   4.148  0.4699 -0.7095  3.6759
 1117SOL     OW 5667   5.510   3.888   8.046  0.2292 -0.1345 -0.6162
 1117SOL    HW1 5668   5.464   3.970   8.027  0.1680 -0.4324 -1.8472
 1117SOL    HW2 5669   5.588   3.915   8.095  0.8532  0.8086 -2.0607
 1118SOL     OW 5670   7.667   9.807   8.549  0.1258  0.1471 -0.1640
 1118SOL    HW1 5671   7.588   9.860   8.558  0.5793  0.9584 -0.7954
 1118SOL    HW2 5672   7.663   9.745   8.622 -0.6313  0.7646  0.3366
 1119SOL     OW 5673   7.094   2.087   7.123 -0.1563  0.6869 -0.2410
 1119SOL    HW1 5674   7.170   2.090   7.180 -0.9758  0.5793  0.9065
 1119SOL    HW2 5675   7.129   2.074   7.035  1.0316 -2.5254  0.5763
 1120SOL     OW 5676   5.937   4.109   2.759 -0.4823  0.1937 -0.0889
 1120SOL    HW1 5677   5.910   4.140   2.846  2.1564 -0.4995  1.0649
 1120SOL    HW2 5678   5.898   4.022   2.753 -0.8805  0.3368  0.2964
 1121SOL     OW 5679  10.196   1.967   4.674  0.4457 -0.2638 -0.0371
 1121SOL    HW1 5680  10.139   1.910   4.725 -2.7018  1.7060 -1.0510
 1121SOL    HW2 5681  10.219   2.038   4.734 -0.4257  0.2906 -0.3346
 1122SOL     OW 5682   3.101   4.875  10.513  0.1125  0.2765 -0.3538
 1122SOL    HW1 5683   3.180   4.920  10.543  1.8948 -1.4908 -2.0639
 1122SOL    HW2 5684   3.084   4.809  10.580  0.5550  0.1544 -0.3617
 1123SOL     OW 5685   8.040   8.734   5.678 -1.0781  0.2424  0.1849
 1123SOL    HW1 5686   8.056   8.731   5.772  1.4249  2.4114 -0.0549
 1123SOL    HW2 5687   8.044   8.827   5.655  1.3977 -0.3373 -2.4315
 1124SOL     OW 5688   5.039   8.092   0.774  0.3465 -0.0682 -0.1517
 1124SOL    HW1 5689   5.009   8.183   0.787 -0.8366 -0.5100  0.3766
 1124SOL    HW2 5690   5.110   8.099   0.711  1.3584  1.3983  1.0820
 1125SOL     OW 5691   4.018   9.978   6.176 -0.6725  0.2899  0.2533
 1125SOL    HW1 5692   4.022   9.899   6.121  2.9203 -0.5168  1.4228
 1125SOL    HW2 5693   3.967   9.951   6.252 -2.0202  0.0882 -0.6806
 1126SOL     OW 5694   5.889  10.019   7.989 -0.0035 -0.2402 -0.5976
 1126SOL    HW1 5695   5.976  10.029   8.028 -0.4579  1.7582  0.0545
 1126SOL    HW2 5696   5.898  10.055   7.900 -0.4208  1.1747 -0.0932
 1127SOL     OW 5697   0.253   9.959   1.074 -0.0648 -0.0232  0.0659
 1127SOL    HW1 5698   0.190   9.998   1.135  0.0683  0.5383 -0.1592
 1127SOL    HW2 5699   0.227   9.866   1.071  0.6479 -0.3338  1.8849
 1128SOL     OW 5700   7.431   8.933   7.579 -0.6623 -0.4368 -0.1648
 1128SOL    HW1 5701   7.472   8.846   7.572 -0.0686 -0.1915  0.1354
 1128SOL    HW2 5702   7.491   8.991   7.533 -0.9389 -0.1467 -0.1590
 1129SOL     OW 5703   4.082   8.043   8.802 -0.7500 -0.1240 -0.0607
 1129SOL    HW1 5704   4.034   7.970   8.840 -0.2077 -0.3465  0.2092
 1129SOL    HW2 5705   4.114   8.010   8.718 -0.0572 -0.3804  0.2976
 1130SOL     OW 5706  10.270   8.478   3.891 -0.1704 -0.5009 -0.2268
 1130SOL    HW1 5707  10.353   8.433   3.877 -0.7940 -2.0002  0.6443
 1130SOL    HW2 5708  10.293   8.555   3.943  0.5887 -1.3799  0.8034
 1131SOL     OW 5709   1.630   8.767   8.568  0.0179 -0.7265 -0.0274
 1131SOL    HW1 5710   1.552   8.821   8.564 -0.3500 -1.2662 -0.2289
 1131SOL    HW2 5711   1.650   8.760   8.662  0.6432  0.5527 -0.0324
 1132SOL     OW 5712   5.922   6.634   4.497  0.2042 -0.5941 -0.2724
 1132SOL    HW1 5713   5.997   6.674   4.541  0.6181 -2.4266  0.7925
 1132SOL    HW2 5714   5.955   6.551   4.464 -1.2861 -1.3187 -0.0174
 1133SOL     OW 5715   7.754   9.391   2.197  0.4793 -0.1377 -0.1148
 1133SOL    HW1 5716   7.732   9.324   2.261 -0.0975  0.1011 -0.0588
 1133SOL    HW2 5717   7.801   9.458   2.247  1.8504 -0.9030 -0.3385
 1134SOL     OW 5718   2.720   1.829   3.993 -0.5002  0.4449  0.6779
 1134SOL    HW1 5719   2.744   1.908   3.945  0.8077  0.1827  0.8561
 1134SOL    HW2 5720   2.768   1.758   3.949 -0.9382 -0.1064  1.0707
 1135SOL     OW 5721   3.704   4.512   1.881 -0.3304  0.2961  0.3143
 1135SOL    HW1 5722   3.695   4.433   1.828 -0.7787 -0.2839  1.2174
 1135SOL    HW2 5723   3.790   4.504   1.923 -0.2950  0.3772  0.2564
 1136SOL     OW 5724   9.290   2.000   9.889  0.8923  0.1104  0.2396
 1136SOL    HW1 5725   9.223   1.975   9.825  2.9671 -1.8309 -1.3278
 1136SOL    HW2 5726   9.256   2.080   9.928 -0.6948  1.2668 -3.0593
 1137SOL     OW 5727  10.525   5.507   8.846  0.3673  0.8199  0.1221
 1137SOL    HW1 5728  10.465   5.438   8.876 -0.5925  1.6380  0.1531
 1137SOL    HW2 5729  10.604   5.461   8.821 -0.2802 -0.3065  0.0706
 1138SOL     OW 5730   2.286   1.650   8.984 -0.3670 -0.1649  0.5477
 1138SOL    HW1 5731   2.373   1.613   8.972  2.1990  4.1957  3.2432
 1138SOL    HW2 5732   2.272   1.705   8.907 -0.3872 -0.2835  0.4673
 1139SOL     OW 5733   0.052   0.416   6.615  0.6181 -0.3724 -0.1398
 1139SOL    HW1 5734   0.035   0.404   6.709  0.1714 -0.9227 -0.2849
 1139SOL    HW2 5735   0.050   0.327   6.579  1.6782 -0.2567 -0.5287
 1140SOL     OW 5736   4.080   9.461   3.911 -0.3318 -0.0689  0.1367
 1140SOL    HW1 5737   4.165   9.461   3.867 -0.2036  0.3099  0.3753
 1140SOL    HW2 5738   4.026   9.403   3.859  0.1068 -0.3977  0.0385
 1141SOL     OW 5739  10.577   1.896   5.638 -0.2404  0.4836  0.1426
 1141SOL    HW1 5740  10.666   1.930   5.648 -0.0366 -0.3499  1.3671
 1141SOL    HW2 5741  10.579   1.848   5.555  0.4070  0.5981  0.0833
 1142SOL     OW 5742   8.207   1.624   0.463  0.0042  0.2908  0.1162
 1142SOL    HW1 5743   8.245   1.541   0.435 -1.3867 -1.3401  2.7429
 1142SOL    HW2 5744   8.130   1.635   0.407 -0.3864 -0.7186  0.4482
 1143SOL     OW 5745   9.045   4.555   6.020 -0.7429 -0.0643  0.3199
 1143SOL    HW1 5746   9.104   4.630   6.011  0.7583 -1.0256  1.5842
 1143SOL    HW2 5747   8.989   4.578   6.095 -0.1012 -0.2839  0.8845
 1144SOL     OW 5748   2.050   3.567   9.190  0.4993 -0.1772 -0.1108
 1144SOL    HW1 5749   2.043   3.661   9.209  0.4114 -0.2468  0.1927
 1144SOL    HW2 5750   2.139   3.544   9.216  0.4726 -0.2097 -0.0477
 1145SOL     OW 5751   6.752   0.064  10.448 -0.6896 -0.0068  0.0521
 1145SOL    HW1 5752   6.687  -0.007  10.453  0.0907 -0.8839 -1.4360
 1145SOL    HW2 5753   6.807   0.052  10.525 -0.2965 -1.3358 -0.3978
 1146SOL     OW 5754   6.611   5.835   0.629 -0.3314 -0.0149  0.2162
 1146SOL    HW1 5755   6.669   5.759   0.621  2.1356  1.4814  2.1635
 1146SOL    HW2 5756   6.524   5.797   0.643  0.4026 -2.4164 -1.0622
 1147SOL     OW 5757   3.541   7.590   1.929  0.0618  0.1338 -0.5506
 1147SOL    HW1 5758   3.447   7.592   1.910 -0.3632 -0.9025  1.2343
 1147SOL    HW2 5759   3.577   7.528   1.865 -0.2388  1.3178 -1.9394
 1148SOL     OW 5760   2.881   7.260   9.865 -0.1731  0.1845 -0.5791
 1148SOL    HW1 5761   2.889   7.355   9.869 -0.1394  0.1512  0.5788
 1148SOL    HW2 5762   2.796   7.244   9.823 -1.0612  0.7776  0.8948
 1149SOL     OW 5763   1.294   8.689   8.833  0.1730  0.4427 -0.3870
 1149SOL    HW1 5764   1.355   8.616   8.829 -0.5114 -0.2178  0.7411
 1149SOL    HW2 5765   1.297   8.728   8.746  0.9861 -0.5737 -0.8277
 1150SOL     OW 5766   2.249   6.096   1.083  0.0210  0.4215  0.1738
 1150SOL    HW1 5767   2.305   6.101   1.006  1.9550  0.4392  1.5113
 1150SOL    HW2 5768   2.174   6.151   1.061  1.3977  1.9471 -1.0141
 1151SOL     OW 5769   6.575   6.326   2.846  0.5812 -0.1832 -0.4942
 1151SOL    HW1 5770   6.496   6.354   2.800  1.4632 -0.8964 -2.5685
 1151SOL    HW2 5771   6.604   6.404   2.893 -0.6873  0.4333 -0.6960
 1152SOL     OW 5772   2.268   6.230  10.290  0.6093  0.0099  0.7905
 1152SOL    HW1 5773   2.336   6.283  10.247  1.2294  0.5684  2.3931
 1152SOL    HW2 5774   2.192   6.237  10.232  1.7416 -0.2072 -0.7902
 1153SOL     OW 5775   8.268   7.881   8.970 -0.5022 -0.1944  0.1668
 1153SOL    HW1 5776   8.291   7.939   8.898  0.5906 -0.8648 -0.0581
 1153SOL    HW2 5777   8.353   7.849   9.003 -1.0143 -0.4948  1.2516
 1154SOL     OW 5778   7.577   2.524  10.530  0.3426 -0.0130  0.0151
 1154SOL    HW1 5779   7.663   2.490  10.554  0.6602  1.0236  0.4235
 1154SOL    HW2 5780   7.515   2.475  10.584  0.7734  0.0185  0.5409
 1155SOL     OW 5781   2.365   7.392   1.717  0.1773  0.2103 -0.2315
 1155SOL    HW1 5782   2.340   7.367   1.628  0.0817  0.9226 -0.4117
 1155SOL    HW2 5783   2.338   7.318   1.772 -0.2399 -0.0038 -0.7242
 1156SOL     OW 5784   3.038   5.908   3.976  0.8096 -0.1329  0.4683
 1156SOL    HW1 5785   3.101   5.864   3.920  0.8461 -1.1637  1.2854
 1156SOL    HW2 5786   3.046   6.001   3.953  1.2893 -0.4499 -0.7353
 1157SOL     OW 5787   4.047   5.062   5.923 -0.0762  0.1705 -0.0210
 1157SOL    HW1 5788   4.123   5.061   5.864 -0.3687 -1.9190 -0.4472
 1157SOL    HW2 5789   3.972   5.057   5.864 -0.4663  0.4882  0.4511
 1158SOL     OW 5790   8.508   5.072   7.540  0.1931 -0.1025  0.3418
 1158SOL    HW1 5791   8.535   5.097   7.452 -0.6133  0.4004  0.2244
 1158SOL    HW2 5792   8.415   5.050   7.532  0.0538  0.1630  1.1011
 1159SOL     OW 5793   9.263   4.491   9.384  0.0996 -0.2162 -0.9973
 1159SOL    HW1 5794   9.184   4.508   9.333  0.2749 -0.0952 -1.2310
 1159SOL    HW2 5795   9.329   4.551   9.348  0.0821  0.2587 -0.2766
 1160SOL     OW 5796   1.301   5.500   9.959 -0.0002 -0.0499  0.0093
 1160SOL    HW1 5797   1.216   5.477   9.997 -0.0910 -1.8622 -1.1794
 1160SOL    HW2 5798   1.357   5.516  10.035 -0.7655 -1.3398  0.8849
 1161SOL     OW 5799   8.279   5.052   4.834 -0.1757  0.2522  0.2280
 1161SOL    HW1 5800   8.241   5.100   4.908  0.6427  0.2770  0.6516
 1161SOL    HW2 5801   8.373   5.065   4.844  0.0218 -0.9004 -0.0182
 1162SOL     OW 5802   8.972   6.597   1.177 -0.2883  0.7714  0.0118
 1162SOL    HW1 5803   9.021   6.624   1.099  0.3099  1.3445  0.5649
 1162SOL    HW2 5804   8.935   6.679   1.211 -1.8345  0.3206 -0.5105
 1163SOL     OW 5805   6.299   3.789   6.454  0.2333  0.1921 -0.0597
 1163SOL    HW1 5806   6.227   3.747   6.408  0.1652  0.2353  0.0082
 1163SOL    HW2 5807   6.377   3.741   6.425  0.1287 -0.1466  0.2138
 1164SOL     OW 5808   4.236   0.489   2.877  0.6575 -0.0201 -0.6997
 1164SOL    HW1 5809   4.233   0.463   2.969  1.7302  0.1890 -0.5939
 1164SOL    HW2 5810   4.183   0.423   2.831  2.2215 -1.6488 -0.2671
 1165SOL     OW 5811   7.105   3.627   1.434 -0.1412  0.3785  0.2204
 1165SOL    HW1 5812   7.020   3.645   1.476 -0.2013  0.9829 -0.1516
 1165SOL    HW2 5813   7.111   3.691   1.364 -0.1909 -0.8470 -0.9381
 1166SOL     OW 5814   3.905   6.011   3.656 -0.2265  0.0479 -0.0351
 1166SOL    HW1 5815   3.930   6.067   3.583  0.4341 -0.9778 -0.6248
 1166SOL    HW2 5816   3.982   6.009   3.712 -0.0460 -0.6973 -0.2997
 1167SOL     OW 5817   5.066   0.541   9.753 -0.5700 -0.6637  0.1882
 1167SOL    HW1 5818   4.987   0.581   9.789 -0.7256  0.5273 -1.3455
 1167SOL    HW2 5819   5.059   0.448   9.776 -1.9172 -0.4011  0.9295
 1168SOL     OW 5820   0.542   2.623   2.782  0.7303  0.5781  0.2561
 1168SOL    HW1 5821   0.575   2.712   2.775  1.5822  0.5951  3.1983
 1168SOL    HW2 5822   0.486   2.624   2.859 -2.3380 -0.6460 -1.7556
 1169SOL     OW 5823   2.695   8.180   0.666  0.3638 -0.2625  0.1753
 1169SOL    HW1 5824   2.750   8.177   0.588 -0.4644 -1.1629 -0.4132
 1169SOL    HW2 5825   2.665   8.271   0.672 -1.6398 -0.6590 -2.1204
 1170SOL     OW 5826   1.478   8.849   1.633 -0.3556 -0.4189  0.3099
 1170SOL    HW1 5827   1.487   8.799   1.714  0.1003 -0.8820 -0.0241
 1170SOL    HW2 5828   1.450   8.785   1.568 -1.4345  0.0850  0.2523
 1171SOL     OW 5829   7.869   8.353   3.523  0.2138 -0.8040  0.3562
 1171SOL    HW1 5830   7.854   8.421   3.457 -1.6361 -1.4084  0.1036
 1171SOL    HW2 5831   7.850   8.396   3.607  0.1009 -0.7233  0.2888
 1172SOL     OW 5832   0.586   8.871   0.354  0.0354 -0.1621 -0.3560
 1172SOL    HW1 5833   0.567   8.901   0.265  0.4694  0.4859 -0.2356
 1172SOL    HW2 5834   0.530   8.794   0.365  0.6376 -0.7880 -1.4952
 1173SOL     OW 5835   6.791   5.695   4.204  0.4270 -0.0595 -0.4249
 1173SOL    HW1 5836   6.827   5.684   4.292  1.2286 -0.3593 -0.7738
 1173SOL    HW2 5837   6.719   5.633   4.199 -0.3726  0.7791  0.4017
 1174SOL     OW 5838   8.905   7.808   0.704 -0.0136  0.1373 -0.6735
 1174SOL    HW1 5839   8.824   7.851   0.677 -0.8231 -0.4063  0.7762
 1174SOL    HW2 5840   8.969   7.879   0.709  0.0756  0.3606 -3.3332
 1175SOL     OW 5841   8.794   6.678   8.922  0.4180 -0.3157  0.5516
 1175SOL    HW1 5842   8.852   6.604   8.940  0.4541 -0.5112 -0.3219
 1175SOL    HW2 5843   8.818   6.707   8.834 -1.5355 -1.1296 -0.3078
 1176SOL     OW 5844   9.876   1.074   9.524  0.3930  0.7819 -0.1493
 1176SOL    HW1 5845   9.888   1.034   9.438  0.1891  0.2952  0.0497
 1176SOL    HW2 5846   9.937   1.028   9.581 -1.1974 -0.5878  0.5079
 1177SOL     OW 5847   7.234   1.899   1.933 -0.3465  0.1420 -0.4472
 1177SOL    HW1 5848   7.155   1.845   1.935  0.0952 -0.4705  0.5511
 1177SOL    HW2 5849   7.213   1.968   1.869 -1.7639  0.1088 -0.0563
 1178SOL     OW 5850   9.677   7.477  10.214 -0.1148 -1.0985 -0.0489
 1178SOL    HW1 5851   9.642   7.487  10.125  2.2013  2.0798 -0.8100
 1178SOL    HW2 5852   9.628   7.540  10.266  1.3714  0.2222 -0.1577
 1179SOL     OW 5853   1.854   3.446   1.388 -0.0594 -0.0165 -0.3614
 1179SOL    HW1 5854   1.822   3.523   1.341 -0.4242  0.6303  0.9267
 1179SOL    HW2 5855   1.776   3.395   1.408  0.1640 -0.6709 -1.0649
 1180SOL     OW 5856   6.017   4.347   2.053  0.4362 -0.1901 -0.0283
 1180SOL    HW1 5857   5.923   4.335   2.039  0.6550  0.4636 -2.4641
 1180SOL    HW2 5858   6.052   4.258   2.056 -0.0478 -0.4267 -1.0039
 1181SOL     OW 5859   3.843   1.035   1.792 -0.2408  0.3022  0.2262
 1181SOL    HW1 5860   3.862   1.028   1.886 -0.6377  0.6635  0.3380
 1181SOL    HW2 5861   3.751   1.011   1.784 -0.5549  1.4875  0.1096
 1182SOL     OW 5862   1.054   5.966   0.941  0.1189  0.0727  0.3481
 1182SOL    HW1 5863   1.045   6.054   0.979  0.1524 -0.0844  0.7300
 1182SOL    HW2 5864   0.966   5.929   0.947  0.1499  0.0040  0.3860
 1183SOL     OW 5865   8.652   4.910   9.664  0.0953  0.4813 -0.2042
 1183SOL    HW1 5866   8.667   4.832   9.717 -0.7002  1.2640  1.2154
 1183SOL    HW2 5867   8.739   4.943   9.644  0.4226 -0.3722 -0.2149
 1184SOL     OW 5868   2.654   2.824   7.089 -0.1639  0.1131 -0.4493
 1184SOL    HW1 5869   2.686   2.809   7.000  1.3527 -0.9136  0.2190
 1184SOL    HW2 5870   2.592   2.896   7.081 -0.7031 -0.5063 -2.4637
 1185SOL     OW 5871   7.408   0.978   4.922 -0.8637  0.3134  0.1732
 1185SOL    HW1 5872   7.429   0.921   4.849  0.6354  0.8900  0.1184
 1185SOL    HW2 5873   7.445   1.063   4.898  1.0452  0.1539  2.1987
 1186SOL     OW 5874  10.476   2.317   9.084  0.1145  0.1041 -0.3850
 1186SOL    HW1 5875  10.561   2.276   9.067  0.6575  0.5005  1.1930
 1186SOL    HW2 5876  10.422   2.247   9.120 -0.4913 -0.3247 -2.0546
 1187SOL     OW 5877   8.174   9.214   6.965 -0.9425  0.2450  0.2547
 1187SOL    HW1 5878   8.260   9.197   6.925 -0.2511 -1.0033  2.1274
 1187SOL    HW2 5879   8.111   9.193   6.896  0.2326  1.1789 -1.1620
 1188SOL     OW 5880   4.962   9.981  10.311  0.7169 -0.1408 -0.0156
 1188SOL    HW1 5881   4.928   9.924  10.242  1.7627 -0.8784  0.0476
 1188SOL    HW2 5882   4.940  10.069  10.282 -1.6412 -0.5599  0.2685
 1189SOL     OW 5883   0.598   9.307   7.883 -0.9219  0.8524 -0.4045
 1189SOL    HW1 5884   0.692   9.301   7.866 -0.4363  2.2955  1.4277
 1189SOL    HW2 5885   0.580   9.401   7.882 -1.7945  0.7653  1.7906
 1190SOL     OW 5886   9.907   9.690   3.176  0.2017 -0.3656 -0.3851
 1190SOL    HW1 5887   9.983   9.740   3.206  0.1157 -0.7679  0.5195
 1190SOL    HW2 5888   9.832   9.744   3.199  0.1741 -0.2599 -0.7105
 1191SOL     OW 5889   2.211  10.290   4.899 -0.0281 -0.0535  0.2510
 1191SOL    HW1 5890   2.300  10.318   4.875  0.9475 -3.8157 -1.1982
 1191SOL    HW2 5891   2.154  10.332   4.835  1.3082 -1.1099 -1.7111
 1192SOL     OW 5892  10.116   4.765   9.677  0.0712 -0.0420 -0.2087
 1192SOL    HW1 5893  10.143   4.720   9.757  2.1045  1.5464  0.0754
 1192SOL    HW2 5894  10.170   4.844   9.675 -1.2265  0.8587 -2.2328
 1193SOL     OW 5895   3.001   4.242  10.510  0.8880 -0.7184  0.3632
 1193SOL    HW1 5896   2.946   4.273  10.439  1.3329  0.3444  0.4663
 1193SOL    HW2 5897   3.045   4.320  10.543  0.7486 -1.2042  1.7641
 1194SOL     OW 5898  10.542   6.879   8.651  0.0203  0.3372 -0.3621
 1194SOL    HW1 5899  10.471   6.906   8.593 -0.4240 -0.3566 -0.1511
 1194SOL    HW2 5900  10.580   6.802   8.610 -0.3785 -0.2361  0.3248
 1195SOL     OW 5901   6.892   9.273   5.987  0.1410  0.3819 -0.3108
 1195SOL    HW1 5902   6.942   9.217   5.927  1.5903 -1.4268  2.3691
 1195SOL    HW2 5903   6.806   9.281   5.946  1.0813 -0.5825 -2.6797
 1196SOL     OW 5904   6.158   8.812   6.600  0.0298 -0.5812 -0.1571
 1196SOL    HW1 5905   6.107   8.884   6.637 -1.0402  0.0641 -2.6684
 1196SOL    HW2 5906   6.234   8.855   6.559 -0.4203 -0.8743 -1.3454
 1197SOL     OW 5907   9.192   3.256   2.690  0.1576 -0.3089  0.1040
 1197SOL    HW1 5908   9.127   3.188   2.676 -0.2727  0.1347 -0.0825
 1197SOL    HW2 5909   9.245   3.256   2.611 -1.3914  1.2383 -1.0086
 1198SOL     OW 5910   4.406   7.318   1.683 -0.2781 -0.4165  0.0962
 1198SOL    HW1 5911   4.485   7.369   1.666  0.2485 -0.5512  1.8760
 1198SOL    HW2 5912   4.438   7.238   1.725 -1.2208 -1.4685 -1.1490
 1199SOL     OW 5913   4.048   0.692   6.102  0.1511 -0.1125 -0.0138
 1199SOL    HW1 5914   3.975   0.659   6.050  0.7088  1.7406 -2.1332
 1199SOL    HW2 5915   4.008   0.753   6.164 -0.1353  0.8496 -1.1255
 1200SOL     OW 5916   4.104   8.073   2.891  0.6028  0.0007  0.1316
 1200SOL    HW1 5917   4.140   7.985   2.876  1.4247  0.2017  0.7809
 1200SOL    HW2 5918   4.114   8.086   2.986 -1.5851 -0.0802  0.4059
 1201SOL     OW 5919   9.284   8.013   8.842  0.3767 -0.4073  0.2067
 1201SOL    HW1 5920   9.282   7.921   8.867 -0.0651 -0.0662  1.5400
 1201SOL    HW2 5921   9.310   8.058   8.922  1.0597  0.5943 -0.5522
 1202SOL     OW 5922   6.448   4.767   4.644  0.5343 -0.3720 -0.2365
 1202SOL    HW1 5923   6.409   4.706   4.707  1.2577 -0.6914 -0.0849
 1202SOL    HW2 5924   6.424   4.853   4.676 -2.5844 -0.5323 -1.7659
 1203SOL     OW 5925   6.573   0.872   5.841 -0.1769 -0.1469  0.3666
 1203SOL    HW1 5926   6.569   0.809   5.770 -0.7474  0.9146 -0.5778
 1203SOL    HW2 5927   6.667   0.890   5.852 -0.0523 -0.7156  0.2550
 1204SOL     OW 5928   2.219   2.364   9.044 -0.1904  0.1138 -0.4769
 1204SOL    HW1 5929   2.188   2.274   9.044 -1.1493  0.4067  0.8727
 1204SOL    HW2 5930   2.305   2.360   9.004  0.2508 -1.5845  0.5294
 1205SOL     OW 5931   6.708   3.146  10.470  0.0642 -0.0003 -0.9366
 1205SOL    HW1 5932   6.773   3.118  10.535 -0.1080  0.3985 -0.5863
 1205SOL    HW2 5933   6.744   3.117  10.387  1.0799  0.8778 -0.8268
 1206SOL     OW 5934   2.896   5.501   4.114  0.1960  0.3024 -0.2788
 1206SOL    HW1 5935   2.878   5.567   4.047  1.4581  0.6286 -0.3200
 1206SOL    HW2 5936   2.875   5.544   4.196  1.3623  0.8995 -0.2804
 1207SOL     OW 5937   1.923   3.141   0.559 -0.3589 -0.2793  0.4183
 1207SOL    HW1 5938   1.996   3.188   0.600 -0.6776  1.4323 -0.8222
 1207SOL    HW2 5939   1.951   3.050   0.556  1.9332  0.3727 -0.3574
 1208SOL     OW 5940   2.892   9.353   6.471  0.1925  0.0435 -0.2859
 1208SOL    HW1 5941   2.900   9.387   6.382  0.2373  0.0948 -0.2625
 1208SOL    HW2 5942   2.982   9.342   6.501  0.1766  0.2067 -0.1789
 1209SOL     OW 5943   1.447  10.075   7.621 -0.5971  0.1433  0.2533
 1209SOL    HW1 5944   1.538  10.045   7.620 -0.6773 -0.0907 -0.2155
 1209SOL    HW2 5945   1.453  10.170   7.612 -0.4111  0.0978 -0.1118
 1210SOL     OW 5946   9.979   8.836   6.148 -0.5186 -0.2819  0.4796
 1210SOL    HW1 5947   9.910   8.780   6.185 -0.0524 -1.6409 -0.5986
 1210SOL    HW2 5948   9.933   8.894   6.088 -0.8848 -0.2412  0.7918
 1211SOL     OW 5949   7.761   1.229   9.375 -0.0670  0.8159  0.0489
 1211SOL    HW1 5950   7.828   1.231   9.443  0.8068 -0.1576 -0.7407
 1211SOL    HW2 5951   7.754   1.319   9.345 -0.7864  1.3461  1.6927
 1212SOL     OW 5952   0.420   4.425   4.927 -0.0301 -0.1880 -0.2011
 1212SOL    HW1 5953   0.336   4.467   4.910 -0.4746 -0.8043  0.4350
 1212SOL    HW2 5954   0.403   4.364   4.998  1.0773  0.0524  0.2945
 1213SOL     OW 5955   4.362   5.349   2.376  0.8416 -0.4388 -0.2014
 1213SOL    HW1 5956   4.304   5.394   2.315  1.7511  0.7052 -0.2643
 1213SOL    HW2 5957   4.306   5.326   2.450 -0.1453 -1.3157 -1.1948
 1214SOL     OW 5958   2.858   6.605   1.233 -0.2578 -0.0214  0.4431
 1214SOL    HW1 5959   2.832   6.587   1.323  0.1866  1.4855  0.9107
 1214SOL    HW2 5960   2.792   6.562   1.179 -1.7721  0.8804  1.5293
 1215SOL     OW 5961   1.511   2.216   0.368 -1.0081 -0.0985  0.6585
 1215SOL    HW1 5962   1.586   2.272   0.388 -1.3790 -0.4276  3.3568
 1215SOL    HW2 5963   1.461   2.266   0.303  1.2426  0.3401 -0.8544
 1216SOL     OW 5964   7.817   3.955   6.970  0.6513 -0.3089 -0.2049
 1216SOL    HW1 5965   7.826   3.950   6.875  2.1176 -0.8992 -0.0594
 1216SOL    HW2 5966   7.875   3.886   7.003  0.8373  0.4597  1.1478
 1217SOL     OW 5967   1.161   0.118   7.539  0.3667 -0.2678  0.6802
 1217SOL    HW1 5968   1.218   0.076   7.475 -0.3374 -1.1126  0.5950
 1217SOL    HW2 5969   1.171   0.212   7.522  0.1410 -0.4786 -0.7090
 1218SOL     OW 5970   7.605   8.945   1.084 -0.0185  0.0962 -0.7160
 1218SOL    HW1 5971   7.653   8.899   1.015 -1.1029 -0.6698 -0.9851
 1218SOL    HW2 5972   7.640   9.035   1.081  0.7341 -0.2091 -1.5052
 1219SOL     OW 5973  10.473   6.490   7.821  0.3610  0.1207  0.6468
 1219SOL    HW1 5974  10.445   6.463   7.909  0.2416 -1.2058  0.2383
 1219SOL    HW2 5975  10.546   6.432   7.800 -0.0987 -0.1105 -0.4145
 1220SOL     OW 5976   6.666   3.785   6.523 -0.2914 -0.3842  0.6262
 1220SOL    HW1 5977   6.704   3.795   6.436  0.6894  0.3923  1.1170
 1220SOL    HW2 5978   6.609   3.862   6.533 -0.7386 -0.6974  0.5127
 1221SOL     OW 5979   7.017  10.518   9.213 -0.0429 -0.3508 -0.4939
 1221SOL    HW1 5980   7.060  10.492   9.131  1.8528 -1.0228  0.6495
 1221SOL    HW2 5981   7.016  10.438   9.265 -1.6717 -0.0505 -0.0078
 1222SOL     OW 5982   7.754   1.298   2.696  0.6452 -0.3202 -0.1347
 1222SOL    HW1 5983   7.734   1.227   2.757 -0.8743  0.5269  0.4258
 1222SOL    HW2 5984   7.717   1.269   2.613 -1.2655  0.3445  0.4178
 1223SOL     OW 5985   1.965   4.939   4.137  0.1034  0.3865  0.2706
 1223SOL    HW1 5986   1.926   5.011   4.087  0.1278 -0.4161 -0.9661
 1223SOL    HW2 5987   1.891   4.882   4.159  0.2723  0.0232 -0.0895
 1224SOL     OW 5988   8.171   7.515   0.763 -0.0187 -0.0939 -0.5576
 1224SOL    HW1 5989   8.111   7.462   0.710  1.6207 -1.4457 -1.1601
 1224SOL    HW2 5990   8.133   7.512   0.851 -1.1877 -0.3347 -1.0435
 1225SOL     OW 5991   6.104   8.219   7.087 -0.1518 -0.0105 -0.7376
 1225SOL    HW1 5992   6.154   8.195   7.009  0.5325 -2.1882  0.2964
 1225SOL    HW2 5993   6.032   8.273   7.054 -0.5609 -1.8238 -3.0300
 1226SOL     OW 5994   8.036   0.271   2.169  0.0536  0.3643  0.4843
 1226SOL    HW1 5995   8.003   0.298   2.254  0.7796 -0.5887  1.0890
 1226SOL    HW2 5996   8.024   0.348   2.113  2.9205  2.3271  2.3399
 1227SOL     OW 5997   5.926   3.414   9.827  0.3227 -0.1458 -0.0139
 1227SOL    HW1 5998   5.896   3.323   9.824  2.5277 -0.9490  0.7496
 1227SOL    HW2 5999   5.954   3.433   9.738 -1.0699  0.1749 -0.4168
 1228SOL     OW 6000   2.692   1.988   0.348  0.4893 -0.2840  0.5742
 1228SOL    HW1 6001   2.745   2.022   0.420 -0.8237 -2.0246  2.4333
 1228SOL    HW2 6002   2.605   2.026   0.361  0.6822  0.9866 -1.3279
 1229SOL     OW 6003   5.415   8.910   0.226  0.0823 -0.5345  0.3715
 1229SOL    HW1 6004   5.339   8.940   0.176 -0.6251 -0.4151  1.4669
 1229SOL    HW2 6005   5.474   8.873   0.161 -1.1288 -1.0562 -0.4746
 1230SOL     OW 6006   7.243   9.978   5.960  0.1403  0.0426 -0.1361
 1230SOL    HW1 6007   7.156   9.944   5.979  0.9828 -1.0458  2.1586
 1230SOL    HW2 6008   7.277   9.922   5.890 -0.3647 -0.6500  0.1623
 1231SOL     OW 6009   4.323   6.384   6.618  0.5593  0.7830 -0.1568
 1231SOL    HW1 6010   4.324   6.321   6.546 -0.4147 -0.4384  0.8479
 1231SOL    HW2 6011   4.371   6.342   6.689 -0.2272  1.0911  0.5853
 1232SOL     OW 6012   0.005   5.087   6.118  0.2183  0.1289 -0.4918
 1232SOL    HW1 6013   0.039   5.161   6.166 -0.0967  0.4385 -0.7370
 1232SOL    HW2 6014   0.036   5.100   6.028  0.7081 -0.3809 -0.3988
 1233SOL     OW 6015   9.282   8.340   5.354  0.6910 -0.0844 -0.2920
 1233SOL    HW1 6016   9.232   8.259   5.354 -2.4756  1.6606  2.0644
 1233SOL    HW2 6017   9.361   8.320   5.404  0.9176 -2.1259 -1.3811
 1234SOL     OW 6018   5.453   6.649   2.744  0.3358 -0.0259  1.1758
 1234SOL    HW1 6019   5.429   6.717   2.807  0.2594  0.4036  0.6896
 1234SOL    HW2 6020   5.540   6.674   2.713 -0.4108  0.8304 -0.3022
 1235SOL     OW 6021   6.402   2.660   4.594 -0.3549 -0.0435 -0.3686
 1235SOL    HW1 6022   6.415   2.684   4.502  0.7675 -0.2773 -0.2824
 1235SOL    HW2 6023   6.387   2.743   4.639  0.5998  0.2257 -0.5300
 1236SOL     OW 6024   4.381   7.720   1.655  0.3116  0.5317  0.6818
 1236SOL    HW1 6025   4.336   7.754   1.578  2.7834  0.4976 -0.9118
 1236SOL    HW2 6026   4.368   7.625   1.650 -0.9057  0.6452  1.2917
 1237SOL     OW 6027   7.463   3.213   3.486  0.1574 -0.0013  0.0586
 1237SOL    HW1 6028   7.395   3.242   3.547  1.4098  2.0623  0.5672
 1237SOL    HW2 6029   7.541   3.262   3.512  1.5629 -1.4358 -1.2282
 1238SOL     OW 6030   2.225   4.860   5.404 -0.0101 -0.6028  0.2890
 1238SOL    HW1 6031   2.157   4.864   5.472 -0.9241 -3.2251 -0.3477
 1238SOL    HW2 6032   2.254   4.950   5.394 -1.2099  0.1557  2.7835
 1239SOL     OW 6033   5.833   3.021   5.232  0.1408 -0.0254  0.3940
 1239SOL    HW1 6034   5.897   2.951   5.250  1.3356  1.1328  0.8577
 1239SOL    HW2 6035   5.781   3.026   5.312 -1.1144 -1.5012 -0.2696
 1240SOL     OW 6036   1.676   2.853   3.845  0.1039  0.6354  0.0605
 1240SOL    HW1 6037   1.630   2.892   3.771 -1.0482 -1.0864 -0.2001
 1240SOL    HW2 6038   1.637   2.894   3.923  0.8702  1.9854 -0.2444
 1241SOL     OW 6039   7.339   1.760   8.194  0.1724  0.3240 -0.4400
 1241SOL    HW1 6040   7.387   1.730   8.118 -0.3017 -0.1452 -0.5579
 1241SOL    HW2 6041   7.293   1.839   8.164  2.4111  1.9807  0.2088
 1242SOL     OW 6042   0.470   4.677   3.940 -0.8631 -0.1125  0.1838
 1242SOL    HW1 6043   0.458   4.763   3.901  3.3232  0.4574 -0.3372
 1242SOL    HW2 6044   0.515   4.693   4.023 -0.9427 -1.7366  0.5885
 1243SOL     OW 6045   6.743   0.762   8.702 -0.2613  0.2117  0.3088
 1243SOL    HW1 6046   6.747   0.850   8.740 -0.0267 -0.0929  1.0023
 1243SOL    HW2 6047   6.650   0.738   8.706 -0.3884  0.5909 -0.2729
 1244SOL     OW 6048   1.078   0.201   8.553  0.3890  0.4553 -0.0073
 1244SOL    HW1 6049   1.100   0.221   8.462  1.0534  1.7765  0.4265
 1244SOL    HW2 6050   1.161   0.209   8.600  0.3132 -1.4780  0.5346
 1245SOL     OW 6051   5.533   2.189  10.423 -0.1381  0.5376  0.2378
 1245SOL    HW1 6052   5.546   2.242  10.344  2.0559  0.9414  0.8132
 1245SOL    HW2 6053   5.549   2.249  10.495 -1.3348 -0.0305  0.9966
 1246SOL     OW 6054   7.965   4.832   4.189  0.1490 -0.2991 -0.1365
 1246SOL    HW1 6055   8.059   4.824   4.176  0.2906  1.5630 -0.4387
 1246SOL    HW2 6056   7.956   4.885   4.268 -0.6872 -1.9936  0.9743
 1247SOL     OW 6057   8.429   4.517   2.907 -0.5413 -0.0759 -0.0221
 1247SOL    HW1 6058   8.356   4.578   2.896  0.1499  1.0968  1.4555
 1247SOL    HW2 6059   8.427   4.493   3.000 -0.2616 -1.6541 -0.3912
 1248SOL     OW 6060   8.711   5.473   5.920 -0.4503  0.0305 -0.2413
 1248SOL    HW1 6061   8.782   5.439   5.864 -0.6721 -0.0517 -0.4767
 1248SOL    HW2 6062   8.644   5.500   5.858 -0.1483  1.2148 -0.0680
 1249SOL     OW 6063   1.082   0.326   5.531 -0.1164  0.3080 -0.3389
 1249SOL    HW1 6064   1.160   0.362   5.575 -0.1441 -0.0760  0.0310
 1249SOL    HW2 6065   1.074   0.378   5.451  1.8715 -1.1396 -1.5961
 1250SOL     OW 6066   4.684   3.181   7.134 -0.1172 -0.1710  0.3429
 1250SOL    HW1 6067   4.717   3.134   7.058 -0.8086 -2.1482  1.2112
 1250SOL    HW2 6068   4.743   3.256   7.143  1.3467 -1.1302 -0.7951
 1251SOL     OW 6069   1.596   1.164   3.358 -0.4091  0.1720 -0.2540
 1251SOL    HW1 6070   1.581   1.255   3.383 -0.6337 -0.3810  1.8219
 1251SOL    HW2 6071   1.685   1.146   3.387 -0.7986 -0.6035  0.5105
 1252SOL     OW 6072   0.973   8.806   2.315  0.3318  0.5686  0.1273
 1252SOL    HW1 6073   1.019   8.855   2.247  0.2155  1.0817  0.4201
 1252SOL    HW2 6074   0.959   8.868   2.386  0.0438  0.1596  0.4385
 1253SOL     OW 6075   8.649   6.833   3.058  0.5930 -0.2134 -0.1792
 1253SOL    HW1 6076   8.635   6.768   2.989  0.8272 -0.6512  0.1786
 1253SOL    HW2 6077   8.719   6.796   3.112  0.8611  0.4286 -0.0797
 1254SOL     OW 6078   6.615   4.743   4.151 -0.2588 -0.0424 -0.5068
 1254SOL    HW1 6079   6.614   4.660   4.200  1.9799  1.2245  1.9751
 1254SOL    HW2 6080   6.555   4.800   4.199  0.5167  0.6587 -0.3477
 1255SOL     OW 6081   5.837   0.886   6.656  0.2356 -0.3880  0.5194
 1255SOL    HW1 6082   5.878   0.830   6.722  0.8595 -0.5265  0.0260
 1255SOL    HW2 6083   5.756   0.917   6.697  0.4461 -0.7472  1.2148
 1256SOL     OW 6084   3.402   5.869   8.354 -0.0449 -0.4546  0.1402
 1256SOL    HW1 6085   3.330   5.909   8.305  0.0507  0.3014  0.6074
 1256SOL    HW2 6086   3.386   5.893   8.445  0.7646 -0.3387  0.2588
 1257SOL     OW 6087   9.915   7.756   2.532  0.2560  0.1593 -0.6573
 1257SOL    HW1 6088   9.902   7.674   2.580 -2.5399 -0.2635 -1.8906
 1257SOL    HW2 6089   9.915   7.824   2.599  2.4337 -0.7792  0.3738
 1258SOL     OW 6090   1.213   2.292   3.474  0.1197  0.2437 -0.0613
 1258SOL    HW1 6091   1.209   2.387   3.480 -1.2956  0.1762  0.5500
 1258SOL    HW2 6092   1.122   2.263   3.489  0.7805 -1.2710  1.4569
 1259SOL     OW 6093   6.230   0.515   4.087 -0.0027  0.6427 -0.1034
 1259SOL    HW1 6094   6.204   0.491   4.176  1.5620  2.2005  0.8539
 1259SOL    HW2 6095   6.150   0.550   4.047 -0.7520 -0.1685  0.6283
 1260SOL     OW 6096   7.501   9.265   3.869  0.3876  0.0374  0.7093
 1260SOL    HW1 6097   7.446   9.202   3.823  1.1996  0.8161 -1.5026
 1260SOL    HW2 6098   7.456   9.282   3.951 -0.0696 -3.0521  1.2164
 1261SOL     OW 6099  10.519   5.852   1.285 -0.2278  0.5899  0.6452
 1261SOL    HW1 6100  10.488   5.849   1.375  0.9228 -0.8989  1.0241
 1261SOL    HW2 6101  10.443   5.826   1.233 -0.1375 -1.3998  1.4297
 1262SOL     OW 6102   2.578   4.819   6.544 -0.1604 -0.4026  0.1395
 1262SOL    HW1 6103   2.574   4.831   6.639  0.7903  1.0567  0.0230
 1262SOL    HW2 6104   2.488   4.831   6.515 -0.2021  0.7151  0.6952
 1263SOL     OW 6105   5.712   1.893  10.319 -0.1449  0.0728 -0.0827
 1263SOL    HW1 6106   5.697   1.967  10.259  1.0237  0.0334 -0.4413
 1263SOL    HW2 6107   5.806   1.893  10.334 -0.4972  0.7341  2.6162
 1264SOL     OW 6108   2.652  10.215   1.429  0.0566 -0.2639 -0.3731
 1264SOL    HW1 6109   2.671  10.278   1.360 -1.7114  1.9536  1.0146
 1264SOL    HW2 6110   2.737  10.182   1.456  0.9295  0.3970 -2.1611
 1265SOL     OW 6111   5.294   8.038   5.970  0.3955  0.4645  0.2106
 1265SOL    HW1 6112   5.329   8.112   6.021 -0.3805  0.5513  0.6229
 1265SOL    HW2 6113   5.302   7.963   6.029  0.6948  0.3101 -0.0198
 1266SOL     OW 6114   3.831   2.040   0.692 -0.0845 -0.1902 -0.4290
 1266SOL    HW1 6115   3.927   2.043   0.688 -0.0576 -1.4846 -1.1697
 1266SOL    HW2 6116   3.806   2.129   0.717  1.2873  0.2817 -0.6215
 1267SOL     OW 6117   6.349   3.719   5.998  0.1942 -0.3723 -0.5398
 1267SOL    HW1 6118   6.272   3.688   5.951  0.0916 -1.4815  0.3143
 1267SOL    HW2 6119   6.314   3.766   6.074  0.3687  0.2576 -0.8366
 1268SOL     OW 6120  10.089   5.463   3.372  0.3393 -0.2719  0.1481
 1268SOL    HW1 6121  10.159   5.462   3.437  0.9675 -0.6832 -0.5150
 1268SOL    HW2 6122  10.032   5.390   3.397  0.5003 -0.3411  0.3182
 1269SOL     OW 6123   2.934   4.375   2.503  0.0452 -0.0407 -0.0341
 1269SOL    HW1 6124   2.927   4.283   2.478  1.1102 -0.4434  1.0740
 1269SOL    HW2 6125   2.844   4.408   2.495 -0.6349 -1.5441  0.9060
 1270SOL     OW 6126   0.282   8.428   5.267  0.1807  0.2607  0.4198
 1270SOL    HW1 6127   0.213   8.464   5.323 -0.9388  1.2517 -1.4817
 1270SOL    HW2 6128   0.363   8.440   5.317 -0.3864  3.7053  0.7634
 1271SOL     OW 6129   5.370   8.261   6.389  0.5017 -0.1601  0.2541
 1271SOL    HW1 6130   5.398   8.254   6.298  1.0564 -1.2896  0.4961
 1271SOL    HW2 6131   5.329   8.348   6.395  1.5172  0.4205 -0.7760
 1272SOL     OW 6132   1.919   2.018   2.924 -0.8940 -0.0667 -0.0918
 1272SOL    HW1 6133   1.905   2.064   3.007 -0.5614 -3.3302  1.9504
 1272SOL    HW2 6134   2.005   1.976   2.935 -0.8882 -0.6620 -2.0772
 1273SOL     OW 6135   0.995   6.675   8.965 -0.9536  0.0871  0.2484
 1273SOL    HW1 6136   0.942   6.685   9.044  0.3821  0.3381  1.1385
 1273SOL    HW2 6137   0.963   6.593   8.925 -1.8405  0.1145  0.8705
 1274SOL     OW 6138   4.500   1.522   2.911  0.2526 -0.3496 -0.0692
 1274SOL    HW1 6139   4.547   1.452   2.957 -0.6451 -2.3143 -1.9385
 1274SOL    HW2 6140   4.530   1.514   2.820 -0.5622  1.1404 -0.4964
 1275SOL     OW 6141   2.015   1.693   6.744  0.3443 -0.0872  0.4736
 1275SOL    HW1 6142   1.963   1.671   6.821  0.3246  2.4026  1.2397
 1275SOL    HW2 6143   2.082   1.624   6.740  1.1102  0.3883  3.4550
 1276SOL     OW 6144  10.347   9.855   5.689 -0.1549  0.3031  0.2125
 1276SOL    HW1 6145  10.380   9.931   5.737 -0.2083 -0.2530  1.1510
 1276SOL    HW2 6146  10.256   9.878   5.668 -0.1209  0.5674  0.3428
 1277SOL     OW 6147  10.206   0.322   5.301  0.1285 -0.1586 -0.7902
 1277SOL    HW1 6148  10.235   0.246   5.351  2.8105  0.7122 -0.8601
 1277SOL    HW2 6149  10.202   0.291   5.211  2.5839 -0.0071 -1.0384
 1278SOL     OW 6150   2.771   0.783   4.948  0.1737  0.0940 -0.0913
 1278SOL    HW1 6151   2.691   0.731   4.943 -0.8110  1.4185  0.9884
 1278SOL    HW2 6152   2.756   0.856   4.888  0.7484  0.1134 -0.2135
 1279SOL     OW 6153   5.233  10.441   1.527  0.1905 -0.1783  0.1223
 1279SOL    HW1 6154   5.320  10.432   1.489  1.4178 -0.0198  2.6408
 1279SOL    HW2 6155   5.219  10.536   1.531 -0.0917 -0.2048 -0.2926
 1280SOL     OW 6156   8.433   8.215   9.239 -0.2398 -0.2841 -0.0202
 1280SOL    HW1 6157   8.452   8.207   9.146  0.6649 -0.7569  0.1853
 1280SOL    HW2 6158   8.476   8.296   9.266 -1.2592  0.3280 -0.1795
 1281SOL     OW 6159   6.020   5.068   7.536 -0.1852  0.0494 -0.2475
 1281SOL    HW1 6160   6.010   5.163   7.529 -0.1522  0.0585 -0.1618
 1281SOL    HW2 6161   5.956   5.033   7.473 -0.7126  0.1068  0.2485
 1282SOL     OW 6162  10.472   0.044   4.952  0.3315  0.1641 -0.1730
 1282SOL    HW1 6163  10.558   0.047   4.910  0.5080  0.4477  0.1982
 1282SOL    HW2 6164  10.473   0.118   5.013 -0.7502  1.1318 -1.2777
 1283SOL     OW 6165   9.813   3.815   2.012  0.1985 -0.1543 -0.4872
 1283SOL    HW1 6166   9.743   3.880   2.016  1.6196  1.5955 -2.0997
 1283SOL    HW2 6167   9.816   3.788   1.920  0.4232 -1.6047 -0.0681
 1284SOL     OW 6168   1.148   8.983   4.776 -0.0815  0.5147 -0.7383
 1284SOL    HW1 6169   1.179   9.041   4.845  1.1725  0.7351 -1.4508
 1284SOL    HW2 6170   1.223   8.928   4.755 -0.8033 -0.3602 -1.1122
 1285SOL     OW 6171   5.524   1.633   1.821 -0.2792  0.0124 -0.3480
 1285SOL    HW1 6172   5.599   1.675   1.864 -1.0392  0.0162  1.0235
 1285SOL    HW2 6173   5.506   1.689   1.745  0.5095  0.5428 -0.1625
 1286SOL     OW 6174   6.169   3.060   1.749  0.2338 -0.2360  0.0154
 1286SOL    HW1 6175   6.182   3.007   1.828 -1.2743 -0.8018 -0.0783
 1286SOL    HW2 6176   6.190   3.001   1.677  0.5656 -0.0504 -0.0428
 1287SOL     OW 6177  10.057   9.360   5.684  0.2854  0.2698  0.1220
 1287SOL    HW1 6178  10.018   9.420   5.748  1.3741 -1.6812  2.8243
 1287SOL    HW2 6179   9.991   9.292   5.673 -0.4321  1.2192 -1.9658
 1288SOL     OW 6180   5.547   5.982   8.558 -0.2221  0.4493  0.4347
 1288SOL    HW1 6181   5.556   5.887   8.561 -0.4143  0.4375  0.6632
 1288SOL    HW2 6182   5.587   6.007   8.474  2.3881  0.4809  1.6158
 1289SOL     OW 6183   8.285   1.950   6.606 -0.0593  0.4146 -0.1367
 1289SOL    HW1 6184   8.264   1.969   6.697  0.5573  0.3406  0.0287
 1289SOL    HW2 6185   8.225   1.880   6.581  0.1752  0.0106  0.4039
 1290SOL     OW 6186   0.475   9.246   8.974  0.5610  0.2818  0.5005
 1290SOL    HW1 6187   0.460   9.199   9.056  0.6202 -0.0776  0.3075
 1290SOL    HW2 6188   0.568   9.234   8.956  0.6073  0.5959  0.5230
 1291SOL     OW 6189  10.156   2.103   1.058  0.1045 -0.3088  0.2923
 1291SOL    HW1 6190  10.164   2.167   0.987 -0.3535  0.4164  0.8751
 1291SOL    HW2 6191  10.080   2.133   1.108 -0.1903 -1.3834  0.5144
 1292SOL     OW 6192   6.199   0.400   3.807 -0.1731  0.1518 -0.4999
 1292SOL    HW1 6193   6.228   0.458   3.877  0.3214  0.1231 -0.6778
 1292SOL    HW2 6194   6.107   0.381   3.828  0.6827 -2.1497  1.7556
 1293SOL     OW 6195   5.286   0.609   3.071 -0.0644  0.1921  0.0620
 1293SOL    HW1 6196   5.364   0.664   3.069  0.7516 -0.9221 -2.1279
 1293SOL    HW2 6197   5.241   0.628   2.989  0.0195 -2.0409 -0.5647
 1294SOL     OW 6198   8.284   9.989   0.025 -0.2950 -0.0033  0.8824
 1294SOL    HW1 6199   8.321   9.992   0.113  0.9403  0.6282  0.3589
 1294SOL    HW2 6200   8.206   9.934   0.034  0.3423 -0.7423  2.1727
 1295SOL     OW 6201   6.738   2.061   6.551 -0.8441 -0.0939 -0.5426
 1295SOL    HW1 6202   6.685   2.137   6.526 -2.1855 -0.6138  0.5906
 1295SOL    HW2 6203   6.820   2.099   6.582 -1.8618  0.9898  0.9440
 1296SOL     OW 6204   4.389   8.513   1.727  0.0277  0.5730 -0.1079
 1296SOL    HW1 6205   4.323   8.567   1.685  0.8753  1.3460 -0.4842
 1296SOL    HW2 6206   4.444   8.575   1.776  0.5505 -0.0331  0.0911
 1297SOL     OW 6207   2.652   6.143   6.782  0.4243  0.6355  0.0179
 1297SOL    HW1 6208   2.577   6.139   6.724  1.7692 -1.2838 -1.7226
 1297SOL    HW2 6209   2.627   6.092   6.859 -0.2645  0.5587 -0.2587
 1298SOL     OW 6210   6.385   9.326   0.776  0.5382 -0.3612  0.1990
 1298SOL    HW1 6211   6.379   9.358   0.686 -0.9168 -2.0011 -0.3547
 1298SOL    HW2 6212   6.295   9.299   0.798  1.1397 -1.3518  1.5944
 1299SOL     OW 6213   3.067   9.411   8.254  0.1261  0.8032 -0.5408
 1299SOL    HW1 6214   3.092   9.493   8.297  2.2240  1.8174 -3.3575
 1299SOL    HW2 6215   2.988   9.434   8.204 -1.6548 -0.0800  1.6924
 1300SOL     OW 6216   6.064   7.605   2.471  0.3290  0.2483  0.1305
 1300SOL    HW1 6217   6.103   7.681   2.429 -1.0231 -0.6472 -3.0272
 1300SOL    HW2 6218   6.116   7.592   2.550  2.3081  2.7975 -0.6195
 1301SOL     OW 6219   8.146   5.566   6.448  0.0441  0.0260 -0.3395
 1301SOL    HW1 6220   8.117   5.576   6.358 -0.3273  0.7607 -0.1439
 1301SOL    HW2 6221   8.119   5.647   6.492  1.0514  0.0879  0.2105
 1302SOL     OW 6222   8.818   0.662   6.778 -0.1205 -0.6786  0.2053
 1302SOL    HW1 6223   8.804   0.660   6.873  0.6088  0.5919  0.3630
 1302SOL    HW2 6224   8.791   0.750   6.752  1.9326 -0.1728 -0.3714
 1303SOL     OW 6225   0.698  10.489   8.641  0.0210  0.3551  0.1823
 1303SOL    HW1 6226   0.744  10.573   8.628 -1.3638  1.2654  0.8904
 1303SOL    HW2 6227   0.767  10.423   8.636  0.8829  1.3060 -2.5411
 1304SOL     OW 6228   5.474   9.698   5.813  0.4354  0.3503 -0.5825
 1304SOL    HW1 6229   5.522   9.616   5.827  0.9499  1.0555  2.4597
 1304SOL    HW2 6230   5.404   9.696   5.879 -0.0474  1.9932 -1.0038
 1305SOL     OW 6231   1.964   5.255   4.655  0.0025 -0.1227 -0.0979
 1305SOL    HW1 6232   2.038   5.241   4.597 -0.9720  0.2463 -1.4742
 1305SOL    HW2 6233   1.953   5.351   4.657 -2.4992 -0.2253 -2.6990
 1306SOL     OW 6234   8.288   2.381   0.978  0.3898  0.3711  0.2851
 1306SOL    HW1 6235   8.258   2.293   1.001  1.1920 -0.3681 -1.2799
 1306SOL    HW2 6236   8.384   2.374   0.978  0.4556  1.1804 -0.0623
 1307SOL     OW 6237   2.199   7.501   2.364 -0.3705 -0.0215 -0.3435
 1307SOL    HW1 6238   2.278   7.498   2.417 -0.2288  3.0969 -0.1966
 1307SOL    HW2 6239   2.136   7.448   2.412  1.2794 -1.6801  0.0975
 1308SOL     OW 6240   1.327  10.463   5.742 -0.0658 -0.4113  0.0199
 1308SOL    HW1 6241   1.414  10.464   5.701 -0.2095  1.3600 -0.3067
 1308SOL    HW2 6242   1.271  10.508   5.680 -0.9637 -0.4187  0.8088
 1309SOL     OW 6243   2.400   2.870   8.059 -0.4618  0.0346  0.2153
 1309SOL    HW1 6244   2.384   2.961   8.084  1.2183  0.4918 -0.2852
 1309SOL    HW2 6245   2.421   2.873   7.966  1.5868 -0.5641  0.6001
 1310SOL     OW 6246   2.814   6.042   3.448 -0.1406  0.4537  0.1702
 1310SOL    HW1 6247   2.771   6.088   3.520 -0.4330  2.1143 -0.9927
 1310SOL    HW2 6248   2.750   6.046   3.376  0.9346  0.6953 -0.8083
 1311SOL     OW 6249   4.081   0.309   3.946 -0.1131 -0.3287 -0.2532
 1311SOL    HW1 6250   4.012   0.369   3.917  0.0027  0.2256  0.5779
 1311SOL    HW2 6251   4.109   0.264   3.866 -2.2791 -1.4849 -0.4315
 1312SOL     OW 6252   1.486   4.753   2.046  0.8143 -0.2567 -0.1915
 1312SOL    HW1 6253   1.483   4.706   2.129 -2.8737 -1.5103 -0.8581
 1312SOL    HW2 6254   1.398   4.788   2.034  2.1684  2.9573 -1.9709
 1313SOL     OW 6255   1.868   6.124   9.905 -0.0734 -0.3224 -0.0451
 1313SOL    HW1 6256   1.787   6.147   9.949 -0.2052 -0.5876 -0.1464
 1313SOL    HW2 6257   1.844   6.055   9.843  0.0530  0.2536 -0.7503
 1314SOL     OW 6258   4.399   7.358   8.897  0.1839 -0.4586 -0.0346
 1314SOL    HW1 6259   4.333   7.292   8.876 -0.5537 -0.2940  1.6234
 1314SOL    HW2 6260   4.370   7.436   8.851  0.2453 -0.8766 -0.8015
 1315SOL     OW 6261   1.849   4.273   0.382 -0.6158  0.7576 -0.9062
 1315SOL    HW1 6262   1.838   4.218   0.460 -1.5755  0.7528 -1.0406
 1315SOL    HW2 6263   1.943   4.269   0.364 -0.2712  1.3150  0.6434
 1316SOL     OW 6264   2.879   3.680   9.527  0.0749  0.2318  0.3140
 1316SOL    HW1 6265   2.902   3.771   9.507 -0.4280  0.2186 -0.3666
 1316SOL    HW2 6266   2.882   3.675   9.623  1.0775  0.6955  0.3132
 1317SOL     OW 6267   3.900   9.843   3.545  0.1176  0.0783  0.0150
 1317SOL    HW1 6268   3.866   9.777   3.605 -0.9367  0.1742 -0.4694
 1317SOL    HW2 6269   3.908   9.923   3.599  0.6371 -0.2205  0.3970
 1318SOL     OW 6270   2.454   3.175  10.354  0.2436 -0.1517  0.2103
 1318SOL    HW1 6271   2.459   3.105  10.418 -0.3931  0.5472  1.0622
 1318SOL    HW2 6272   2.408   3.246  10.400  2.9370  1.7406  0.2139
 1319SOL     OW 6273   3.365   5.188   7.986  0.3464 -0.2818  0.5001
 1319SOL    HW1 6274   3.459   5.194   7.969  0.2495  0.3926  0.1537
 1319SOL    HW2 6275   3.332   5.132   7.916  0.5417 -0.8096  0.8299
 1320SOL     OW 6276   8.192   9.546   0.767  0.5046  0.0064  0.4387
 1320SOL    HW1 6277   8.098   9.535   0.753  0.7218  0.3752 -1.4811
 1320SOL    HW2 6278   8.206   9.513   0.856 -1.0379 -2.2005 -0.0661
 1321SOL     OW 6279  10.026   6.707   9.594  0.0043 -0.7793  0.0991
 1321SOL    HW1 6280   9.941   6.748   9.582  0.3554  0.0105  0.2652
 1321SOL    HW2 6281  10.010   6.614   9.576 -0.3763 -0.3095 -2.2619
 1322SOL     OW 6282   1.789   4.395   9.446 -0.4044  0.3228 -0.2760
 1322SOL    HW1 6283   1.828   4.426   9.364  0.2749 -0.8674 -0.4282
 1322SOL    HW2 6284   1.715   4.341   9.418 -2.3646  2.6934  0.0158
 1323SOL     OW 6285   4.692   7.252   5.807 -0.2863  0.0216 -0.7196
 1323SOL    HW1 6286   4.642   7.329   5.832 -1.1450 -0.7130 -0.1086
 1323SOL    HW2 6287   4.778   7.286   5.782 -0.7393  1.1904 -0.7316
 1324SOL     OW 6288   6.302   0.439   3.178  0.2225 -0.3123 -1.1023
 1324SOL    HW1 6289   6.345   0.471   3.258 -2.1563  0.7387 -0.1550
 1324SOL    HW2 6290   6.310   0.511   3.116 -0.1477 -0.1197 -0.9286
 1325SOL     OW 6291   6.554   5.499   4.178 -0.1820 -0.0179  0.5584
 1325SOL    HW1 6292   6.496   5.426   4.200  1.9032 -1.5299  1.3714
 1325SOL    HW2 6293   6.605   5.467   4.103 -0.8473  1.5572 -0.6249
 1326SOL     OW 6294   4.856   0.604   9.927 -0.8348 -0.7619 -0.0634
 1326SOL    HW1 6295   4.805   0.572  10.001 -1.2062  0.8856  0.4509
 1326SOL    HW2 6296   4.918   0.666   9.966 -0.7344 -0.1969 -1.0837
 1327SOL     OW 6297   6.510   0.015   5.732 -0.1778  0.0361 -0.6667
 1327SOL    HW1 6298   6.552   0.068   5.800  1.3016 -2.3995  0.4495
 1327SOL    HW2 6299   6.583  -0.028   5.687 -1.2967 -1.5144 -1.0872
 1328SOL     OW 6300   1.411   8.284   1.031  0.6216  0.3866  0.0878
 1328SOL    HW1 6301   1.486   8.343   1.034  1.4565 -0.5347 -1.5332
 1328SOL    HW2 6302   1.447   8.200   1.001 -0.8707 -0.3944  0.3839
 1329SOL     OW 6303   1.563   0.645   7.022 -0.7155  0.0072 -0.2768
 1329SOL    HW1 6304   1.617   0.625   6.945 -0.2795 -0.7115  0.2056
 1329SOL    HW2 6305   1.561   0.740   7.026  2.0583  0.0955  0.7384
 1330SOL     OW 6306   0.847   1.451   1.070 -0.0657  0.1441 -0.1884
 1330SOL    HW1 6307   0.833   1.451   1.164 -1.7055  0.2708 -0.4140
 1330SOL    HW2 6308   0.808   1.369   1.039 -0.0576  0.3739 -0.8336
 1331SOL     OW 6309   9.452   8.207   1.858 -0.0020 -0.1121  0.7372
 1331SOL    HW1 6310   9.417   8.281   1.909  0.6333 -0.4073  1.6369
 1331SOL    HW2 6311   9.527   8.244   1.812  0.5004 -0.2450  1.4240
 1332SOL     OW 6312   7.523   1.585   5.050  0.1267 -0.9221 -0.0897
 1332SOL    HW1 6313   7.583   1.595   5.124  0.6972  1.9491 -0.8284
 1332SOL    HW2 6314   7.469   1.509   5.074  1.3179 -1.0729  2.5066
 1333SOL     OW 6315   7.211   1.507   1.818 -0.3451 -0.2560  0.2079
 1333SOL    HW1 6316   7.219   1.454   1.897 -0.4357 -0.0246  0.3712
 1333SOL    HW2 6317   7.125   1.547   1.823  0.0163  0.5079  0.4605
 1334SOL     OW 6318   2.616   9.944   3.705  0.1784  0.0103 -0.1499
 1334SOL    HW1 6319   2.657   9.871   3.660  0.6257  0.0836  0.1366
 1334SOL    HW2 6320   2.630  10.019   3.647  3.7386  0.8502  1.5542
 1335SOL     OW 6321  10.518   9.648   4.484 -0.2539 -0.0676 -0.7635
 1335SOL    HW1 6322  10.433   9.665   4.525 -0.9496 -1.4557 -1.5406
 1335SOL    HW2 6323  10.558   9.579   4.537  0.0918  0.1079 -0.7904
 1336SOL     OW 6324   9.661   5.185   1.622  0.3431  0.3295  0.3260
 1336SOL    HW1 6325   9.690   5.269   1.659  0.6256  0.4860 -0.2303
 1336SOL    HW2 6326   9.616   5.141   1.693  0.8148  0.6563  0.8332
 1337SOL     OW 6327   9.119   9.259   5.004  0.4060  0.0001 -0.0537
 1337SOL    HW1 6328   9.117   9.166   5.028  0.4034 -0.2251 -0.9110
 1337SOL    HW2 6329   9.207   9.288   5.027 -0.3562  0.4531  2.6274
 1338SOL     OW 6330   3.428   0.834   6.878 -0.2005 -0.2591 -0.1335
 1338SOL    HW1 6331   3.454   0.860   6.790  0.8978 -1.7797 -0.2969
 1338SOL    HW2 6332   3.361   0.766   6.865  0.1313 -0.6540  0.1857
 1339SOL     OW 6333   1.884   1.223   4.019 -0.0779  0.0015  0.0758
 1339SOL    HW1 6334   1.799   1.217   4.062 -0.5938 -0.4565 -0.9734
 1339SOL    HW2 6335   1.867   1.274   3.940  0.2976 -1.3909 -0.9256
 1340SOL     OW 6336  10.022   6.689   3.701  0.2448 -0.0342  0.4379
 1340SOL    HW1 6337  10.048   6.601   3.726 -1.6731  0.0704  3.4919
 1340SOL    HW2 6338  10.022   6.738   3.784  0.6158  2.6817 -1.0414
 1341SOL     OW 6339   8.341   8.950   9.182  0.0635  0.1404 -0.0654
 1341SOL    HW1 6340   8.377   8.871   9.223 -2.4004 -0.7466  0.5968
 1341SOL    HW2 6341   8.356   9.019   9.246  1.5485  0.0652 -0.3073
 1342SOL     OW 6342   3.407   1.411  10.212 -0.5359  0.0617  0.1153
 1342SOL    HW1 6343   3.475   1.468  10.248 -1.3874  1.5035 -0.4714
 1342SOL    HW2 6344   3.330   1.426  10.267 -0.9245 -0.1083 -0.3638
 1343SOL     OW 6345   1.080   7.043   6.707 -0.0921  0.0052 -0.7610
 1343SOL    HW1 6346   1.059   7.096   6.630  1.8378  0.3821 -1.0780
 1343SOL    HW2 6347   0.995   7.022   6.746 -1.0857  0.2203 -2.7056
 1344SOL     OW 6348   0.216   4.892   0.202 -0.2485  0.4164  0.1558
 1344SOL    HW1 6349   0.259   4.962   0.251  0.6160  0.1100 -0.1587
 1344SOL    HW2 6350   0.168   4.937   0.133 -1.2831  0.8359  1.1105
 1345SOL     OW 6351   7.917   4.234   1.140 -0.2508 -0.5978 -0.2372
 1345SOL    HW1 6352   7.923   4.302   1.072  1.6959  0.6407  1.0792
 1345SOL    HW2 6353   7.825   4.235   1.166 -0.9469 -0.7712 -2.4663
 1346SOL     OW 6354   5.076   5.564   8.364 -0.7320 -0.1588  0.2034
 1346SOL    HW1 6355   5.016   5.622   8.411 -1.5083 -0.5917 -0.2241
 1346SOL    HW2 6356   5.151   5.555   8.422 -1.9718 -1.2789  1.7330
 1347SOL     OW 6357   3.502   4.859   8.745  0.3972  0.9673 -0.1556
 1347SOL    HW1 6358   3.425   4.811   8.776  0.6067  0.3150 -0.6266
 1347SOL    HW2 6359   3.487   4.869   8.651  1.1531  0.3402 -0.3504
 1348SOL     OW 6360   0.242   9.609   6.122 -0.1436  0.4474  0.4974
 1348SOL    HW1 6361   0.169   9.613   6.061  1.1324  1.0591 -1.0817
 1348SOL    HW2 6362   0.269   9.700   6.135  1.6098  0.1411 -0.6268
 1349SOL     OW 6363   2.701   6.733   3.991 -0.4919 -0.3979 -0.8977
 1349SOL    HW1 6364   2.682   6.767   3.904 -0.2503  1.0187 -0.4247
 1349SOL    HW2 6365   2.718   6.811   4.044  0.6058 -1.2898  0.1232
 1350SOL     OW 6366   8.663   5.326   0.600 -0.1280 -0.2260  0.7338
 1350SOL    HW1 6367   8.617   5.367   0.526  2.3750 -1.0936 -1.4443
 1350SOL    HW2 6368   8.607   5.253   0.626 -1.9530  1.1914  1.0074
 1351SOL     OW 6369   6.981   0.594   4.397  0.0041 -0.1327  0.8751
 1351SOL    HW1 6370   6.933   0.554   4.324  0.0232  1.2003  0.0840
 1351SOL    HW2 6371   6.920   0.592   4.470 -0.6031 -0.0907  0.3801
 1352SOL     OW 6372   0.104   4.384   9.274 -0.2614  0.6316  0.0516
 1352SOL    HW1 6373   0.116   4.478   9.287 -0.6690  0.5271  1.2991
 1352SOL    HW2 6374   0.181   4.345   9.316  1.1323  0.4530 -2.4312
 1353SOL     OW 6375   5.603   7.202   2.442  0.0177 -0.0665  0.5167
 1353SOL    HW1 6376   5.543   7.270   2.411 -0.8213  0.6608  3.4754
 1353SOL    HW2 6377   5.687   7.225   2.401 -0.3745  2.4661  0.9477
 1354SOL     OW 6378   7.033   8.026   6.361  0.3854  0.0997  0.5292
 1354SOL    HW1 6379   7.042   7.932   6.350  2.0161  0.4180 -1.2626
 1354SOL    HW2 6380   7.123   8.060   6.361 -0.1729  1.6939  0.7326
 1355SOL     OW 6381  10.427   8.829   1.213 -0.0611 -0.1528  1.1713
 1355SOL    HW1 6382  10.468   8.744   1.202  0.3769  0.0753  1.0355
 1355SOL    HW2 6383  10.383   8.824   1.298 -0.0269 -0.5062  1.1692
 1356SOL     OW 6384   0.911   8.494   8.050  0.5479 -0.0059 -0.6270
 1356SOL    HW1 6385   0.892   8.448   7.968  0.7239 -1.0412 -0.1050
 1356SOL    HW2 6386   0.850   8.568   8.051 -2.6653 -2.4492  0.3940
 1357SOL     OW 6387   2.142   0.448   5.957 -0.9151  0.0286 -0.1852
 1357SOL    HW1 6388   2.192   0.420   6.033 -1.2828 -0.0120  0.0449
 1357SOL    HW2 6389   2.128   0.542   5.969 -1.7630 -0.1450  0.2685
 1358SOL     OW 6390   3.842   9.291   8.660  0.2899 -0.3101 -0.2362
 1358SOL    HW1 6391   3.832   9.198   8.640 -0.5411 -0.2303 -0.2319
 1358SOL    HW2 6392   3.923   9.317   8.615  1.8838 -1.5731  1.7083
 1359SOL     OW 6393  10.324   1.403   3.698  0.0867  0.5539  0.0172
 1359SOL    HW1 6394  10.343   1.328   3.641 -0.4330  1.5710 -1.5560
 1359SOL    HW2 6395  10.267   1.367   3.766  0.2351 -0.5832 -0.4333
 1360SOL     OW 6396   2.590   6.728   2.192  0.5028  0.0784 -0.0887
 1360SOL    HW1 6397   2.568   6.770   2.110 -0.2695  3.0804  1.5162
 1360SOL    HW2 6398   2.683   6.749   2.206  0.7971 -0.9337 -0.4337
 1361SOL     OW 6399   7.990   1.866  10.090  0.0228 -0.1739  0.2222
 1361SOL    HW1 6400   8.059   1.805  10.065  0.6416  0.7784 -0.4789
 1361SOL    HW2 6401   8.021   1.951  10.059 -1.4088  0.2987  0.0122
 1362SOL     OW 6402   7.061   7.842  10.374  0.2765 -0.3556  0.3251
 1362SOL    HW1 6403   6.982   7.868  10.420  1.0850  2.4602  0.3553
 1362SOL    HW2 6404   7.116   7.800  10.441 -0.5193 -0.8262  0.6878
 1363SOL     OW 6405   1.247   0.001   2.323 -0.3286 -0.2161 -0.0525
 1363SOL    HW1 6406   1.174  -0.001   2.260 -0.2324 -0.6692 -0.1512
 1363SOL    HW2 6407   1.257   0.094   2.344 -2.1643 -0.2660  1.3801
 1364SOL     OW 6408   6.634   4.895   3.300  0.0952 -0.1971  0.2013
 1364SOL    HW1 6409   6.572   4.893   3.228  1.2285  1.1279 -0.8728
 1364SOL    HW2 6410   6.626   4.983   3.337 -0.6328 -0.9233  1.8917
 1365SOL     OW 6411   1.655   9.030  10.212  0.0428  0.8059 -0.1068
 1365SOL    HW1 6412   1.694   9.110  10.245  0.0045  0.7759  0.0100
 1365SOL    HW2 6413   1.561   9.048  10.210  0.0832  0.9858 -0.6675
 1366SOL     OW 6414   5.906  10.189   5.349  0.2845  0.4662 -0.2882
 1366SOL    HW1 6415   5.875  10.172   5.260 -0.8991  2.0625 -0.2173
 1366SOL    HW2 6416   5.998  10.214   5.338  0.5436 -0.6865 -0.8974
 1367SOL     OW 6417   1.918   2.604   3.241  0.2548  0.5832 -0.1751
 1367SOL    HW1 6418   1.826   2.627   3.229  0.0973  1.0897  1.7523
 1367SOL    HW2 6419   1.955   2.608   3.153 -2.0403 -1.9466 -1.4053
 1368SOL     OW 6420   8.585   2.358   2.271 -0.3822 -0.2806 -0.9341
 1368SOL    HW1 6421   8.561   2.278   2.224 -1.4608 -0.2325 -0.5103
 1368SOL    HW2 6422   8.674   2.342   2.303 -1.1663 -2.0512  0.5969
 1369SOL     OW 6423   5.005   2.398   1.148 -0.5009  0.3500 -0.7564
 1369SOL    HW1 6424   4.992   2.493   1.156 -1.3619  0.4126 -2.3665
 1369SOL    HW2 6425   5.012   2.367   1.238  0.2214  1.9908 -0.2038
 1370SOL     OW 6426   3.543   2.805   4.311  0.2248 -0.1842  0.5359
 1370SOL    HW1 6427   3.495   2.752   4.247 -2.3213  1.7213  0.6982
 1370SOL    HW2 6428   3.511   2.775   4.396  1.0765 -0.4616  0.7577
 1371SOL     OW 6429   2.428   6.913   0.957 -0.9044  0.0764 -0.1077
 1371SOL    HW1 6430   2.426   6.922   0.861  0.8544  2.3842 -0.0253
 1371SOL    HW2 6431   2.343   6.876   0.980 -2.1526  1.3068 -2.4166
 1372SOL     OW 6432  10.360   9.572   0.641  0.1359 -0.0896  0.6473
 1372SOL    HW1 6433  10.417   9.494   0.642  0.6917  0.2820 -0.1668
 1372SOL    HW2 6434  10.333   9.583   0.731 -0.7985 -1.8416  0.6268
 1373SOL     OW 6435   6.540   6.984   9.803  0.5479 -0.1221 -0.0492
 1373SOL    HW1 6436   6.617   7.041   9.807  0.1993  0.2919  2.4609
 1373SOL    HW2 6437   6.479   7.021   9.867 -0.8401 -1.7302 -0.3613
 1374SOL     OW 6438   9.283   1.240   1.483 -0.0360 -0.3149 -0.6602
 1374SOL    HW1 6439   9.364   1.265   1.528  0.1176  2.1807 -2.1270
 1374SOL    HW2 6440   9.297   1.148   1.459  1.5496 -0.5000  0.7794
 1375SOL     OW 6441   5.315   5.354   4.850 -0.4379  0.4476  0.1218
 1375SOL    HW1 6442   5.272   5.419   4.796 -0.9702  1.6795  1.9403
 1375SOL    HW2 6443   5.249   5.327   4.913  0.7813  0.8088  1.6306
 1376SOL     OW 6444   5.579   5.902   5.382  0.5378 -0.3125  0.1939
 1376SOL    HW1 6445   5.634   5.964   5.333  0.0160  0.6338  0.7563
 1376SOL    HW2 6446   5.642   5.846   5.427  1.2869  2.4578  3.0241
 1377SOL     OW 6447   2.192   0.776   3.161 -1.4841 -0.1337  0.6288
 1377SOL    HW1 6448   2.216   0.685   3.179 -1.9715 -0.4206 -0.1202
 1377SOL    HW2 6449   2.198   0.820   3.246 -2.9560 -1.2736  1.3614
 1378SOL     OW 6450   9.437   0.132   7.260 -0.1123  0.6088  0.0552
 1378SOL    HW1 6451   9.435   0.126   7.164  0.2472  0.2016  0.0703
 1378SOL    HW2 6452   9.512   0.190   7.277 -0.2555  0.7849  0.0878
 1379SOL     OW 6453   4.678   8.425   9.196 -0.1558 -0.5815  0.0284
 1379SOL    HW1 6454   4.658   8.406   9.287  1.0115 -1.0412  0.2057
 1379SOL    HW2 6455   4.597   8.406   9.149 -0.5747 -0.9569  0.8854
 1380SOL     OW 6456   6.789   1.617   6.413 -0.4603  0.3129 -0.6224
 1380SOL    HW1 6457   6.817   1.637   6.503  2.5526 -1.2366 -1.1026
 1380SOL    HW2 6458   6.790   1.702   6.368  0.3902  0.7635  0.2144
 1381SOL     OW 6459   4.549   8.251   5.761  0.1607  0.3390 -0.0022
 1381SOL    HW1 6460   4.589   8.240   5.847  1.4931 -2.0473 -0.8309
 1381SOL    HW2 6461   4.491   8.176   5.752 -0.7686  1.1218 -0.8086
 1382SOL     OW 6462   0.334   9.422   1.239  0.5167  0.2123 -0.6681
 1382SOL    HW1 6463   0.364   9.395   1.326  0.2851 -1.7343 -1.1321
 1382SOL    HW2 6464   0.250   9.378   1.228  0.1736  1.0668 -1.5774
 1383SOL     OW 6465   7.569   3.138   2.496  0.3334 -0.3591 -0.2903
 1383SOL    HW1 6466   7.632   3.176   2.436  0.4713 -0.8328 -0.4491
 1383SOL    HW2 6467   7.507   3.209   2.514  0.7581  0.0259 -0.3411
 1384SOL     OW 6468   8.916   4.721   4.567 -0.1020 -0.4712 -0.5029
 1384SOL    HW1 6469   8.913   4.648   4.505  0.1710 -0.9270  0.0100
 1384SOL    HW2 6470   8.825   4.750   4.574 -0.0585 -0.0355 -1.5536
 1385SOL     OW 6471   8.866   2.593   4.340 -0.4082 -0.3024  0.1802
 1385SOL    HW1 6472   8.797   2.650   4.374 -0.0515 -0.6079  1.4318
 1385SOL    HW2 6473   8.857   2.512   4.389  2.5413  0.5441  2.3997
 1386SOL     OW 6474   3.930   2.191  10.449 -0.3903 -0.4191  0.2709
 1386SOL    HW1 6475   3.977   2.241  10.516 -0.2031 -1.1347  0.6797
 1386SOL    HW2 6476   3.995   2.132  10.413 -0.6702 -0.5372 -0.0439
 1387SOL     OW 6477   0.599   1.636   5.450 -0.1691  0.4230 -0.3548
 1387SOL    HW1 6478   0.582   1.542   5.450  0.4454  0.3034 -0.7465
 1387SOL    HW2 6479   0.549   1.670   5.524 -0.8380 -0.1279 -0.5428
 1388SOL     OW 6480   6.252   3.320   1.703 -0.4355 -0.2919 -0.0493
 1388SOL    HW1 6481   6.229   3.228   1.709 -0.9089 -0.2162 -0.6112
 1388SOL    HW2 6482   6.268   3.347   1.794  0.4430 -1.0987  0.0538
 1389SOL     OW 6483   1.501   8.830  10.408  0.2292 -0.4191 -0.1416
 1389SOL    HW1 6484   1.409   8.806  10.422  0.1018 -0.4444 -0.9874
 1389SOL    HW2 6485   1.508   8.919  10.443 -0.1935 -0.3054 -0.3380
 1390SOL     OW 6486   6.194   7.477   5.141 -0.1869 -0.3290 -0.0147
 1390SOL    HW1 6487   6.236   7.563   5.139 -0.5812 -0.1214  0.3444
 1390SOL    HW2 6488   6.259   7.418   5.177 -0.0752 -0.0848  0.1849
 1391SOL     OW 6489   3.026   7.655   7.761 -0.3139 -0.4074 -0.0778
 1391SOL    HW1 6490   3.121   7.665   7.762 -0.2670 -0.8226  0.3775
 1391SOL    HW2 6491   3.009   7.583   7.823 -1.0613  0.7990  1.1758
 1392SOL     OW 6492   0.488   2.309   1.454  0.3303  0.5271  0.3287
 1392SOL    HW1 6493   0.494   2.216   1.429 -0.6618  0.2540  1.0256
 1392SOL    HW2 6494   0.488   2.356   1.371  0.2255 -0.1433 -0.0612
 1393SOL     OW 6495   6.982   7.938   4.291 -0.9982  0.5914 -0.4706
 1393SOL    HW1 6496   6.910   7.877   4.308 -0.1382 -0.7646 -1.5182
 1393SOL    HW2 6497   6.956   7.984   4.212 -0.9845  0.5182 -0.5184
 1394SOL     OW 6498   4.964   7.132   8.201  0.6095 -0.0631  0.1142
 1394SOL    HW1 6499   4.967   7.082   8.120  0.3199  0.4805 -0.2356
 1394SOL    HW2 6500   4.969   7.224   8.173 -0.8059  0.1880  0.6252
 1395SOL     OW 6501   1.459   6.258   9.433 -0.2704 -0.3936 -0.4956
 1395SOL    HW1 6502   1.467   6.302   9.518  0.0202  1.9265 -1.6293
 1395SOL    HW2 6503   1.409   6.320   9.380 -1.0053 -2.0783 -1.8475
 1396SOL     OW 6504   2.992   5.782   2.044  0.4257 -0.1758  0.0040
 1396SOL    HW1 6505   2.910   5.823   2.070 -0.2426 -1.7877  0.5697
 1396SOL    HW2 6506   2.977   5.755   1.953  0.5038 -0.0540 -0.0451
 1397SOL     OW 6507   4.066   9.262   9.974 -0.0205 -0.6258 -0.2279
 1397SOL    HW1 6508   4.078   9.357   9.984 -1.1125 -0.1821 -2.4123
 1397SOL    HW2 6509   4.151   9.225   9.997 -0.3313  0.5702  3.3955
 1398SOL     OW 6510  10.265   7.418  10.244  0.1114  0.0705 -0.0692
 1398SOL    HW1 6511  10.348   7.465  10.247  0.4306 -0.5382  1.0037
 1398SOL    HW2 6512  10.238   7.424  10.152  0.6295  1.4752 -0.1571
 1399SOL     OW 6513   7.110   9.403   0.315 -0.3760 -0.0215 -0.5348
 1399SOL    HW1 6514   7.050   9.396   0.241 -1.2655 -0.3572  0.2072
 1399SOL    HW2 6515   7.085   9.332   0.374 -1.3077  1.6882  1.2313
 1400SOL     OW 6516   2.613   7.901   2.515  1.2784 -0.5163 -0.2890
 1400SOL    HW1 6517   2.658   7.985   2.507  0.2273  0.0973  0.0747
 1400SOL    HW2 6518   2.666   7.851   2.576  1.0862  0.4795  0.7375
 1401SOL     OW 6519   0.290   1.871   3.273  0.0244  0.0155 -0.3358
 1401SOL    HW1 6520   0.319   1.859   3.363  2.1120  0.4131 -0.8985
 1401SOL    HW2 6521   0.269   1.783   3.242  1.6735 -0.4655 -0.1831
 1402SOL     OW 6522  10.278   7.763   3.620 -0.2544 -0.1226 -0.0891
 1402SOL    HW1 6523  10.268   7.852   3.652  0.2996 -0.2563  0.4777
 1402SOL    HW2 6524  10.345   7.724   3.676 -0.4910 -0.8990 -0.3213
 1403SOL     OW 6525   8.694  10.463   3.150  0.7846 -0.7377  0.2830
 1403SOL    HW1 6526   8.688  10.402   3.076  0.4592 -0.3346 -0.0300
 1403SOL    HW2 6527   8.759  10.424   3.208 -0.8939 -2.4783  1.1272
 1404SOL     OW 6528   2.492   3.823   1.230  0.0128 -0.1921 -0.6961
 1404SOL    HW1 6529   2.572   3.774   1.246  0.1318 -1.1358 -3.5441
 1404SOL    HW2 6530   2.428   3.787   1.292  0.7346 -2.3389 -1.1082
 1405SOL     OW 6531   7.194   5.195   1.521  0.1420 -0.4782 -0.4586
 1405SOL    HW1 6532   7.109   5.167   1.486  1.3318 -1.4980 -2.7048
 1405SOL    HW2 6533   7.203   5.285   1.491  0.1396 -0.5884 -0.7977
 1406SOL     OW 6534   6.411   9.396   1.948 -0.5588 -0.0483  0.3240
 1406SOL    HW1 6535   6.335   9.411   1.892 -0.8751 -1.1875  0.4152
 1406SOL    HW2 6536   6.424   9.301   1.946  0.5557  0.0799  0.7148
 1407SOL     OW 6537   2.175   1.138   5.271  0.2238  0.0772 -0.3289
 1407SOL    HW1 6538   2.214   1.051   5.259  1.1162  0.3456  0.5819
 1407SOL    HW2 6539   2.191   1.159   5.362 -0.2408  1.0919 -0.4728
 1408SOL     OW 6540   7.633   5.031   5.216 -0.3087 -0.3776  0.1491
 1408SOL    HW1 6541   7.625   5.072   5.130 -2.5522  0.0695  0.5146
 1408SOL    HW2 6542   7.723   5.050   5.243  1.4916 -2.9553 -3.2137
 1409SOL     OW 6543   4.887  10.093   5.472 -0.5306  0.3734 -0.1571
 1409SOL    HW1 6544   4.860  10.003   5.452 -0.5271  0.3569 -0.0865
 1409SOL    HW2 6545   4.940  10.119   5.397 -2.1664  1.0119 -1.1454
 1410SOL     OW 6546   5.109   1.965   4.157 -0.2446 -0.0872 -0.3185
 1410SOL    HW1 6547   5.123   2.047   4.108  0.0972 -0.0089 -0.0964
 1410SOL    HW2 6548   5.065   1.907   4.095 -0.0406  0.0978 -0.6409
 1411SOL     OW 6549   7.757   8.313   3.964  0.1075  0.0012  0.2997
 1411SOL    HW1 6550   7.707   8.256   4.022  1.1148 -1.8321 -0.5421
 1411SOL    HW2 6551   7.814   8.364   4.022  0.0141 -0.6961  1.0080
 1412SOL     OW 6552   3.573   7.362   1.771 -0.2570 -0.4291 -0.0130
 1412SOL    HW1 6553   3.532   7.289   1.816 -1.0317 -0.0243 -0.0466
 1412SOL    HW2 6554   3.586   7.330   1.681  0.6194 -0.9773  0.2964
 1413SOL     OW 6555   4.401   1.276   5.268  0.8974 -0.0181  0.4718
 1413SOL    HW1 6556   4.447   1.196   5.292 -0.1473 -1.0008 -0.6964
 1413SOL    HW2 6557   4.312   1.248   5.247 -0.6557  1.9295  3.6409
 1414SOL     OW 6558  10.113   1.880   2.477 -0.3551  0.0724 -0.0956
 1414SOL    HW1 6559  10.031   1.870   2.428  0.7248 -1.8072 -1.6685
 1414SOL    HW2 6560  10.090   1.855   2.567 -2.0287  2.0565  0.1138
 1415SOL     OW 6561   0.462   1.744   9.820 -0.6595 -0.8343  0.3590
 1415SOL    HW1 6562   0.424   1.668   9.864 -1.1618 -0.9603 -0.2624
 1415SOL    HW2 6563   0.508   1.707   9.744 -0.4893 -0.5604  0.3276
 1416SOL     OW 6564   3.316   7.264   8.780  0.7054 -0.3424  0.0850
 1416SOL    HW1 6565   3.244   7.224   8.732  1.3675 -0.4497 -0.8453
 1416SOL    HW2 6566   3.360   7.191   8.824  0.2800 -0.2839  0.6075
 1417SOL     OW 6567   4.717   1.496   4.467  0.2792  0.5936 -0.3116
 1417SOL    HW1 6568   4.783   1.558   4.435  0.1751  0.6176 -0.4780
 1417SOL    HW2 6569   4.689   1.449   4.389  1.0191 -0.3032 -0.0590
 1418SOL     OW 6570   2.202   2.075  10.054  0.2595 -0.0960  0.2976
 1418SOL    HW1 6571   2.285   2.047  10.015 -0.0120  0.4211 -0.6963
 1418SOL    HW2 6572   2.226   2.141  10.118  0.5224  1.3743 -1.2503
 1419SOL     OW 6573   0.238   8.057   7.797 -0.1184 -0.2365  0.6147
 1419SOL    HW1 6574   0.328   8.077   7.822 -0.1173 -0.1847  0.5714
 1419SOL    HW2 6575   0.240   7.967   7.766  0.4048  0.5020 -1.6918
 1420SOL     OW 6576  10.486   3.812   4.397  0.1211  0.5149  0.2644
 1420SOL    HW1 6577  10.399   3.850   4.382 -0.6479 -1.2991 -0.0713
 1420SOL    HW2 6578  10.521   3.797   4.310 -1.0466 -2.6599  0.2173
 1421SOL     OW 6579   6.862   6.752   5.375  0.3417 -0.2382  0.3537
 1421SOL    HW1 6580   6.781   6.767   5.327  1.2098 -0.7869 -1.3634
 1421SOL    HW2 6581   6.889   6.664   5.351  1.5615  0.0046  0.7354
 1422SOL     OW 6582   1.017   5.053   9.771  0.1541  0.0833 -0.1544
 1422SOL    HW1 6583   0.949   5.067   9.836  1.4557 -0.4498  1.3886
 1422SOL    HW2 6584   1.054   5.140   9.755 -0.0711  0.1954 -0.0665
 1423SOL     OW 6585   3.442   8.766   0.274 -0.4702 -0.1998 -0.2076
 1423SOL    HW1 6586   3.363   8.766   0.328  0.0922  0.1974  0.6393
 1423SOL    HW2 6587   3.422   8.705   0.202 -0.9592 -1.3490  0.8647
 1424SOL     OW 6588   3.873   3.818   6.475  0.9323 -0.0709  0.5000
 1424SOL    HW1 6589   3.782   3.808   6.504  0.2494 -2.1282 -2.0409
 1424SOL    HW2 6590   3.915   3.735   6.498  0.6955 -1.2697 -2.8639
 1425SOL     OW 6591  10.324  10.547  10.531 -0.0437 -0.2833 -1.0820
 1425SOL    HW1 6592  10.332  10.631  10.575 -0.0210  0.0676 -1.7421
 1425SOL    HW2 6593  10.231  10.543  10.505 -0.4354 -1.1896  0.3647
 1426SOL     OW 6594   6.459   9.505   8.914  0.5957 -0.0933 -0.3878
 1426SOL    HW1 6595   6.424   9.523   8.828  0.8013 -1.6802 -0.8457
 1426SOL    HW2 6596   6.452   9.410   8.924  2.0954 -0.1523  0.6588
 1427SOL     OW 6597   6.771   8.743   7.814 -0.0600 -0.1746 -0.6721
 1427SOL    HW1 6598   6.848   8.796   7.834 -0.1744 -0.2492 -0.0117
 1427SOL    HW2 6599   6.807   8.661   7.779  0.1432  0.0204 -0.9181
 1428SOL     OW 6600   1.958   9.251   4.986  0.1530 -0.3039 -0.3520
 1428SOL    HW1 6601   2.042   9.294   5.004 -0.3026  0.4475  0.0757
 1428SOL    HW2 6602   1.974   9.158   4.999  0.9808 -0.1865 -0.5199
 1429SOL     OW 6603   9.179   4.842   7.392 -0.1477  0.2693  0.5959
 1429SOL    HW1 6604   9.226   4.855   7.473  0.1383 -0.6626  0.5906
 1429SOL    HW2 6605   9.225   4.771   7.347  0.5066  1.6271 -1.0097
 1430SOL     OW 6606   0.660   2.376   4.029 -0.6641 -0.6351  0.4582
 1430SOL    HW1 6607   0.717   2.301   4.049 -1.5222 -1.9036 -1.5162
 1430SOL    HW2 6608   0.715   2.434   3.975 -0.6980 -1.0182  0.0027
 1431SOL     OW 6609   9.055   3.360   5.378  0.1419  0.1700 -0.6755
 1431SOL    HW1 6610   9.079   3.356   5.471  0.6935 -0.5239 -0.8377
 1431SOL    HW2 6611   9.063   3.270   5.348 -1.4469  0.1389 -1.0660
 1432SOL     OW 6612  10.342   4.569   2.686  0.0977  0.0510  0.0136
 1432SOL    HW1 6613  10.323   4.662   2.685 -0.5470 -0.0691 -1.1835
 1432SOL    HW2 6614  10.354   4.546   2.593  0.0426 -1.0868  0.2689
 1433SOL     OW 6615   3.594   4.912  10.055 -0.4998  0.0353 -0.3591
 1433SOL    HW1 6616   3.499   4.914  10.055 -0.5967  1.5619  3.1971
 1433SOL    HW2 6617   3.616   4.824  10.085 -0.7517 -0.3542 -1.2856
 1434SOL     OW 6618   4.118   7.711   9.993  0.3610  0.4594 -0.1923
 1434SOL    HW1 6619   4.161   7.717   9.907 -1.2082  4.6824 -0.9092
 1434SOL    HW2 6620   4.101   7.617  10.004  0.5313 -0.2997 -4.5647
 1435SOL     OW 6621   7.843   6.630   2.407  0.0746  0.3571  0.0759
 1435SOL    HW1 6622   7.912   6.669   2.462 -0.7701  0.8084  0.8401
 1435SOL    HW2 6623   7.890   6.570   2.349  1.0302  0.1571  1.0304
 1436SOL     OW 6624   2.332   6.391   7.717  0.0507 -0.9325 -0.2502
 1436SOL    HW1 6625   2.264   6.452   7.688  0.3288 -0.1289  0.7369
 1436SOL    HW2 6626   2.388   6.381   7.640 -0.1657 -0.1729 -0.5218
 1437SOL     OW 6627   0.768   2.949   8.472 -0.2116  0.4214  0.3754
 1437SOL    HW1 6628   0.682   2.924   8.437  0.3574 -0.2387 -0.5906
 1437SOL    HW2 6629   0.751   2.971   8.563 -1.1671 -1.1318  0.6096
 1438SOL     OW 6630  10.085   1.597   3.356 -0.3918  0.1303 -0.5586
 1438SOL    HW1 6631  10.022   1.556   3.296 -1.1247  0.1937  0.1532
 1438SOL    HW2 6632  10.162   1.541   3.352 -0.7648 -0.3685 -0.8773
 1439SOL     OW 6633   1.660   1.848   2.575 -0.3120 -0.0250  0.0833
 1439SOL    HW1 6634   1.570   1.828   2.550 -0.0418  0.5992 -1.5219
 1439SOL    HW2 6635   1.660   1.845   2.671 -2.7837  2.9050  0.3300
 1440SOL     OW 6636   8.865   8.445   6.970 -0.0273  0.2853  0.3366
 1440SOL    HW1 6637   8.930   8.440   7.040 -0.0257 -0.7594  0.2751
 1440SOL    HW2 6638   8.897   8.384   6.903 -1.1472 -0.3722  0.3758
 1441SOL     OW 6639   2.214   8.447   8.646 -0.4810 -0.0335  0.1741
 1441SOL    HW1 6640   2.250   8.416   8.562  1.6188  0.8666  0.6852
 1441SOL    HW2 6641   2.173   8.531   8.624  0.6019  0.4981  0.1302
 1442SOL     OW 6642   1.895   7.145   1.745 -0.0626  0.4675  0.5418
 1442SOL    HW1 6643   1.844   7.194   1.809  0.5650 -0.2240  1.6097
 1442SOL    HW2 6644   1.914   7.061   1.788  0.1154 -0.1469 -0.6742
 1443SOL     OW 6645   1.306   4.563   8.205 -0.2713 -0.0023 -0.1434
 1443SOL    HW1 6646   1.303   4.655   8.231 -0.5734  0.6755 -2.3633
 1443SOL    HW2 6647   1.400   4.541   8.204 -0.1461  0.5529 -0.4979
 1444SOL     OW 6648   6.265   1.758   5.192  0.1373  0.1778  0.3341
 1444SOL    HW1 6649   6.250   1.677   5.143 -1.6642  1.6471 -1.6957
 1444SOL    HW2 6650   6.260   1.828   5.127 -0.7073  2.1299  2.3359
 1445SOL     OW 6651   4.018   5.774   8.633 -0.3493 -0.9909 -0.1641
 1445SOL    HW1 6652   4.104   5.766   8.592 -0.2811 -0.8331 -0.0523
 1445SOL    HW2 6653   4.036   5.799   8.723 -0.5426  0.6137 -0.5372
 1446SOL     OW 6654  10.522   0.867   3.782  0.2196  0.3313  0.6396
 1446SOL    HW1 6655  10.472   0.858   3.863 -0.6983 -0.3708  0.0171
 1446SOL    HW2 6656  10.557   0.779   3.766  1.2469  0.7028  0.8025
 1447SOL     OW 6657   9.673   7.596   5.476 -0.5765  0.3086 -0.2109
 1447SOL    HW1 6658   9.659   7.551   5.393 -1.2147  1.2639 -0.6335
 1447SOL    HW2 6659   9.588   7.635   5.497 -0.2267  0.7147  0.5126
 1448SOL     OW 6660   0.780   0.724   4.380  0.0570 -0.1962 -0.4193
 1448SOL    HW1 6661   0.776   0.776   4.301  1.5578  1.0472  0.2655
 1448SOL    HW2 6662   0.853   0.761   4.430  0.0213 -1.7974  0.9300
 1449SOL     OW 6663   7.679   9.913   6.582 -0.2443 -0.3453 -0.2834
 1449SOL    HW1 6664   7.652   9.985   6.640 -0.4101 -0.7330  0.1223
 1449SOL    HW2 6665   7.645   9.938   6.496  0.2497  0.3783 -0.2834
 1450SOL     OW 6666   3.178   4.981   2.474  0.2447  0.2952  0.2818
 1450SOL    HW1 6667   3.133   5.064   2.488  0.9618  0.8158 -0.4517
 1450SOL    HW2 6668   3.257   4.987   2.528  0.4077  0.1757  0.0570
 1451SOL     OW 6669   2.272   4.530   4.460  0.0757 -0.0176 -0.2033
 1451SOL    HW1 6670   2.367   4.535   4.445  0.2370  1.6034  1.0842
 1451SOL    HW2 6671   2.251   4.610   4.508 -2.3310  0.6917 -2.2424
 1452SOL     OW 6672   1.971   1.417   9.585 -0.3887 -0.2853 -0.4685
 1452SOL    HW1 6673   1.897   1.409   9.645 -0.1838 -0.4026 -0.2275
 1452SOL    HW2 6674   1.936   1.391   9.500 -0.7860  0.2853 -0.4809
 1453SOL     OW 6675   9.031   6.181   5.687 -0.3836  0.3264  0.0351
 1453SOL    HW1 6676   9.028   6.200   5.593  0.5030  0.7066  0.0699
 1453SOL    HW2 6677   9.006   6.089   5.694  1.3694 -0.2575 -0.7822
 1454SOL     OW 6678   4.864   6.266   4.476  0.0232 -0.1625 -0.0234
 1454SOL    HW1 6679   4.957   6.252   4.490  0.2969  0.8552 -0.7091
 1454SOL    HW2 6680   4.822   6.224   4.551  0.8174 -2.9598 -1.0041
 1455SOL     OW 6681   0.935   6.408   0.849  0.2962  0.2997 -0.0268
 1455SOL    HW1 6682   0.866   6.427   0.913 -1.2697 -0.6764 -1.3508
 1455SOL    HW2 6683   0.949   6.490   0.802 -0.5581  0.3083 -0.2801
 1456SOL     OW 6684   4.383   9.272   7.570  0.1192 -0.1850 -0.4763
 1456SOL    HW1 6685   4.293   9.257   7.540  0.1316 -1.2391 -0.0061
 1456SOL    HW2 6686   4.429   9.303   7.492 -0.5141 -0.1620 -0.8527
 1457SOL     OW 6687   9.685   5.851   9.694  0.3145 -0.3348 -0.1143
 1457SOL    HW1 6688   9.708   5.761   9.670 -1.3112 -1.3261  1.7102
 1457SOL    HW2 6689   9.617   5.876   9.631  0.0189 -0.7885  0.0217
 1458SOL     OW 6690   6.039   6.433   0.883  0.5370  0.2174  0.2945
 1458SOL    HW1 6691   6.078   6.435   0.796 -1.7872 -2.6195 -0.9812
 1458SOL    HW2 6692   5.984   6.511   0.886  0.1997  0.0588 -1.0355
 1459SOL     OW 6693   5.191   8.249   4.714 -0.2844  0.1850  0.4279
 1459SOL    HW1 6694   5.200   8.154   4.721 -2.2228 -0.1451 -0.7532
 1459SOL    HW2 6695   5.265   8.276   4.658 -0.2637 -0.7568 -0.0139
 1460SOL     OW 6696   7.781   7.804  10.176 -0.4111 -0.2542 -0.5715
 1460SOL    HW1 6697   7.832   7.871  10.221  0.7326  0.1953 -2.4012
 1460SOL    HW2 6698   7.748   7.747  10.245  3.3217 -1.0994  0.7126
 1461SOL     OW 6699   0.701   8.069   2.061 -0.0039 -0.5733 -0.1883
 1461SOL    HW1 6700   0.764   8.065   1.989  0.1225  1.2788 -0.2376
 1461SOL    HW2 6701   0.619   8.037   2.023 -0.1385  1.1096 -1.4529
 1462SOL     OW 6702   6.008   4.368   3.868 -0.2489  0.1374  0.0954
 1462SOL    HW1 6703   6.053   4.427   3.929  1.4213 -1.1159  0.1203
 1462SOL    HW2 6704   6.005   4.416   3.786  1.7735  0.0154 -0.0905
 1463SOL     OW 6705   0.355   1.567   4.054 -0.4034 -0.3476 -0.6500
 1463SOL    HW1 6706   0.344   1.646   4.000 -0.4076  0.4208  0.4390
 1463SOL    HW2 6707   0.279   1.567   4.111  0.3461 -0.3047  0.3781
 1464SOL     OW 6708   5.762   0.046   1.929 -0.0046  0.1106 -0.4469
 1464SOL    HW1 6709   5.798  -0.041   1.911 -1.5638 -0.6688  0.0225
 1464SOL    HW2 6710   5.699   0.032   1.999 -1.0997  1.4245 -1.1216
 1465SOL     OW 6711   3.124   6.913   0.246 -0.4222  0.0097  0.3785
 1465SOL    HW1 6712   3.093   6.971   0.315 -0.0081  0.7432 -0.0398
 1465SOL    HW2 6713   3.130   6.827   0.287  1.4301  0.7337  1.7576
 1466SOL     OW 6714   0.249   3.242   4.051  0.3702  0.2037 -0.3683
 1466SOL    HW1 6715   0.253   3.337   4.034  0.6299  0.3183  0.3048
 1466SOL    HW2 6716   0.323   3.206   4.002  2.1197  0.7314  1.7020
 1467SOL     OW 6717   7.836   5.901   5.397  0.1660 -0.0178 -0.1201
 1467SOL    HW1 6718   7.894   5.933   5.466 -0.8514 -1.1340  1.3266
 1467SOL    HW2 6719   7.816   5.811   5.422 -0.7890 -0.2224 -1.5113
 1468SOL     OW 6720   0.815   9.855   3.706  0.5205  0.4197 -0.2423
 1468SOL    HW1 6721   0.844   9.880   3.618  0.0383  1.4122 -0.1297
 1468SOL    HW2 6722   0.725   9.823   3.693  0.9763 -0.8757 -0.3196
 1469SOL     OW 6723   4.800   2.556   7.182 -0.3493  0.5569  0.5351
 1469SOL    HW1 6724   4.773   2.635   7.134  0.5727  0.1420 -0.7076
 1469SOL    HW2 6725   4.876   2.584   7.233 -0.3839  0.6138  0.5564
 1470SOL     OW 6726   0.517   1.420   6.158  0.6462  0.4652 -0.2237
 1470SOL    HW1 6727   0.507   1.380   6.244 -1.9443 -0.9351 -1.0782
 1470SOL    HW2 6728   0.506   1.514   6.174  0.9211  0.3062  1.0321
 1471SOL     OW 6729   7.811  10.113   7.335  0.4273 -0.0626  0.2935
 1471SOL    HW1 6730   7.855  10.029   7.322  1.4798  0.2765  1.4668
 1471SOL    HW2 6731   7.774  10.108   7.423  0.4258  0.6576  0.3420
 1472SOL     OW 6732   0.121   7.615   8.558 -0.1015  0.2180 -0.1001
 1472SOL    HW1 6733   0.097   7.540   8.504 -2.3936  0.2175  0.8071
 1472SOL    HW2 6734   0.204   7.590   8.600  0.6564 -0.5836 -1.9930
 1473SOL     OW 6735   5.370  10.061   1.415 -0.4614 -0.5939 -0.6386
 1473SOL    HW1 6736   5.321  10.045   1.496 -0.9577 -2.0975 -1.2027
 1473SOL    HW2 6737   5.441   9.996   1.417 -0.0824 -0.1978 -1.1034
 1474SOL     OW 6738   9.081   8.043   0.753  0.0365  0.1482  0.1969
 1474SOL    HW1 6739   9.061   8.085   0.836  1.3893  0.2515  0.5029
 1474SOL    HW2 6740   9.144   8.102   0.711 -1.6531  0.8186 -1.5604
 1475SOL     OW 6741   9.703   3.313   2.744 -0.0455  0.0278 -0.1809
 1475SOL    HW1 6742   9.792   3.277   2.750 -0.1485 -0.3514 -0.8138
 1475SOL    HW2 6743   9.677   3.296   2.653 -1.0204 -0.4732  0.1837
 1476SOL     OW 6744   6.799   1.503   8.269 -0.4950 -0.5164 -0.0914
 1476SOL    HW1 6745   6.805   1.435   8.202  0.4274 -1.0092  0.4703
 1476SOL    HW2 6746   6.711   1.540   8.258 -0.5858 -1.0189 -1.1475
 1477SOL     OW 6747   7.186   9.022   7.618 -0.5901  0.5795 -0.0063
 1477SOL    HW1 6748   7.272   8.982   7.607  0.7014  3.1466 -0.0037
 1477SOL    HW2 6749   7.154   9.035   7.529 -1.2721 -0.8545 -0.0013
 1478SOL     OW 6750   5.780   9.679   4.149 -0.2449  0.3940 -0.2985
 1478SOL    HW1 6751   5.865   9.639   4.166 -0.9791 -0.3681  1.9415
 1478SOL    HW2 6752   5.728   9.658   4.226 -2.0705  1.9632 -1.0240
 1479SOL     OW 6753   8.502   7.719   1.526  0.7963 -0.3662 -0.1937
 1479SOL    HW1 6754   8.453   7.687   1.451 -0.6968 -0.0098  0.5967
 1479SOL    HW2 6755   8.551   7.795   1.493 -0.6076  0.3911 -0.5961
 1480SOL     OW 6756   8.488   5.372   4.869  0.9710 -0.1700  0.6762
 1480SOL    HW1 6757   8.566   5.425   4.885  0.5969  0.1787  1.3525
 1480SOL    HW2 6758   8.518   5.281   4.879  1.3413 -0.0439  0.6990
 1481SOL     OW 6759   0.837   7.006   2.243 -0.2251 -0.9050  0.0427
 1481SOL    HW1 6760   0.834   6.978   2.335  1.0248 -0.8923  0.0956
 1481SOL    HW2 6761   0.913   6.961   2.206 -0.9578 -1.2333 -1.1063
 1482SOL     OW 6762   9.455   3.867   9.498 -0.0731 -0.0759 -0.5740
 1482SOL    HW1 6763   9.488   3.956   9.510 -1.6418  0.6892 -1.5947
 1482SOL    HW2 6764   9.375   3.864   9.549  0.8000 -1.4672  0.7762
 1483SOL     OW 6765   5.409   8.641   5.139 -0.2001 -0.0120  0.3079
 1483SOL    HW1 6766   5.405   8.736   5.125 -0.3013 -0.1023 -0.3291
 1483SOL    HW2 6767   5.321   8.616   5.166  0.0306  0.1861  1.2802
 1484SOL     OW 6768   9.960   7.470   8.512 -0.4742  0.3277  0.7176
 1484SOL    HW1 6769  10.027   7.458   8.445 -1.7031 -2.9346 -0.1429
 1484SOL    HW2 6770   9.912   7.548   8.484  0.7016  0.5742 -0.6981
 1485SOL     OW 6771   1.908   7.511   4.411  0.7602 -0.4763 -0.5551
 1485SOL    HW1 6772   1.967   7.487   4.483  2.3283 -0.0347 -1.6424
 1485SOL    HW2 6773   1.823   7.477   4.438  1.6201 -1.6954  0.8029
 1486SOL     OW 6774   2.315  10.071   7.930  0.1762  0.4855  0.7267
 1486SOL    HW1 6775   2.313  10.139   7.998  1.2289  1.3040 -0.0193
 1486SOL    HW2 6776   2.406  10.041   7.928  0.6041  1.6837 -1.4185
 1487SOL     OW 6777   0.352   1.974   3.744 -0.6881  0.2091 -0.3727
 1487SOL    HW1 6778   0.441   2.007   3.741 -1.1551  1.8671  1.5681
 1487SOL    HW2 6779   0.321   1.980   3.653  0.4389  1.7633 -0.6990
 1488SOL     OW 6780   2.016   8.104   8.886 -0.1370  0.2247  0.6268
 1488SOL    HW1 6781   2.102   8.074   8.855  0.1511  2.2812 -0.7444
 1488SOL    HW2 6782   1.995   8.045   8.958  2.0578 -0.8373  0.4852
 1489SOL     OW 6783   1.510   7.751   0.664  1.0075  0.0946 -0.2588
 1489SOL    HW1 6784   1.468   7.834   0.643  0.2186 -0.0307  0.6814
 1489SOL    HW2 6785   1.595   7.775   0.700  0.7625  0.5148  0.0573
 1490SOL     OW 6786   6.079   8.659   5.999  0.1991 -0.5483  0.2578
 1490SOL    HW1 6787   5.989   8.657   5.965 -0.2480 -0.0793  1.3720
 1490SOL    HW2 6788   6.085   8.581   6.054  0.1695 -0.0870  0.9190
 1491SOL     OW 6789   5.796   3.355   6.943 -0.1431 -0.5178  0.2254
 1491SOL    HW1 6790   5.838   3.424   6.892 -2.1710  0.1621 -0.6345
 1491SOL    HW2 6791   5.802   3.277   6.888 -0.5320 -0.2737 -0.1698
 1492SOL     OW 6792   1.102   4.861   7.475 -0.5996 -0.0154  0.1889
 1492SOL    HW1 6793   1.038   4.793   7.455 -1.9133  1.0920  0.4915
 1492SOL    HW2 6794   1.069   4.901   7.556  0.9880 -0.0250  0.8728
 1493SOL     OW 6795   2.042   6.626   4.732 -0.1277 -1.2723 -0.0546
 1493SOL    HW1 6796   1.954   6.642   4.699 -0.5191 -0.9758  1.1099
 1493SOL    HW2 6797   2.072   6.712   4.762  0.0968 -1.5926  0.6561
 1494SOL     OW 6798   5.051   6.157   2.912 -0.0907 -0.3526  0.4306
 1494SOL    HW1 6799   4.958   6.132   2.907  0.0765 -0.7397 -1.9574
 1494SOL    HW2 6800   5.098   6.078   2.888  0.9029 -0.1953  1.7760
 1495SOL     OW 6801   5.444   6.437   9.112  0.1089  0.2835  0.4026
 1495SOL    HW1 6802   5.489   6.423   9.029  2.2796  0.6900  1.4282
 1495SOL    HW2 6803   5.365   6.383   9.107  1.0272 -0.9831 -1.2553
 1496SOL     OW 6804  10.289   6.184   3.785 -0.2649 -0.2305  0.1100
 1496SOL    HW1 6805  10.249   6.253   3.732 -1.4688 -0.4017  0.7473
 1496SOL    HW2 6806  10.307   6.114   3.724 -1.2168 -0.2485 -0.1629
 1497SOL     OW 6807   6.787   2.822  10.119 -0.2168  0.0887 -0.4847
 1497SOL    HW1 6808   6.871   2.828  10.164 -0.6796 -1.6554  0.6877
 1497SOL    HW2 6809   6.725   2.866  10.178 -0.5904 -1.0351 -0.0165
 1498SOL     OW 6810   6.012   5.777   0.321  0.3636 -0.1855  0.2665
 1498SOL    HW1 6811   6.008   5.685   0.294 -2.7104 -0.2293  0.4454
 1498SOL    HW2 6812   5.975   5.825   0.247  0.9459  0.7877  0.5966
 1499SOL     OW 6813   4.345   9.944   0.342 -0.3144  0.1057 -0.5768
 1499SOL    HW1 6814   4.267   9.956   0.287 -0.9820 -2.7631 -0.3975
 1499SOL    HW2 6815   4.312   9.951   0.432 -0.5198 -1.5010 -0.4910
 1500SOL     OW 6816   4.853   1.725   8.982 -0.2747  0.5115  0.0851
 1500SOL    HW1 6817   4.847   1.816   8.953  0.3131  0.7895  0.8139
 1500SOL    HW2 6818   4.817   1.674   8.909  1.1505  1.1876 -1.1385
 1501SOL     OW 6819   9.428   0.933   1.082 -0.4551 -0.6188 -0.3604
 1501SOL    HW1 6820   9.497   0.932   1.015 -0.4829 -2.0982 -0.4181
 1501SOL    HW2 6821   9.401   0.841   1.089 -1.2626 -0.3128  0.8644
 1502SOL     OW 6822   4.287   3.463   0.697  0.0295  0.3260 -0.0314
 1502SOL    HW1 6823   4.276   3.464   0.792  1.0008  0.5991  0.0955
 1502SOL    HW2 6824   4.355   3.397   0.681 -0.2284  0.1804 -0.5511
 1503SOL     OW 6825   3.380   9.102   2.158  0.2115 -0.3548  0.0926
 1503SOL    HW1 6826   3.445   9.087   2.089 -0.1929  0.0326 -0.3803
 1503SOL    HW2 6827   3.320   9.166   2.120 -0.7247 -1.0785  0.3414
 1504SOL     OW 6828   1.836   2.716   6.708 -0.3293 -0.2112  0.5120
 1504SOL    HW1 6829   1.828   2.623   6.686  1.5150 -0.4683  0.7802
 1504SOL    HW2 6830   1.777   2.728   6.782  1.5955 -1.9101  2.4557
 1505SOL     OW 6831   9.331   5.723   6.304 -0.1235  0.2144  0.5028
 1505SOL    HW1 6832   9.276   5.778   6.360 -0.7119  0.4929 -0.3282
 1505SOL    HW2 6833   9.365   5.783   6.238  1.4084  0.0999  1.1410
 1506SOL     OW 6834   1.654   2.268  10.022  0.3787 -0.0619  0.8227
 1506SOL    HW1 6835   1.572   2.313  10.000 -0.4016 -1.1249  1.4353
 1506SOL    HW2 6836   1.669   2.287  10.114  1.6303  1.3096  0.3720
 1507SOL     OW 6837   9.295   6.727   1.784 -0.0173  0.2406  0.4473
 1507SOL    HW1 6838   9.318   6.715   1.692  0.1807  0.9954  0.3941
 1507SOL    HW2 6839   9.200   6.715   1.787 -0.0495  0.4146  0.1129
 1508SOL     OW 6840   0.393   5.961   2.244  0.1240  0.2782  1.1583
 1508SOL    HW1 6841   0.312   5.961   2.192  0.9188 -0.5241 -0.1120
 1508SOL    HW2 6842   0.405   6.053   2.269  0.6834  1.0684 -1.6677
 1509SOL     OW 6843   0.336   9.082   2.203 -0.0510 -0.3620 -0.5004
 1509SOL    HW1 6844   0.353   9.065   2.111  0.1617 -0.2384 -0.4846
 1509SOL    HW2 6845   0.316   8.996   2.240  0.8594 -0.5596 -0.4542
 1510SOL     OW 6846  10.099   2.427   5.006 -0.2579  0.3292  0.1245
 1510SOL    HW1 6847  10.175   2.437   4.948 -0.7824 -0.7538 -0.7696
 1510SOL    HW2 6848  10.129   2.368   5.075 -0.2100  0.0944 -0.0960
 1511SOL     OW 6849   5.302   8.405   8.044  0.2570  0.0131  0.3699
 1511SOL    HW1 6850   5.340   8.375   7.961  0.0316  0.7300  0.0005
 1511SOL    HW2 6851   5.376   8.446   8.090  0.4661 -0.7020  0.6906
 1512SOL     OW 6852   3.320   6.996   2.777  0.1416 -0.4540 -0.1707
 1512SOL    HW1 6853   3.370   7.068   2.738  1.4340 -1.4749 -0.4729
 1512SOL    HW2 6854   3.229   7.024   2.770  0.6233  1.4179  0.2538
 1513SOL     OW 6855   8.221   3.321   3.936  0.0562  0.3660  0.2057
 1513SOL    HW1 6856   8.216   3.251   4.001 -0.2865 -0.2549 -0.4779
 1513SOL    HW2 6857   8.148   3.379   3.959  0.5876  0.7304  1.0215
 1514SOL     OW 6858   8.055   9.537   2.758  0.5639 -0.2144 -0.7734
 1514SOL    HW1 6859   7.987   9.572   2.701  0.8640 -1.0378 -1.6622
 1514SOL    HW2 6860   8.045   9.586   2.840 -1.5055 -0.7604 -0.6491
 1515SOL     OW 6861   7.476   5.637  10.540 -0.3959 -0.3538  0.0452
 1515SOL    HW1 6862   7.423   5.661  10.464  1.9474  0.1822 -1.5368
 1515SOL    HW2 6863   7.440   5.553  10.568 -2.9575  0.6382  0.0024
 1516SOL     OW 6864   6.625   8.529   3.031  0.7144 -0.3064 -0.3033
 1516SOL    HW1 6865   6.582   8.497   3.110 -0.1380  1.4533  0.0089
 1516SOL    HW2 6866   6.714   8.494   3.035  0.3730 -1.0877  0.8879
 1517SOL     OW 6867   5.334   3.971  10.238  0.4534 -0.3472  0.4865
 1517SOL    HW1 6868   5.276   3.935  10.306 -0.7080  0.7419  0.1202
 1517SOL    HW2 6869   5.408   4.008  10.286  0.1508 -0.5026  1.0792
 1518SOL     OW 6870   0.183   2.573   6.123  0.7640  0.0770 -0.1325
 1518SOL    HW1 6871   0.125   2.634   6.078 -0.6470 -0.6894  0.5497
 1518SOL    HW2 6872   0.201   2.505   6.057  0.3292 -0.0188 -0.1598
 1519SOL     OW 6873   9.495  10.056   5.987 -0.1067  0.5715 -0.3636
 1519SOL    HW1 6874   9.459   9.970   6.006 -0.1434  0.0683 -2.5004
 1519SOL    HW2 6875   9.588  10.040   5.969  0.7674  1.5154  2.6267
 1520SOL     OW 6876   7.163   8.572   1.444 -0.1901  0.0366 -0.0804
 1520SOL    HW1 6877   7.257   8.590   1.441  0.1031 -1.3879 -0.3449
 1520SOL    HW2 6878   7.146   8.521   1.365 -1.1822  0.2738 -0.0273
 1521SOL     OW 6879   5.814   0.420   4.153  0.0436 -0.1776 -0.5731
 1521SOL    HW1 6880   5.755   0.374   4.094  0.3038  1.9049 -2.5974
 1521SOL    HW2 6881   5.762   0.494   4.185  1.0835  0.8449 -1.2168
 1522SOL     OW 6882   8.657   0.336   0.969 -0.0587 -0.0127  0.1194
 1522SOL    HW1 6883   8.695   0.277   0.903  0.1885 -0.5210  0.7045
 1522SOL    HW2 6884   8.707   0.417   0.960 -0.3681  0.1062 -0.6628
 1523SOL     OW 6885   5.638   9.302   1.332 -0.4352 -0.8064 -0.5460
 1523SOL    HW1 6886   5.564   9.283   1.275 -2.9098  2.1438  1.3407
 1523SOL    HW2 6887   5.665   9.391   1.309  1.0872 -1.0107  0.2833
 1524SOL     OW 6888   1.999   6.362   6.186  0.0974  0.0879 -0.1205
 1524SOL    HW1 6889   2.082   6.388   6.226  0.6245 -0.4941 -0.8013
 1524SOL    HW2 6890   2.003   6.267   6.180  1.1057  0.1961 -3.6320
 1525SOL     OW 6891   2.495   6.017   9.257  0.1980  0.0687  0.1914
 1525SOL    HW1 6892   2.428   6.070   9.299  1.8770  1.4590  1.2446
 1525SOL    HW2 6893   2.556   5.995   9.328  1.4511 -0.1684 -0.9247
 1526SOL     OW 6894   1.142   4.710   3.957 -0.0156 -0.7741  0.4782
 1526SOL    HW1 6895   1.116   4.762   3.881 -1.5120  0.1908  1.6037
 1526SOL    HW2 6896   1.080   4.637   3.958 -0.0047 -0.7788  0.7756
 1527SOL     OW 6897   3.719   5.364   2.707  0.8120 -0.5530 -0.0546
 1527SOL    HW1 6898   3.629   5.398   2.703  1.2100  0.4800 -0.5156
 1527SOL    HW2 6899   3.770   5.434   2.748  1.1208 -1.8236  1.8730
 1528SOL     OW 6900   7.146   5.459   9.822  0.3154 -0.2838  0.2625
 1528SOL    HW1 6901   7.177   5.545   9.793  1.4387 -0.6043  0.4416
 1528SOL    HW2 6902   7.064   5.477   9.867 -0.7324  0.3961 -1.8074
 1529SOL     OW 6903   5.107   6.450   3.428 -0.2139  0.1178  0.0687
 1529SOL    HW1 6904   5.023   6.485   3.457  0.6526  0.5491  2.3362
 1529SOL    HW2 6905   5.095   6.355   3.429 -0.0804  0.0519  2.7449
 1530SOL     OW 6906   9.242   4.719   6.203 -0.0280 -0.0129 -0.3556
 1530SOL    HW1 6907   9.253   4.813   6.194  3.2428 -0.2026  0.5522
 1530SOL    HW2 6908   9.214   4.707   6.294  2.4776 -0.0103  0.4683
 1531SOL     OW 6909   3.773   8.158   2.124  0.0522  0.0749  0.3763
 1531SOL    HW1 6910   3.784   8.063   2.133 -0.6451  0.1655  3.2625
 1531SOL    HW2 6911   3.859   8.189   2.095  0.4675 -1.3798 -0.0289
 1532SOL     OW 6912   0.652   8.687  10.070 -0.8577  0.1143  0.0693
 1532SOL    HW1 6913   0.590   8.649  10.132  0.6496  1.0611  2.2884
 1532SOL    HW2 6914   0.625   8.779  10.063 -1.5164 -0.1559 -1.4160
 1533SOL     OW 6915   9.886   8.515   5.943  0.7308  0.0809  0.3195
 1533SOL    HW1 6916   9.880   8.603   5.907  0.9942  0.7653  1.8746
 1533SOL    HW2 6917   9.801   8.498   5.982  0.6946 -0.3557  0.0681
 1534SOL     OW 6918   6.007   1.641   7.207  0.7603  0.3935 -0.5532
 1534SOL    HW1 6919   6.006   1.584   7.130  0.5940 -0.5866  0.1400
 1534SOL    HW2 6920   6.078   1.702   7.191  1.3215 -0.3706 -1.0830
 1535SOL     OW 6921   2.850   5.725   9.684  0.5192  0.2579 -0.1586
 1535SOL    HW1 6922   2.794   5.660   9.727 -0.2967  0.8727 -0.2810
 1535SOL    HW2 6923   2.834   5.712   9.591 -0.1333  1.0595 -0.1613
 1536SOL     OW 6924   5.153   7.723   8.621  0.2061 -0.2137 -0.0037
 1536SOL    HW1 6925   5.077   7.710   8.678  0.9939  0.1998  1.1882
 1536SOL    HW2 6926   5.116   7.744   8.535 -1.0371  1.4671  0.8887
 1537SOL     OW 6927   2.540   4.667   9.006 -0.1791 -0.2473  0.1429
 1537SOL    HW1 6928   2.615   4.663   8.947  0.7090 -0.2165  1.2239
 1537SOL    HW2 6929   2.548   4.752   9.050 -0.7773 -0.2971  0.3611
 1538SOL     OW 6930   3.968   5.887   1.551  0.0264  0.4431  0.6037
 1538SOL    HW1 6931   4.037   5.925   1.497  1.2154 -1.4030  0.7620
 1538SOL    HW2 6932   3.988   5.916   1.640  0.2252  0.4340  0.5607
 1539SOL     OW 6933   3.749   6.937   9.848 -0.5131  0.2858  0.7008
 1539SOL    HW1 6934   3.661   6.901   9.863 -1.1247  2.0952  1.6858
 1539SOL    HW2 6935   3.785   6.949   9.936  0.7484 -0.4254  0.3067
 1540SOL     OW 6936   0.535   2.263   9.147 -0.3304 -0.8413  0.6463
 1540SOL    HW1 6937   0.499   2.205   9.080  1.8059  0.3651 -1.7502
 1540SOL    HW2 6938   0.603   2.212   9.190  0.3503 -0.7143 -0.2473
 1541SOL     OW 6939   0.771  10.021   2.542 -0.2643  0.4318  0.0582
 1541SOL    HW1 6940   0.800   9.943   2.495  0.4632  1.3146 -1.0225
 1541SOL    HW2 6941   0.676  10.010   2.550 -0.2036 -0.4398 -0.3169
 1542SOL     OW 6942   6.850   5.552   3.012 -0.4248  0.4719  0.2720
 1542SOL    HW1 6943   6.878   5.480   3.068  1.1755  1.3266  0.6079
 1542SOL    HW2 6944   6.755   5.557   3.026 -0.5883 -1.5556  0.2132
 1543SOL     OW 6945   1.869   3.480   6.821  0.0196 -0.2449 -0.4357
 1543SOL    HW1 6946   1.953   3.519   6.797  0.5599 -1.8468 -1.2390
 1543SOL    HW2 6947   1.855   3.511   6.911  1.9773 -0.7602  0.1053
 1544SOL     OW 6948   6.397   9.830   0.934  0.3530 -0.2885 -0.7750
 1544SOL    HW1 6949   6.467   9.790   0.882  1.1424  0.6387 -0.4665
 1544SOL    HW2 6950   6.415   9.924   0.930 -1.2256  0.0262 -1.1601
 1545SOL     OW 6951   4.610   0.344   2.091  0.3831  0.0977  0.3802
 1545SOL    HW1 6952   4.629   0.437   2.085 -1.6147  0.5904  0.9875
 1545SOL    HW2 6953   4.626   0.321   2.182  1.3017 -0.2805  0.1360
 1546SOL     OW 6954   0.510   8.889   0.106  0.2858  0.1798 -0.1624
 1546SOL    HW1 6955   0.545   8.972   0.075  1.3254 -0.2388 -0.1611
 1546SOL    HW2 6956   0.527   8.828   0.033  0.0911 -0.1611  0.0744
 1547SOL     OW 6957   5.602   1.038   3.288  0.7810  0.7562  0.3502
 1547SOL    HW1 6958   5.529   0.990   3.329  0.7558 -1.0257 -1.6206
 1547SOL    HW2 6959   5.597   1.125   3.326 -3.1625  1.0971 -0.5175
 1548SOL     OW 6960   3.720   0.015   0.514  0.1829 -0.0235 -0.0300
 1548SOL    HW1 6961   3.685   0.097   0.480 -1.1001 -0.6694 -0.2994
 1548SOL    HW2 6962   3.768  -0.023   0.440 -2.7273 -1.5020 -1.3075
 1549SOL     OW 6963   0.390   8.977   1.950  0.0289  0.0143  0.3501
 1549SOL    HW1 6964   0.391   8.891   1.910  0.5176 -0.7314  1.9009
 1549SOL    HW2 6965   0.471   9.018   1.921  0.5874 -0.6801  0.9026
 1550SOL     OW 6966   5.178   1.749   8.539  0.3130 -1.0642  0.3435
 1550SOL    HW1 6967   5.192   1.812   8.610  0.2103 -0.4168 -0.1980
 1550SOL    HW2 6968   5.266   1.722   8.513  0.3618 -3.3596  2.4557
 1551SOL     OW 6969   5.973   5.606   5.953 -0.1040 -0.0121 -0.0683
 1551SOL    HW1 6970   6.066   5.627   5.947 -0.2428  0.4203 -0.8225
 1551SOL    HW2 6971   5.970   5.513   5.976  0.5095  0.1129  0.5305
 1552SOL     OW 6972   4.342   6.696   4.279 -0.0044 -0.5481  0.0395
 1552SOL    HW1 6973   4.364   6.617   4.328  0.7173  0.5734  1.5670
 1552SOL    HW2 6974   4.399   6.693   4.202  1.1441 -0.7415  0.8768
 1553SOL     OW 6975   5.245   5.070   9.099  0.4393  0.0800  0.0025
 1553SOL    HW1 6976   5.290   5.121   9.166 -0.0111  1.4114 -0.6712
 1553SOL    HW2 6977   5.255   5.121   9.019  0.7773 -1.3741 -0.9161
 1554SOL     OW 6978   8.548   1.746   3.080  0.0545  0.1419  0.1832
 1554SOL    HW1 6979   8.629   1.793   3.061  0.9679 -1.2994  0.3056
 1554SOL    HW2 6980   8.567   1.699   3.161 -1.3603  0.7685  0.9020
 1555SOL     OW 6981   6.886   1.104   9.426 -0.3739 -0.2099  0.0832
 1555SOL    HW1 6982   6.864   1.012   9.416 -0.3601 -0.1914 -0.1338
 1555SOL    HW2 6983   6.972   1.114   9.384  0.0286 -0.2691  0.8762
 1556SOL     OW 6984   2.181   7.401   0.669 -0.6499 -0.1798  0.2793
 1556SOL    HW1 6985   2.089   7.397   0.693 -0.4564 -1.3781  0.9180
 1556SOL    HW2 6986   2.227   7.364   0.744  0.4433  1.3560  0.4049
 1557SOL     OW 6987   0.718   0.612   9.389  0.5471 -0.3767  0.0789
 1557SOL    HW1 6988   0.687   0.525   9.363  0.9418  0.1259 -2.2309
 1557SOL    HW2 6989   0.638   0.662   9.407  0.3083 -1.0561  0.9961
 1558SOL     OW 6990  10.582   2.875   2.250 -0.1594 -0.6387  0.2413
 1558SOL    HW1 6991  10.495   2.910   2.264 -0.1735 -1.0927  1.3571
 1558SOL    HW2 6992  10.640   2.951   2.255 -0.4519 -0.3814 -0.1972
 1559SOL     OW 6993   6.409   1.401   1.441 -0.2604  0.1044  0.3705
 1559SOL    HW1 6994   6.448   1.469   1.386 -0.4428 -0.2603 -0.2295
 1559SOL    HW2 6995   6.338   1.445   1.488  0.2956  0.5647  0.7881
 1560SOL     OW 6996   0.761   0.949   9.200  0.5221 -0.3552  0.2023
 1560SOL    HW1 6997   0.690   0.931   9.139 -0.0115  1.8602  0.0775
 1560SOL    HW2 6998   0.723   0.936   9.287  0.5596 -1.0730  0.1182
 1561SOL     OW 6999   3.665   2.562   8.974 -0.0397  0.0239  0.2616
 1561SOL    HW1 7000   3.611   2.546   8.897  0.0339  0.6218  0.0855
 1561SOL    HW2 7001   3.719   2.483   8.981 -0.0871 -0.0601 -0.2618
 1562SOL     OW 7002   9.334   3.362   6.174 -0.1958  0.9314  0.0301
 1562SOL    HW1 7003   9.381   3.326   6.249  1.1420  1.3836 -0.5511
 1562SOL    HW2 7004   9.403   3.380   6.109 -1.3699  0.0121 -1.5455
 1563SOL     OW 7005   3.315   7.680   5.303 -0.2470 -0.5340 -0.3688
 1563SOL    HW1 7006   3.335   7.773   5.302 -0.6915 -0.4046  0.8768
 1563SOL    HW2 7007   3.364   7.643   5.229  1.6429  0.3378  0.3967
 1564SOL     OW 7008   6.070   8.867   0.533 -0.0870  0.3524  0.0280
 1564SOL    HW1 7009   6.133   8.932   0.565 -0.3850  1.1346 -0.9252
 1564SOL    HW2 7010   6.079   8.793   0.593  0.4082  1.1947  1.0153
 1565SOL     OW 7011   4.015   7.666   1.468  0.9374  0.2272  0.1969
 1565SOL    HW1 7012   4.013   7.594   1.530 -0.5561  0.3622  0.3255
 1565SOL    HW2 7013   4.057   7.738   1.516  1.5063 -0.2266  0.3973
 1566SOL     OW 7014   0.698   0.235   5.929 -0.0838 -0.1574 -0.0115
 1566SOL    HW1 7015   0.653   0.228   5.844  0.4467 -0.6444 -0.2590
 1566SOL    HW2 7016   0.783   0.271   5.908 -0.6089  1.5026  0.5517
 1567SOL     OW 7017   1.536   3.022   6.937 -0.0397 -0.3176 -0.5019
 1567SOL    HW1 7018   1.451   3.065   6.926 -0.1597 -0.3681  0.2105
 1567SOL    HW2 7019   1.515   2.935   6.971  0.2752 -0.4994 -0.7638
 1568SOL     OW 7020   3.102   2.932   4.144  0.7463  0.0204 -0.3332
 1568SOL    HW1 7021   3.103   3.024   4.120  0.2781 -0.4241 -2.2602
 1568SOL    HW2 7022   3.122   2.886   4.062 -2.4782 -1.7077 -0.3215
 1569SOL     OW 7023   3.382   7.844   3.079  0.2328  0.6811 -0.2181
 1569SOL    HW1 7024   3.326   7.841   3.000  0.8335  2.2858 -0.7297
 1569SOL    HW2 7025   3.425   7.758   3.080 -0.1144  0.4671 -1.3995
 1570SOL     OW 7026  10.563   4.327   4.806  0.2358 -0.2222  0.1854
 1570SOL    HW1 7027  10.612   4.246   4.793  0.1504 -0.4615  1.2983
 1570SOL    HW2 7028  10.522   4.344   4.721  2.2239 -0.0100 -0.7733
 1571SOL     OW 7029   9.876   5.782   5.000 -0.4507 -0.6435 -0.2990
 1571SOL    HW1 7030   9.811   5.769   4.931 -0.0162  0.6130 -0.9853
 1571SOL    HW2 7031   9.842   5.856   5.051  0.4206  0.0111 -0.6522
 1572SOL     OW 7032   8.331   3.561   2.492  0.3059 -0.0227 -0.1287
 1572SOL    HW1 7033   8.408   3.605   2.454  0.5939 -0.1995  0.2474
 1572SOL    HW2 7034   8.342   3.570   2.586  0.5405 -1.1950 -0.0398
 1573SOL     OW 7035   0.743   7.964   8.949  0.2688 -0.5274 -0.3872
 1573SOL    HW1 7036   0.832   8.001   8.952 -0.5825  1.7347 -0.9685
 1573SOL    HW2 7037   0.740   7.903   9.023  1.9060  0.3003  0.4203
 1574SOL     OW 7038   0.868   5.389   0.036 -0.1240  0.6978 -0.2239
 1574SOL    HW1 7039   0.849   5.299   0.007  1.3679  0.1564  0.4089
 1574SOL    HW2 7040   0.813   5.400   0.114 -2.1101  1.2174 -1.6046
 1575SOL     OW 7041   3.986   6.546   1.947 -0.1433  0.1369 -0.3277
 1575SOL    HW1 7042   4.052   6.615   1.955  1.9135 -1.8902  1.1469
 1575SOL    HW2 7043   3.926   6.563   2.020  0.3514  0.3698  0.0301
 1576SOL     OW 7044   5.026   5.084   8.550 -0.0471  0.3293 -0.0904
 1576SOL    HW1 7045   5.052   4.996   8.523 -1.6663 -0.0875 -0.4498
 1576SOL    HW2 7046   5.050   5.141   8.477 -2.0153 -0.3767 -1.3606
 1577SOL     OW 7047   6.742   0.631   6.021  0.0308 -0.2000 -0.1661
 1577SOL    HW1 7048   6.698   0.575   5.957 -1.3629 -0.3126  0.8404
 1577SOL    HW2 7049   6.693   0.713   6.018 -1.2694 -0.8142  1.9974
 1578SOL     OW 7050   8.079   4.719   6.713 -0.1362 -0.0027  0.1369
 1578SOL    HW1 7051   8.051   4.629   6.732 -1.0462  0.0839 -0.7115
 1578SOL    HW2 7052   8.155   4.709   6.655 -0.9928 -0.2359 -0.9754
 1579SOL     OW 7053   1.723   0.105   2.470 -0.2668 -0.7015 -0.2173
 1579SOL    HW1 7054   1.800   0.127   2.418  0.6056  1.3169  1.7769
 1579SOL    HW2 7055   1.667   0.182   2.465 -1.7483 -1.7557 -0.8048
 1580SOL     OW 7056   7.978   1.138   4.637  0.4045  0.0469 -0.0703
 1580SOL    HW1 7057   7.992   1.121   4.730 -0.3857  2.2123  0.5014
 1580SOL    HW2 7058   7.894   1.097   4.618 -1.2132  2.5772  1.1378
 1581SOL     OW 7059   2.156   0.350   8.163  0.0530 -0.4432 -0.3321
 1581SOL    HW1 7060   2.169   0.444   8.150 -0.0488 -0.4904 -0.7954
 1581SOL    HW2 7061   2.194   0.332   8.248  0.3366 -0.0325 -0.3707
 1582SOL     OW 7062   9.910  10.301   3.878  0.0082 -0.2922 -0.0775
 1582SOL    HW1 7063   9.815  10.288   3.888 -0.2364  1.4304  0.2099
 1582SOL    HW2 7064   9.934  10.244   3.805 -0.7674 -2.6232  1.3958
 1583SOL     OW 7065   6.894   0.221   2.705 -0.0400  0.3067 -0.2741
 1583SOL    HW1 7066   6.953   0.190   2.773 -0.5208  0.4024  0.1890
 1583SOL    HW2 7067   6.813   0.171   2.718 -0.7425  1.5492  0.3306
 1584SOL     OW 7068   9.924   9.983   8.786  0.3774  0.2380 -0.4449
 1584SOL    HW1 7069   9.896   9.899   8.822  1.4377  0.1583  0.2286
 1584SOL    HW2 7070   9.864  10.047   8.825  1.0757  0.0727  0.9856
 1585SOL     OW 7071   7.673   8.261   7.198 -0.2641  0.1200 -0.7802
 1585SOL    HW1 7072   7.627   8.343   7.217  0.7303  0.5464 -0.1541
 1585SOL    HW2 7073   7.623   8.221   7.126 -2.2045  0.0700  0.5261
 1586SOL     OW 7074   0.213   5.278   6.636  0.3335 -0.5815  0.2554
 1586SOL    HW1 7075   0.252   5.276   6.723 -0.1277 -0.7147  0.4595
 1586SOL    HW2 7076   0.156   5.202   6.633  1.1272 -1.1644 -0.5341
 1587SOL     OW 7077   5.615   2.602   5.208 -0.2201 -0.2431  0.3127
 1587SOL    HW1 7078   5.616   2.670   5.140 -0.1285  0.2449  0.7932
 1587SOL    HW2 7079   5.698   2.556   5.197  0.8808  1.3458  1.5800
 1588SOL     OW 7080   7.499   3.241   4.708  0.5658  0.5376 -0.1230
 1588SOL    HW1 7081   7.555   3.319   4.710 -0.2005  1.0964  0.1989
 1588SOL    HW2 7082   7.559   3.168   4.717  1.3712  1.0588 -1.0634
 1589SOL     OW 7083   1.542   4.105   1.565  0.6550 -0.4645  0.1071
 1589SOL    HW1 7084   1.576   4.038   1.623  1.0858 -1.1483 -0.8977
 1589SOL    HW2 7085   1.559   4.188   1.610 -0.7838 -1.0335  1.8213
 1590SOL     OW 7086   6.867   7.717   1.155 -0.1702  0.2895 -0.3070
 1590SOL    HW1 7087   6.823   7.769   1.222  1.4464  0.4523  0.6819
 1590SOL    HW2 7088   6.915   7.650   1.204 -0.8484 -1.1031 -1.4566
 1591SOL     OW 7089   5.133   2.378   6.181  0.2292  0.1748  0.2472
 1591SOL    HW1 7090   5.123   2.283   6.192 -1.4446  0.2905  0.0178
 1591SOL    HW2 7091   5.168   2.408   6.265  0.5516 -0.6009  0.4050
 1592SOL     OW 7092   9.932   2.930   0.105 -0.3501  0.5001 -0.6760
 1592SOL    HW1 7093   9.956   3.022   0.097  0.4968  0.4291  0.6872
 1592SOL    HW2 7094   9.873   2.927   0.181 -0.5863 -0.0401 -0.8734
 1593SOL     OW 7095   6.986   7.832   2.374  0.0344 -0.2045 -0.1128
 1593SOL    HW1 7096   6.918   7.841   2.440  2.7932 -0.5291  3.0612
 1593SOL    HW2 7097   7.029   7.749   2.396  1.1274 -0.2948 -2.3315
 1594SOL     OW 7098   5.492   8.684   4.155  0.2321 -0.1610  0.2093
 1594SOL    HW1 7099   5.486   8.777   4.132  2.4395  0.1920  0.8622
 1594SOL    HW2 7100   5.427   8.672   4.224 -0.2023  0.8553 -0.0070
 1595SOL     OW 7101   2.415   9.134   4.882 -0.1675  0.2318 -0.0465
 1595SOL    HW1 7102   2.414   9.200   4.951 -1.1821 -1.4607  1.6691
 1595SOL    HW2 7103   2.452   9.056   4.924  0.5775 -0.4586 -1.8666
 1596SOL     OW 7104  10.120   8.612   0.284 -0.5960 -0.1485  0.0459
 1596SOL    HW1 7105  10.165   8.550   0.225 -0.8607 -0.3418  0.0478
 1596SOL    HW2 7106  10.168   8.605   0.366 -2.0682 -2.1386  0.8147
 1597SOL     OW 7107   2.568   8.707   3.605 -0.1177 -0.4418 -0.6284
 1597SOL    HW1 7108   2.516   8.642   3.558  0.6612 -1.5214 -0.0715
 1597SOL    HW2 7109   2.627   8.743   3.539 -0.2485 -0.6458 -0.8584
 1598SOL     OW 7110   9.523   5.387   1.222  0.0777  0.2655 -0.2133
 1598SOL    HW1 7111   9.530   5.299   1.184  0.0004  0.3468 -0.4193
 1598SOL    HW2 7112   9.438   5.387   1.266 -0.2915  0.4983 -0.9064
 1599SOL     OW 7113   2.949   4.001   2.336 -0.0164 -0.7364 -0.0351
 1599SOL    HW1 7114   2.882   4.069   2.324 -0.0257 -0.6190  0.6390
 1599SOL    HW2 7115   3.015   4.021   2.269  0.5856  0.7092  0.9414
 1600SOL     OW 7116   0.979   4.422   7.500  0.3037 -0.0741  0.8212
 1600SOL    HW1 7117   0.921   4.345   7.502 -1.6335  1.2402 -0.9880
 1600SOL    HW2 7118   1.056   4.392   7.450 -0.8848 -0.5901 -0.7781
 1601SOL     OW 7119   2.473   3.792   4.322  0.2114  0.5935  0.6171
 1601SOL    HW1 7120   2.530   3.839   4.260  0.5708  0.3124  0.7354
 1601SOL    HW2 7121   2.410   3.747   4.266 -1.5662  2.9611  0.5263
 1602SOL     OW 7122   9.117   2.305   3.967  0.3518 -0.4198  0.4255
 1602SOL    HW1 7123   9.110   2.288   3.873 -0.3586  0.6171  0.2689
 1602SOL    HW2 7124   9.209   2.328   3.981  0.2960  0.1747 -0.1550
 1603SOL     OW 7125   9.516   8.576  10.465  0.1739 -0.1172  0.0260
 1603SOL    HW1 7126   9.606   8.586  10.495  1.2161 -1.6191 -2.3046
 1603SOL    HW2 7127   9.496   8.659  10.421  0.4439  0.1603  0.4171
 1604SOL     OW 7128   2.054   8.335   1.272 -0.7529  0.0548  0.9666
 1604SOL    HW1 7129   2.094   8.265   1.221 -0.7094  1.0300 -0.3783
 1604SOL    HW2 7130   1.992   8.290   1.329  0.1094 -1.1839  0.9621
 1605SOL     OW 7131   5.991   3.472  10.558 -0.3047  0.3062 -0.0571
 1605SOL    HW1 7132   5.902   3.482  10.525 -0.4824  0.2143  0.3994
 1605SOL    HW2 7133   5.997   3.380  10.582  1.0354 -0.6450 -3.3938
 1606SOL     OW 7134   3.839   9.161   4.151 -0.2197  0.0615 -0.3837
 1606SOL    HW1 7135   3.874   9.091   4.206 -1.7598 -0.5081 -0.0661
 1606SOL    HW2 7136   3.914   9.218   4.133  0.9330 -1.3182 -0.1184
 1607SOL     OW 7137   2.695   3.596   3.347 -0.0547 -0.2593 -0.1614
 1607SOL    HW1 7138   2.779   3.641   3.359 -0.3546 -0.0686  1.4334
 1607SOL    HW2 7139   2.631   3.667   3.339 -0.3361 -0.3896  0.8543
 1608SOL     OW 7140  10.211   9.981   1.533  0.0771  0.3921  0.2263
 1608SOL    HW1 7141  10.202   9.885   1.531  1.1219  0.2830  0.3320
 1608SOL    HW2 7142  10.127  10.013   1.500  0.3045 -0.5901 -1.4214
 1609SOL     OW 7143   8.113   6.787   4.760  0.1454 -0.0167  0.0527
 1609SOL    HW1 7144   8.128   6.723   4.829 -1.7329 -0.4512  0.1199
 1609SOL    HW2 7145   8.088   6.736   4.684  1.2477  0.5159 -0.6896
 1610SOL     OW 7146   6.821  10.569   3.266  0.1604  0.2130 -0.0126
 1610SOL    HW1 7147   6.777  10.494   3.306 -1.5196  0.5125 -1.1588
 1610SOL    HW2 7148   6.846  10.625   3.339 -0.6474 -0.3894  0.7459
 1611SOL     OW 7149   2.047   7.196   1.540 -0.9803 -0.6129 -0.0218
 1611SOL    HW1 7150   2.108   7.123   1.542 -1.4713 -1.0211  0.3096
 1611SOL    HW2 7151   2.001   7.192   1.624 -0.2284  0.7647  0.4841
 1612SOL     OW 7152   9.129   0.661   7.323 -0.0040 -0.6995  0.5540
 1612SOL    HW1 7153   9.186   0.607   7.378 -0.0819 -1.9524 -0.5341
 1612SOL    HW2 7154   9.189   0.703   7.261  0.2360  1.6579  2.2296
 1613SOL     OW 7155   7.386   0.528   5.713 -1.0525 -0.3176  0.3578
 1613SOL    HW1 7156   7.366   0.490   5.798  0.2100  0.1413  0.8863
 1613SOL    HW2 7157   7.472   0.569   5.725 -0.3669 -1.1472 -1.4253
 1614SOL     OW 7158   9.004  10.205   5.829 -0.0589 -0.0171 -0.0813
 1614SOL    HW1 7159   9.061  10.280   5.842  0.6680 -0.1460 -2.1642
 1614SOL    HW2 7160   9.063  10.132   5.811 -0.6860 -1.4252  2.8866
 1615SOL     OW 7161  10.403   4.288   9.954 -0.0104 -0.0208 -0.5309
 1615SOL    HW1 7162  10.392   4.383   9.945 -1.3140  0.1149  1.6679
 1615SOL    HW2 7163  10.373   4.269  10.043 -0.2157 -2.5803 -1.0643
 1616SOL     OW 7164   6.653   5.073   4.234  0.0811  0.1736 -0.8341
 1616SOL    HW1 7165   6.622   4.993   4.276  1.2319  0.8072  1.3931
 1616SOL    HW2 7166   6.575   5.129   4.229 -0.4385 -0.5570 -1.1693
 1617SOL     OW 7167   7.735   7.939   1.048  0.0866  0.0427  0.2146
 1617SOL    HW1 7168   7.652   7.960   1.005  0.7096 -0.1280 -1.1114
 1617SOL    HW2 7169   7.802   7.974   0.990  0.9793 -0.6185  0.8197
 1618SOL     OW 7170   1.104   3.539   8.599  0.3447 -0.4872  0.0811
 1618SOL    HW1 7171   1.015   3.561   8.572  1.0317  0.5677 -1.5009
 1618SOL    HW2 7172   1.155   3.542   8.518  2.0359  0.1422  1.1165
 1619SOL     OW 7173   7.228   8.789  10.452  0.1495  0.7026 -0.2732
 1619SOL    HW1 7174   7.235   8.828  10.365 -0.8002 -0.0377 -0.7025
 1619SOL    HW2 7175   7.136   8.804  10.477  0.3659  0.7383  0.5209
 1620SOL     OW 7176   0.441   5.667  10.312 -0.3795 -0.6593 -0.1838
 1620SOL    HW1 7177   0.435   5.615  10.232 -1.4451 -1.6972  0.5304
 1620SOL    HW2 7178   0.532   5.657  10.341 -0.0534 -0.4828 -1.0978
 1621SOL     OW 7179   9.581   2.092   2.420  0.5808 -0.0420  0.4896
 1621SOL    HW1 7180   9.513   2.132   2.474  1.6607  2.9044 -0.1756
 1621SOL    HW2 7181   9.533   2.061   2.342 -0.2764  0.0294  0.9743
 1622SOL     OW 7182   6.620   3.468   6.792  0.1700 -0.1070  0.5725
 1622SOL    HW1 7183   6.635   3.434   6.880 -0.6164  0.6942  1.0380
 1622SOL    HW2 7184   6.596   3.392   6.740 -5.0870 -0.0683  2.3531
 1623SOL     OW 7185   0.661   5.437   0.194  0.1880  0.0799  0.1451
 1623SOL    HW1 7186   0.700   5.507   0.246  2.3576 -0.1194 -1.0788
 1623SOL    HW2 7187   0.702   5.356   0.226 -0.5187 -0.3663 -0.0347
 1624SOL     OW 7188   0.184   0.174   2.872  0.1756 -0.1253 -0.0054
 1624SOL    HW1 7189   0.206   0.156   2.780 -0.9915 -0.5635 -0.2230
 1624SOL    HW2 7190   0.089   0.158   2.877  0.0363  0.8956  1.0347
 1625SOL     OW 7191   3.183   2.063   9.953 -0.1769  0.1686 -0.6501
 1625SOL    HW1 7192   3.157   2.115  10.028 -0.7587  0.6100 -1.1490
 1625SOL    HW2 7193   3.115   1.996   9.946  0.0322 -0.0493 -0.6109
 1626SOL     OW 7194   3.286   8.578   5.521 -0.0013 -0.3818 -0.1378
 1626SOL    HW1 7195   3.315   8.668   5.533  0.2611 -0.3796 -0.7471
 1626SOL    HW2 7196   3.319   8.531   5.599 -0.3641  0.0955  0.3064
 1627SOL     OW 7197  10.586   9.209   8.060  0.5119 -0.3399 -0.1417
 1627SOL    HW1 7198  10.649   9.198   7.989 -0.4578 -1.2308 -0.8949
 1627SOL    HW2 7199  10.631   9.265   8.124  1.6090  0.0015 -1.1845
 1628SOL     OW 7200   3.207   2.062   6.887  0.7636  0.3761 -0.2780
 1628SOL    HW1 7201   3.172   2.006   6.956 -1.7125  1.8785 -0.1852
 1628SOL    HW2 7202   3.301   2.042   6.885  0.5736 -1.1986  2.0911
 1629SOL     OW 7203   3.742   7.503   7.561  0.3267 -0.7201 -0.2885
 1629SOL    HW1 7204   3.658   7.548   7.561  0.5838 -0.1877  1.0725
 1629SOL    HW2 7205   3.747   7.462   7.475 -0.9312 -0.0386 -0.7182
 1630SOL     OW 7206   8.176   1.293   4.564  0.7218  0.3405 -0.0296
 1630SOL    HW1 7207   8.107   1.234   4.594  1.1104  0.9875  2.3257
 1630SOL    HW2 7208   8.191   1.268   4.473 -0.3516 -1.9919  0.3641
 1631SOL     OW 7209  10.551   3.055   6.102  0.7222  0.8445 -0.0055
 1631SOL    HW1 7210  10.541   3.108   6.022 -2.6098 -0.0054 -0.2802
 1631SOL    HW2 7211  10.488   3.092   6.164 -0.5331 -1.6546  0.3587
 1632SOL     OW 7212  10.297  10.469   0.794 -0.0387 -0.3672  0.9305
 1632SOL    HW1 7213  10.379  10.423   0.774  1.3703  0.8352  3.4020
 1632SOL    HW2 7214  10.245  10.405   0.842  0.2830 -0.5515  1.0382
 1633SOL     OW 7215   8.073   6.469   0.094  0.0014  0.1809 -0.6004
 1633SOL    HW1 7216   7.987   6.499   0.065  1.0983  2.9731 -1.2776
 1633SOL    HW2 7217   8.135   6.528   0.053  2.2432 -1.2647  0.4638
 1634SOL     OW 7218  10.482   4.828   5.525  0.2353 -0.2107  0.2276
 1634SOL    HW1 7219  10.537   4.750   5.513 -0.6195 -0.8631  0.4665
 1634SOL    HW2 7220  10.433   4.836   5.443 -0.3969 -0.5066  0.5686
 1635SOL     OW 7221   7.426   4.699   0.354 -0.5447  0.0710  0.3936
 1635SOL    HW1 7222   7.486   4.665   0.288  1.1753  1.1797  1.3206
 1635SOL    HW2 7223   7.408   4.624   0.411 -1.3921 -0.6819 -0.8175
 1636SOL     OW 7224   5.186   3.284   5.188 -0.9678 -0.1761  0.4104
 1636SOL    HW1 7225   5.202   3.306   5.280 -0.0801 -0.3826  0.3156
 1636SOL    HW2 7226   5.188   3.188   5.186 -1.1490 -0.1749  0.2060
 1637SOL     OW 7227  10.251   4.672   9.228 -0.4567 -0.0110  0.5980
 1637SOL    HW1 7228  10.261   4.663   9.322  0.0644 -0.5120  0.5002
 1637SOL    HW2 7229  10.167   4.716   9.217  0.7920  2.8098  1.4062
 1638SOL     OW 7230   9.193   0.457   9.315  0.6158  0.1405  0.4006
 1638SOL    HW1 7231   9.289   0.452   9.312  0.6159  0.1693 -2.5176
 1638SOL    HW2 7232   9.174   0.551   9.305  0.3085  0.0049 -0.3585
 1639SOL     OW 7233   9.014   6.699   1.887  0.0510  0.4443  0.1116
 1639SOL    HW1 7234   8.948   6.754   1.928 -0.9750  0.3646 -1.3349
 1639SOL    HW2 7235   8.966   6.653   1.817  1.6509  0.4691 -1.0518
 1640SOL     OW 7236  10.529   8.276   8.932 -0.2204 -0.2654  0.4842
 1640SOL    HW1 7237  10.541   8.245   8.843  1.9453  0.3328  0.5297
 1640SOL    HW2 7238  10.454   8.226   8.965 -0.5828 -1.0241 -1.3946
 1641SOL     OW 7239   5.890   5.954   1.067  0.4293 -0.3034 -0.1680
 1641SOL    HW1 7240   5.919   6.036   1.027  2.5630 -1.3154 -0.8334
 1641SOL    HW2 7241   5.913   5.887   1.004  3.7910 -1.9825  2.4966
 1642SOL     OW 7242   0.683   3.281   2.644 -0.1992  0.5437 -0.0219
 1642SOL    HW1 7243   0.745   3.353   2.628 -0.9718  0.8708 -1.8501
 1642SOL    HW2 7244   0.703   3.217   2.576 -1.9009  0.7114 -0.7293
 1643SOL     OW 7245   3.755   1.393   9.747  0.5088  0.0679  0.0674
 1643SOL    HW1 7246   3.689   1.429   9.806  1.6384  0.6311  1.0443
 1643SOL    HW2 7247   3.713   1.391   9.661 -0.4524  1.2940  0.4829
 1644SOL     OW 7248   1.062  10.252   0.496  0.4902  0.1013 -0.3493
 1644SOL    HW1 7249   1.048  10.347   0.500  0.9053  0.1488  0.3166
 1644SOL    HW2 7250   1.152  10.241   0.527  0.4843 -0.5011 -0.5398
 1645SOL     OW 7251   1.149   0.935   3.331  0.4776  0.0163 -0.2082
 1645SOL    HW1 7252   1.236   0.975   3.336  0.4903  0.1144 -1.1100
 1645SOL    HW2 7253   1.166   0.841   3.334  0.5615  0.0433  0.2801
 1646SOL     OW 7254   2.316   4.936  10.387  0.6239  0.7864 -0.1994
 1646SOL    HW1 7255   2.293   4.873  10.456 -0.6572  0.7246 -0.6632
 1646SOL    HW2 7256   2.316   4.884  10.307 -1.8399  1.5893 -0.7985
 1647SOL     OW 7257   5.603   6.184   2.153  0.3565 -0.4284 -0.3452
 1647SOL    HW1 7258   5.678   6.148   2.200 -0.6781 -0.0882  1.6833
 1647SOL    HW2 7259   5.607   6.278   2.170 -0.1911 -0.3312 -0.7170
 1648SOL     OW 7260   9.648   9.862  10.074  0.6618  0.4383 -0.0942
 1648SOL    HW1 7261   9.590   9.788  10.092  0.2973  1.0556  1.4428
 1648SOL    HW2 7262   9.620   9.893   9.988 -2.4923  1.7278  1.2192
 1649SOL     OW 7263   3.802   3.090   0.846  0.1631  0.0944 -0.0966
 1649SOL    HW1 7264   3.834   3.161   0.902  1.5704 -0.3244 -0.3246
 1649SOL    HW2 7265   3.866   3.020   0.859 -0.1130 -0.4143 -1.3699
 1650SOL     OW 7266   0.824   2.782   3.781 -0.5186 -0.1370  0.2911
 1650SOL    HW1 7267   0.857   2.815   3.698 -0.0287  0.9774  0.8998
 1650SOL    HW2 7268   0.897   2.794   3.842 -0.3175 -2.3726  0.5629
 1651SOL     OW 7269   1.912   7.721   3.584  0.5991  0.4062  0.0652
 1651SOL    HW1 7270   1.877   7.739   3.497 -0.7780  0.6953  0.6595
 1651SOL    HW2 7271   1.986   7.663   3.568 -0.7427 -1.0517 -1.1793
 1652SOL     OW 7272   4.853   8.979   5.352 -0.2232 -0.6949 -0.2445
 1652SOL    HW1 7273   4.901   8.983   5.269  1.1995 -0.0587  0.5860
 1652SOL    HW2 7274   4.786   9.047   5.344  0.1218 -0.4058 -0.7356
 1653SOL     OW 7275   1.576   0.519   4.947 -0.1314  0.0401 -0.4003
 1653SOL    HW1 7276   1.672   0.517   4.938 -0.2257 -1.0387 -1.6014
 1653SOL    HW2 7277   1.551   0.606   4.916  0.3671 -0.1901 -1.5001
 1654SOL     OW 7278   8.865   5.849   4.018  0.1859 -0.1783  0.5416
 1654SOL    HW1 7279   8.877   5.766   3.971  2.5656 -1.7892  3.6267
 1654SOL    HW2 7280   8.799   5.829   4.085  1.9762 -0.1578  2.3773
 1655SOL     OW 7281   4.731   2.855   7.868 -0.2551  0.1670  0.2396
 1655SOL    HW1 7282   4.796   2.917   7.901 -0.6648  0.8999 -0.2948
 1655SOL    HW2 7283   4.699   2.895   7.787 -1.0942 -0.3601  0.3005
 1656SOL     OW 7284   7.500   7.395   4.167 -0.0106  0.3879 -0.3699
 1656SOL    HW1 7285   7.424   7.350   4.129 -2.2654  2.4688  1.3560
 1656SOL    HW2 7286   7.519   7.466   4.106 -1.3893  1.6092  0.5545
 1657SOL     OW 7287   8.157   8.334   2.609 -0.5090 -0.0028  0.5783
 1657SOL    HW1 7288   8.104   8.263   2.644  0.0868 -1.4268 -1.2367
 1657SOL    HW2 7289   8.178   8.306   2.519  0.6315  1.9838  0.1727
 1658SOL     OW 7290   2.197  10.551   9.479  0.4351  0.5930 -0.0555
 1658SOL    HW1 7291   2.136  10.605   9.428  0.3094 -0.1477 -0.7319
 1658SOL    HW2 7292   2.261  10.612   9.513 -0.5686  1.3680  0.4938
 1659SOL     OW 7293   4.178   1.098   1.480 -0.7179 -0.3489 -0.5780
 1659SOL    HW1 7294   4.219   1.126   1.562 -0.2497 -0.9382 -0.6029
 1659SOL    HW2 7295   4.155   1.180   1.436 -1.1820 -0.0253  0.2381
 1660SOL     OW 7296   1.353   4.111   3.287 -0.2590  0.1285 -0.0369
 1660SOL    HW1 7297   1.396   4.026   3.276  0.3152  0.2421  1.1354
 1660SOL    HW2 7298   1.425   4.170   3.310 -0.4192  1.2652 -2.2010
 1661SOL     OW 7299   1.430  10.473   9.461 -0.1405 -0.4758 -0.4362
 1661SOL    HW1 7300   1.447  10.406   9.528 -1.7673 -0.1630  0.3349
 1661SOL    HW2 7301   1.517  10.509   9.441  0.6577 -2.1689 -0.2087
 1662SOL     OW 7302   7.915   2.104   4.890 -0.0546  0.1465 -1.1120
 1662SOL    HW1 7303   7.970   2.060   4.825 -0.7357 -1.2672 -0.7702
 1662SOL    HW2 7304   7.942   2.066   4.973 -0.5586  0.4976 -0.7859
 1663SOL     OW 7305   4.387   8.254   9.458 -0.4141  0.2260 -0.4410
 1663SOL    HW1 7306   4.314   8.201   9.491 -0.8474  1.0086 -0.1209
 1663SOL    HW2 7307   4.416   8.207   9.380 -1.0539 -0.2750 -0.3913
 1664SOL     OW 7308   6.814   1.915   5.542  0.5881 -0.5035 -0.2675
 1664SOL    HW1 7309   6.787   1.932   5.632  0.0982 -1.4610 -0.2122
 1664SOL    HW2 7310   6.736   1.934   5.490  1.1239  0.8738 -0.6006
 1665SOL     OW 7311   5.072   9.848   3.898 -0.1729  0.5495  0.3828
 1665SOL    HW1 7312   5.042   9.809   3.815 -0.9571  0.5696  0.6449
 1665SOL    HW2 7313   4.991   9.866   3.946  0.2897  0.2949  1.2683
 1666SOL     OW 7314   8.489   2.599   1.028 -0.1459 -0.2337 -0.5849
 1666SOL    HW1 7315   8.428   2.664   1.063  0.7950 -0.7695  2.3374
 1666SOL    HW2 7316   8.556   2.651   0.983  0.0173  0.7796  0.7544
 1667SOL     OW 7317   5.534   3.032   7.161 -0.2567 -0.6994  0.2520
 1667SOL    HW1 7318   5.576   3.086   7.227  0.8201 -1.6966  0.4069
 1667SOL    HW2 7319   5.451   3.005   7.201 -0.8246  0.8001  0.1661
 1668SOL     OW 7320   9.656   3.323   8.254 -0.0864 -0.8878 -0.8633
 1668SOL    HW1 7321   9.707   3.283   8.324 -0.9269 -0.9660 -0.2882
 1668SOL    HW2 7322   9.674   3.416   8.260 -0.3642 -0.8639 -0.3661
 1669SOL     OW 7323   7.517   1.392   8.927 -0.1047 -0.0521 -0.0024
 1669SOL    HW1 7324   7.576   1.358   8.994  0.0544  1.4150  0.6356
 1669SOL    HW2 7325   7.554   1.361   8.845 -1.3932 -3.5648  0.5859
 1670SOL     OW 7326   4.913   0.279   1.101  0.2353 -0.2289  0.6310
 1670SOL    HW1 7327   4.989   0.270   1.044 -0.0216 -0.3898  0.3085
 1670SOL    HW2 7328   4.916   0.369   1.131  1.7305 -0.7785  2.3121
 1671SOL     OW 7329   9.382   7.033   6.875 -0.5640 -0.2701  0.0340
 1671SOL    HW1 7330   9.374   7.095   6.802  0.6848 -0.5204 -0.3288
 1671SOL    HW2 7331   9.434   7.079   6.940 -1.6178 -0.0763  0.7575
 1672SOL     OW 7332   0.176   2.153   3.920 -0.1246 -0.2467 -0.3281
 1672SOL    HW1 7333   0.260   2.155   3.966 -0.8944  0.7795  1.0803
 1672SOL    HW2 7334   0.197   2.115   3.834  1.6140 -0.7995  0.3037
 1673SOL     OW 7335   2.321   9.607   9.664  0.3128  0.1760  0.8819
 1673SOL    HW1 7336   2.228   9.591   9.681 -0.5137  1.7109 -1.5467
 1673SOL    HW2 7337   2.323   9.697   9.631  2.3889 -0.4314 -0.8654
 1674SOL     OW 7338   9.631   1.474   5.732 -0.1655  0.1688 -0.2189
 1674SOL    HW1 7339   9.705   1.466   5.673  1.3185  1.5697  1.3433
 1674SOL    HW2 7340   9.629   1.391   5.779 -1.0647 -0.7677 -1.8417
 1675SOL     OW 7341   4.824   8.179   1.233  0.3558  0.4008  0.3430
 1675SOL    HW1 7342   4.800   8.255   1.180  1.7589  0.5640 -0.1217
 1675SOL    HW2 7343   4.796   8.202   1.321  1.9721  2.1177  0.4851
 1676SOL     OW 7344   3.030   6.880   5.343 -0.1632  0.1935  0.2125
 1676SOL    HW1 7345   2.942   6.862   5.374 -0.5749 -1.0366 -1.5097
 1676SOL    HW2 7346   3.072   6.794   5.337  1.3430  0.7921  1.4525
 1677SOL     OW 7347   0.597   4.671   5.454  0.1604  0.0538 -0.0251
 1677SOL    HW1 7348   0.649   4.722   5.392  0.3893  0.5985  0.5990
 1677SOL    HW2 7349   0.641   4.587   5.460  0.5721  0.2676 -0.0310
 1678SOL     OW 7350   3.616   5.180   6.357  0.1197  0.2934  0.0329
 1678SOL    HW1 7351   3.531   5.212   6.387 -0.4128  0.0081 -1.0966
 1678SOL    HW2 7352   3.633   5.229   6.277 -0.6480 -2.0220 -1.6729
 1679SOL     OW 7353   6.193   6.643   0.202  0.3503 -0.1096 -0.2349
 1679SOL    HW1 7354   6.249   6.718   0.223  0.5738 -0.2558 -0.3027
 1679SOL    HW2 7355   6.255   6.574   0.177  0.1356 -0.2568 -0.3559
 1680SOL     OW 7356   3.995   0.691   9.752 -0.1398  0.0943  0.0205
 1680SOL    HW1 7357   3.922   0.754   9.753 -0.1099  0.1202  0.8198
 1680SOL    HW2 7358   4.066   0.735   9.798  0.1326 -0.2353 -0.0794
 1681SOL     OW 7359   8.346   4.856   6.742 -0.5310  0.3116  0.4950
 1681SOL    HW1 7360   8.368   4.770   6.777  0.0369 -0.1559 -0.9427
 1681SOL    HW2 7361   8.403   4.917   6.790 -1.9663  0.1323  2.5856
 1682SOL     OW 7362   2.707  10.465   2.756  0.4227  0.1797  0.0316
 1682SOL    HW1 7363   2.618  10.464   2.790  0.4075 -1.0719  0.0161
 1682SOL    HW2 7364   2.757  10.514   2.822 -0.2166  0.6049  0.2041
 1683SOL     OW 7365   5.266   9.486   4.020  0.2038 -0.1694  0.3820
 1683SOL    HW1 7366   5.259   9.537   3.940 -1.2914 -1.0228 -0.0782
 1683SOL    HW2 7367   5.283   9.396   3.990  1.7625 -0.1685  1.1311
 1684SOL     OW 7368   0.540   3.603  10.158 -0.0774  0.2993  0.5791
 1684SOL    HW1 7369   0.488   3.635  10.084 -0.1528 -0.7753  0.1514
 1684SOL    HW2 7370   0.524   3.667  10.228 -1.9789 -0.0031  0.4709
 1685SOL     OW 7371   7.612   2.361   2.682  0.2033 -0.2234 -0.0339
 1685SOL    HW1 7372   7.696   2.317   2.670  1.6921  2.5993 -1.0864
 1685SOL    HW2 7373   7.575   2.365   2.594  0.7373  1.6140 -0.2268
 1686SOL     OW 7374   4.453   8.837   5.759 -0.2725 -0.4047 -0.0906
 1686SOL    HW1 7375   4.406   8.912   5.796  1.0904  0.9726 -1.0299
 1686SOL    HW2 7376   4.415   8.826   5.672  1.3357  0.9730 -1.0134
 1687SOL     OW 7377   3.595   6.902   5.726 -0.3844  0.3606  0.2028
 1687SOL    HW1 7378   3.511   6.911   5.682 -0.3982 -1.0861 -0.1167
 1687SOL    HW2 7379   3.597   6.811   5.756  1.1904  0.2862 -0.0363
 1688SOL     OW 7380   4.072   6.681   2.530  0.1044  0.1186 -0.5521
 1688SOL    HW1 7381   4.104   6.618   2.595  0.4795 -0.0971 -0.9426
 1688SOL    HW2 7382   4.140   6.683   2.463 -0.2169  0.4481 -0.8713
 1689SOL     OW 7383   2.069   8.729   0.033 -0.4768 -0.1923  0.0942
 1689SOL    HW1 7384   1.992   8.770  -0.007 -0.5244 -1.1058 -0.7753
 1689SOL    HW2 7385   2.033   8.666   0.095 -0.4196 -0.1058  0.2152
 1690SOL     OW 7386   8.180  10.442   6.065 -0.3922 -0.3188  0.0651
 1690SOL    HW1 7387   8.248  10.388   6.023 -0.8854 -1.2836  0.4723
 1690SOL    HW2 7388   8.108  10.441   6.003 -0.1808  0.4005 -0.2010
 1691SOL     OW 7389   3.887   8.356   0.596 -0.8327 -0.1329 -0.0869
 1691SOL    HW1 7390   3.796   8.368   0.624 -0.2385  3.0913  0.8778
 1691SOL    HW2 7391   3.916   8.443   0.572  2.1432 -1.0205 -0.0483
 1692SOL     OW 7392   3.251   8.809   0.986 -0.0327 -0.5117  0.5998
 1692SOL    HW1 7393   3.170   8.859   0.979  1.5712  2.0762 -1.4503
 1692SOL    HW2 7394   3.244   8.743   0.916 -0.2085 -0.0315  0.1607
 1693SOL     OW 7395   4.553   8.128   9.695  0.0185  0.6517  0.3901
 1693SOL    HW1 7396   4.479   8.078   9.661  0.4258 -0.3604  0.9431
 1693SOL    HW2 7397   4.630   8.077   9.669  0.4615  1.1377  0.7298
 1694SOL     OW 7398   1.300   1.739   3.879 -0.0150 -0.4644  0.0938
 1694SOL    HW1 7399   1.358   1.664   3.865 -0.4248 -0.6568 -0.6125
 1694SOL    HW2 7400   1.355   1.815   3.861  0.0206 -0.6464 -0.6125
 1695SOL     OW 7401   1.821   8.504   9.105 -0.3241  0.6562  0.3615
 1695SOL    HW1 7402   1.801   8.411   9.120 -2.5326  0.9094 -0.6374
 1695SOL    HW2 7403   1.917   8.508   9.102 -0.1612 -1.4400  1.2637
 1696SOL     OW 7404   1.621   5.451   6.887  0.0690 -0.0320  0.4711
 1696SOL    HW1 7405   1.585   5.417   6.969  2.4452 -1.6831  0.9158
 1696SOL    HW2 7406   1.586   5.392   6.820  0.1470 -0.2253  0.6015
 1697SOL     OW 7407   7.264   5.850   0.762 -0.1767  0.2618 -0.0044
 1697SOL    HW1 7408   7.179   5.813   0.736  0.0643 -0.3554  0.0634
 1697SOL    HW2 7409   7.280   5.920   0.699 -0.8150  0.4993  0.0833
 1698SOL     OW 7410   1.475  10.495   6.300  0.7228  0.4809 -0.5195
 1698SOL    HW1 7411   1.497  10.588   6.301 -3.3591  1.7089  2.0268
 1698SOL    HW2 7412   1.498  10.463   6.387  0.8711 -0.5359 -0.9140
 1699SOL     OW 7413   7.947   7.856   0.368  0.2175 -0.7956 -0.4321
 1699SOL    HW1 7414   7.894   7.806   0.431  0.3941  0.5410  0.8437
 1699SOL    HW2 7415   7.897   7.854   0.287 -1.0949 -0.7873  0.3490
 1700SOL     OW 7416   4.883   7.337   6.390  0.5556  0.1329  0.5871
 1700SOL    HW1 7417   4.909   7.259   6.341 -2.4082 -2.0221  2.0597
 1700SOL    HW2 7418   4.900   7.314   6.481 -1.2378  0.7895  1.1213
 1701SOL     OW 7419   1.767   7.514  10.441  0.1509  0.1942  0.2680
 1701SOL    HW1 7420   1.719   7.523  10.359  1.0384  0.3115 -0.2494
 1701SOL    HW2 7421   1.771   7.420  10.457 -0.2357  0.1832  0.3153
 1702SOL     OW 7422   3.381   5.778   2.611  0.0797  0.0498 -0.0608
 1702SOL    HW1 7423   3.308   5.816   2.563  1.2376  0.7474 -1.3438
 1702SOL    HW2 7424   3.455   5.835   2.591  0.8793 -0.3074  1.6449
 1703SOL     OW 7425   9.936   0.918   0.115  0.4778  0.3906 -0.4497
 1703SOL    HW1 7426   9.926   0.841   0.060  1.0995 -0.5408  0.6855
 1703SOL    HW2 7427   9.884   0.986   0.072  1.0662 -0.2327 -2.2468
 1704SOL     OW 7428   8.514   9.120  10.591 -0.0559 -0.1188 -0.0241
 1704SOL    HW1 7429   8.521   9.165  10.674 -0.2309 -0.7653  0.3501
 1704SOL    HW2 7430   8.604   9.101  10.565 -0.0306 -0.5731  0.3877
 1705SOL     OW 7431   3.914   9.544   2.049 -0.6745 -0.0420  0.1455
 1705SOL    HW1 7432   3.909   9.473   2.113 -1.7673 -0.7784 -0.7314
 1705SOL    HW2 7433   3.908   9.624   2.102 -1.9459 -0.6403  0.9442
 1706SOL     OW 7434   0.278   0.997   2.085 -0.4686 -0.0712 -0.4444
 1706SOL    HW1 7435   0.305   1.024   1.997 -0.7109 -0.1135 -0.5321
 1706SOL    HW2 7436   0.287   1.076   2.138 -0.2385 -0.0671 -0.4880
 1707SOL     OW 7437  10.016   4.366   9.418  0.5037  0.2368 -0.5970
 1707SOL    HW1 7438  10.025   4.390   9.326  1.4107 -2.6956 -1.3776
 1707SOL    HW2 7439   9.990   4.274   9.417  0.8900  0.0097  2.0902
 1708SOL     OW 7440   9.959   5.504   0.245 -0.0705  0.0600 -0.2628
 1708SOL    HW1 7441  10.041   5.484   0.290  1.0357  0.9809 -1.7605
 1708SOL    HW2 7442   9.905   5.546   0.312  0.8539 -0.1561  0.6534
 1709SOL     OW 7443   3.111   8.478   2.208  0.1548 -0.3632  0.1267
 1709SOL    HW1 7444   3.022   8.490   2.176  0.4557 -1.0314 -1.0210
 1709SOL    HW2 7445   3.167   8.507   2.136  0.8860  0.3948  0.9623
 1710SOL     OW 7446   5.424   5.472   5.795 -0.7392 -0.4528  0.2733
 1710SOL    HW1 7447   5.471   5.521   5.863 -1.3888  2.3924 -1.1829
 1710SOL    HW2 7448   5.470   5.493   5.714 -2.6288 -0.0518 -0.7664
 1711SOL     OW 7449   9.995   4.681   6.714  1.0547  0.0806 -0.3006
 1711SOL    HW1 7450   9.936   4.620   6.670 -0.8038  1.6666 -0.1495
 1711SOL    HW2 7451  10.049   4.717   6.644  0.6155 -0.1082 -0.7470
 1712SOL     OW 7452   2.917   3.684   7.525  0.1240 -0.2326 -0.2661
 1712SOL    HW1 7453   2.845   3.683   7.588 -0.6795 -0.1875 -1.1724
 1712SOL    HW2 7454   2.915   3.597   7.485  0.9827 -0.4560  0.1341
 1713SOL     OW 7455   1.922   7.785   3.985 -0.3081  0.1275  0.2609
 1713SOL    HW1 7456   1.896   7.867   4.027  1.4695  0.9400 -0.1335
 1713SOL    HW2 7457   1.860   7.721   4.019  0.4945  0.8716  3.5546
 1714SOL     OW 7458   3.103   0.436   7.751  0.0368  0.4179 -0.1202
 1714SOL    HW1 7459   3.015   0.468   7.728  0.2607  1.1127 -0.0430
 1714SOL    HW2 7460   3.101   0.428   7.846 -0.6767 -1.8203 -0.2687
 1715SOL     OW 7461   5.180   4.528   9.935  0.4327 -1.3094 -0.2443
 1715SOL    HW1 7462   5.222   4.575   9.863 -1.0801  0.6617  0.0938
 1715SOL    HW2 7463   5.201   4.580  10.013 -1.2129 -1.1982  0.1584
 1716SOL     OW 7464   2.544   2.572   4.241  0.0307  0.3266 -0.1550
 1716SOL    HW1 7465   2.590   2.646   4.203 -0.2677  0.4321 -0.3097
 1716SOL    HW2 7466   2.516   2.603   4.327  2.5782 -0.5914  1.1177
 1717SOL     OW 7467   5.171   1.861   2.529 -0.3787  0.3087 -0.1437
 1717SOL    HW1 7468   5.179   1.781   2.580  1.4860  0.6141  0.1096
 1717SOL    HW2 7469   5.141   1.832   2.443 -0.9800 -0.4905  0.3135
 1718SOL     OW 7470   0.601   6.402   2.361  0.5909 -0.3593  0.2663
 1718SOL    HW1 7471   0.658   6.419   2.286 -1.3224 -2.1719 -1.7393
 1718SOL    HW2 7472   0.659   6.361   2.426  1.8035 -1.0758 -1.2101
 1719SOL     OW 7473   1.220   2.150   1.654 -0.3961 -0.1635 -0.0308
 1719SOL    HW1 7474   1.302   2.199   1.643 -0.4342 -0.0755  0.0704
 1719SOL    HW2 7475   1.166   2.175   1.580 -0.0931 -0.7033 -0.4436
 1720SOL     OW 7476  10.113  10.302   1.431 -0.2311 -0.3809 -0.5881
 1720SOL    HW1 7477  10.027  10.293   1.472 -0.9505  0.6880 -1.7830
 1720SOL    HW2 7478  10.174  10.310   1.505 -1.0837 -1.5559  0.2852
 1721SOL     OW 7479   7.245   9.142   4.476 -0.3344 -0.1523 -0.4456
 1721SOL    HW1 7480   7.337   9.144   4.503 -0.3547 -0.5258 -0.3497
 1721SOL    HW2 7481   7.227   9.050   4.458 -0.1904  0.1328 -2.1939
 1722SOL     OW 7482   3.774   3.661   9.240  0.1502  0.4738  0.2433
 1722SOL    HW1 7483   3.868   3.647   9.234  0.4374  2.0693  0.5321
 1722SOL    HW2 7484   3.753   3.647   9.332 -0.5333 -3.1174 -0.3177
 1723SOL     OW 7485   7.428  10.345   7.919 -0.2622 -0.5628 -0.1794
 1723SOL    HW1 7486   7.387  10.384   7.996 -2.0666 -3.5752  0.5640
 1723SOL    HW2 7487   7.437  10.417   7.857  0.4041  1.7895  2.4474
 1724SOL     OW 7488   8.985   1.104   8.966 -0.1413 -0.5427 -0.3745
 1724SOL    HW1 7489   8.896   1.108   8.999 -0.0730  1.3773 -0.3094
 1724SOL    HW2 7490   8.991   1.174   8.902  0.9505 -1.5134 -1.4051
 1725SOL     OW 7491   9.528   8.774   7.319  0.3214  0.1942  0.3135
 1725SOL    HW1 7492   9.623   8.759   7.315  0.7396  2.1390  1.7632
 1725SOL    HW2 7493   9.494   8.734   7.238  2.5623  0.8898 -1.0596
 1726SOL     OW 7494   1.802   6.647   2.117 -0.4250 -0.0071  0.3241
 1726SOL    HW1 7495   1.718   6.620   2.080  1.1314 -1.1324 -2.6910
 1726SOL    HW2 7496   1.810   6.594   2.197 -2.5567  0.1935  0.7426
 1727SOL     OW 7497   2.582   4.687   3.790  0.3915  0.4192  0.1774
 1727SOL    HW1 7498   2.523   4.651   3.857  0.2379  2.9255  1.4899
 1727SOL    HW2 7499   2.524   4.712   3.718  0.2092  0.3101  0.2849
 1728SOL     OW 7500   7.768   0.439   3.745  0.3078  0.3492 -0.3493
 1728SOL    HW1 7501   7.783   0.530   3.769  0.4535 -0.1125  1.5538
 1728SOL    HW2 7502   7.724   0.442   3.661  0.1148  2.1737 -0.2167
 1729SOL     OW 7503   6.661   7.356   1.786 -0.0092 -0.3227 -0.0193
 1729SOL    HW1 7504   6.582   7.365   1.733  0.5258  1.4257 -0.5952
 1729SOL    HW2 7505   6.637   7.397   1.870  0.7876  1.9589 -0.8214
 1730SOL     OW 7506   1.643   2.400   2.800 -0.3042 -0.2994 -0.8435
 1730SOL    HW1 7507   1.557   2.430   2.828  0.3381  2.0455 -1.1140
 1730SOL    HW2 7508   1.627   2.356   2.716 -1.2660 -0.1709 -0.7362
 1731SOL     OW 7509   2.381   0.424   2.548 -0.4313  0.2295 -0.2978
 1731SOL    HW1 7510   2.342   0.346   2.586 -1.0295  0.2827 -0.7723
 1731SOL    HW2 7511   2.403   0.480   2.623 -0.1884 -0.3004  0.0305
 1732SOL     OW 7512   7.571   6.624   4.432 -0.4864 -0.8525 -0.0591
 1732SOL    HW1 7513   7.475   6.625   4.426 -0.4128  0.7964 -3.4728
 1732SOL    HW2 7514   7.595   6.716   4.435  0.9858 -1.1481 -1.3484
 1733SOL     OW 7515   5.150   9.111   3.726  0.3923  0.2301 -0.0468
 1733SOL    HW1 7516   5.082   9.154   3.675 -1.1371 -0.7897  1.0517
 1733SOL    HW2 7517   5.222   9.099   3.664 -1.3840 -0.9790 -2.0186
 1734SOL     OW 7518   9.576   0.002   8.297 -0.3333  0.0726  0.5992
 1734SOL    HW1 7519   9.584  -0.037   8.384 -1.0778 -1.3367  0.0707
 1734SOL    HW2 7520   9.637  -0.048   8.243 -0.9031  0.0034  0.0188
 1735SOL     OW 7521   7.308   2.284   8.715 -0.4391 -0.1182  0.1021
 1735SOL    HW1 7522   7.264   2.199   8.727  0.5392 -0.5747  0.5206
 1735SOL    HW2 7523   7.294   2.306   8.623 -1.2888 -0.3962  0.1567
 1736SOL     OW 7524   0.897   9.547   9.258 -0.2350  0.8953  0.4581
 1736SOL    HW1 7525   0.861   9.467   9.296  0.4264 -0.4673 -1.6402
 1736SOL    HW2 7526   0.823   9.590   9.217 -0.3920  0.7779  0.6198
 1737SOL     OW 7527   8.397   4.553   9.735  0.2451 -0.2140 -0.1248
 1737SOL    HW1 7528   8.463   4.579   9.799 -0.9263 -0.0987  1.0962
 1737SOL    HW2 7529   8.414   4.607   9.658 -0.5059  2.3670  1.4008
 1738SOL     OW 7530   3.496  10.070   1.780 -0.0237  0.1410 -0.0953
 1738SOL    HW1 7531   3.406  10.040   1.791 -0.3731  1.2881  0.3334
 1738SOL    HW2 7532   3.546   9.990   1.762 -1.4527 -0.2941 -2.6139
 1739SOL     OW 7533   2.046   3.541   2.893 -0.3341 -0.7496  0.5355
 1739SOL    HW1 7534   2.025   3.563   2.803 -0.4636 -2.8951  0.0091
 1739SOL    HW2 7535   2.141   3.527   2.893 -0.6042 -2.9202  0.1818
 1740SOL     OW 7536   0.380   2.524   3.899  0.0049  0.1248 -0.5886
 1740SOL    HW1 7537   0.432   2.448   3.926  1.3460  1.0046 -0.6337
 1740SOL    HW2 7538   0.427   2.561   3.825 -0.4899  1.1697 -0.4030
 1741SOL     OW 7539   7.397   9.731   7.801  0.4743  0.0092  0.4961
 1741SOL    HW1 7540   7.327   9.793   7.818  0.2446 -0.3480  0.8699
 1741SOL    HW2 7541   7.472   9.785   7.775 -0.1622  0.3609 -0.7051
 1742SOL     OW 7542   8.829   8.396   4.891  0.0812 -0.4877  0.1024
 1742SOL    HW1 7543   8.780   8.331   4.840  0.7459 -0.0623 -1.1070
 1742SOL    HW2 7544   8.895   8.345   4.938  0.4460 -0.7272 -0.6527
 1743SOL     OW 7545   0.307   0.820   0.494  0.0460  0.0291  0.6245
 1743SOL    HW1 7546   0.375   0.755   0.479  0.4893  0.4353  0.8626
 1743SOL    HW2 7547   0.281   0.849   0.406  1.0394  0.7556  0.5594
 1744SOL     OW 7548   1.360   7.971   4.928  0.2046  0.1024  0.2401
 1744SOL    HW1 7549   1.363   7.965   4.832  1.1358  1.0113  0.1999
 1744SOL    HW2 7550   1.321   7.888   4.955 -2.0898  0.6955 -1.0224
 1745SOL     OW 7551   9.734   0.490   8.553 -0.8597 -0.1253 -0.1532
 1745SOL    HW1 7552   9.754   0.488   8.459  0.6518 -0.5318  0.1522
 1745SOL    HW2 7553   9.793   0.557   8.588 -0.4807 -0.8963  0.7027
 1746SOL     OW 7554   0.547   5.226   5.390 -0.2311 -0.3334 -0.7818
 1746SOL    HW1 7555   0.601   5.304   5.376  1.2252 -1.3337 -0.9670
 1746SOL    HW2 7556   0.468   5.259   5.431  1.3817  0.9669  1.5034
 1747SOL     OW 7557   9.338   2.012   7.568 -0.1214  0.1447  0.7721
 1747SOL    HW1 7558   9.300   2.082   7.622  0.1087 -0.7020  2.0967
 1747SOL    HW2 7559   9.417   1.986   7.616 -0.4606 -1.3323  0.5732
 1748SOL     OW 7560  10.123   8.820   7.241 -0.1902 -0.2884  0.0299
 1748SOL    HW1 7561  10.034   8.797   7.216 -0.1242 -2.1346  1.3053
 1748SOL    HW2 7562  10.126   8.916   7.236 -2.0003 -0.2464 -0.7723
 1749SOL     OW 7563   4.789   9.491   0.603  0.3792 -0.0277  0.6251
 1749SOL    HW1 7564   4.728   9.432   0.648  2.0208 -0.9641  1.7179
 1749SOL    HW2 7565   4.757   9.494   0.513 -0.5800 -1.4600  0.8835
 1750SOL     OW 7566   5.245   2.157   8.072  0.0752  0.6734  0.7233
 1750SOL    HW1 7567   5.272   2.110   7.993 -1.5440 -0.0809  0.5738
 1750SOL    HW2 7568   5.326   2.195   8.106  0.7491  1.3447 -1.4843
 1751SOL     OW 7569   7.619   6.158   5.525  0.2960 -0.1695 -0.0304
 1751SOL    HW1 7570   7.664   6.109   5.456  1.5557  0.7595  0.1012
 1751SOL    HW2 7571   7.602   6.092   5.593  1.2226 -0.6038 -0.1979
 1752SOL     OW 7572   8.452   7.678   6.674 -0.0234 -0.7146  0.2970
 1752SOL    HW1 7573   8.465   7.645   6.585  0.3673 -0.1049  0.1241
 1752SOL    HW2 7574   8.357   7.684   6.684 -0.1231 -2.1650  0.4405
 1753SOL     OW 7575  10.329   5.039   5.255  0.2499  0.3224  0.0262
 1753SOL    HW1 7576  10.241   5.022   5.289  0.6903  2.5395  2.7048
 1753SOL    HW2 7577  10.367   4.952   5.240 -1.5152 -0.7315  1.3213
 1754SOL     OW 7578   5.913   5.799   2.636  0.3021  0.0416  0.2131
 1754SOL    HW1 7579   5.989   5.835   2.590  0.9445  0.4609  1.5417
 1754SOL    HW2 7580   5.853   5.874   2.645  0.4041  0.0941  0.4868
 1755SOL     OW 7581   4.674   7.863   6.781 -0.6519 -0.1610 -0.2339
 1755SOL    HW1 7582   4.687   7.779   6.738 -1.0843 -0.3216 -0.0494
 1755SOL    HW2 7583   4.580   7.868   6.798 -1.1330  1.5932 -2.7895
 1756SOL     OW 7584   0.830   6.193   3.360  0.1620  0.0739 -0.2270
 1756SOL    HW1 7585   0.756   6.194   3.298 -0.5823  0.6059  0.6412
 1756SOL    HW2 7586   0.811   6.119   3.418  0.2471  0.2937  0.0778
 1757SOL     OW 7587   7.326   1.342   7.094  0.1831  0.1480 -0.0247
 1757SOL    HW1 7588   7.254   1.405   7.106  0.4516  0.3013  0.8864
 1757SOL    HW2 7589   7.303   1.293   7.015 -0.9087  0.2123  0.2459
 1758SOL     OW 7590   2.923   9.151   1.577  0.2905 -0.2576  0.3338
 1758SOL    HW1 7591   3.013   9.131   1.551 -0.1190 -2.1421  0.1959
 1758SOL    HW2 7592   2.894   9.218   1.515  1.1855 -0.5525 -0.4261
 1759SOL     OW 7593   1.220   3.693   1.175  0.6780 -0.2479  0.0676
 1759SOL    HW1 7594   1.191   3.661   1.260  1.9526 -1.7245 -0.0101
 1759SOL    HW2 7595   1.158   3.655   1.112  0.5641 -0.2989  0.2109
 1760SOL     OW 7596   3.153   1.661  10.447 -0.6252  0.1413  0.2742
 1760SOL    HW1 7597   3.095   1.732  10.417 -1.4045 -0.9930 -1.0293
 1760SOL    HW2 7598   3.212   1.703  10.509 -2.0364  1.6078  0.6910
 1761SOL     OW 7599   6.840   0.553   3.924  0.0203 -0.3546  0.3462
 1761SOL    HW1 7600   6.846   0.477   3.865  0.6122  1.4816 -2.1514
 1761SOL    HW2 7601   6.776   0.527   3.990  1.0996 -3.4535  0.3724
 1762SOL     OW 7602   6.732   8.603   0.283 -0.1110  0.1581 -0.0542
 1762SOL    HW1 7603   6.668   8.626   0.216 -0.3122  1.5078  0.5713
 1762SOL    HW2 7604   6.816   8.633   0.247 -0.0415 -0.2272 -0.2186
 1763SOL     OW 7605   4.132   4.265   1.262  0.6541  0.4534 -0.1973
 1763SOL    HW1 7606   4.081   4.218   1.196  1.2507 -1.1797  0.4392
 1763SOL    HW2 7607   4.173   4.337   1.214  1.3436 -0.8814 -1.7161
 1764SOL     OW 7608   4.739   7.351   7.991  0.1144 -0.1294 -0.3896
 1764SOL    HW1 7609   4.677   7.278   7.984  0.3572 -0.4361  0.5176
 1764SOL    HW2 7610   4.696   7.423   7.945 -2.7274  0.8106  3.2450
 1765SOL     OW 7611   1.712  10.344   1.149 -0.1470 -0.6235  0.2726
 1765SOL    HW1 7612   1.804  10.351   1.171  0.5348 -2.9009 -1.4891
 1765SOL    HW2 7613   1.674  10.287   1.216  0.0630 -0.8835  0.1701
 1766SOL     OW 7614   3.144   8.153   9.553  0.0407  0.6148 -0.3688
 1766SOL    HW1 7615   3.155   8.104   9.634 -0.2395  0.1033 -0.6346
 1766SOL    HW2 7616   3.066   8.115   9.512  0.8107  0.0872 -1.4130
 1767SOL     OW 7617   5.487   7.005   0.141  0.1724 -0.2632  0.3365
 1767SOL    HW1 7618   5.447   7.064   0.205 -0.1171  0.2539 -0.3158
 1767SOL    HW2 7619   5.580   7.026   0.145 -0.1999  2.4925 -2.0758
 1768SOL     OW 7620   7.239   7.746   4.268  0.3640 -0.6491 -0.1950
 1768SOL    HW1 7621   7.145   7.764   4.264  0.3283 -0.8970 -0.4980
 1768SOL    HW2 7622   7.280   7.831   4.255  0.1761 -0.3876  0.8662
 1769SOL     OW 7623   0.999   4.351   6.907  0.4779  0.0024 -0.7707
 1769SOL    HW1 7624   0.952   4.297   6.843 -1.4328 -0.3365  0.8394
 1769SOL    HW2 7625   0.974   4.441   6.885  0.4422 -0.0511 -0.9546
 1770SOL     OW 7626   2.254   5.206   7.728  0.3202  0.3319  0.1430
 1770SOL    HW1 7627   2.161   5.199   7.747  0.1255  0.5396 -0.6531
 1770SOL    HW2 7628   2.290   5.120   7.748 -0.0443  0.2551  0.4706
 1771SOL     OW 7629   5.700   1.974   3.686 -0.5906 -0.1197  0.8278
 1771SOL    HW1 7630   5.704   1.949   3.594  1.2108  1.3238  0.4617
 1771SOL    HW2 7631   5.727   1.896   3.734 -0.9521 -0.6922  0.1088
 1772SOL     OW 7632   1.224   9.411  10.298 -0.3416  0.3408 -0.4451
 1772SOL    HW1 7633   1.215   9.494  10.253 -1.5669  0.3427 -0.2410
 1772SOL    HW2 7634   1.277   9.431  10.376 -3.4854  1.7724  1.5243
 1773SOL     OW 7635   9.534   0.431   4.754  0.2090  0.0579 -0.5494
 1773SOL    HW1 7636   9.573   0.392   4.833  0.6261 -0.4646 -1.0085
 1773SOL    HW2 7637   9.606   0.438   4.692 -0.1015  0.5411 -0.8640
 1774SOL     OW 7638   8.410   0.903   0.126  0.3910  0.2896 -0.0523
 1774SOL    HW1 7639   8.465   0.829   0.151 -0.8833 -1.3032 -1.7167
 1774SOL    HW2 7640   8.335   0.899   0.186  0.4906  0.4711  0.0875
 1775SOL     OW 7641   8.006   7.953   4.087  0.3286  0.2544  0.2705
 1775SOL    HW1 7642   7.923   7.961   4.134  0.4497  1.6494  0.2841
 1775SOL    HW2 7643   8.024   7.859   4.085 -1.4214 -0.1057 -0.0339
 1776SOL     OW 7644   4.008   9.697   4.009 -0.3076  0.2998 -0.2716
 1776SOL    HW1 7645   4.036   9.614   3.972 -0.6976  0.1289 -0.1852
 1776SOL    HW2 7646   3.916   9.705   3.984 -0.3118  0.6393 -0.1585
 1777SOL     OW 7647   9.720   0.729   4.624  0.4120 -0.0176  0.0188
 1777SOL    HW1 7648   9.803   0.742   4.671 -0.0125 -1.0791  1.1054
 1777SOL    HW2 7649   9.711   0.634   4.618  1.0835  0.0116 -3.4177
 1778SOL     OW 7650   2.856   6.621   9.817 -0.4585 -0.5794 -0.0354
 1778SOL    HW1 7651   2.807   6.675   9.879  0.1761 -1.7823  1.5905
 1778SOL    HW2 7652   2.947   6.631   9.845 -0.0264 -0.3596 -1.4368
 1779SOL     OW 7653   3.194   3.463   0.696 -0.6059 -0.2522  0.2760
 1779SOL    HW1 7654   3.260   3.460   0.765  0.4746  1.6265 -0.5898
 1779SOL    HW2 7655   3.140   3.540   0.717  0.2215  0.8196 -1.3289
 1780SOL     OW 7656   2.387   2.791   5.979  0.5162 -0.1660  0.0931
 1780SOL    HW1 7657   2.474   2.750   5.981  0.2086 -0.8612 -0.3888
 1780SOL    HW2 7658   2.326   2.718   5.993 -0.0538  0.0640 -1.0368
 1781SOL     OW 7659   6.542   2.055  10.506 -0.4170  0.0049  0.3175
 1781SOL    HW1 7660   6.505   1.991  10.568  0.6939 -0.0698  0.9312
 1781SOL    HW2 7661   6.623   2.084  10.548  0.6569 -0.4518 -1.3494
 1782SOL     OW 7662   6.394   9.802   1.201 -0.3123  0.6547  0.2652
 1782SOL    HW1 7663   6.303   9.774   1.212 -0.8284  2.8788  2.7921
 1782SOL    HW2 7664   6.397   9.838   1.112 -1.5907 -0.3483 -0.2243
 1783SOL     OW 7665   1.790   1.694   4.860  0.2413 -0.6638  0.4343
 1783SOL    HW1 7666   1.816   1.773   4.812 -0.0233 -0.4152  0.7003
 1783SOL    HW2 7667   1.778   1.628   4.792 -0.0304 -0.3410  0.1632
 1784SOL     OW 7668   7.465   0.319   9.880 -0.0203  0.1494 -0.0573
 1784SOL    HW1 7669   7.398   0.348   9.818 -0.2608  1.1461  0.6525
 1784SOL    HW2 7670   7.417   0.307   9.962  0.2820 -1.2279 -0.0547
 1785SOL     OW 7671   0.507   0.755   3.165 -0.7093  0.3350  0.2143
 1785SOL    HW1 7672   0.504   0.829   3.226 -1.4659  1.0258 -0.6347
 1785SOL    HW2 7673   0.593   0.762   3.123 -0.3469  0.0924  0.8963
 1786SOL     OW 7674   9.401   7.781   3.379  0.3043 -0.1818 -0.4446
 1786SOL    HW1 7675   9.330   7.799   3.317 -1.3035  0.1671  1.4299
 1786SOL    HW2 7676   9.455   7.860   3.376  0.6734 -0.4440 -1.8764
 1787SOL     OW 7677   5.169   2.166   1.994 -0.8858  0.1630 -0.0714
 1787SOL    HW1 7678   5.156   2.238   2.055  0.2990 -0.4504  0.9551
 1787SOL    HW2 7679   5.177   2.207   1.909 -1.1701  1.1511  0.3648
 1788SOL     OW 7680   9.550   5.932   6.897  0.4093 -0.3163 -0.0160
 1788SOL    HW1 7681   9.618   5.885   6.945 -0.1624  0.2856  1.4295
 1788SOL    HW2 7682   9.591   6.014   6.871 -0.1350  0.6782  2.0955
 1789SOL     OW 7683   4.359   9.728   2.405 -0.4683  0.2753 -0.0193
 1789SOL    HW1 7684   4.403   9.774   2.477  0.4350  0.3985 -0.6336
 1789SOL    HW2 7685   4.370   9.635   2.427  0.2315  0.3036 -0.2424
 1790SOL     OW 7686   9.914   3.205  10.454 -0.5207  0.4478 -0.9691
 1790SOL    HW1 7687   9.880   3.294  10.455 -2.6397 -0.2993  0.4776
 1790SOL    HW2 7688   9.962   3.197  10.536 -2.5651 -0.4659  0.2042
 1791SOL     OW 7689   0.744   5.032   9.841  0.4115  0.0015 -0.2329
 1791SOL    HW1 7690   0.688   5.040   9.764 -0.0244  1.9207  0.2324
 1791SOL    HW2 7691   0.726   5.111   9.892  1.8812 -0.4415  1.0514
 1792SOL     OW 7692  10.152   1.249   3.860 -1.1161 -0.1360 -0.2868
 1792SOL    HW1 7693  10.163   1.163   3.819 -0.2344 -0.3564  0.3873
 1792SOL    HW2 7694  10.155   1.231   3.954  2.7951  1.0068 -0.0459
 1793SOL     OW 7695   2.206   7.087   1.177 -0.4002 -0.4549  0.3784
 1793SOL    HW1 7696   2.127   7.033   1.180 -1.0330  0.4113 -0.1239
 1793SOL    HW2 7697   2.215   7.111   1.085  1.1078 -1.4570  0.2160
 1794SOL     OW 7698   6.201   0.920   6.649 -0.2385 -0.0601  0.5758
 1794SOL    HW1 7699   6.156   0.845   6.610  0.4671  0.0402 -0.4441
 1794SOL    HW2 7700   6.155   0.996   6.614 -0.6098  0.0105  1.1932
 1795SOL     OW 7701   3.850   1.064   5.602 -0.2291 -0.4217  0.1079
 1795SOL    HW1 7702   3.759   1.091   5.587 -0.4383 -0.2654  1.5341
 1795SOL    HW2 7703   3.882   1.040   5.515 -2.0085 -1.6400 -0.2606
 1796SOL     OW 7704   7.697   9.612   3.463  0.6660 -0.2805  0.4748
 1796SOL    HW1 7705   7.709   9.543   3.527  0.3451 -2.2737 -1.4755
 1796SOL    HW2 7706   7.624   9.581   3.408  3.0154 -0.4094 -2.8517
 1797SOL     OW 7707   1.431   1.982   6.477 -0.0921 -0.1129 -0.6880
 1797SOL    HW1 7708   1.384   1.904   6.447 -0.4523 -0.2263  0.1391
 1797SOL    HW2 7709   1.362   2.048   6.490  0.0120 -0.1656  0.1825
 1798SOL     OW 7710   9.416   5.038   0.117  0.4134 -0.4630  0.1046
 1798SOL    HW1 7711   9.400   5.111   0.057  1.6065 -0.4940 -0.2827
 1798SOL    HW2 7712   9.331   4.995   0.125 -0.1209  0.4771 -0.3122
 1799SOL     OW 7713   3.568   1.069   6.964  0.3366  0.1349 -0.0956
 1799SOL    HW1 7714   3.528   0.982   6.954  0.8172 -0.0974 -0.0332
 1799SOL    HW2 7715   3.530   1.121   6.894  1.3407 -0.6109 -1.2263
 1800SOL     OW 7716   5.633   8.451   0.408 -0.2388 -0.0544 -0.4594
 1800SOL    HW1 7717   5.617   8.545   0.396  1.0645  0.1786 -0.4891
 1800SOL    HW2 7718   5.548   8.411   0.392 -1.0172  1.1807  0.3833
 1801SOL     OW 7719   7.822   4.555   4.637  0.3406 -0.2301 -0.3015
 1801SOL    HW1 7720   7.786   4.640   4.612 -0.0922 -0.6022 -0.9767
 1801SOL    HW2 7721   7.865   4.571   4.721  0.5197  0.7147 -0.5619
 1802SOL     OW 7722   1.166   6.950   8.516 -0.0092  0.2592 -0.6093
 1802SOL    HW1 7723   1.144   6.922   8.427 -4.2566  2.0036 -0.3736
 1802SOL    HW2 7724   1.150   7.045   8.516  1.8016  0.6511  1.5792
 1803SOL     OW 7725   2.606   6.310   2.561  0.2312 -0.5693  0.3657
 1803SOL    HW1 7726   2.674   6.329   2.625  1.2614 -1.4902 -0.3993
 1803SOL    HW2 7727   2.641   6.345   2.478 -0.9387  0.3397  0.2257
 1804SOL     OW 7728   6.091   6.892   0.527 -0.7262 -0.5225 -0.4156
 1804SOL    HW1 7729   6.180   6.879   0.494 -0.8107 -2.0528 -0.1073
 1804SOL    HW2 7730   6.042   6.922   0.450 -0.7065 -3.1428 -1.5464
 1805SOL     OW 7731   2.225   4.791   1.630  0.0999 -0.3211 -0.1998
 1805SOL    HW1 7732   2.165   4.856   1.667  0.5123 -0.4508  0.7084
 1805SOL    HW2 7733   2.198   4.708   1.670  0.9821 -0.3552  0.3407
 1806SOL     OW 7734   2.583  10.545   5.761  0.0206  0.6357 -0.4261
 1806SOL    HW1 7735   2.598  10.500   5.677 -1.2189  1.2505 -0.9959
 1806SOL    HW2 7736   2.512  10.606   5.743 -0.1570  0.8871  1.0466
 1807SOL     OW 7737   2.624   9.253   9.535 -0.2394 -0.3107 -0.0559
 1807SOL    HW1 7738   2.669   9.240   9.451  1.7963 -0.5030  1.0177
 1807SOL    HW2 7739   2.612   9.347   9.540 -0.7673 -0.3287 -0.7402
 1808SOL     OW 7740   9.046   3.746   2.690 -0.1557 -0.2756  0.1437
 1808SOL    HW1 7741   9.048   3.688   2.614  1.5065 -1.1843  0.8419
 1808SOL    HW2 7742   8.989   3.702   2.752  0.0781 -0.5216  0.1832
 1809SOL     OW 7743   5.909   9.736   1.880  0.0798  0.4865 -0.1038
 1809SOL    HW1 7744   5.814   9.726   1.879  0.0631  0.2547  1.3533
 1809SOL    HW2 7745   5.924   9.819   1.926  0.5905  0.1284  0.3998
 1810SOL     OW 7746   0.857   3.880   8.138  0.8205  0.2523 -0.4084
 1810SOL    HW1 7747   0.950   3.857   8.135  0.7523  0.1125 -3.2656
 1810SOL    HW2 7748   0.857   3.976   8.131  0.7449  0.3199  0.4053
 1811SOL     OW 7749   5.726   3.458   3.246  0.1276 -0.2473  0.1147
 1811SOL    HW1 7750   5.821   3.448   3.247  0.3952  1.4326 -1.7094
 1811SOL    HW2 7751   5.705   3.500   3.330  0.8794 -1.3436  0.8643
 1812SOL     OW 7752   6.988   4.931   3.899  0.4566 -0.4641 -0.5716
 1812SOL    HW1 7753   6.975   4.894   3.812  0.9058  0.4412 -1.0470
 1812SOL    HW2 7754   7.025   5.018   3.882 -0.1173  0.0125  0.4993
 1813SOL     OW 7755   1.284  10.469   0.052 -0.0340  0.4030  0.2704
 1813SOL    HW1 7756   1.281  10.531   0.125  0.8374  0.7041  0.0741
 1813SOL    HW2 7757   1.278  10.383   0.093  0.8824  0.5533  0.7507
 1814SOL     OW 7758   4.611   7.620   0.807  0.1981 -0.3371 -0.3228
 1814SOL    HW1 7759   4.634   7.713   0.799 -0.2508 -0.2735 -1.0190
 1814SOL    HW2 7760   4.562   7.614   0.889 -0.8096  0.2723 -0.8561
 1815SOL     OW 7761   0.531   7.100   3.351 -0.4491  0.2492  0.1246
 1815SOL    HW1 7762   0.442   7.127   3.376  0.1385  1.2302  1.2319
 1815SOL    HW2 7763   0.555   7.034   3.415 -0.4594 -0.1780 -0.3092
 1816SOL     OW 7764   0.234   2.677   2.824 -0.0376  0.4386 -0.1165
 1816SOL    HW1 7765   0.151   2.662   2.869  0.3267  1.3890  0.9074
 1816SOL    HW2 7766   0.300   2.671   2.893  0.3940  3.6175 -0.1380
 1817SOL     OW 7767   1.579   6.109   4.867 -0.5729 -1.1232 -0.3850
 1817SOL    HW1 7768   1.509   6.049   4.840 -0.5311 -2.3548  1.9870
 1817SOL    HW2 7769   1.599   6.083   4.957  0.6310  1.3862  0.1488
 1818SOL     OW 7770   5.914   2.201  10.292 -0.0862 -0.1797  0.2237
 1818SOL    HW1 7771   5.855   2.213  10.217  0.0134 -1.1403 -0.0173
 1818SOL    HW2 7772   5.927   2.107  10.298 -1.2632 -0.2651  2.3790
 1819SOL     OW 7773   0.843   9.823   8.394  0.2459  0.2278 -0.1295
 1819SOL    HW1 7774   0.749   9.822   8.380  0.4112 -1.7983 -1.4776
 1819SOL    HW2 7775   0.875   9.743   8.353  2.6050  0.9923  0.0344
 1820SOL     OW 7776   8.781   0.357   4.023 -0.1207 -0.2479  0.0792
 1820SOL    HW1 7777   8.787   0.332   3.931 -1.1779  0.3969 -0.1887
 1820SOL    HW2 7778   8.872   0.363   4.053  0.4188  2.4258 -1.7449
 1821SOL     OW 7779   5.424   8.456   2.209  0.3025  0.0456 -0.1333
 1821SOL    HW1 7780   5.452   8.420   2.125 -0.1761  0.1656 -0.3477
 1821SOL    HW2 7781   5.411   8.550   2.192 -2.3203 -0.3417 -0.6210
 1822SOL     OW 7782   4.244   2.339   8.526 -0.4578  0.4084  0.1809
 1822SOL    HW1 7783   4.175   2.286   8.568 -1.3968  1.3290 -0.1619
 1822SOL    HW2 7784   4.297   2.371   8.599 -1.6581  1.4139  0.6333
 1823SOL     OW 7785   9.501   8.469   5.976  0.5719 -0.3268 -0.2744
 1823SOL    HW1 7786   9.502   8.461   5.880 -0.9118 -0.6629 -0.2811
 1823SOL    HW2 7787   9.460   8.554   5.992 -0.9072 -1.0905  0.0808
 1824SOL     OW 7788   3.291   7.519   8.465  0.1844  0.3008 -0.1831
 1824SOL    HW1 7789   3.305   7.478   8.380  0.6494 -0.0399  0.0500
 1824SOL    HW2 7790   3.377   7.517   8.507 -0.1777 -0.1357  0.5574
 1825SOL     OW 7791   3.127   6.683   3.900 -0.1442 -0.3046 -0.1840
 1825SOL    HW1 7792   3.069   6.625   3.852 -0.6162  0.7652 -0.9296
 1825SOL    HW2 7793   3.087   6.770   3.894 -0.1413 -0.0746  1.9920
 1826SOL     OW 7794   3.411   3.229   0.296 -0.1029 -0.0239  0.6517
 1826SOL    HW1 7795   3.326   3.218   0.338  0.3392 -2.2606  1.0900
 1826SOL    HW2 7796   3.468   3.168   0.342  1.6489  1.1152  0.0776
 1827SOL     OW 7797   8.630   6.299  10.103  0.0961  0.3295 -0.3562
 1827SOL    HW1 7798   8.627   6.219  10.050  0.0495  0.2541 -0.2384
 1827SOL    HW2 7799   8.541   6.334  10.098 -0.0735 -0.0124  0.1919
 1828SOL     OW 7800   3.582   3.898   9.670 -0.0971 -0.2097  0.1992
 1828SOL    HW1 7801   3.549   3.808   9.665 -0.0737 -0.2002 -0.1059
 1828SOL    HW2 7802   3.668   3.889   9.712 -0.3691 -0.2607  0.7556
 1829SOL     OW 7803   5.528   9.730   7.541  0.2366 -0.0930 -0.4812
 1829SOL    HW1 7804   5.547   9.702   7.630  0.9722  2.8452  0.4049
 1829SOL    HW2 7805   5.458   9.672   7.511  0.2848 -1.4385  1.8250
 1830SOL     OW 7806   2.885   3.701   8.137  0.2170 -0.3986 -0.0436
 1830SOL    HW1 7807   2.822   3.679   8.067 -1.6938  1.9049  0.8241
 1830SOL    HW2 7808   2.959   3.740   8.091 -0.6254  0.2703 -0.8558
 1831SOL     OW 7809   3.445   8.076   6.360 -0.0606  0.1681  0.4889
 1831SOL    HW1 7810   3.526   8.122   6.381  0.7925 -0.4738 -1.2588
 1831SOL    HW2 7811   3.393   8.140   6.312  0.3208 -0.0654 -0.2515
 1832SOL     OW 7812  10.378   4.891   0.526 -0.4680  0.4539 -0.1051
 1832SOL    HW1 7813  10.326   4.840   0.589 -0.2736 -0.2718 -0.5198
 1832SOL    HW2 7814  10.459   4.910   0.573  0.0635 -0.8806 -0.4146
 1833SOL     OW 7815   9.419   6.109   3.362  0.0251  0.4684 -0.1079
 1833SOL    HW1 7816   9.415   6.098   3.457  0.9777  0.6398 -0.0426
 1833SOL    HW2 7817   9.462   6.030   3.330 -0.3261  0.3930 -0.4064
 1834SOL     OW 7818   9.981   0.842   9.976 -0.0444 -1.3408 -0.1899
 1834SOL    HW1 7819   9.923   0.892  10.034 -0.4656 -1.7398 -0.2559
 1834SOL    HW2 7820   9.946   0.857   9.888  1.0306 -0.1496 -0.4388
 1835SOL     OW 7821   7.177   4.069   8.469 -0.3791 -0.0101  0.0585
 1835SOL    HW1 7822   7.211   4.134   8.407  0.5812 -0.0397  0.5200
 1835SOL    HW2 7823   7.256   4.024   8.501 -0.9827 -0.9514  0.2354
 1836SOL     OW 7824   0.868   4.175   2.885  0.1737 -0.3055 -0.6210
 1836SOL    HW1 7825   0.858   4.246   2.822 -0.3681  0.0893 -0.1063
 1836SOL    HW2 7826   0.939   4.121   2.850  0.6411  0.5262 -0.9850
 1837SOL     OW 7827   1.601   9.981  10.200  0.4532  0.2474  0.1388
 1837SOL    HW1 7828   1.562   9.894  10.195  0.9995 -0.0666  1.2101
 1837SOL    HW2 7829   1.525  10.040  10.205 -0.0178 -0.4307  3.5360
 1838SOL     OW 7830   2.211   8.227   3.175 -0.3974 -0.1963 -0.3321
 1838SOL    HW1 7831   2.220   8.254   3.084 -1.1552  1.2948  0.0075
 1838SOL    HW2 7832   2.291   8.257   3.218  0.4908 -1.9201 -0.7067
 1839SOL     OW 7833   8.365   1.358   6.385  0.2494  0.3106  0.0352
 1839SOL    HW1 7834   8.356   1.450   6.361  3.2793  1.2448  1.9408
 1839SOL    HW2 7835   8.453   1.351   6.421  0.5755 -3.6221 -1.0717
 1840SOL     OW 7836   8.157   6.407   1.559 -0.1592  0.4902 -0.0524
 1840SOL    HW1 7837   8.209   6.430   1.483  0.9885  0.3275  0.6654
 1840SOL    HW2 7838   8.196   6.457   1.631 -0.8900  0.2337  0.5376
 1841SOL     OW 7839   4.769   7.191   6.108 -0.0972 -0.5833  0.0335
 1841SOL    HW1 7840   4.852   7.216   6.068  0.0466  0.2699  0.8020
 1841SOL    HW2 7841   4.706   7.253   6.071 -0.3018 -0.9503 -0.2256
 1842SOL     OW 7842   4.167   4.477   9.831 -0.0370  1.0468 -0.1460
 1842SOL    HW1 7843   4.108   4.477   9.756 -2.8159 -0.2003  1.8526
 1842SOL    HW2 7844   4.254   4.487   9.793 -1.3958  1.8959 -3.3800
 1843SOL     OW 7845   5.106   2.396   4.874 -0.0327 -0.4058  0.0789
 1843SOL    HW1 7846   5.046   2.430   4.807  0.2365  2.1733  1.0385
 1843SOL    HW2 7847   5.141   2.316   4.836 -2.5597 -0.9409 -1.3472
 1844SOL     OW 7848   9.732   2.974   6.368  0.2917 -0.2349  0.1027
 1844SOL    HW1 7849   9.661   3.006   6.424 -0.2696 -1.4849  0.1289
 1844SOL    HW2 7850   9.702   2.992   6.279 -0.4695 -1.5036  0.0735
 1845SOL     OW 7851   9.061   5.930   7.869  0.8144 -0.4191  0.6959
 1845SOL    HW1 7852   9.032   5.885   7.789  3.7411 -0.4771 -0.4738
 1845SOL    HW2 7853   9.074   5.859   7.933 -0.2336 -0.5342  0.7877
 1846SOL     OW 7854   4.896   4.065   3.864  0.3341 -0.0546 -0.5858
 1846SOL    HW1 7855   4.951   3.999   3.821  1.7785  1.3684 -1.0376
 1846SOL    HW2 7856   4.810   4.055   3.823  0.2506 -2.2258  0.0191
 1847SOL     OW 7857   3.508   4.399   6.763  0.4212  0.0388 -0.6163
 1847SOL    HW1 7858   3.441   4.346   6.804  0.9277 -0.0809  0.0744
 1847SOL    HW2 7859   3.515   4.365   6.674 -0.7757  0.3847 -0.8641
 1848SOL     OW 7860   0.497   2.345   5.728 -0.1107 -0.5509 -0.2290
 1848SOL    HW1 7861   0.573   2.287   5.726 -1.1534 -1.9598 -2.1951
 1848SOL    HW2 7862   0.474   2.358   5.636 -1.4563  0.9308  0.2785
 1849SOL     OW 7863   9.255   1.015   0.431 -0.5769  0.5987 -0.1255
 1849SOL    HW1 7864   9.202   0.948   0.388  0.9781  0.1365 -1.4183
 1849SOL    HW2 7865   9.345   0.984   0.422  0.0896  2.2964  0.2691
 1850SOL     OW 7866   1.747   7.018   9.106  0.3400 -0.0729  0.3729
 1850SOL    HW1 7867   1.757   7.072   9.027  0.4440  1.1774  1.2202
 1850SOL    HW2 7868   1.684   6.951   9.081  3.0315 -1.9591 -1.9206
 1851SOL     OW 7869   2.192   7.230   5.200  0.7736 -0.1350  0.2830
 1851SOL    HW1 7870   2.116   7.261   5.149  1.4099 -0.7292 -1.0653
 1851SOL    HW2 7871   2.234   7.310   5.231 -0.0663  0.2174  0.5483
 1852SOL     OW 7872   0.650  10.016   7.879  0.3155  0.1703 -0.4555
 1852SOL    HW1 7873   0.674  10.030   7.971  3.0667 -0.3549 -1.0242
 1852SOL    HW2 7874   0.554  10.021   7.879  0.2260  0.1913  2.4276
 1853SOL     OW 7875   3.203   2.218   4.272  0.7714 -0.1909 -0.1600
 1853SOL    HW1 7876   3.183   2.167   4.351  0.0274  0.3078 -0.0192
 1853SOL    HW2 7877   3.125   2.209   4.218  0.5230  1.0251 -0.0149
 1854SOL     OW 7878   2.017   6.347   6.575 -0.1731 -0.4854  0.6162
 1854SOL    HW1 7879   2.039   6.397   6.653 -0.4148 -0.8740  0.9338
 1854SOL    HW2 7880   2.074   6.270   6.578  0.1610 -0.2605  0.1565
 1855SOL     OW 7881   4.978   1.049   4.724 -1.0283 -0.1007 -0.1419
 1855SOL    HW1 7882   5.068   1.027   4.744 -1.2925  0.1578  1.3979
 1855SOL    HW2 7883   4.983   1.134   4.679 -0.6480  1.2355  2.2784
 1856SOL     OW 7884   6.958   9.205   0.871  0.4924  0.5659 -0.1637
 1856SOL    HW1 7885   6.949   9.295   0.904 -0.8460  0.1535  0.6715
 1856SOL    HW2 7886   7.051   9.197   0.851  0.8299  1.8125  0.7330
 1857SOL     OW 7887   4.380   2.188   6.421 -0.0338  0.0455  0.1922
 1857SOL    HW1 7888   4.349   2.249   6.355 -0.1330  2.0871  2.0233
 1857SOL    HW2 7889   4.475   2.200   6.424  0.0585 -0.5700 -0.0632
 1858SOL     OW 7890   6.649  10.496   3.894 -0.2078 -0.1527 -0.7168
 1858SOL    HW1 7891   6.572  10.549   3.915 -0.7389 -0.5819 -1.5090
 1858SOL    HW2 7892   6.662  10.508   3.800 -1.0693 -2.3237 -1.1768
 1859SOL     OW 7893   5.495   6.822   9.449  0.0786 -0.1741 -0.0480
 1859SOL    HW1 7894   5.445   6.891   9.406  0.8068  0.1347 -0.4147
 1859SOL    HW2 7895   5.469   6.826   9.541 -0.7379 -0.1741 -0.2783
 1860SOL     OW 7896   2.404   3.978   0.866  0.1136 -0.3588  0.1197
 1860SOL    HW1 7897   2.374   4.042   0.931  1.6582  0.4631  0.0760
 1860SOL    HW2 7898   2.410   4.028   0.784 -3.1643 -1.7006 -1.0817
 1861SOL     OW 7899   5.133   9.774   2.365 -0.3456 -0.2254 -0.6306
 1861SOL    HW1 7900   5.173   9.806   2.284  2.0844 -0.3620  0.4328
 1861SOL    HW2 7901   5.094   9.852   2.405  2.0476  0.7270  0.0085
 1862SOL     OW 7902   6.147   0.301   7.802 -0.2345  0.2143  0.4067
 1862SOL    HW1 7903   6.199   0.223   7.822 -0.0173  0.6374  1.5330
 1862SOL    HW2 7904   6.132   0.343   7.887 -0.1354  1.5476 -0.2162
 1863SOL     OW 7905   9.451   9.698   1.730  0.0341  0.6655 -0.5922
 1863SOL    HW1 7906   9.390   9.659   1.792  0.6857 -0.3484 -0.5573
 1863SOL    HW2 7907   9.409   9.685   1.645  1.7234 -3.3990 -1.0137
 1864SOL     OW 7908   7.005   8.681   2.754  0.1014  0.0609 -0.1968
 1864SOL    HW1 7909   7.071   8.683   2.684  0.2792  1.3666 -0.0114
 1864SOL    HW2 7910   6.936   8.625   2.719  1.4524 -1.6456 -0.2423
 1865SOL     OW 7911   5.812   2.426   5.163  0.0601  0.5988  0.4075
 1865SOL    HW1 7912   5.833   2.381   5.082  1.7811 -1.1782  1.7325
 1865SOL    HW2 7913   5.896   2.456   5.197 -0.7027  1.9655  1.1857
 1866SOL     OW 7914   5.376   7.213   0.335  0.3839 -0.4513 -0.0289
 1866SOL    HW1 7915   5.456   7.254   0.303  0.0543 -0.4235 -0.8481
 1866SOL    HW2 7916   5.324   7.284   0.372  1.2777 -0.6566  1.6955
 1867SOL     OW 7917  10.440   2.049   8.885  0.5099 -0.5588  0.0086
 1867SOL    HW1 7918  10.490   2.121   8.846 -2.5002  2.9852  2.0335
 1867SOL    HW2 7919  10.391   2.012   8.812  1.4929  0.0174 -0.9790
 1868SOL     OW 7920   2.786   3.948   3.275 -0.4717  0.1770  0.1390
 1868SOL    HW1 7921   2.809   4.037   3.249  1.4272 -0.4248 -0.3929
 1868SOL    HW2 7922   2.717   3.959   3.341 -1.0787  1.9687 -0.7336
 1869SOL     OW 7923   3.785   8.810   4.654 -0.2561  0.3722  0.4558
 1869SOL    HW1 7924   3.719   8.766   4.707 -0.4870 -0.6095 -0.6231
 1869SOL    HW2 7925   3.824   8.875   4.714 -2.2523  1.0654  1.0754
 1870SOL     OW 7926   0.094   3.556   6.076 -0.3031  0.1854  0.2528
 1870SOL    HW1 7927   0.156   3.512   6.018  1.1061  0.7662  1.2868
 1870SOL    HW2 7928   0.013   3.505   6.067  0.8391 -1.7073  0.2635
 1871SOL     OW 7929   0.651   2.904   9.734 -0.3384 -0.2396 -0.4286
 1871SOL    HW1 7930   0.672   2.977   9.791  0.2076 -1.5789  1.1485
 1871SOL    HW2 7931   0.556   2.892   9.744 -0.6520  0.9855 -1.6499
 1872SOL     OW 7932   0.489   3.015   7.476  0.0307  0.6136  0.1430
 1872SOL    HW1 7933   0.547   3.081   7.436 -0.3358 -0.3912 -2.2106
 1872SOL    HW2 7934   0.401   3.044   7.455 -0.1778  0.0282  0.1868
 1873SOL     OW 7935   9.034   7.982   1.988  0.2235  0.2167 -0.0145
 1873SOL    HW1 7936   8.991   7.996   1.904  1.4147 -0.3956 -0.7621
 1873SOL    HW2 7937   9.111   7.928   1.967  0.2413 -0.4379  1.5421
 1874SOL     OW 7938   1.791   7.384   5.744 -0.2875  0.4995 -0.0063
 1874SOL    HW1 7939   1.857   7.350   5.803  0.3952  0.8299 -0.5669
 1874SOL    HW2 7940   1.759   7.307   5.696  0.8933  0.5496 -0.9185
 1875SOL     OW 7941   2.845   3.159   5.330  0.2647 -0.0060 -0.0799
 1875SOL    HW1 7942   2.851   3.099   5.404  1.8118 -1.7118 -1.5031
 1875SOL    HW2 7943   2.878   3.109   5.255 -0.4950  1.9004 -1.7930
 1876SOL     OW 7944   2.830   9.727   5.905  0.0836  0.4130 -0.3560
 1876SOL    HW1 7945   2.756   9.742   5.845 -0.7798 -1.2827  0.2341
 1876SOL    HW2 7946   2.882   9.808   5.899 -2.3130  2.0668 -0.0526
 1877SOL     OW 7947   7.708   0.101   6.897 -0.1834  0.4453  0.5650
 1877SOL    HW1 7948   7.739   0.092   6.807  0.9629 -0.5645  1.0410
 1877SOL    HW2 7949   7.716   0.195   6.916  0.5830  0.5058 -0.0285
 1878SOL     OW 7950   8.767   2.099   3.447 -0.2242  0.5114  0.2059
 1878SOL    HW1 7951   8.724   2.026   3.404 -0.8077  1.4463 -0.8747
 1878SOL    HW2 7952   8.816   2.060   3.519  0.7625 -1.1436 -1.2879
 1879SOL     OW 7953   0.134   8.924   7.879  0.8266 -0.5646  0.3919
 1879SOL    HW1 7954   0.064   8.875   7.836  0.7918 -0.3780  0.2343
 1879SOL    HW2 7955   0.210   8.866   7.876  0.8906 -0.4621 -0.1401
 1880SOL     OW 7956   1.070   8.231   3.739 -0.4577 -0.2811 -0.5793
 1880SOL    HW1 7957   1.083   8.137   3.722 -2.1687 -0.3723 -1.5978
 1880SOL    HW2 7958   0.989   8.253   3.693  0.4254  1.9400 -1.2014
 1881SOL     OW 7959   5.474   9.021  10.249 -0.0002 -0.4977  0.1797
 1881SOL    HW1 7960   5.442   9.104  10.214 -0.6454 -0.6154  0.4754
 1881SOL    HW2 7961   5.397   8.982  10.292  0.5538 -0.7505  0.9665
 1882SOL     OW 7962   1.950   5.435   1.456 -0.3229 -0.0789  0.5671
 1882SOL    HW1 7963   2.032   5.456   1.502  0.3964  0.1071 -0.7395
 1882SOL    HW2 7964   1.969   5.454   1.364 -1.7155 -0.4346  0.1822
 1883SOL     OW 7965   8.643   7.956   2.278 -0.2318 -0.2505 -0.0866
 1883SOL    HW1 7966   8.606   8.027   2.224 -0.1445 -1.3372 -1.6197
 1883SOL    HW2 7967   8.711   7.999   2.330 -2.0196  1.3427  1.0940
 1884SOL     OW 7968  10.432   4.669   3.843 -0.1137 -0.0752 -0.5810
 1884SOL    HW1 7969  10.424   4.764   3.850 -3.0501 -0.2411 -0.2726
 1884SOL    HW2 7970  10.476   4.654   3.759 -1.3657  1.5468 -1.5814
 1885SOL     OW 7971   4.863   9.905  10.008 -0.2368  0.0962 -0.1631
 1885SOL    HW1 7972   4.784   9.854  10.026  0.6603 -0.9417  1.0833
 1885SOL    HW2 7973   4.832   9.982   9.960 -1.7949 -1.0289 -1.0609
 1886SOL     OW 7974   1.153   2.965   8.613  0.3833  0.7450 -0.4842
 1886SOL    HW1 7975   1.246   2.982   8.598 -0.0402  1.6741 -2.3585
 1886SOL    HW2 7976   1.114   3.052   8.626 -0.2753  0.3894  0.0192
 1887SOL     OW 7977   5.326   0.251   4.909  0.2804 -0.5632  0.5075
 1887SOL    HW1 7978   5.282   0.235   4.993 -2.2837  1.0004 -0.4573
 1887SOL    HW2 7979   5.259   0.234   4.843  0.7668  2.7224 -1.0142
 1888SOL     OW 7980   5.411   3.631   9.002  0.5113  0.1993  0.0706
 1888SOL    HW1 7981   5.343   3.628   9.070  0.8745  0.5996  0.4588
 1888SOL    HW2 7982   5.376   3.577   8.931 -0.0563  0.1129  0.4077
 1889SOL     OW 7983   3.245   4.486   9.242  0.1204  0.2924  0.6036
 1889SOL    HW1 7984   3.186   4.557   9.217  0.6863  2.0187  3.6230
 1889SOL    HW2 7985   3.202   4.444   9.316  1.3479 -0.3151  1.0078
 1890SOL     OW 7986   8.970   4.685   7.157  0.2399  0.3411 -0.0375
 1890SOL    HW1 7987   8.940   4.776   7.150  1.6966  0.9212  0.6921
 1890SOL    HW2 7988   9.018   4.670   7.076 -2.2502 -0.7326 -1.4077
 1891SOL     OW 7989   2.343   3.640   4.934  0.0523 -0.0873  0.0598
 1891SOL    HW1 7990   2.290   3.715   4.961  1.5289  0.8252  0.5177
 1891SOL    HW2 7991   2.427   3.652   4.979  1.3394 -0.4471 -2.1174
 1892SOL     OW 7992   4.859   4.630   8.460 -0.3564 -0.4518 -0.0694
 1892SOL    HW1 7993   4.815   4.641   8.544  0.1483 -0.0715  0.1500
 1892SOL    HW2 7994   4.792   4.592   8.403 -1.0213  0.2564  0.2149
 1893SOL     OW 7995   5.269   8.896  10.354  0.2689 -0.0489 -0.2132
 1893SOL    HW1 7996   5.234   8.848  10.279  0.3591 -0.7021  0.1542
 1893SOL    HW2 7997   5.213   8.973  10.362  0.1322 -0.0815 -0.8189
 1894SOL     OW 7998   8.478   8.317   0.704 -0.2703  0.1959 -0.2665
 1894SOL    HW1 7999   8.493   8.241   0.648 -1.0642 -1.0455  1.1192
 1894SOL    HW2 8000   8.549   8.377   0.683  0.9859 -1.3705 -0.6833
 1895SOL     OW 8001   7.738   9.401   1.584 -0.2801  0.0344 -0.0494
 1895SOL    HW1 8002   7.823   9.358   1.576 -0.0526  0.3722  0.5612
 1895SOL    HW2 8003   7.677   9.330   1.604  0.1287  0.0164  1.1754
 1896SOL     OW 8004   3.992   4.227   6.023 -0.2002 -0.0522 -0.3615
 1896SOL    HW1 8005   3.930   4.268   5.963 -0.2809  1.7443  0.8466
 1896SOL    HW2 8006   4.076   4.267   6.002  0.4794 -1.9424 -1.5054
 1897SOL     OW 8007   6.177   2.666   3.716 -0.6324  0.1945 -0.4066
 1897SOL    HW1 8008   6.234   2.732   3.757  0.8736 -1.4233  0.2439
 1897SOL    HW2 8009   6.229   2.632   3.643 -0.3014 -1.9710  0.7504
 1898SOL     OW 8010   9.486   9.436   8.158 -0.1281  0.1559 -0.1260
 1898SOL    HW1 8011   9.455   9.353   8.121 -1.3179  0.9278 -0.9409
 1898SOL    HW2 8012   9.555   9.411   8.219  1.0555 -1.2714 -1.9744
 1899SOL     OW 8013   3.554   5.619   1.582 -0.2438 -0.2518  0.0264
 1899SOL    HW1 8014   3.555   5.662   1.668 -1.4537  0.0526 -0.0887
 1899SOL    HW2 8015   3.642   5.584   1.572 -0.1041 -0.3956  1.4470
 1900SOL     OW 8016   3.228   8.582   9.597 -0.0968 -0.0667  0.2534
 1900SOL    HW1 8017   3.246   8.542   9.512  0.4178  2.1966 -0.7800
 1900SOL    HW2 8018   3.135   8.605   9.593 -0.0813  0.0063  0.3177
 1901SOL     OW 8019   3.782   9.426   3.104 -0.6690 -0.3011 -0.2689
 1901SOL    HW1 8020   3.776   9.331   3.111 -1.4115 -0.4279 -2.0623
 1901SOL    HW2 8021   3.829   9.441   3.021  2.6559  0.9234  1.6270
 1902SOL     OW 8022   0.280   0.139   8.924  0.2011 -0.0456  0.1034
 1902SOL    HW1 8023   0.217   0.209   8.910  1.0436  0.5405 -0.8561
 1902SOL    HW2 8024   0.231   0.059   8.905 -0.2217  0.4142 -0.7859
 1903SOL     OW 8025   6.307   2.876   3.373 -0.2045  0.3366 -0.3393
 1903SOL    HW1 8026   6.323   2.967   3.400 -1.4930  1.0884 -1.9501
 1903SOL    HW2 8027   6.332   2.873   3.281  2.3439 -1.6933  0.2769
 1904SOL     OW 8028   6.439   6.552   5.237  0.1398  0.0962 -0.4678
 1904SOL    HW1 8029   6.399   6.497   5.170 -0.8182  1.4355 -1.0376
 1904SOL    HW2 8030   6.367   6.576   5.294  0.3739  1.4232 -0.7052
 1905SOL     OW 8031   3.037   4.612   3.373 -0.7164  0.3541 -0.1477
 1905SOL    HW1 8032   3.024   4.628   3.466  0.8318 -1.3465  0.4134
 1905SOL    HW2 8033   3.108   4.671   3.348 -1.2437  0.9321 -0.3287
 1906SOL     OW 8034   8.312   9.657  10.578 -0.0927  0.3062 -0.3477
 1906SOL    HW1 8035   8.366   9.578  10.582  1.1802  1.1280 -0.6179
 1906SOL    HW2 8036   8.338   9.707  10.656  0.0663  1.0296 -0.8547
 1907SOL     OW 8037   5.462   0.166   3.822 -0.1292 -0.0693  0.0808
 1907SOL    HW1 8038   5.474   0.249   3.774 -0.3426 -0.1925 -0.1892
 1907SOL    HW2 8039   5.426   0.106   3.757  1.3707 -0.7980 -0.1243
 1908SOL     OW 8040   2.863   6.790   2.152  0.2048 -0.1793  0.1300
 1908SOL    HW1 8041   2.840   6.846   2.078  0.7948 -0.6194 -0.4025
 1908SOL    HW2 8042   2.849   6.845   2.229 -1.7635 -0.1406 -0.1962
 1909SOL     OW 8043   7.650   5.952   4.848 -0.2126  0.2130  0.4682
 1909SOL    HW1 8044   7.639   5.950   4.943  0.2790 -0.7953  0.5150
 1909SOL    HW2 8045   7.742   5.974   4.835 -0.0625 -0.5311  0.2474
 1910SOL     OW 8046   0.145   8.015   7.506 -0.4095  0.5839 -0.2563
 1910SOL    HW1 8047   0.057   7.995   7.539  0.0464  0.2783  0.8100
 1910SOL    HW2 8048   0.188   8.061   7.578 -0.0842  1.8268 -1.2059
 1911SOL     OW 8049   2.846   7.403   4.167  0.3133 -0.3901  0.0892
 1911SOL    HW1 8050   2.884   7.386   4.081 -0.6073  2.4541 -0.9703
 1911SOL    HW2 8051   2.864   7.495   4.184 -0.7274 -0.5277  2.3691
 1912SOL     OW 8052   2.245   9.942   1.287 -0.3029 -0.0921 -0.1975
 1912SOL    HW1 8053   2.250   9.970   1.195  0.1346 -0.5663 -0.3240
 1912SOL    HW2 8054   2.322   9.982   1.328 -0.6788  0.3979  0.0491
 1913SOL     OW 8055   1.003   6.709   1.452 -0.2922 -0.5325 -0.2230
 1913SOL    HW1 8056   0.918   6.689   1.412 -0.1530  0.5959 -1.1046
 1913SOL    HW2 8057   0.989   6.696   1.546 -1.7634  0.7093 -0.2417
 1914SOL     OW 8058   7.097   9.610   5.871  0.0709 -0.0381  0.1525
 1914SOL    HW1 8059   7.084   9.651   5.786  1.1078  0.7669  0.3718
 1914SOL    HW2 8060   7.065   9.674   5.934 -2.0435 -1.1933  0.3573
 1915SOL     OW 8061   7.450   8.352  10.328  0.1351 -0.2590  0.2927
 1915SOL    HW1 8062   7.454   8.447  10.336  2.8664 -0.2700 -0.0435
 1915SOL    HW2 8063   7.408   8.323  10.410 -2.8415  1.2609 -0.5645
 1916SOL     OW 8064   5.797  10.005  10.502  0.0036 -0.6120 -0.0708
 1916SOL    HW1 8065   5.720   9.971  10.458 -0.9171 -1.7732  2.2471
 1916SOL    HW2 8066   5.797   9.962  10.588  2.3888  0.4990  0.5892
 1917SOL     OW 8067   7.100   1.801   4.738  0.4737  0.2992  0.2056
 1917SOL    HW1 8068   7.111   1.744   4.662  0.1948  0.1454  0.2780
 1917SOL    HW2 8069   7.029   1.761   4.788 -0.3950  1.2378 -0.2402
 1918SOL     OW 8070   8.403   1.382   4.829 -0.2965 -0.3811  0.2754
 1918SOL    HW1 8071   8.341   1.454   4.840  0.4779  0.6516 -1.5948
 1918SOL    HW2 8072   8.351   1.312   4.790 -0.5330  0.1195 -0.3419
 1919SOL     OW 8073   9.429   7.924   6.403 -0.5914  0.3479  0.0769
 1919SOL    HW1 8074   9.489   7.851   6.389 -1.1552  0.2330 -2.2305
 1919SOL    HW2 8075   9.450   7.957   6.490  1.7485 -0.6576 -0.0354
 1920SOL     OW 8076   8.962   8.621   2.597 -0.0829  0.6886  0.0402
 1920SOL    HW1 8077   8.953   8.711   2.566 -2.4593 -0.0019 -1.5289
 1920SOL    HW2 8078   9.050   8.594   2.568 -0.1760  1.8079 -1.3718
 1921SOL     OW 8079   9.693   2.733   1.785 -0.0547  0.5460  0.0878
 1921SOL    HW1 8080   9.784   2.722   1.812 -0.1568 -0.4332  0.0493
 1921SOL    HW2 8081   9.656   2.793   1.849  0.1629 -0.4178  1.1326
 1922SOL     OW 8082   9.871   0.864   6.582 -0.4667  0.0435 -0.6247
 1922SOL    HW1 8083   9.867   0.787   6.526 -0.2351  0.2122 -0.8755
 1922SOL    HW2 8084   9.868   0.938   6.522 -2.6937  0.2969 -0.3174
 1923SOL     OW 8085   8.007   3.015   7.709 -0.4666 -1.0923  0.1019
 1923SOL    HW1 8086   7.925   3.059   7.734 -0.7931 -1.4726 -0.2986
 1923SOL    HW2 8087   8.012   3.025   7.614 -0.5540 -1.9365  0.0010
 1924SOL     OW 8088   3.023   0.314   5.221  0.2431 -0.3762  0.5758
 1924SOL    HW1 8089   3.079   0.387   5.193 -2.7785  0.8953 -2.9812
 1924SOL    HW2 8090   3.045   0.242   5.162 -0.5259 -0.4768  0.4012
 1925SOL     OW 8091   9.982   4.236   5.545  0.4492 -0.1742  0.2849
 1925SOL    HW1 8092   9.926   4.165   5.576  1.1433 -0.6312  0.5148
 1925SOL    HW2 8093   9.977   4.302   5.613  0.4347 -0.3472  0.4528
 1926SOL     OW 8094   7.990   5.604  10.515  0.2387 -0.1530  0.1866
 1926SOL    HW1 8095   8.083   5.613  10.496  0.8749 -2.6166  1.6435
 1926SOL    HW2 8096   7.982   5.620  10.609 -0.4804 -1.6274  0.4137
 1927SOL     OW 8097   8.963   7.212  10.082  0.0671 -0.0722 -0.2249
 1927SOL    HW1 8098   9.025   7.229  10.011 -0.9799 -2.4812 -1.8297
 1927SOL    HW2 8099   8.977   7.120  10.104 -3.8831 -1.2481 -1.7763
 1928SOL     OW 8100  10.231   0.319   2.698  0.1033  0.0219  0.7202
 1928SOL    HW1 8101  10.226   0.414   2.693  3.1026  0.1938 -1.3501
 1928SOL    HW2 8102  10.192   0.288   2.615  0.8138 -0.4318  0.5484
 1929SOL     OW 8103   8.130   0.550   3.867 -0.7853  0.2642 -0.1899
 1929SOL    HW1 8104   8.080   0.487   3.918  0.7198 -0.5848  0.3258
 1929SOL    HW2 8105   8.137   0.627   3.923  1.3908 -0.8839  1.2825
 1930SOL     OW 8106   1.672   0.106   3.610 -0.4018  0.4243  0.2607
 1930SOL    HW1 8107   1.649   0.198   3.625 -1.0790 -0.1819  3.7830
 1930SOL    HW2 8108   1.732   0.109   3.535 -0.0659  3.7657  0.4846
 1931SOL     OW 8109   7.589   0.196   2.927  0.3091 -0.0894  0.6401
 1931SOL    HW1 8110   7.542   0.172   3.007 -0.1608  0.0248  0.4009
 1931SOL    HW2 8111   7.620   0.113   2.891  0.2783 -0.1676  0.7933
 1932SOL     OW 8112   7.245   6.325   3.957  0.5599 -0.0230 -0.2782
 1932SOL    HW1 8113   7.243   6.386   4.030  0.0395 -1.6548  1.1336
 1932SOL    HW2 8114   7.261   6.239   3.997 -0.5862 -1.1028 -1.9839
 1933SOL     OW 8115  10.234   9.271   3.954 -0.4192  0.4258 -0.0870
 1933SOL    HW1 8116  10.179   9.193   3.961 -0.7650  0.6489 -0.3068
 1933SOL    HW2 8117  10.212   9.309   3.869 -0.4200  0.8919  0.1186
 1934SOL     OW 8118   3.383   1.290   3.867  0.0301  0.2563  0.1425
 1934SOL    HW1 8119   3.478   1.283   3.860 -0.0344  0.9654 -2.3546
 1934SOL    HW2 8120   3.368   1.329   3.953  2.0960  1.3950  0.0574
 1935SOL     OW 8121  10.301   5.963   9.626 -0.0807  0.5185  0.3993
 1935SOL    HW1 8122  10.336   5.939   9.540 -0.4510  2.5212 -0.3611
 1935SOL    HW2 8123  10.379   5.974   9.681  0.1953 -0.0658  0.1398
 1936SOL     OW 8124   5.649   5.581   5.554 -0.0951 -0.7411  0.4023
 1936SOL    HW1 8125   5.662   5.527   5.632 -0.0920  0.9958  1.6734
 1936SOL    HW2 8126   5.698   5.661   5.572 -1.1602  0.2305 -0.8235
 1937SOL     OW 8127   8.730   4.718   0.063  0.3307 -0.2093 -0.1340
 1937SOL    HW1 8128   8.699   4.760   0.143 -0.0967 -1.5282  0.4189
 1937SOL    HW2 8129   8.659   4.659   0.038  0.0879  0.7753 -1.9751
 1938SOL     OW 8130   2.028   1.708   2.171  0.1069  0.6538 -0.0310
 1938SOL    HW1 8131   2.104   1.766   2.165 -0.1460  0.8729 -1.2018
 1938SOL    HW2 8132   2.004   1.711   2.264 -0.3378  2.9837 -0.1596
 1939SOL     OW 8133   4.451   9.753   9.518 -0.1799  0.5869 -0.0253
 1939SOL    HW1 8134   4.468   9.672   9.565 -1.9882  0.0805 -0.1919
 1939SOL    HW2 8135   4.385   9.798   9.571 -0.9580  0.8219 -1.1740
 1940SOL     OW 8136   4.339   6.829   9.307 -0.1276 -0.8649  0.6616
 1940SOL    HW1 8137   4.401   6.765   9.272  0.8621  0.1982  0.4106
 1940SOL    HW2 8138   4.318   6.885   9.233 -0.3948 -0.4536  1.0421
 1941SOL     OW 8139   4.688   3.864   6.703 -0.3695 -0.7232 -0.1784
 1941SOL    HW1 8140   4.596   3.867   6.728  0.5126 -0.1453  3.5219
 1941SOL    HW2 8141   4.726   3.798   6.760  1.6406 -0.6616 -1.3489
 1942SOL     OW 8142   5.327   2.032   7.845  0.4115 -0.2860  0.0699
 1942SOL    HW1 8143   5.254   2.073   7.798 -0.2575  0.2419  1.5136
 1942SOL    HW2 8144   5.318   1.939   7.826  0.7565 -0.0135 -1.6171
 1943SOL     OW 8145   0.177   2.483   8.847  0.6133 -0.0393 -0.1670
 1943SOL    HW1 8146   0.176   2.521   8.935 -0.5016  2.2854 -1.0996
 1943SOL    HW2 8147   0.270   2.468   8.828  1.0995  2.0304  0.3930
 1944SOL     OW 8148   0.096   0.406  10.143 -0.6741 -0.0616 -0.2208
 1944SOL    HW1 8149   0.063   0.377  10.058 -0.5778 -0.8386  0.0007
 1944SOL    HW2 8150   0.018   0.419  10.197 -0.6844 -0.9139 -0.0110
 1945SOL     OW 8151   5.465   9.533  10.059 -0.0240 -0.2238  0.0148
 1945SOL    HW1 8152   5.450   9.623  10.032 -0.8628 -0.4490 -0.3112
 1945SOL    HW2 8153   5.461   9.536  10.155  0.9003  0.2316  0.0508
 1946SOL     OW 8154   7.255   9.909   1.852 -0.3300  0.9062  0.1907
 1946SOL    HW1 8155   7.213   9.834   1.810 -2.3608  2.1844 -0.1953
 1946SOL    HW2 8156   7.303   9.871   1.926 -0.0924 -0.9077 -0.8222
 1947SOL     OW 8157   8.945   9.993   1.516 -0.1052 -0.2193 -0.1549
 1947SOL    HW1 8158   9.019  10.007   1.574  0.7829 -0.0579 -1.2797
 1947SOL    HW2 8159   8.979  10.014   1.429 -1.1788 -1.1590 -0.8283
 1948SOL     OW 8160   9.404   4.176   8.679  0.2450 -0.1822 -0.1050
 1948SOL    HW1 8161   9.388   4.238   8.750  0.6846 -0.9233  0.6511
 1948SOL    HW2 8162   9.476   4.216   8.629  0.2364  0.1192  0.1191
 1949SOL     OW 8163   5.429   1.368   7.695  0.1968 -0.1956 -0.3823
 1949SOL    HW1 8164   5.372   1.330   7.762  1.1529 -0.5017  0.2736
 1949SOL    HW2 8165   5.398   1.330   7.613 -1.6879  0.9979 -0.2926
 1950SOL     OW 8166   9.170   2.662  10.066  0.1786  0.0711 -0.0040
 1950SOL    HW1 8167   9.242   2.663  10.002  0.0385  1.1995 -0.1728
 1950SOL    HW2 8168   9.213   2.679  10.150  0.6576 -3.4544  0.6200
 1951SOL     OW 8169   0.375   4.968   2.388 -0.1148 -0.4586  0.0434
 1951SOL    HW1 8170   0.457   4.988   2.344  0.0804 -0.3939  0.4351
 1951SOL    HW2 8171   0.330   4.907   2.329 -0.3121  0.4099 -0.7352
 1952SOL     OW 8172   0.417   1.990   9.804 -0.0418 -0.2098  0.0501
 1952SOL    HW1 8173   0.509   2.006   9.784 -0.1638 -0.4492 -0.7620
 1952SOL    HW2 8174   0.407   1.895   9.798 -0.2057 -0.2432  0.7799
 1953SOL     OW 8175   8.184  10.544   1.278 -0.6742  0.2674 -0.0580
 1953SOL    HW1 8176   8.173  10.604   1.203 -0.2999 -0.0113 -0.3362
 1953SOL    HW2 8177   8.268  10.569   1.316 -0.6845  0.1517  0.0378
 1954SOL     OW 8178  10.059   7.133   0.722 -0.5979 -0.0137 -0.0358
 1954SOL    HW1 8179  10.036   7.066   0.787 -0.7806 -0.0997 -0.1865
 1954SOL    HW2 8180  10.150   7.154   0.741 -1.3086  1.7383  1.8292
 1955SOL     OW 8181   1.711   4.908   1.976 -0.2166 -0.0280 -0.1528
 1955SOL    HW1 8182   1.626   4.869   1.993 -0.1637  0.2478  0.7988
 1955SOL    HW2 8183   1.772   4.861   2.032 -0.0401  0.9445  0.4999
 1956SOL     OW 8184   3.044   4.457   1.358  0.1368  0.4816 -0.3965
 1956SOL    HW1 8185   3.055   4.494   1.445  0.5056 -2.1236  0.7524
 1956SOL    HW2 8186   3.128   4.416   1.338  0.3722  1.7803 -2.4248
 1957SOL     OW 8187   5.157   0.637   4.188 -0.3744  0.0188 -0.3139
 1957SOL    HW1 8188   5.201   0.599   4.264 -2.4500  0.2128  1.0680
 1957SOL    HW2 8189   5.096   0.570   4.159 -0.7976  0.5796 -0.7475
 1958SOL     OW 8190   0.117   9.242   1.265  0.0695  0.1843 -0.0966
 1958SOL    HW1 8191   0.023   9.223   1.258  0.0697 -0.0826  0.5592
 1958SOL    HW2 8192   0.140   9.215   1.353  0.4093  1.7966  0.3347
 1959SOL     OW 8193   5.832   2.791   2.009  0.0480 -0.2984 -0.0249
 1959SOL    HW1 8194   5.740   2.798   1.985 -0.6859 -0.1225  2.5442
 1959SOL    HW2 8195   5.879   2.796   1.926 -2.0514  2.8261 -1.2185
 1960SOL     OW 8196   1.545   0.081   9.963 -0.4088  0.5054  0.0327
 1960SOL    HW1 8197   1.575   0.142   9.896  1.8516 -0.5466 -0.0071
 1960SOL    HW2 8198   1.474   0.033   9.922  0.0744  0.7788 -1.1689
 1961SOL     OW 8199   1.140   8.326   5.169 -0.2223  0.4287 -0.1454
 1961SOL    HW1 8200   1.165   8.392   5.233  1.6517  1.5530 -1.8847
 1961SOL    HW2 8201   1.081   8.371   5.109  0.1151  0.1894 -0.6723
 1962SOL     OW 8202  10.270   2.539   5.984 -0.0226 -0.4483 -0.4248
 1962SOL    HW1 8203  10.181   2.509   6.000  0.2941 -0.1065  2.4660
 1962SOL    HW2 8204  10.322   2.459   5.982 -0.1374 -0.5316 -0.1026
 1963SOL     OW 8205   3.556   8.667   2.855  0.2631  0.4773  0.1859
 1963SOL    HW1 8206   3.538   8.621   2.773 -1.8419  1.2847  0.1433
 1963SOL    HW2 8207   3.535   8.604   2.924  0.7680  0.2337  0.1212
 1964SOL     OW 8208   1.019   0.299   1.507 -0.6550  0.4393 -0.6499
 1964SOL    HW1 8209   1.095   0.355   1.520  0.6272 -0.7408 -2.5031
 1964SOL    HW2 8210   0.958   0.353   1.456 -0.9838  1.3031  0.6225
 1965SOL     OW 8211   8.902   3.333   6.454  0.1212 -0.2353 -0.3528
 1965SOL    HW1 8212   8.925   3.278   6.379 -1.3165 -0.8726 -0.3520
 1965SOL    HW2 8213   8.825   3.382   6.426  1.0200  1.3841 -0.1373
 1966SOL     OW 8214   2.319   4.516   0.325 -0.0416  0.2075 -0.3746
 1966SOL    HW1 8215   2.255   4.459   0.367  0.2058 -0.5204 -0.9748
 1966SOL    HW2 8216   2.360   4.563   0.398  0.1145 -0.7684  0.1823
 1967SOL     OW 8217   0.779   3.114   6.299  0.0221  0.6178  0.2273
 1967SOL    HW1 8218   0.693   3.130   6.338  0.4208  2.0029  0.6208
 1967SOL    HW2 8219   0.800   3.196   6.254  0.5917 -0.1552 -0.9582
 1968SOL     OW 8220   9.556   4.578   6.310  0.1479  0.1131 -0.5242
 1968SOL    HW1 8221   9.468   4.590   6.345  0.9322  1.3272  1.1721
 1968SOL    HW2 8222   9.600   4.661   6.326  1.3585 -0.1663 -2.1511
 1969SOL     OW 8223   6.459   2.495   9.934  0.0138 -0.3049  0.0705
 1969SOL    HW1 8224   6.487   2.414   9.976  1.9474  0.4356  0.3218
 1969SOL    HW2 8225   6.540   2.539   9.910 -0.8758 -0.7565 -4.7631
 1970SOL     OW 8226   0.486   8.130   1.742 -0.3849 -0.3907  0.0911
 1970SOL    HW1 8227   0.570   8.117   1.698 -0.9413 -0.7430 -0.8823
 1970SOL    HW2 8228   0.480   8.225   1.755  0.8975 -0.4792  1.6710
 1971SOL     OW 8229   9.428   3.085   9.023  0.1248 -0.3496  0.5766
 1971SOL    HW1 8230   9.372   3.041   9.087 -0.3400 -0.3168  0.1962
 1971SOL    HW2 8231   9.368   3.114   8.954  0.6771 -0.7555 -0.0826
 1972SOL     OW 8232   2.997   2.360   5.294  0.3108  0.4279  0.5420
 1972SOL    HW1 8233   3.078   2.313   5.276  0.7552  1.3796 -0.0447
 1972SOL    HW2 8234   3.026   2.447   5.321 -0.5101  0.6430  0.7538
 1973SOL     OW 8235   6.577   2.249   6.389 -0.1707 -0.1799  0.6807
 1973SOL    HW1 8236   6.633   2.326   6.381 -3.5455  2.4490 -0.0189
 1973SOL    HW2 8237   6.549   2.230   6.299 -0.1415 -1.7187  0.9552
 1974SOL     OW 8238   5.589   4.257   6.068  0.4368 -0.2171  0.0334
 1974SOL    HW1 8239   5.526   4.199   6.023  0.5529  0.3495 -0.8913
 1974SOL    HW2 8240   5.597   4.332   6.010  1.9567 -0.2597  0.1521
 1975SOL     OW 8241   2.567   7.355   0.266 -0.0084 -0.4776  0.2070
 1975SOL    HW1 8242   2.645   7.369   0.212 -0.7001 -1.9083 -1.2662
 1975SOL    HW2 8243   2.531   7.443   0.278  0.7231 -0.0023 -0.8420
 1976SOL     OW 8244   8.893   9.869   1.793 -0.3248 -0.4532  0.2466
 1976SOL    HW1 8245   8.809   9.838   1.761  0.0551  0.2034 -1.5385
 1976SOL    HW2 8246   8.951   9.793   1.788 -0.5747 -0.6653  0.5650
 1977SOL     OW 8247   4.046   5.511   7.770 -0.3956  0.0190 -0.8495
 1977SOL    HW1 8248   4.020   5.463   7.692 -0.3784  0.7524 -1.3207
 1977SOL    HW2 8249   3.991   5.477   7.840 -1.7377  0.6555 -1.5677
 1978SOL     OW 8250   9.600   9.607   1.439  0.8591 -0.7702 -0.5333
 1978SOL    HW1 8251   9.629   9.685   1.486 -0.0842  0.0242 -1.2333
 1978SOL    HW2 8252   9.616   9.627   1.347 -0.5831 -0.8539 -0.8291
 1979SOL     OW 8253   5.680   4.174  10.107 -0.6695  0.2831 -0.3796
 1979SOL    HW1 8254   5.730   4.093  10.098  2.0232  1.8709 -1.1328
 1979SOL    HW2 8255   5.632   4.182  10.024 -1.6334 -0.9065  0.0403
 1980SOL     OW 8256   5.529   0.922   9.393 -0.2246  0.2352 -0.0308
 1980SOL    HW1 8257   5.486   0.902   9.476 -1.6075  1.3936 -0.4347
 1980SOL    HW2 8258   5.596   0.987   9.415 -0.2660  0.1827  0.2512
 1981SOL     OW 8259   9.597   1.796   3.925 -0.2655  0.2891  0.6322
 1981SOL    HW1 8260   9.666   1.745   3.881 -1.5171 -1.8948  1.0244
 1981SOL    HW2 8261   9.643   1.851   3.988  1.4040  1.8777 -1.7938
 1982SOL     OW 8262   7.057   2.511   5.520  0.3484 -0.0570  0.1048
 1982SOL    HW1 8263   7.043   2.426   5.479 -0.3062  0.3992 -0.6630
 1982SOL    HW2 8264   7.111   2.559   5.457  0.1279  0.3326  0.2060
 1983SOL     OW 8265   4.891   2.168   2.945  0.3452  0.4090 -0.4104
 1983SOL    HW1 8266   4.893   2.076   2.919  1.5128  0.8469 -2.0533
 1983SOL    HW2 8267   4.967   2.179   3.003  0.0751  0.2864 -0.0347
 1984SOL     OW 8268   5.914   7.852   6.034  0.3012  0.6423  0.1583
 1984SOL    HW1 8269   5.977   7.802   5.982 -0.3012  1.0766 -1.0260
 1984SOL    HW2 8270   5.847   7.788   6.059 -0.0512  0.6891 -0.6634
 1985SOL     OW 8271   0.875   6.092   1.408  0.2787 -0.0229  0.1418
 1985SOL    HW1 8272   0.836   6.039   1.340 -2.1675  1.7130  0.0550
 1985SOL    HW2 8273   0.846   6.052   1.490 -0.4330  0.3881  0.0941
 1986SOL     OW 8274   2.228   0.954   0.723 -0.1879  0.0648 -0.0666
 1986SOL    HW1 8275   2.255   1.042   0.748 -0.5151 -0.0083  0.5683
 1986SOL    HW2 8276   2.204   0.962   0.630  1.7065  0.1828 -0.5817
 1987SOL     OW 8277   6.185   5.602   9.918 -0.5536 -0.7107  0.2821
 1987SOL    HW1 8278   6.239   5.671   9.956  0.6478 -0.8953 -1.0093
 1987SOL    HW2 8279   6.219   5.521   9.954  0.7491 -0.9037 -1.3007
 1988SOL     OW 8280   2.605   5.206   4.690  0.8432  0.0628 -0.9557
 1988SOL    HW1 8281   2.644   5.157   4.618 -0.8765  1.5100 -3.0068
 1988SOL    HW2 8282   2.624   5.154   4.768  1.5661 -2.3297 -2.6155
 1989SOL     OW 8283   0.998   9.675   1.426 -0.3324  0.1910  0.3176
 1989SOL    HW1 8284   1.051   9.618   1.369 -1.8985 -1.0085  0.0150
 1989SOL    HW2 8285   0.999   9.632   1.511 -0.4229  0.4237  0.4365
 1990SOL     OW 8286   7.603   4.731   9.772 -0.0388  0.1916 -0.1680
 1990SOL    HW1 8287   7.612   4.816   9.815  0.1815  0.3971 -0.6157
 1990SOL    HW2 8288   7.654   4.671   9.827 -0.5685  0.2489  0.4057
 1991SOL     OW 8289  10.268   7.411   5.195  0.1276  0.2140  0.5437
 1991SOL    HW1 8290  10.358   7.442   5.182  0.2562  0.3090  1.6327
 1991SOL    HW2 8291  10.263   7.332   5.141  0.6422  0.5939 -0.0836
 1992SOL     OW 8292   9.758   4.994   5.533 -0.5221  0.3650  0.1354
 1992SOL    HW1 8293   9.811   4.916   5.522 -1.2432 -0.1117 -0.0430
 1992SOL    HW2 8294   9.713   4.981   5.617 -0.0762  0.9394  0.4722
 1993SOL     OW 8295   1.466   0.841   2.115  0.1853 -0.3953  0.2591
 1993SOL    HW1 8296   1.477   0.933   2.138 -0.0456 -0.2720 -0.1103
 1993SOL    HW2 8297   1.538   0.796   2.159  0.2802 -0.0427  0.4658
 1994SOL     OW 8298  10.491   5.867   2.743  0.0557 -0.1421 -0.5178
 1994SOL    HW1 8299  10.507   5.870   2.649  0.9707 -1.4177 -0.4173
 1994SOL    HW2 8300  10.407   5.822   2.752  0.0959 -0.2550 -0.7094
 1995SOL     OW 8301   2.933   4.342   4.224  0.2651 -0.4082  0.1571
 1995SOL    HW1 8302   2.917   4.251   4.200  0.5293 -0.5609  0.5495
 1995SOL    HW2 8303   3.010   4.367   4.174 -0.0532 -0.2700 -0.2669
 1996SOL     OW 8304   5.522   6.003  10.250  0.4871 -0.1089  0.3577
 1996SOL    HW1 8305   5.518   5.925  10.305 -1.0148  0.5170  1.1862
 1996SOL    HW2 8306   5.494   6.075  10.307  0.1544  0.7629 -0.8635
 1997SOL     OW 8307   0.165   7.289   3.736 -0.2720  0.7824  0.5974
 1997SOL    HW1 8308   0.130   7.256   3.819 -1.1959 -1.4987 -0.5894
 1997SOL    HW2 8309   0.091   7.334   3.695 -0.6617 -0.3919 -0.0712
 1998SOL     OW 8310   0.151   9.725   3.963 -0.0191  0.2800 -0.5801
 1998SOL    HW1 8311   0.077   9.769   4.006 -0.9686 -0.0211 -1.8254
 1998SOL    HW2 8312   0.122   9.714   3.873  0.8972 -1.3472 -0.7116
 1999SOL     OW 8313   5.739   0.731   4.720  0.3656  0.5173  0.5583
 1999SOL    HW1 8314   5.722   0.814   4.765 -2.7602  0.3164 -0.0221
 1999SOL    HW2 8315   5.793   0.754   4.645 -0.4743  2.0626  0.3948
 2000SOL     OW 8316   8.647   9.439   9.335 -0.2185 -0.3217  0.1359
 2000SOL    HW1 8317   8.607   9.468   9.253  0.8095  0.2948 -0.1730
 2000SOL    HW2 8318   8.690   9.517   9.370 -1.9084 -0.1919  2.0722
 2001SOL     OW 8319   3.839   2.315   7.780  0.6447  1.2665 -0.0230
 2001SOL    HW1 8320   3.825   2.265   7.699  1.7853 -0.2545  0.6735
 2001SOL    HW2 8321   3.823   2.252   7.850  2.4722  1.7451  0.8875
 2002SOL     OW 8322   1.624   5.640   1.594 -0.0719 -0.2680  0.3299
 2002SOL    HW1 8323   1.715   5.661   1.573 -0.1905 -0.6787 -0.6457
 2002SOL    HW2 8324   1.630   5.566   1.655  0.2424 -0.4165  0.1205
 2003SOL     OW 8325   8.727   1.449   8.316 -0.0449  0.2459  0.4408
 2003SOL    HW1 8326   8.755   1.389   8.247  0.0180 -0.3159  0.9455
 2003SOL    HW2 8327   8.736   1.398   8.397  3.1255  1.9274  1.3003
 2004SOL     OW 8328   7.017   1.464   9.847 -0.2541 -0.4308 -0.2377
 2004SOL    HW1 8329   7.032   1.542   9.899  0.9254  0.6161 -2.0543
 2004SOL    HW2 8330   6.959   1.492   9.777  0.2567 -1.1445 -0.9698
 2005SOL     OW 8331   8.147   3.659   1.504  0.3162 -0.0829 -0.5219
 2005SOL    HW1 8332   8.163   3.745   1.543 -0.1823 -0.0867 -0.3068
 2005SOL    HW2 8333   8.226   3.609   1.524  1.1222  0.6864 -1.6741
 2006SOL     OW 8334   4.918   4.578   7.280 -0.0954  0.3572  0.3161
 2006SOL    HW1 8335   4.953   4.538   7.360  0.1580  0.5610  0.3087
 2006SOL    HW2 8336   4.828   4.547   7.275  0.2783 -0.7068 -0.0198
 2007SOL     OW 8337  10.342   5.557   0.536 -0.1243 -0.1829 -0.0554
 2007SOL    HW1 8338  10.415   5.619   0.540  2.1014 -2.5294 -1.1233
 2007SOL    HW2 8339  10.335   5.524   0.626  0.6439 -0.4377 -0.0749
 2008SOL     OW 8340   7.610   4.400   3.035 -0.0623 -0.6204  0.2243
 2008SOL    HW1 8341   7.601   4.491   3.007 -0.3340 -0.7001  0.0456
 2008SOL    HW2 8342   7.559   4.395   3.116 -1.4284 -0.9986 -0.6269
 2009SOL     OW 8343   7.718   2.571   8.770 -0.0321 -0.3028  0.0978
 2009SOL    HW1 8344   7.677   2.552   8.854 -0.8778  0.4267 -0.1440
 2009SOL    HW2 8345   7.773   2.494   8.753  0.6492 -0.1920  1.6011
 2010SOL     OW 8346   4.143   9.662   8.823  0.4643  0.0656  0.0182
 2010SOL    HW1 8347   4.200   9.720   8.773  0.0570  1.4496  1.1039
 2010SOL    HW2 8348   4.098   9.719   8.885 -0.7481 -1.2587  0.4267
 2011SOL     OW 8349   6.989   3.035   3.904  0.2176  0.1692  0.2578
 2011SOL    HW1 8350   6.997   3.130   3.894 -3.0292  0.5061  0.0290
 2011SOL    HW2 8351   7.031   3.000   3.825 -0.8253  1.5726 -0.9748
 2012SOL     OW 8352   0.858   1.344   3.011 -0.7416  0.1641 -0.6264
 2012SOL    HW1 8353   0.850   1.253   3.040 -1.3876 -0.2598 -2.0657
 2012SOL    HW2 8354   0.923   1.382   3.071  2.2991 -2.2038 -2.1180
 2013SOL     OW 8355   0.021   7.181   1.629  0.0908  0.1053 -0.1311
 2013SOL    HW1 8356   0.065   7.246   1.684 -1.3678  0.7102  0.3676
 2013SOL    HW2 8357   0.021   7.101   1.682  2.2739 -0.4969 -0.9162
 2014SOL     OW 8358  10.158   1.318   9.595 -0.6359  1.1904  0.0328
 2014SOL    HW1 8359  10.072   1.332   9.554 -0.6395 -0.7898 -0.7356
 2014SOL    HW2 8360  10.207   1.266   9.531  1.0307  1.9668  0.6240
 2015SOL     OW 8361   7.763   0.295   6.044  0.5884  0.4117  0.0226
 2015SOL    HW1 8362   7.742   0.333   5.958 -0.3589  0.7817  0.3925
 2015SOL    HW2 8363   7.679   0.296   6.091  0.6762 -1.5693  0.2813
 2016SOL     OW 8364   2.397   3.077   3.109 -0.4172 -0.0703  0.2704
 2016SOL    HW1 8365   2.401   3.173   3.103 -0.0027 -0.0670  0.5639
 2016SOL    HW2 8366   2.330   3.060   3.175  0.2534  0.0448  0.9967
 2017SOL     OW 8367   4.658   9.230   3.207  0.5410 -0.0619  0.2139
 2017SOL    HW1 8368   4.606   9.175   3.148 -0.0693  0.8437 -0.1028
 2017SOL    HW2 8369   4.646   9.190   3.293 -0.0568 -0.3044  0.0228
 2018SOL     OW 8370   7.578   0.668   8.921  0.9702 -0.2286 -0.0682
 2018SOL    HW1 8371   7.537   0.686   9.005 -0.2506  0.9672 -0.8743
 2018SOL    HW2 8372   7.505   0.645   8.863  1.7598 -0.7920 -0.8715
 2019SOL     OW 8373   4.773   7.153   3.231  0.0278 -0.0309  0.1356
 2019SOL    HW1 8374   4.691   7.120   3.195 -0.7048  0.9588  0.8285
 2019SOL    HW2 8375   4.832   7.158   3.155 -1.7927  3.0581 -1.3037
 2020SOL     OW 8376   0.200   6.773   8.830  0.4260 -0.4208  0.4815
 2020SOL    HW1 8377   0.173   6.843   8.770 -0.6217  0.1435  1.5776
 2020SOL    HW2 8378   0.285   6.746   8.797 -0.1276 -0.1706 -1.3035
 2021SOL     OW 8379   2.689   1.894   5.104 -0.1336 -0.6263  0.0083
 2021SOL    HW1 8380   2.725   1.818   5.149 -0.8083 -0.5476  0.7105
 2021SOL    HW2 8381   2.625   1.930   5.166  0.3082  0.6193 -0.2387
 2022SOL     OW 8382   9.549   9.064  10.471  0.2828  0.0252  0.2232
 2022SOL    HW1 8383   9.584   9.008  10.541 -2.0153 -2.3648 -0.3710
 2022SOL    HW2 8384   9.592   9.033  10.391  0.6325  0.6420  0.1677
 2023SOL     OW 8385   5.597   6.906   4.116  0.1836 -0.2055  0.3211
 2023SOL    HW1 8386   5.558   6.966   4.179  0.3618 -1.3122  1.5358
 2023SOL    HW2 8387   5.632   6.834   4.169  1.4057 -0.6090 -0.9493
 2024SOL     OW 8388   3.794   9.657   0.866 -0.4473  0.8089  0.1459
 2024SOL    HW1 8389   3.779   9.733   0.810 -4.1731  0.6661  0.6800
 2024SOL    HW2 8390   3.746   9.675   0.946  0.3803 -1.2157  1.1910
 2025SOL     OW 8391   2.444   4.818   9.699  0.4967  0.1292  0.7441
 2025SOL    HW1 8392   2.535   4.799   9.675  0.5590  1.4071 -0.0750
 2025SOL    HW2 8393   2.397   4.820   9.616  0.2967  2.4198  0.8591
 2026SOL     OW 8394   2.821   2.674   3.556  0.2557  0.3282 -0.2031
 2026SOL    HW1 8395   2.738   2.680   3.508 -0.7066 -2.4171  0.9384
 2026SOL    HW2 8396   2.801   2.711   3.642  0.1735 -0.3869  0.0917
 2027SOL     OW 8397   6.097   2.067   4.224  0.0946  0.5155  0.3804
 2027SOL    HW1 8398   6.067   2.113   4.303  0.1274 -0.5508  1.0322
 2027SOL    HW2 8399   6.030   2.087   4.158 -0.9794 -0.1677  1.2372
 2028SOL     OW 8400   2.295   9.662   3.573  0.0166  0.0911  0.3386
 2028SOL    HW1 8401   2.268   9.740   3.525 -0.6294 -0.2953  0.0608
 2028SOL    HW2 8402   2.214   9.626   3.608  0.5325  0.7176  2.2949
 2029SOL     OW 8403   5.877   0.447   2.614 -0.1582 -0.0930  0.1195
 2029SOL    HW1 8404   5.820   0.409   2.547 -0.9483 -2.5476  2.0491
 2029SOL    HW2 8405   5.957   0.394   2.611  0.0683  0.2094  0.6594
 2030SOL     OW 8406   7.132   2.397   5.972 -0.4575 -0.1449  0.2289
 2030SOL    HW1 8407   7.042   2.391   5.940 -0.5739  0.6261  0.3868
 2030SOL    HW2 8408   7.151   2.491   5.971  1.5078 -0.3902 -3.0588
 2031SOL     OW 8409   8.331   9.475   8.392 -0.1113 -0.4950 -0.2077
 2031SOL    HW1 8410   8.358   9.564   8.367  0.6801 -1.0579 -1.4579
 2031SOL    HW2 8411   8.253   9.458   8.339 -0.4101 -0.4475  0.2209
 2032SOL     OW 8412   8.083   6.839   2.310  0.0164 -0.4078  0.4054
 2032SOL    HW1 8413   8.066   6.784   2.387 -1.0145 -0.3655  0.2197
 2032SOL    HW2 8414   8.166   6.883   2.330  0.1616 -0.9990  1.1470
 2033SOL     OW 8415  10.364   2.504   8.900  0.5016 -0.1439  0.5082
 2033SOL    HW1 8416  10.407   2.447   8.964 -1.0324 -3.7744 -1.3542
 2033SOL    HW2 8417  10.403   2.480   8.816 -1.0747  0.6728 -0.5252
 2034SOL     OW 8418   1.236   7.435   0.169 -0.1150 -0.1631  0.3628
 2034SOL    HW1 8419   1.297   7.504   0.193 -0.1823  0.5357 -1.3727
 2034SOL    HW2 8420   1.291   7.359   0.149  0.1112  0.0883  0.0214
 2035SOL     OW 8421   0.681   0.367   9.278 -0.5119  0.3095  0.1494
 2035SOL    HW1 8422   0.662   0.273   9.273  0.6043  0.0672  0.0043
 2035SOL    HW2 8423   0.742   0.382   9.206 -1.1954  1.2906 -0.2404
 2036SOL     OW 8424   3.657   7.569   5.792 -0.4291 -0.6260  0.3911
 2036SOL    HW1 8425   3.642   7.501   5.727 -1.1160  0.0474 -0.1715
 2036SOL    HW2 8426   3.698   7.523   5.866  0.6182 -1.3432 -0.6048
 2037SOL     OW 8427   6.237   9.874   7.725 -1.1883 -0.2554  0.3326
 2037SOL    HW1 8428   6.196   9.849   7.642 -0.1612  0.7803 -0.5138
 2037SOL    HW2 8429   6.191   9.822   7.791 -1.3571 -1.8497 -0.9817
 2038SOL     OW 8430   7.148   3.606   4.814  0.3968  0.1198  0.3668
 2038SOL    HW1 8431   7.060   3.583   4.786  0.6302  0.1538 -0.4050
 2038SOL    HW2 8432   7.186   3.523   4.842  0.4195 -0.0387 -0.1333
 2039SOL     OW 8433   5.792   3.886   7.568  0.2740 -0.2670 -0.0244
 2039SOL    HW1 8434   5.807   3.938   7.647  0.7403 -2.6481  1.5346
 2039SOL    HW2 8435   5.705   3.849   7.579 -0.4313  0.7941 -1.5569
 2040SOL     OW 8436   3.306   4.920  10.113 -0.4356  0.1051  0.4319
 2040SOL    HW1 8437   3.299   4.903  10.207 -0.8226 -1.6319  0.1224
 2040SOL    HW2 8438   3.229   4.972  10.092 -0.1580  0.8127  1.1330
 2041SOL     OW 8439  10.255   3.144   9.770 -0.3873  0.1971  0.3851
 2041SOL    HW1 8440  10.319   3.213   9.750  0.8607 -1.1117 -0.3761
 2041SOL    HW2 8441  10.171   3.190   9.775  0.4945  1.8659  0.6426
 2042SOL     OW 8442   1.993   1.006   3.224  0.4156  0.4248 -0.4014
 2042SOL    HW1 8443   2.061   1.003   3.292 -0.3045  1.0626  0.3690
 2042SOL    HW2 8444   2.000   0.921   3.180 -0.8473 -1.2016  2.2322
 2043SOL     OW 8445   3.725   4.978   3.245  0.3353  0.3957 -0.1234
 2043SOL    HW1 8446   3.785   4.915   3.285 -1.1899 -0.1519  1.4310
 2043SOL    HW2 8447   3.648   4.926   3.223 -0.7369  1.5870  0.6816
 2044SOL     OW 8448   1.698   2.996   9.489  0.4551 -0.1703 -0.2027
 2044SOL    HW1 8449   1.621   2.949   9.522  0.3562  0.2710  0.2023
 2044SOL    HW2 8450   1.664   3.053   9.421  0.4696 -0.1925 -0.2286
 2045SOL     OW 8451   6.182   6.505   5.829  0.1550  0.1312  1.2689
 2045SOL    HW1 8452   6.137   6.579   5.871 -0.2234  0.0451  1.0216
 2045SOL    HW2 8453   6.168   6.432   5.889 -2.1195 -0.4945  0.0746
 2046SOL     OW 8454   1.116   4.109   7.473  0.4260 -0.0563 -0.6274
 2046SOL    HW1 8455   1.194   4.163   7.464  1.1486 -0.7420  1.0320
 2046SOL    HW2 8456   1.124   4.043   7.404  1.1297  0.0951 -0.6994
 2047SOL     OW 8457   3.334   3.138   6.459  0.3143  0.1672  0.6434
 2047SOL    HW1 8458   3.260   3.105   6.511 -1.0744  1.1871 -0.5969
 2047SOL    HW2 8459   3.396   3.066   6.458 -0.5555 -0.6496  1.9279
 2048SOL     OW 8460   9.661   0.203   1.327 -0.2762 -0.2308  0.4045
 2048SOL    HW1 8461   9.592   0.137   1.330  0.2910 -0.8760 -0.3543
 2048SOL    HW2 8462   9.668   0.226   1.235  1.1819 -0.9045  0.3220
 2049SOL     OW 8463   5.282   1.802   7.388  0.2338 -0.4160  0.6461
 2049SOL    HW1 8464   5.248   1.890   7.404 -0.6418 -0.4866 -0.7082
 2049SOL    HW2 8465   5.207   1.744   7.401 -0.2679 -0.5820 -2.2822
 2050SOL     OW 8466   3.106   2.073   2.372  0.4901  0.1160  0.1470
 2050SOL    HW1 8467   3.149   2.084   2.457 -0.7110 -0.7692  0.9093
 2050SOL    HW2 8468   3.082   1.980   2.369  2.1731 -0.3091 -2.0153
 2051SOL     OW 8469   6.993   1.596   6.196  0.0405  0.0639 -0.2521
 2051SOL    HW1 8470   6.908   1.610   6.238 -0.6430  0.6927 -1.7649
 2051SOL    HW2 8471   6.983   1.635   6.109  0.9955 -2.2180 -1.4666
 2052SOL     OW 8472   3.004   5.104   4.826  0.2026 -0.0115  0.2356
 2052SOL    HW1 8473   3.002   5.043   4.752  0.2514 -1.2097  1.1890
 2052SOL    HW2 8474   3.094   5.134   4.831 -0.5756  3.5982 -2.8914
 2053SOL     OW 8475   4.647   2.933   8.846  0.0918  0.1769 -0.2917
 2053SOL    HW1 8476   4.615   2.979   8.768  0.1235  0.9081  0.1085
 2053SOL    HW2 8477   4.575   2.877   8.873 -0.6838  1.4146  0.2921
 2054SOL     OW 8478   3.514   4.943   0.183  0.3823 -0.2848 -0.3462
 2054SOL    HW1 8479   3.580   4.916   0.247  1.2656 -2.5575 -2.0670
 2054SOL    HW2 8480   3.517   5.038   0.183  1.2243 -0.2536  2.0693
 2055SOL     OW 8481   1.077   0.207   2.846  0.1319  0.1148 -0.4049
 2055SOL    HW1 8482   1.121   0.123   2.835  1.4918  0.8701 -1.0401
 2055SOL    HW2 8483   1.124   0.250   2.918  1.4154  1.4834 -1.9684
 2056SOL     OW 8484   1.377   5.766   0.494  0.2856  0.0094  0.2180
 2056SOL    HW1 8485   1.361   5.786   0.402  0.5369 -0.7098  0.0184
 2056SOL    HW2 8486   1.453   5.819   0.517 -0.0084  0.4819  0.1239
 2057SOL     OW 8487   3.595   3.348   4.992  0.2450  0.1106  0.0048
 2057SOL    HW1 8488   3.503   3.341   4.966 -0.2655 -1.0023  1.9318
 2057SOL    HW2 8489   3.596   3.421   5.054  0.7269  0.2552 -0.1674
 2058SOL     OW 8490   9.427   2.573   4.932 -0.3026  0.0684 -0.0043
 2058SOL    HW1 8491   9.407   2.499   4.990 -0.8717  0.6234  0.5403
 2058SOL    HW2 8492   9.354   2.634   4.947  0.0364  0.6294 -0.6164
 2059SOL     OW 8493   0.372   9.957   7.839 -0.1970  0.4015  0.0262
 2059SOL    HW1 8494   0.328   9.937   7.921  1.4727 -1.0849  0.6357
 2059SOL    HW2 8495   0.336   9.894   7.776  2.0205 -1.9553  0.9144
 2060SOL     OW 8496   1.066   6.612   6.314 -0.6861 -0.2435 -0.3812
 2060SOL    HW1 8497   1.126   6.683   6.337  0.8958 -1.5812 -0.2661
 2060SOL    HW2 8498   1.122   6.536   6.299 -2.3051 -1.3925 -0.9000
 2061SOL     OW 8499   5.710  10.319   8.605  0.5702 -0.3318 -0.1034
 2061SOL    HW1 8500   5.759  10.254   8.555 -2.9769 -2.0993 -1.6786
 2061SOL    HW2 8501   5.678  10.381   8.539  0.3995  0.5529  0.7848
 2062SOL     OW 8502  10.424  10.471   6.342  0.4605  0.7428 -0.1611
 2062SOL    HW1 8503  10.457  10.424   6.418  1.2048  0.6056 -0.5626
 2062SOL    HW2 8504  10.490  10.457   6.274 -0.7871 -0.1596 -1.2210
 2063SOL     OW 8505   5.791   0.202   6.172 -0.0384  0.5906  0.4386
 2063SOL    HW1 8506   5.807   0.233   6.082  2.9807 -1.0039  0.2796
 2063SOL    HW2 8507   5.797   0.107   6.166  0.2014  0.4486  2.3173
 2064SOL     OW 8508   4.965   2.309   7.070 -0.3036 -0.6811 -0.4273
 2064SOL    HW1 8509   4.985   2.364   7.146 -0.6905 -1.7352  0.4718
 2064SOL    HW2 8510   4.883   2.345   7.035  0.0046 -0.0393 -0.5052
 2065SOL     OW 8511   8.243   8.956   3.085  0.1333  0.3676  0.0530
 2065SOL    HW1 8512   8.312   8.896   3.114  0.2021  0.2589 -0.3318
 2065SOL    HW2 8513   8.164   8.924   3.128  0.6629  1.6831  2.1173
 2066SOL     OW 8514   6.102   9.109   2.829 -0.1960 -0.3469  0.3329
 2066SOL    HW1 8515   6.181   9.084   2.781  0.0227  0.0770  0.4664
 2066SOL    HW2 8516   6.115   9.072   2.917  1.3991  2.4607  1.4005
 2067SOL     OW 8517   1.281   0.710  10.105  0.0143  0.1731  0.1389
 2067SOL    HW1 8518   1.217   0.775  10.133 -0.2422 -0.1828  0.3862
 2067SOL    HW2 8519   1.292   0.727  10.011 -0.8313 -0.0900 -0.0148
 2068SOL     OW 8520   3.848   1.490   1.054 -0.1283 -0.8698  0.1329
 2068SOL    HW1 8521   3.798   1.512   1.133  0.4934  0.2686  0.2313
 2068SOL    HW2 8522   3.877   1.400   1.069 -2.7944 -1.9035 -0.3035
 2069SOL     OW 8523   9.750   0.042   0.070  0.2908 -0.2657  0.1615
 2069SOL    HW1 8524   9.695   0.021   0.146  0.3108  0.9764  0.5528
 2069SOL    HW2 8525   9.839   0.022   0.099  0.3963  1.0491  0.8183
 2070SOL     OW 8526   9.875   8.861   0.821 -0.3660  0.6729  0.6320
 2070SOL    HW1 8527   9.889   8.767   0.810  0.9855  0.8212  0.9612
 2070SOL    HW2 8528   9.782   8.873   0.802 -0.1151 -0.4041 -1.6412
 2071SOL     OW 8529   6.336   3.709   0.401 -0.1168 -0.0938  0.5256
 2071SOL    HW1 8530   6.426   3.706   0.370 -0.1269 -0.3397  0.5176
 2071SOL    HW2 8531   6.343   3.700   0.496 -0.1270 -0.0082  0.5346
 2072SOL     OW 8532   7.893   0.719   6.117  0.5320 -0.3617 -0.0670
 2072SOL    HW1 8533   7.817   0.743   6.171  0.3999 -1.5974  0.3174
 2072SOL    HW2 8534   7.901   0.624   6.127  2.4885 -0.1986  0.3990
 2073SOL     OW 8535   1.585   5.736   1.956 -0.0345  0.1214  0.1171
 2073SOL    HW1 8536   1.541   5.821   1.949  0.3059  0.5455  2.2677
 2073SOL    HW2 8537   1.676   5.758   1.975  0.1747 -0.7262  0.1321
 2074SOL     OW 8538   9.430   2.059   4.478 -0.3640 -0.2095  0.9044
 2074SOL    HW1 8539   9.489   1.990   4.447  2.1780  2.1204  0.0749
 2074SOL    HW2 8540   9.424   2.120   4.404 -3.4201 -0.0313  1.2069
 2075SOL     OW 8541   3.307   8.942   6.895  0.1892  0.4554 -0.4630
 2075SOL    HW1 8542   3.341   9.031   6.904  0.3248  0.4816 -1.1755
 2075SOL    HW2 8543   3.259   8.926   6.976  0.4844  1.0382 -0.1697
 2076SOL     OW 8544   5.753   5.971   3.099 -0.1998 -0.1000  0.0772
 2076SOL    HW1 8545   5.765   6.066   3.097 -2.2953  0.2140 -1.0128
 2076SOL    HW2 8546   5.695   5.956   3.174 -0.1729 -0.4641  0.0235
 2077SOL     OW 8547   1.189   4.558  10.375 -0.3959  0.3224  0.5966
 2077SOL    HW1 8548   1.216   4.649  10.361 -0.2301  0.1635 -0.1820
 2077SOL    HW2 8549   1.260   4.520  10.426 -0.5263  0.6634  1.0341
 2078SOL     OW 8550   1.911   0.537   6.181  0.2240  0.1892  0.0034
 2078SOL    HW1 8551   1.836   0.533   6.122  0.2535  1.2379 -0.1209
 2078SOL    HW2 8552   1.899   0.618   6.230 -0.0937 -0.9223  1.8633
 2079SOL     OW 8553   9.389   6.951   0.282  0.6116  0.6087  0.1158
 2079SOL    HW1 8554   9.392   6.930   0.188  1.0849  2.4847 -0.3368
 2079SOL    HW2 8555   9.328   7.025   0.287 -1.0095 -0.7452  1.6017
 2080SOL     OW 8556   9.766   4.713  10.284 -0.2289  0.1763  0.4410
 2080SOL    HW1 8557   9.853   4.722  10.246  0.5590  1.4676  2.4109
 2080SOL    HW2 8558   9.721   4.653  10.225  1.4163  0.7837 -1.5796
 2081SOL     OW 8559   9.579   3.069   6.562 -0.8451  0.4495 -0.7094
 2081SOL    HW1 8560   9.506   3.126   6.587 -0.5943  0.1184  0.8422
 2081SOL    HW2 8561   9.567   2.990   6.616 -1.3542 -1.1517 -2.9837
 2082SOL     OW 8562   2.607   7.980   3.611 -0.1584  0.9807 -0.2441
 2082SOL    HW1 8563   2.568   7.972   3.698  0.0280 -0.1494 -0.2392
 2082SOL    HW2 8564   2.535   8.007   3.554 -0.2212  1.9912  0.2985
 2083SOL     OW 8565   5.069  10.110   3.370 -0.0235  0.2858  0.1073
 2083SOL    HW1 8566   5.080  10.181   3.307  0.3722  0.2410  0.1225
 2083SOL    HW2 8567   5.063  10.031   3.318 -3.7730  0.5672 -0.1618
 2084SOL     OW 8568   4.620   0.964   8.259  0.5836  0.0575 -0.5197
 2084SOL    HW1 8569   4.641   1.025   8.188 -1.1768  1.6867  0.2783
 2084SOL    HW2 8570   4.692   0.974   8.321  1.8715 -1.0017 -1.7744
 2085SOL     OW 8571   5.082  10.487   3.308 -0.3433 -0.7503  0.1715
 2085SOL    HW1 8572   5.094  10.404   3.262 -1.4506 -1.6726  1.4262
 2085SOL    HW2 8573   5.165  10.502   3.353 -0.0384 -1.0396 -0.2866
 2086SOL     OW 8574   6.366   8.250   8.151 -0.2471  0.1553 -0.0915
 2086SOL    HW1 8575   6.342   8.342   8.165  1.2028  0.2638  2.3354
 2086SOL    HW2 8576   6.455   8.254   8.115 -0.8743 -0.3329 -1.8030
 2087SOL     OW 8577   3.338   4.986   5.896  0.7419  0.2274  0.4793
 2087SOL    HW1 8578   3.337   5.063   5.952 -0.8299  0.6455 -0.0899
 2087SOL    HW2 8579   3.397   4.925   5.940 -1.6158 -0.0956  3.5134
 2088SOL     OW 8580   0.473   6.594   6.789  0.1128 -0.4892 -0.6069
 2088SOL    HW1 8581   0.449   6.687   6.784 -1.3716 -0.7886  0.3258
 2088SOL    HW2 8582   0.491   6.569   6.698  0.2842  0.6424 -0.8992
 2089SOL     OW 8583   6.818   9.304   1.133 -0.2427  0.7135 -0.8344
 2089SOL    HW1 8584   6.729   9.313   1.168 -1.0920 -1.1185 -2.3149
 2089SOL    HW2 8585   6.846   9.217   1.159  1.6614  1.7014  0.6273
 2090SOL     OW 8586   3.968   2.976   6.383 -0.9985 -0.0197  0.5533
 2090SOL    HW1 8587   3.973   2.991   6.288  1.9604 -2.1217  0.2271
 2090SOL    HW2 8588   3.875   2.982   6.403 -1.5230  3.0045 -1.9609
 2091SOL     OW 8589   3.069  10.172   0.588 -0.4713 -0.1836  0.6382
 2091SOL    HW1 8590   3.005  10.240   0.612 -0.6897 -0.2783  0.3313
 2091SOL    HW2 8591   3.142  10.187   0.648 -0.6421  0.1346  0.7764
 2092SOL     OW 8592   6.316   0.402   6.449 -0.1576 -0.3735 -0.5396
 2092SOL    HW1 8593   6.299   0.488   6.488  1.4729  0.0544 -0.6923
 2092SOL    HW2 8594   6.329   0.420   6.356  1.7457 -0.5074 -0.3491
 2093SOL     OW 8595   5.679   8.511   1.140 -0.4447 -0.5468  0.4280
 2093SOL    HW1 8596   5.709   8.548   1.057 -1.5042  0.1639  0.3259
 2093SOL    HW2 8597   5.721   8.565   1.207 -0.1219 -0.6855  0.3384
 2094SOL     OW 8598  10.215   4.943   7.527 -0.1883 -0.1978  0.8364
 2094SOL    HW1 8599  10.122   4.923   7.535 -0.1013 -0.3508  1.6003
 2094SOL    HW2 8600  10.252   4.920   7.613  0.7124 -0.9814  0.2588
 2095SOL     OW 8601   9.541   4.209   5.600 -0.3525  0.0382  0.0201
 2095SOL    HW1 8602   9.480   4.219   5.673  0.0052 -1.5058  0.5731
 2095SOL    HW2 8603   9.583   4.295   5.592  0.0306  0.0966  2.0490
 2096SOL     OW 8604   1.068   4.753   6.186 -0.1654 -0.0891 -0.6687
 2096SOL    HW1 8605   1.036   4.827   6.239 -0.2392 -0.3042 -0.4088
 2096SOL    HW2 8606   1.130   4.792   6.125  0.5443  0.0513  0.1274
 2097SOL     OW 8607   2.785   8.488   3.980  0.3382  0.1451  0.5780
 2097SOL    HW1 8608   2.820   8.496   4.069  2.3173  0.7009 -0.1988
 2097SOL    HW2 8609   2.794   8.395   3.959 -0.3110 -0.0234  1.0032
 2098SOL     OW 8610   1.530   9.316   9.241  0.3343  0.7673 -0.1804
 2098SOL    HW1 8611   1.606   9.297   9.186  1.0072 -0.4826  1.1229
 2098SOL    HW2 8612   1.455   9.294   9.185  0.8994  1.9152 -1.4448
 2099SOL     OW 8613   2.755   8.701   5.621 -0.4615 -0.4869  0.0503
 2099SOL    HW1 8614   2.718   8.665   5.702  0.0494 -0.6389  0.2183
 2099SOL    HW2 8615   2.692   8.768   5.595 -1.5516 -1.6273 -0.3920
 2100SOL     OW 8616   4.111   7.160   4.674  0.7295  0.0431  0.5175
 2100SOL    HW1 8617   4.157   7.195   4.598  1.0161  1.1876  1.1940
 2100SOL    HW2 8618   4.039   7.221   4.689  0.1757 -0.6305  0.6818
 2101SOL     OW 8619   5.268   8.252   5.331  0.2175  0.1124  0.0111
 2101SOL    HW1 8620   5.305   8.297   5.407  1.0690 -0.5647  0.0124
 2101SOL    HW2 8621   5.226   8.321   5.280 -0.8909  0.4974  1.3854
 2102SOL     OW 8622   5.066   7.900   6.606  0.0444 -0.3049  0.1833
 2102SOL    HW1 8623   5.095   7.955   6.534 -1.8400 -0.7793 -1.0153
 2102SOL    HW2 8624   5.147   7.870   6.648  1.1475  1.2587 -0.7346
 2103SOL     OW 8625  10.281   3.014  10.088 -0.0390  0.0782  0.4394
 2103SOL    HW1 8626  10.232   3.012  10.170 -1.2257  0.9657 -0.2145
 2103SOL    HW2 8627  10.223   2.971  10.025 -0.0431  1.2305 -0.3728
 2104SOL     OW 8628  10.324   2.734   8.714  0.1036 -0.2255  0.6688
 2104SOL    HW1 8629  10.266   2.666   8.678  2.0805 -1.1059 -1.0418
 2104SOL    HW2 8630  10.385   2.687   8.770  1.4495  0.1270 -0.4698
 2105SOL     OW 8631   2.506   8.122   1.061 -0.3361 -0.6311  0.6373
 2105SOL    HW1 8632   2.596   8.100   1.038 -0.6596 -2.6052  1.0853
 2105SOL    HW2 8633   2.483   8.059   1.130 -1.0962  1.7086  2.6607
 2106SOL     OW 8634  10.502   8.983  10.385  0.3154  0.1262  0.6678
 2106SOL    HW1 8635  10.527   8.950  10.471 -0.7091  0.0668  0.9466
 2106SOL    HW2 8636  10.561   8.938  10.324  0.6111 -0.3148  1.2730
 2107SOL     OW 8637   3.698   7.117   9.611  0.3016 -0.4371  0.8111
 2107SOL    HW1 8638   3.735   7.060   9.679  1.1712 -0.7590  0.0886
 2107SOL    HW2 8639   3.696   7.061   9.533 -2.7701 -0.8139  1.0361
 2108SOL     OW 8640   0.562   4.155   0.678 -0.1070 -0.3269  0.3068
 2108SOL    HW1 8641   0.598   4.237   0.645  0.5159 -1.2420 -1.4083
 2108SOL    HW2 8642   0.470   4.175   0.695 -0.3868  0.3178 -1.7027
 2109SOL     OW 8643  10.411   6.657   6.878 -0.2190 -0.3043  0.0710
 2109SOL    HW1 8644  10.456   6.734   6.914 -1.2337  0.2677  0.1651
 2109SOL    HW2 8645  10.418   6.591   6.946 -2.4980  0.9020  1.6078
 2110SOL     OW 8646   9.522   1.285   8.144  0.3289 -0.0740  0.2063
 2110SOL    HW1 8647   9.434   1.296   8.180  0.3366 -0.4225  0.3279
 2110SOL    HW2 8648   9.562   1.216   8.197  0.1249 -1.0452 -0.8684
 2111SOL     OW 8649  10.592   1.801   8.149 -0.3986  0.0575  0.0482
 2111SOL    HW1 8650  10.672   1.760   8.180  0.0955  0.5528 -0.5249
 2111SOL    HW2 8651  10.522   1.759   8.198  0.1051 -1.2607 -0.3253
 2112SOL     OW 8652   6.664   2.859   0.200  0.7779  0.1704 -0.4396
 2112SOL    HW1 8653   6.619   2.944   0.199  0.0299 -0.1825  0.8992
 2112SOL    HW2 8654   6.687   2.843   0.108 -0.9976  0.8065 -1.0322
 2113SOL     OW 8655   6.735   5.599   0.638 -0.3358 -0.0043 -0.2155
 2113SOL    HW1 8656   6.702   5.554   0.716  0.0814  0.9601  0.5359
 2113SOL    HW2 8657   6.819   5.557   0.620 -1.6196 -2.0669 -1.7853
 2114SOL     OW 8658   2.794   7.008   1.437  0.0733 -0.3073  0.2007
 2114SOL    HW1 8659   2.774   6.972   1.351 -2.0318 -0.0572  0.5345
 2114SOL    HW2 8660   2.764   7.099   1.432  2.4125  0.5525  0.3804
 2115SOL     OW 8661   8.175   7.643   5.019  0.0390  0.3200 -0.2979
 2115SOL    HW1 8662   8.145   7.554   5.003 -0.6669  0.3429  0.7963
 2115SOL    HW2 8663   8.248   7.655   4.958  1.5613 -1.7666  0.9758
 2116SOL     OW 8664   6.675   9.623   1.648  0.2790  0.1698  0.3256
 2116SOL    HW1 8665   6.589   9.615   1.609  0.1723 -0.3049  0.6484
 2116SOL    HW2 8666   6.665   9.588   1.737  0.9930 -0.6775  0.0928
 2117SOL     OW 8667   4.254   9.926   1.129  0.4559 -0.0193  0.6057
 2117SOL    HW1 8668   4.279   9.888   1.214 -0.6615 -0.4358  0.7596
 2117SOL    HW2 8669   4.182   9.871   1.098 -0.6037  1.4229  0.4091
 2118SOL     OW 8670   4.697   2.854   4.401  0.7355  0.0219  0.3351
 2118SOL    HW1 8671   4.647   2.903   4.467 -0.0436 -0.1613 -0.1083
 2118SOL    HW2 8672   4.731   2.921   4.342  1.1965  0.1638  0.7573
 2119SOL     OW 8673   6.701   6.429   6.197 -0.0275  0.6878 -0.1847
 2119SOL    HW1 8674   6.754   6.398   6.123 -1.5769 -0.1262 -1.0061
 2119SOL    HW2 8675   6.646   6.498   6.160  0.0395  1.1242  0.5154
 2120SOL     OW 8676   0.273   5.516   3.859 -0.4018  0.1512 -0.1509
 2120SOL    HW1 8677   0.291   5.528   3.952 -0.3870 -0.9811 -0.0013
 2120SOL    HW2 8678   0.225   5.595   3.834 -0.0297  0.6626  0.7117
 2121SOL     OW 8679   6.938   7.448   3.303 -0.1338  0.0857  0.0658
 2121SOL    HW1 8680   7.033   7.448   3.287 -0.0379  0.1867  0.6170
 2121SOL    HW2 8681   6.917   7.539   3.323 -0.3720  0.0875 -0.1854
 2122SOL     OW 8682   3.113   8.282   7.418 -0.2260 -0.1651 -0.6479
 2122SOL    HW1 8683   3.041   8.229   7.385  0.6208 -1.5421 -0.3775
 2122SOL    HW2 8684   3.106   8.276   7.514 -0.9155  1.3657 -0.5685
 2123SOL     OW 8685   9.010   3.508   3.947 -0.5957 -0.0440  0.5503
 2123SOL    HW1 8686   9.009   3.586   3.892 -0.5217  0.7414  1.6283
 2123SOL    HW2 8687   9.094   3.511   3.992  1.3750 -3.0378 -2.4719
 2124SOL     OW 8688   8.593  10.594   4.791 -0.4730 -0.1135 -0.3822
 2124SOL    HW1 8689   8.662  10.530   4.813 -0.2058  0.4648  0.4880
 2124SOL    HW2 8690   8.637  10.678   4.792 -1.3194  0.3328  0.7864
 2125SOL     OW 8691   5.387   7.177   4.045 -0.0017  0.1264  0.0252
 2125SOL    HW1 8692   5.300   7.209   4.023 -1.4581 -2.8988  0.8516
 2125SOL    HW2 8693   5.421   7.142   3.962  0.4891  1.2950 -0.2940
 2126SOL     OW 8694   1.626   5.494   5.165  0.6179  0.5394 -0.2017
 2126SOL    HW1 8695   1.531   5.483   5.156  0.7589  0.0602 -1.2068
 2126SOL    HW2 8696   1.642   5.486   5.259 -0.1778 -0.7509 -0.1540
 2127SOL     OW 8697  10.214   2.091   2.038  0.6544  0.1495  0.5761
 2127SOL    HW1 8698  10.272   2.016   2.054 -0.6798 -0.6219  2.0191
 2127SOL    HW2 8699  10.270   2.167   2.049  2.1306 -0.6012 -1.2600
 2128SOL     OW 8700   0.043   4.562   7.307  0.2270  0.2223  0.0899
 2128SOL    HW1 8701   0.139   4.559   7.315  0.3504  1.4804 -0.6419
 2128SOL    HW2 8702   0.011   4.514   7.384  1.4360 -0.1798  0.3713
 2129SOL     OW 8703   4.412   2.537   2.849 -0.6136 -0.6163 -0.2513
 2129SOL    HW1 8704   4.420   2.598   2.776  0.7127  0.1760  0.5196
 2129SOL    HW2 8705   4.381   2.456   2.809 -2.1096  0.4463 -1.3385
 2130SOL     OW 8706   7.156   1.938   8.097  0.1856 -0.1730 -0.6285
 2130SOL    HW1 8707   7.139   1.959   8.189  2.9589 -2.2525  0.5275
 2130SOL    HW2 8708   7.221   2.003   8.070 -1.5376  1.2132 -1.5932
 2131SOL     OW 8709   9.080   7.480   9.569  0.0749  0.1209  0.2511
 2131SOL    HW1 8710   9.128   7.406   9.532 -0.5426  0.0467 -0.4302
 2131SOL    HW2 8711   8.988   7.460   9.551 -0.1595  0.6087  0.8850
 2132SOL     OW 8712   4.390   2.109   5.510 -0.1725  0.6064 -0.5209
 2132SOL    HW1 8713   4.326   2.084   5.443 -1.4878  0.5549  0.7251
 2132SOL    HW2 8714   4.375   2.202   5.525 -1.6530  0.1097  1.4795
 2133SOL     OW 8715   3.745   5.346   7.769 -0.4375 -0.4018  0.3031
 2133SOL    HW1 8716   3.758   5.392   7.685 -0.4675  1.5809  1.3181
 2133SOL    HW2 8717   3.830   5.352   7.812 -0.8219 -0.0510  1.0310
 2134SOL     OW 8718   0.257   6.963   6.630  0.7342 -0.0283 -0.2340
 2134SOL    HW1 8719   0.181   7.003   6.588  0.2249 -0.6135  0.1079
 2134SOL    HW2 8720   0.280   7.024   6.701  0.5090  0.0938 -0.2657
 2135SOL     OW 8721   3.208   8.513   7.683 -0.3070  0.1259  0.6406
 2135SOL    HW1 8722   3.275   8.492   7.618 -1.2551 -0.3530 -0.2070
 2135SOL    HW2 8723   3.257   8.550   7.757  0.9505 -0.8716  0.3344
 2136SOL     OW 8724   1.707   9.956   9.124  0.0525 -0.0788 -0.1014
 2136SOL    HW1 8725   1.718  10.015   9.050 -0.6677  0.6475  0.3531
 2136SOL    HW2 8726   1.618   9.923   9.117 -0.2000  0.3861  0.6960
 2137SOL     OW 8727   0.488   5.138   5.137 -0.0271 -0.2833  0.5304
 2137SOL    HW1 8728   0.433   5.060   5.137 -0.2104 -0.1575  1.0182
 2137SOL    HW2 8729   0.507   5.153   5.229 -0.5857  0.6665  0.5021
 2138SOL     OW 8730   6.384   7.443   3.830 -0.5542  0.1604  0.2938
 2138SOL    HW1 8731   6.365   7.537   3.833  1.1283  0.5283  1.0352
 2138SOL    HW2 8732   6.387   7.423   3.736 -1.7799  0.6333  0.1323
 2139SOL     OW 8733   7.226  10.443   6.838 -0.0144  0.6771 -0.5402
 2139SOL    HW1 8734   7.146  10.476   6.879  0.1179  0.0509  0.2454
 2139SOL    HW2 8735   7.214  10.348   6.837  0.3394  0.6362 -1.2330
 2140SOL     OW 8736   3.588   3.651   4.729  0.2860  0.1233 -0.4064
 2140SOL    HW1 8737   3.636   3.608   4.659 -0.0189  0.5763 -0.8974
 2140SOL    HW2 8738   3.496   3.630   4.711  0.1393  0.9554 -0.6279
 2141SOL     OW 8739   8.996  10.434   0.595 -1.0869  0.8152 -0.2883
 2141SOL    HW1 8740   8.931  10.457   0.661 -0.9488  2.3876 -0.6542
 2141SOL    HW2 8741   9.057  10.377   0.641 -0.6065  2.4099  1.1848
 2142SOL     OW 8742   6.113   2.618   9.046 -0.4353  0.2190 -0.0620
 2142SOL    HW1 8743   6.183   2.553   9.053 -1.4794 -0.9172  0.2237
 2142SOL    HW2 8744   6.035   2.573   9.079 -1.8178  0.6706 -2.4862
 2143SOL     OW 8745   9.732   3.040   9.305  0.4191 -0.2720 -0.0504
 2143SOL    HW1 8746   9.654   3.065   9.354 -0.5037 -1.0184 -1.0913
 2143SOL    HW2 8747   9.736   2.945   9.313  1.9394 -0.1608  0.9926
 2144SOL     OW 8748  10.493   3.389   2.983 -0.2565 -0.3448  0.0825
 2144SOL    HW1 8749  10.484   3.294   2.991 -0.8455 -0.3448 -0.5373
 2144SOL    HW2 8750  10.439   3.412   2.908 -0.6400  0.5624  0.6264
 2145SOL     OW 8751   4.277   0.470   1.281  0.2233 -0.2053 -0.1792
 2145SOL    HW1 8752   4.283   0.547   1.339  1.2513 -2.1295  2.4681
 2145SOL    HW2 8753   4.191   0.433   1.300  0.4738 -0.7257 -0.0512
 2146SOL     OW 8754   0.403   6.943   8.059 -0.0222  0.1683  0.1665
 2146SOL    HW1 8755   0.334   6.912   8.119  0.9062 -2.6620 -0.0505
 2146SOL    HW2 8756   0.482   6.947   8.113  0.1899  0.7806 -0.1763
 2147SOL     OW 8757   2.161   5.593   9.763  0.2382 -0.0894 -0.0942
 2147SOL    HW1 8758   2.240   5.597   9.710 -0.7175  0.8682 -1.5284
 2147SOL    HW2 8759   2.161   5.676   9.812  1.1743 -1.0174  1.5409
 2148SOL     OW 8760   7.547   9.383   7.198 -0.2821 -0.2718 -0.7174
 2148SOL    HW1 8761   7.596   9.455   7.159  2.0255 -0.6546  1.2364
 2148SOL    HW2 8762   7.500   9.423   7.272  0.2159 -0.5740 -0.2292
 2149SOL     OW 8763   1.977   8.061   0.113  0.8986  0.1133  0.0892
 2149SOL    HW1 8764   1.933   8.114   0.180  0.5706  0.7004 -0.5816
 2149SOL    HW2 8765   2.069   8.060   0.140  0.6426 -0.3572  1.0013
 2150SOL     OW 8766   1.694   8.395   9.908  0.3299 -0.6572  0.2493
 2150SOL    HW1 8767   1.749   8.318   9.892 -0.3622 -0.9267 -1.0016
 2150SOL    HW2 8768   1.651   8.411   9.824 -0.8117  0.0933  0.9512
 2151SOL     OW 8769   6.008   2.735   9.360 -0.5386  0.0120 -0.0366
 2151SOL    HW1 8770   6.102   2.723   9.372 -0.3351  0.9252 -0.6094
 2151SOL    HW2 8771   5.998   2.829   9.346 -1.9040  0.4754  3.2125
 2152SOL     OW 8772   8.949   5.583   7.489 -0.2840  0.2081 -0.6688
 2152SOL    HW1 8773   8.922   5.507   7.540 -1.5971  0.4097 -1.0380
 2152SOL    HW2 8774   8.956   5.550   7.399 -1.3463  0.6134 -0.9158
 2153SOL     OW 8775   2.244   8.683   6.671  0.2766  0.1735 -0.4211
 2153SOL    HW1 8776   2.301   8.608   6.655  1.0052  0.7808 -0.7072
 2153SOL    HW2 8777   2.282   8.754   6.620 -1.6731  0.1857 -2.0069
 2154SOL     OW 8778   2.511   8.816   0.045  0.5595 -0.2075 -0.4544
 2154SOL    HW1 8779   2.476   8.899   0.078  0.7812  0.1795 -1.1655
 2154SOL    HW2 8780   2.597   8.808   0.086  0.3876 -0.2712 -0.1008
 2155SOL     OW 8781   1.352   8.651   7.929  0.4364  0.2224  0.2433
 2155SOL    HW1 8782   1.316   8.628   7.843 -0.6322  1.4143  0.3336
 2155SOL    HW2 8783   1.415   8.582   7.948  2.8887  1.3302 -2.7991
 2156SOL     OW 8784   2.305   0.218   0.701  0.1022 -0.5038 -0.3274
 2156SOL    HW1 8785   2.240   0.192   0.636  0.4157 -0.7728 -0.5383
 2156SOL    HW2 8786   2.385   0.230   0.651  0.7806 -2.3443  0.2182
 2157SOL     OW 8787   3.908  10.519   0.336 -0.2961 -0.2169  0.2633
 2157SOL    HW1 8788   3.990  10.502   0.384  0.1566  1.1656  0.0219
 2157SOL    HW2 8789   3.933  10.581   0.267 -1.3488 -0.6035 -0.4835
 2158SOL     OW 8790   6.582   0.457   2.029 -0.4926 -0.2964 -0.3527
 2158SOL    HW1 8791   6.655   0.470   2.091 -0.7165  0.7200 -0.2899
 2158SOL    HW2 8792   6.616   0.394   1.966 -0.2530 -1.3709  0.7955
 2159SOL     OW 8793   7.703   8.680   5.853 -0.2418 -0.1373 -0.0452
 2159SOL    HW1 8794   7.726   8.749   5.915 -1.8950  0.5484 -0.1331
 2159SOL    HW2 8795   7.662   8.612   5.906 -0.1271 -0.3019 -0.1662
 2160SOL     OW 8796   1.415   7.541   8.733  0.0258  0.3894 -0.1242
 2160SOL    HW1 8797   1.418   7.602   8.807 -1.0374 -1.0456  1.1681
 2160SOL    HW2 8798   1.497   7.494   8.737 -0.6829 -0.8013  1.1905
 2161SOL     OW 8799   7.209   3.720   1.910  0.0572  0.2567  0.4383
 2161SOL    HW1 8800   7.242   3.799   1.867  1.0642  0.2823  1.2479
 2161SOL    HW2 8801   7.162   3.753   1.987  0.5312  0.0587  0.8097
 2162SOL     OW 8802   2.999   2.598   2.713 -0.2410  0.3367  0.3053
 2162SOL    HW1 8803   2.972   2.568   2.626  2.1276  1.3548 -0.8737
 2162SOL    HW2 8804   2.939   2.670   2.733 -1.3781 -0.4806 -0.0447
 2163SOL     OW 8805   7.339   6.231   9.278  0.3171  0.8441 -0.6475
 2163SOL    HW1 8806   7.405   6.172   9.312 -0.4657  0.1469 -0.3011
 2163SOL    HW2 8807   7.265   6.222   9.338 -0.8972  0.0100 -2.1689
 2164SOL     OW 8808   6.004   2.123   5.156  0.2053  0.6812  0.0950
 2164SOL    HW1 8809   6.037   2.186   5.220 -0.8483 -0.0321  1.4202
 2164SOL    HW2 8810   5.909   2.123   5.169 -0.0357  0.5011 -1.4904
 2165SOL     OW 8811   4.290   2.250   9.550  0.4043 -0.4164 -0.0686
 2165SOL    HW1 8812   4.221   2.308   9.518  0.8922  0.1193 -0.1721
 2165SOL    HW2 8813   4.317   2.200   9.474 -0.0050 -0.7725  0.0169
 2166SOL     OW 8814   8.483   6.105   4.484  0.1287 -0.8453  0.0950
 2166SOL    HW1 8815   8.447   6.181   4.439 -0.9941 -1.0521  0.5998
 2166SOL    HW2 8816   8.483   6.035   4.418  2.2241 -0.1616 -0.7042
 2167SOL     OW 8817   6.646   2.814   1.797  0.0574  0.0334  0.2523
 2167SOL    HW1 8818   6.616   2.861   1.874 -1.6203 -0.7919  0.1481
 2167SOL    HW2 8819   6.634   2.876   1.725 -0.4408  0.0582  0.3552
 2168SOL     OW 8820   7.170   9.028   1.344  0.1728  0.2389  0.2055
 2168SOL    HW1 8821   7.079   9.023   1.375  0.0125  0.0600 -0.2819
 2168SOL    HW2 8822   7.222   9.039   1.423 -0.1940 -0.5798  0.5724
 2169SOL     OW 8823   3.692   2.963   6.388 -0.1442 -0.1311 -0.4062
 2169SOL    HW1 8824   3.600   2.941   6.369  0.0393  1.0699 -3.2413
 2169SOL    HW2 8825   3.694   3.059   6.389  0.3163  0.0553  4.6220
 2170SOL     OW 8826   1.553   8.463   4.564  0.7142 -0.5941 -0.4874
 2170SOL    HW1 8827   1.529   8.553   4.586  1.3855 -0.3571 -0.6827
 2170SOL    HW2 8828   1.492   8.438   4.495  0.6327 -0.2284 -0.5494
 2171SOL     OW 8829   9.796   2.526   1.213  0.0384 -0.1026  0.0248
 2171SOL    HW1 8830   9.716   2.568   1.183  0.2359 -0.1153 -0.5164
 2171SOL    HW2 8831   9.858   2.535   1.141  1.3409  2.0195  1.2850
 2172SOL     OW 8832   2.794   5.436   5.955  0.4951  0.1879 -0.4159
 2172SOL    HW1 8833   2.828   5.349   5.974 -0.2424  0.1013  0.5818
 2172SOL    HW2 8834   2.861   5.496   5.988 -0.2247  0.0199  1.4848
 2173SOL     OW 8835   5.120   8.713  10.186  0.0927 -0.1739 -0.1434
 2173SOL    HW1 8836   5.163   8.714  10.101  1.9460  1.1997  0.7156
 2173SOL    HW2 8837   5.034   8.753  10.171  0.3518 -0.0576 -1.3843
 2174SOL     OW 8838   7.936   9.970   7.074  0.2361  0.5422 -0.0988
 2174SOL    HW1 8839   7.892   9.931   6.998  1.2220 -0.6977 -0.0670
 2174SOL    HW2 8840   7.955  10.060   7.046 -2.1264  1.1028 -0.1587
 2175SOL     OW 8841  10.359   1.784  10.051 -0.3667  0.4413  0.4260
 2175SOL    HW1 8842  10.326   1.717   9.990 -0.1355  1.7597 -1.2062
 2175SOL    HW2 8843  10.294   1.784  10.122 -2.0831  0.5955 -1.0488
 2176SOL     OW 8844   6.106  10.506   9.553  0.0595  0.0331 -0.9338
 2176SOL    HW1 8845   6.113  10.596   9.584 -0.6488  0.1477 -1.0945
 2176SOL    HW2 8846   6.019  10.478   9.580 -0.4424  0.0174 -2.4881
 2177SOL     OW 8847   0.669   1.065   3.473 -0.3630 -0.5838 -0.0944
 2177SOL    HW1 8848   0.763   1.064   3.452 -0.0851  0.6220  0.9807
 2177SOL    HW2 8849   0.663   1.114   3.555 -1.9212 -0.8703 -0.0032
 2178SOL     OW 8850   8.711   7.185   8.427  0.4268  1.0435  0.3071
 2178SOL    HW1 8851   8.743   7.185   8.337  0.6121  0.7444  0.3706
 2178SOL    HW2 8852   8.678   7.096   8.441  1.7427  0.6402  1.0000
 2179SOL     OW 8853   3.254   6.152   6.666  0.4400 -0.0498  0.7553
 2179SOL    HW1 8854   3.304   6.222   6.624 -0.1749 -0.6027 -0.9890
 2179SOL    HW2 8855   3.231   6.093   6.594  1.9546 -2.7259  2.2892
 2180SOL     OW 8856   5.400   6.387   2.010  0.3432  0.0746 -0.3099
 2180SOL    HW1 8857   5.361   6.474   2.021 -2.5357 -1.1694  0.4200
 2180SOL    HW2 8858   5.467   6.382   2.078 -1.7440  0.6114  1.9223
 2181SOL     OW 8859   8.973   1.896   9.082  0.2319  0.3503  0.1995
 2181SOL    HW1 8860   8.948   1.988   9.095  1.5508  0.7877 -0.2110
 2181SOL    HW2 8861   9.063   1.892   9.113 -0.0614 -1.0072  0.9550
 2182SOL     OW 8862   9.358   4.365   3.575  0.5196  0.1194 -0.2154
 2182SOL    HW1 8863   9.447   4.360   3.610  0.2034 -1.6574  0.4463
 2182SOL    HW2 8864   9.321   4.278   3.591 -1.5476  0.9823  0.0723
 2183SOL     OW 8865   5.182   2.821   4.710  0.0760  0.3760  0.2313
 2183SOL    HW1 8866   5.245   2.775   4.765  0.6652  2.4830  1.4188
 2183SOL    HW2 8867   5.097   2.799   4.748  0.2604 -0.5744  0.1049
 2184SOL     OW 8868   7.524   2.287   4.310  0.3641 -0.2749  0.4568
 2184SOL    HW1 8869   7.473   2.368   4.302  1.2838  0.1952 -1.0972
 2184SOL    HW2 8870   7.514   2.243   4.226  1.5922 -0.7128  0.5136
 2185SOL     OW 8871   3.086   0.368   8.024 -0.2104 -0.1201  0.3885
 2185SOL    HW1 8872   2.999   0.387   8.060  0.5411  1.0552  1.6766
 2185SOL    HW2 8873   3.113   0.287   8.066  0.3273  0.8275  1.9332
 2186SOL     OW 8874   8.127   2.747   7.744 -0.1414  0.2322  0.6538
 2186SOL    HW1 8875   8.216   2.767   7.772 -0.0360 -0.2787  0.7076
 2186SOL    HW2 8876   8.097   2.826   7.701  0.7809  0.0149 -0.4414
 2187SOL     OW 8877   2.077   5.539   8.156 -0.7604  1.0420 -0.0346
 2187SOL    HW1 8878   1.995   5.543   8.204  0.5029  0.1238  2.3524
 2187SOL    HW2 8879   2.134   5.603   8.198  0.7167 -0.5046  0.4365
 2188SOL     OW 8880   9.578   9.907   9.792 -0.4790 -0.1012 -0.3620
 2188SOL    HW1 8881   9.484   9.892   9.783 -0.2005 -1.3193 -1.5374
 2188SOL    HW2 8882   9.601   9.961   9.716 -0.3903  1.1183  0.5017
 2189SOL     OW 8883  10.402   8.069   4.316 -0.2188  0.5958 -0.7099
 2189SOL    HW1 8884  10.476   8.017   4.285 -1.8513 -1.6798 -0.9418
 2189SOL    HW2 8885  10.386   8.038   4.405  1.4144  3.7712  0.8882
 2190SOL     OW 8886   1.433   3.813   0.443  0.2384 -0.2700 -0.1580
 2190SOL    HW1 8887   1.520   3.787   0.472  0.0556 -0.6987  0.0207
 2190SOL    HW2 8888   1.447   3.893   0.393  0.6273  0.1746  0.6474
 2191SOL     OW 8889   4.882   6.432   2.147  0.2268  0.3991  0.0806
 2191SOL    HW1 8890   4.967   6.403   2.179  0.0077  0.3594  0.6372
 2191SOL    HW2 8891   4.843   6.353   2.108 -0.8174 -0.4224  2.5464
 2192SOL     OW 8892   1.715   2.263   1.472  0.2879  0.4233  0.0506
 2192SOL    HW1 8893   1.725   2.213   1.391  0.0918 -1.1143  0.9305
 2192SOL    HW2 8894   1.802   2.300   1.488  0.6629 -0.3166 -0.2128
 2193SOL     OW 8895   6.094   7.371   2.317 -0.4296  0.9801 -0.3855
 2193SOL    HW1 8896   6.081   7.460   2.350  0.3805  1.1500 -0.5032
 2193SOL    HW2 8897   6.182   7.372   2.279 -0.5856  0.2477 -0.7836
 2194SOL     OW 8898   1.784   5.958   6.706 -0.6097 -0.0163  0.4289
 2194SOL    HW1 8899   1.719   5.945   6.637 -1.6455 -0.4627  1.4497
 2194SOL    HW2 8900   1.802   6.052   6.705 -0.3002 -0.0748 -0.6984
 2195SOL     OW 8901   7.849   1.852   8.638 -0.0927  0.0078  0.0288
 2195SOL    HW1 8902   7.775   1.792   8.636  0.4172 -0.8079  2.3931
 2195SOL    HW2 8903   7.909   1.818   8.573 -0.6832 -0.8609 -0.0821
 2196SOL     OW 8904   0.247   4.416   0.184 -0.5463  0.5097  0.6335
 2196SOL    HW1 8905   0.171   4.412   0.126  0.9524 -1.4889 -1.3657
 2196SOL    HW2 8906   0.290   4.499   0.162 -0.9005  0.5649  0.1338
 2197SOL     OW 8907   7.832  10.271   4.817 -0.2575 -0.1148 -0.2842
 2197SOL    HW1 8908   7.745  10.309   4.806 -0.1512  1.0182  2.1200
 2197SOL    HW2 8909   7.888  10.344   4.842  0.2745 -1.4572  3.0150
 2198SOL     OW 8910   0.281   9.477   5.301  0.3032 -0.2268  0.3982
 2198SOL    HW1 8911   0.321   9.520   5.226 -0.5871  1.3773  0.7855
 2198SOL    HW2 8912   0.326   9.515   5.377  0.7690 -1.3706  0.7141
 2199SOL     OW 8913   3.170   5.532   6.250 -0.1782  0.3169 -0.2872
 2199SOL    HW1 8914   3.131   5.448   6.275  1.3484 -0.7677 -1.3463
 2199SOL    HW2 8915   3.177   5.581   6.332 -1.0932 -0.5767  0.3503
 2200SOL     OW 8916   6.819   4.651   7.821 -0.1499  0.1326 -0.0009
 2200SOL    HW1 8917   6.845   4.559   7.821  1.2629  0.5039  0.6901
 2200SOL    HW2 8918   6.727   4.650   7.848  0.1952 -1.0087  1.2525
 2201SOL     OW 8919   0.558   5.353   3.984 -0.2999 -0.0552  0.5895
 2201SOL    HW1 8920   0.638   5.301   3.983 -0.4844 -0.3620 -0.8905
 2201SOL    HW2 8921   0.511   5.324   4.063 -0.0278 -1.5541  0.2361
 2202SOL     OW 8922   5.837   8.128   5.362 -0.5918 -0.0718 -0.4342
 2202SOL    HW1 8923   5.844   8.120   5.457  1.6031 -0.5463 -0.5858
 2202SOL    HW2 8924   5.774   8.200   5.349 -1.4405 -0.4358  1.3316
 2203SOL     OW 8925   3.694   5.704   5.372  0.2207  0.0396 -0.3992
 2203SOL    HW1 8926   3.760   5.772   5.380  0.2836 -0.0017 -0.5504
 2203SOL    HW2 8927   3.737   5.635   5.321  0.1745 -0.1334 -0.2050
 2204SOL     OW 8928   2.707   3.386   1.635 -0.1171  0.1356  0.3458
 2204SOL    HW1 8929   2.700   3.314   1.698  0.0467 -0.5020 -0.3613
 2204SOL    HW2 8930   2.690   3.346   1.550  2.2247  0.4475 -0.3411
 2205SOL     OW 8931   5.396   5.236   3.068  0.5603 -0.3987 -0.1298
 2205SOL    HW1 8932   5.439   5.184   3.135 -0.5892 -0.7118  0.3745
 2205SOL    HW2 8933   5.447   5.220   2.988  0.9391 -1.3233  0.2960
 2206SOL     OW 8934   3.387   5.042   5.169 -0.4807 -0.1072  0.0447
 2206SOL    HW1 8935   3.325   5.115   5.176 -2.1650 -1.5941  1.8653
 2206SOL    HW2 8936   3.369   4.988   5.246  2.8696 -0.8432  0.4788
 2207SOL     OW 8937   8.799   2.391   4.762 -0.1675  0.3097 -0.2298
 2207SOL    HW1 8938   8.753   2.469   4.731 -0.4352 -0.5633 -2.2116
 2207SOL    HW2 8939   8.890   2.405   4.735 -0.0328  0.3254  0.2230
 2208SOL     OW 8940   6.689   9.588   2.139 -0.5633 -0.0895  0.2706
 2208SOL    HW1 8941   6.608   9.639   2.146 -0.6362 -0.3871  2.5350
 2208SOL    HW2 8942   6.758   9.653   2.129 -0.8628  0.3529  0.9747
 2209SOL     OW 8943   0.707   9.956   6.982  0.6243  0.3679 -0.0467
 2209SOL    HW1 8944   0.800   9.977   6.994  0.8885  0.9249 -2.4468
 2209SOL    HW2 8945   0.691   9.972   6.889 -1.8638  0.1501  0.2732
 2210SOL     OW 8946   5.752   8.054   0.264  0.5594 -0.4777  0.3684
 2210SOL    HW1 8947   5.730   8.142   0.235  1.2869 -0.2369  0.5422
 2210SOL    HW2 8948   5.846   8.057   0.281  0.8661 -1.6321 -0.8973
 2211SOL     OW 8949   4.537   8.641   3.565 -0.4856  0.2254 -0.2508
 2211SOL    HW1 8950   4.563   8.616   3.476  1.0986 -0.8930  0.4851
 2211SOL    HW2 8951   4.500   8.562   3.603 -0.2067  0.4113  0.4216
 2212SOL     OW 8952   2.210   4.583  10.072 -0.3929  0.4168  0.7004
 2212SOL    HW1 8953   2.197   4.488  10.064  0.1562  0.3283  0.8191
 2212SOL    HW2 8954   2.178   4.619   9.990  2.0523 -0.1533 -0.6178
 2213SOL     OW 8955   7.565   3.989   1.586  0.3185 -0.4889  0.4742
 2213SOL    HW1 8956   7.583   4.082   1.571  2.3006 -0.6521  1.4632
 2213SOL    HW2 8957   7.560   3.951   1.498 -1.6499  0.6761  0.0065
 2214SOL     OW 8958  10.056   6.799   3.462 -0.2226 -0.3148  0.1019
 2214SOL    HW1 8959  10.040   6.748   3.542 -0.0434 -1.8515 -0.8150
 2214SOL    HW2 8960  10.032   6.741   3.391  0.7519  0.6058 -1.0207
 2215SOL     OW 8961   1.494   0.582   9.321  0.5909 -0.0554 -0.3294
 2215SOL    HW1 8962   1.408   0.625   9.327  0.4299 -0.4299  0.1235
 2215SOL    HW2 8963   1.519   0.593   9.230  0.9821  1.7919 -0.0284
 2216SOL     OW 8964   3.981   4.727   5.410  0.3736  0.3463 -0.2235
 2216SOL    HW1 8965   4.038   4.667   5.361  0.6793 -0.6350  1.2571
 2216SOL    HW2 8966   4.039   4.767   5.474  0.2145  2.4460 -1.3201
 2217SOL     OW 8967   3.512   7.429   4.247 -0.7058 -0.3211 -0.2625
 2217SOL    HW1 8968   3.521   7.485   4.324 -1.5586 -0.0002 -0.3822
 2217SOL    HW2 8969   3.470   7.350   4.281  1.8427 -1.5898  0.1994
 2218SOL     OW 8970   5.516   7.467   4.836 -0.2318 -0.6967  0.0497
 2218SOL    HW1 8971   5.440   7.413   4.854  1.5227 -2.9304  1.1796
 2218SOL    HW2 8972   5.497   7.506   4.750 -3.2336  0.0562  0.9298
 2219SOL     OW 8973   6.127   7.550   3.594  0.2365 -0.1308 -0.1755
 2219SOL    HW1 8974   6.138   7.534   3.688  0.7221 -1.7273 -0.4716
 2219SOL    HW2 8975   6.059   7.488   3.567  0.1385  0.2775 -0.8914
 2220SOL     OW 8976   6.032   7.608   0.583  0.0063 -0.2453 -0.3504
 2220SOL    HW1 8977   6.061   7.543   0.648  0.8112 -0.7462 -1.1807
 2220SOL    HW2 8978   5.959   7.652   0.624  0.6316 -0.4101  0.9872
 2221SOL     OW 8979   7.566   1.374   1.085  0.0355  0.1756 -0.2147
 2221SOL    HW1 8980   7.508   1.415   1.021  0.3548 -1.0399 -1.3157
 2221SOL    HW2 8981   7.509   1.355   1.160 -0.3197  1.6780 -0.0628
 2222SOL     OW 8982   9.335   3.561   5.269  0.3721  0.3389 -0.0629
 2222SOL    HW1 8983   9.264   3.625   5.269  0.8651  0.8969  0.1968
 2222SOL    HW2 8984   9.381   3.576   5.186  2.3025  2.4169  1.2531
 2223SOL     OW 8985   1.460   0.025   2.132 -0.4057  0.2743  0.4400
 2223SOL    HW1 8986   1.491  -0.055   2.174 -2.7302 -1.4492 -0.8811
 2223SOL    HW2 8987   1.400   0.064   2.196 -1.1439 -0.3764  0.1520
 2224SOL     OW 8988   3.297   6.283   2.609  0.5539  0.0460 -0.1410
 2224SOL    HW1 8989   3.272   6.374   2.595 -0.0330 -0.3805 -2.0216
 2224SOL    HW2 8990   3.334   6.254   2.526 -0.2112 -1.7435  0.0972
 2225SOL     OW 8991  10.323   6.793   5.893  0.0371  0.3384 -0.8745
 2225SOL    HW1 8992  10.277   6.868   5.931 -1.2133 -0.6208 -0.4631
 2225SOL    HW2 8993  10.312   6.804   5.798 -2.2380 -0.5671 -0.7701
 2226SOL     OW 8994   3.610   3.919   4.090  0.2799  0.4555  0.0215
 2226SOL    HW1 8995   3.550   3.864   4.140 -1.2354  0.3865 -1.7322
 2226SOL    HW2 8996   3.645   3.860   4.022  0.0672  1.1881 -0.7418
 2227SOL     OW 8997   6.397   8.913   6.538  0.1763 -0.0112  0.4814
 2227SOL    HW1 8998   6.424   8.883   6.452  0.0655 -0.3546  0.5643
 2227SOL    HW2 8999   6.437   8.851   6.599 -0.8924 -0.6138  0.5990
 2228SOL     OW 9000   1.861   4.009   5.773 -0.2418 -0.1359  0.3623
 2228SOL    HW1 9001   1.923   4.082   5.780  0.1936 -0.5088  0.4866
 2228SOL    HW2 9002   1.862   3.985   5.681 -1.7536  1.1697 -0.0335
 2229SOL     OW 9003   2.843   0.211   1.445 -0.6086  0.2225  0.2208
 2229SOL    HW1 9004   2.759   0.207   1.490 -1.8135  1.0885 -1.7903
 2229SOL    HW2 9005   2.831   0.160   1.365  0.6995  0.5416 -0.2189
 2230SOL     OW 9006  10.093   2.492   8.923  0.5077  0.4695  0.1444
 2230SOL    HW1 9007  10.066   2.402   8.908  0.1834  0.8216 -1.6364
 2230SOL    HW2 9008  10.181   2.497   8.886  0.7513  0.7616  0.7402
 2231SOL     OW 9009   4.737   0.083   7.191  0.0857 -0.1390 -0.1235
 2231SOL    HW1 9010   4.681   0.008   7.170 -0.1798  0.0613 -0.1487
 2231SOL    HW2 9011   4.688   0.130   7.259  0.3618 -0.1188  0.0589
 2232SOL     OW 9012   3.345   0.621   4.126  0.1178 -0.0206 -0.0543
 2232SOL    HW1 9013   3.270   0.605   4.183  0.5187 -0.6229  0.3154
 2232SOL    HW2 9014   3.403   0.546   4.140 -0.8400 -1.4976 -3.0674
 2233SOL     OW 9015   5.459   6.471   2.467  0.4804  0.0170 -0.6020
 2233SOL    HW1 9016   5.549   6.443   2.483  1.4117  1.8790 -2.1485
 2233SOL    HW2 9017   5.431   6.512   2.549  1.3094  0.0859 -0.3466
 2234SOL     OW 9018   0.230   8.719   8.035 -0.7259  0.3007 -0.2076
 2234SOL    HW1 9019   0.188   8.633   8.028 -0.5114  0.2051 -0.3276
 2234SOL    HW2 9020   0.158   8.779   8.055 -0.7901 -0.0103  0.5622
 2235SOL     OW 9021   2.675   2.210   9.750 -0.2505 -0.5477 -0.0719
 2235SOL    HW1 9022   2.751   2.259   9.782 -0.4065  0.0327 -0.5678
 2235SOL    HW2 9023   2.603   2.238   9.805 -0.3234 -0.2693 -0.3042
 2236SOL     OW 9024   2.370   8.469   5.516 -0.0118 -0.0252  0.0628
 2236SOL    HW1 9025   2.417   8.422   5.584 -0.1871  1.4526  1.2602
 2236SOL    HW2 9026   2.296   8.510   5.561  0.0732  1.2906 -0.9203
 2237SOL     OW 9027   9.601   2.620   6.369 -0.5192  0.3849  0.0162
 2237SOL    HW1 9028   9.608   2.636   6.275  0.0488 -0.2519 -0.0586
 2237SOL    HW2 9029   9.521   2.665   6.396 -0.4560  0.9237 -0.6926
 2238SOL     OW 9030   0.341   9.806   5.785 -0.2995 -0.0920 -0.5709
 2238SOL    HW1 9031   0.284   9.787   5.859  0.2857 -2.6933 -0.6935
 2238SOL    HW2 9032   0.419   9.844   5.825 -1.4074  2.0337 -0.2693
 2239SOL     OW 9033   7.314   2.796   9.038  0.3864  0.0471 -0.2044
 2239SOL    HW1 9034   7.285   2.854   9.108 -0.4894 -0.0771 -0.4504
 2239SOL    HW2 9035   7.245   2.730   9.032  0.3367  0.1821 -1.3320
 2240SOL     OW 9036   4.726   1.810   4.446  0.2079  0.2735 -0.1088
 2240SOL    HW1 9037   4.806   1.777   4.402  1.1395  0.4340  1.4070
 2240SOL    HW2 9038   4.681   1.859   4.378  0.7627 -0.8568 -1.3574
 2241SOL     OW 9039   8.889   6.409   2.572 -0.4816 -0.4631  0.2730
 2241SOL    HW1 9040   8.919   6.343   2.635  1.4684 -0.9202 -1.0652
 2241SOL    HW2 9041   8.818   6.365   2.524  0.0560 -1.1952  0.1324
 2242SOL     OW 9042   9.191   9.523   4.679 -0.3407  0.0240  0.1530
 2242SOL    HW1 9043   9.160   9.433   4.670 -0.0731  0.0521 -1.2730
 2242SOL    HW2 9044   9.172   9.545   4.770 -1.1276 -1.1986  0.3199
 2243SOL     OW 9045   0.524   9.816   2.642 -0.2720 -0.2714  0.4851
 2243SOL    HW1 9046   0.478   9.742   2.682  0.5668 -0.2072  1.6236
 2243SOL    HW2 9047   0.572   9.856   2.714  1.4756 -0.2603 -0.6211
 2244SOL     OW 9048   9.871   8.121   7.475 -0.4673  0.3045 -0.2794
 2244SOL    HW1 9049   9.850   8.094   7.565 -1.0684  0.5743 -0.3325
 2244SOL    HW2 9050   9.789   8.106   7.427 -0.4084  0.9808 -0.5939
 2245SOL     OW 9051   2.077   6.330   9.773 -0.6420  0.3690 -0.3032
 2245SOL    HW1 9052   2.157   6.277   9.776 -0.5134  0.5478 -0.5369
 2245SOL    HW2 9053   2.023   6.297   9.845 -0.5280 -0.0246 -0.3967
 2246SOL     OW 9054   4.639   6.906   4.350 -0.6966  0.2311 -0.8000
 2246SOL    HW1 9055   4.729   6.896   4.317 -0.3834 -0.0578  0.1079
 2246SOL    HW2 9056   4.596   6.823   4.330 -0.1707 -0.3836  0.4876
 2247SOL     OW 9057   0.394  10.063   1.854  0.5434  0.4834  0.1512
 2247SOL    HW1 9058   0.343  10.005   1.798  1.1738 -1.4111  1.4429
 2247SOL    HW2 9059   0.338  10.139   1.868 -0.9216 -0.4568 -0.4299
 2248SOL     OW 9060   4.933   3.440   6.473 -0.3935  0.1407 -0.3626
 2248SOL    HW1 9061   4.955   3.501   6.403 -1.3009  0.0200 -0.7689
 2248SOL    HW2 9062   4.906   3.360   6.428 -0.6528 -0.0527  0.1308
 2249SOL     OW 9063   4.709   5.791   3.975  0.5207 -0.2125 -0.1316
 2249SOL    HW1 9064   4.721   5.856   3.906 -0.1330  0.2927  0.2181
 2249SOL    HW2 9065   4.792   5.791   4.022  0.0362  1.5459  0.8373
 2250SOL     OW 9066   5.489   8.397   8.711  0.0724 -0.6748 -0.2800
 2250SOL    HW1 9067   5.543   8.467   8.674 -1.5227  0.4190 -0.6447
 2250SOL    HW2 9068   5.498   8.408   8.806 -0.0813 -0.0081 -0.3346
 2251SOL     OW 9069   7.657   9.803   1.177 -0.0022  0.1189 -0.0574
 2251SOL    HW1 9070   7.597   9.771   1.109  1.4341  0.7491 -1.7276
 2251SOL    HW2 9071   7.673   9.894   1.153  2.5745 -0.3587 -0.4656
 2252SOL     OW 9072   6.080   1.395  10.589  0.5447 -0.3017 -0.6604
 2252SOL    HW1 9073   6.033   1.317  10.619 -0.3015  0.7305  0.8571
 2252SOL    HW2 9074   6.017   1.466  10.599  1.3063  0.6180 -1.9734
 2253SOL     OW 9075   4.184   4.661   6.587 -0.2481 -0.1103  0.4263
 2253SOL    HW1 9076   4.110   4.708   6.548 -0.1639 -0.0479  0.3413
 2253SOL    HW2 9077   4.256   4.672   6.524 -0.3845 -0.8294  0.1418
 2254SOL     OW 9078   5.100   5.981   3.289  0.1683  0.0358 -0.2094
 2254SOL    HW1 9079   5.110   6.068   3.326 -1.2431  0.7181 -1.3360
 2254SOL    HW2 9080   5.024   5.988   3.231  1.3784 -1.3401 -2.0754
 2255SOL     OW 9081   4.827   2.972   6.940  0.3390 -0.0198 -0.0049
 2255SOL    HW1 9082   4.841   2.878   6.946 -0.1701 -0.0695  0.4969
 2255SOL    HW2 9083   4.902   3.011   6.986  0.0727 -0.2136  0.6100
 2256SOL     OW 9084   3.033   5.264   0.154  0.3855  0.0252  0.1090
 2256SOL    HW1 9085   2.983   5.286   0.233 -0.5562 -1.2971 -0.0927
 2256SOL    HW2 9086   3.121   5.244   0.186 -0.0951 -0.8977  0.8950
 2257SOL     OW 9087   0.353   9.411   2.693 -0.1615 -0.6112  0.3173
 2257SOL    HW1 9088   0.258   9.403   2.683 -0.3013 -3.4360  2.5139
 2257SOL    HW2 9089   0.389   9.363   2.618 -0.5560 -1.5603  0.7193
 2258SOL     OW 9090   1.563   4.154   3.504 -0.2789 -0.6901 -0.1400
 2258SOL    HW1 9091   1.487   4.145   3.562 -1.1938 -1.1562 -1.3494
 2258SOL    HW2 9092   1.532   4.209   3.432  1.0211  0.4074  0.1068
 2259SOL     OW 9093   2.769   7.303   6.158 -0.4549  0.4414  0.1548
 2259SOL    HW1 9094   2.800   7.351   6.235  2.1807 -1.0532  0.1322
 2259SOL    HW2 9095   2.771   7.367   6.088 -1.2262  1.3860  0.9664
 2260SOL     OW 9096   2.846   8.733   0.464 -0.2118 -0.0811 -0.1321
 2260SOL    HW1 9097   2.841   8.641   0.488 -0.9933  0.6629  3.1449
 2260SOL    HW2 9098   2.904   8.772   0.530 -2.8410  2.3232  0.9909
 2261SOL     OW 9099   9.990   4.820   0.450 -0.0179 -0.2412  0.2050
 2261SOL    HW1 9100   9.936   4.810   0.372 -0.9029 -0.4724  0.8319
 2261SOL    HW2 9101   9.979   4.912   0.476  0.9305  0.0604 -0.3940
 2262SOL     OW 9102   3.098   5.457   2.564  0.2067 -0.5053 -0.7094
 2262SOL    HW1 9103   3.162   5.477   2.632  0.3615 -0.9360 -0.7297
 2262SOL    HW2 9104   3.148   5.414   2.495  0.3480  1.2385 -1.7824
 2263SOL     OW 9105   0.233   7.337   5.783 -0.4372 -0.9167 -0.2556
 2263SOL    HW1 9106   0.175   7.333   5.707 -0.4986 -1.4729 -0.1884
 2263SOL    HW2 9107   0.180   7.305   5.856 -0.7052  0.5875  0.2460
 2264SOL     OW 9108   9.823   6.984   6.901 -0.5946  0.2497  0.0211
 2264SOL    HW1 9109   9.835   7.024   6.987  1.6446 -0.4446  0.1137
 2264SOL    HW2 9110   9.792   6.895   6.919 -0.1324  0.1069  0.1422
 2265SOL     OW 9111   9.285   8.319   3.330  0.3151 -0.0440 -0.1063
 2265SOL    HW1 9112   9.326   8.294   3.412 -0.1301  0.6175  0.3340
 2265SOL    HW2 9113   9.215   8.379   3.356  0.6021  0.7099 -1.0149
 2266SOL     OW 9114   4.223   3.994   2.981  0.4083 -0.1461 -0.2660
 2266SOL    HW1 9115   4.200   3.907   3.013 -0.3420 -0.3253 -1.2394
 2266SOL    HW2 9116   4.220   3.986   2.885 -1.6270  1.4179 -0.4061
 2267SOL     OW 9117   1.804   1.228   5.735 -0.0535 -0.0656 -0.3800
 2267SOL    HW1 9118   1.783   1.321   5.721 -2.2619 -0.8387 -3.1185
 2267SOL    HW2 9119   1.721   1.189   5.763 -0.2371 -1.8101 -3.0323
 2268SOL     OW 9120   9.777   5.939  10.455 -0.0286  0.0085 -0.0533
 2268SOL    HW1 9121   9.777   5.886  10.375 -0.4810 -1.5833  0.9633
 2268SOL    HW2 9122   9.857   5.912  10.501  0.2932  1.0041  0.0041
 2269SOL     OW 9123   1.797   3.507  10.523  0.6144 -0.1118  0.1594
 2269SOL    HW1 9124   1.804   3.412  10.534 -1.0611 -0.1674  1.0736
 2269SOL    HW2 9125   1.798   3.541  10.613  0.4458  0.6725 -0.1283
 2270SOL     OW 9126   9.107   8.245   7.130 -0.2683 -0.3352  0.3210
 2270SOL    HW1 9127   9.119   8.163   7.176 -0.4805 -0.3148  0.4113
 2270SOL    HW2 9128   9.109   8.221   7.037  0.9629 -0.2703  0.3145
 2271SOL     OW 9129   7.090   1.327   5.487 -0.2538 -0.0786 -0.3734
 2271SOL    HW1 9130   7.116   1.253   5.432  1.8516  0.6322 -0.4104
 2271SOL    HW2 9131   7.095   1.403   5.429  0.1883  0.4290  0.3120
 2272SOL     OW 9132   3.272   4.522   9.695 -0.5063 -0.2203  0.4866
 2272SOL    HW1 9133   3.280   4.606   9.741  0.2543 -0.3594  0.6317
 2272SOL    HW2 9134   3.286   4.456   9.763 -1.7706 -0.4878  0.5017
 2273SOL     OW 9135   4.178   3.536   1.230 -0.3654 -0.3554  0.4977
 2273SOL    HW1 9136   4.176   3.508   1.321  1.4323  0.8878  0.9665
 2273SOL    HW2 9137   4.178   3.632   1.234  0.4803 -0.2688 -0.7661
 2274SOL     OW 9138   5.457   1.080   3.034  0.4121 -0.0970  0.0455
 2274SOL    HW1 9139   5.492   1.073   3.123  0.6894  1.4449  0.0793
 2274SOL    HW2 9140   5.499   1.158   2.997 -1.6820  0.8573 -0.5115
 2275SOL     OW 9141   4.160  10.441  10.560  0.9095 -0.8441 -0.3325
 2275SOL    HW1 9142   4.069  10.468  10.574  1.5862  0.5377  1.9157
 2275SOL    HW2 9143   4.154  10.355  10.517 -1.4125 -0.4969 -0.8114
 2276SOL     OW 9144   3.577   7.719   7.787 -0.2624  0.3873  0.6584
 2276SOL    HW1 9145   3.641   7.790   7.779  1.4281 -1.2105 -1.4889
 2276SOL    HW2 9146   3.628   7.644   7.819 -1.3176 -0.6258  0.0549
 2277SOL     OW 9147   2.247   0.362   5.561  0.5491 -0.2856  0.1757
 2277SOL    HW1 9148   2.174   0.409   5.602  2.7003  4.7775 -1.0261
 2277SOL    HW2 9149   2.206   0.306   5.495 -2.3122  1.0705  0.6577
 2278SOL     OW 9150   5.681   9.223   2.341  0.0988  0.1928  0.1345
 2278SOL    HW1 9151   5.621   9.271   2.398  0.8071  1.3903 -0.0958
 2278SOL    HW2 9152   5.625   9.160   2.295 -0.7870  0.5144  0.7470
 2279SOL     OW 9153   3.803   5.226   4.838 -0.3516 -0.5857 -0.1800
 2279SOL    HW1 9154   3.728   5.246   4.895  0.1814  3.6277 -0.6155
 2279SOL    HW2 9155   3.764   5.185   4.761 -1.6886 -1.7973  1.0660
 2280SOL     OW 9156   5.295   2.138  10.120  0.2225  0.8552 -0.4452
 2280SOL    HW1 9157   5.385   2.171  10.123  0.4009  0.4685 -1.1598
 2280SOL    HW2 9158   5.275   2.111  10.209  2.0238 -2.1916 -0.8164
 2281SOL     OW 9159   2.453   7.816   3.357 -0.0255  0.2808  0.7644
 2281SOL    HW1 9160   2.434   7.904   3.388 -0.2348  0.3353  0.4833
 2281SOL    HW2 9161   2.430   7.817   3.264  0.8525  0.2038  0.5282
 2282SOL     OW 9162   2.736   3.961   0.200 -0.0929  0.7275 -0.4375
 2282SOL    HW1 9163   2.712   3.989   0.112  0.1544 -0.5162 -0.9287
 2282SOL    HW2 9164   2.831   3.974   0.203 -0.2131  1.5726 -0.0373
 2283SOL     OW 9165   2.992   5.283   4.410  0.3931 -0.0073 -0.0875
 2283SOL    HW1 9166   2.900   5.309   4.414  1.1477  2.9425  0.4645
 2283SOL    HW2 9167   3.035   5.354   4.363  2.3566 -1.5182 -0.6984
 2284SOL     OW 9168   1.208   1.930   4.390 -0.4479 -0.1483  0.4114
 2284SOL    HW1 9169   1.118   1.959   4.396 -0.0171  1.2758  0.2497
 2284SOL    HW2 9170   1.254   1.976   4.460  0.5121  0.6689 -0.6987
 2285SOL     OW 9171   2.603   1.009   3.455 -0.0670 -0.6634 -0.1288
 2285SOL    HW1 9172   2.597   0.917   3.428 -0.1097 -0.4889 -0.7355
 2285SOL    HW2 9173   2.579   1.009   3.548  1.1685 -1.4437  0.2233
 2286SOL     OW 9174   9.415   0.771   1.945  0.0745 -0.0222  0.0041
 2286SOL    HW1 9175   9.473   0.784   1.870 -0.1548  1.7864  0.0963
 2286SOL    HW2 9176   9.474   0.768   2.021  0.0953  4.4198  0.4199
 2287SOL     OW 9177   2.339   3.521   2.865  0.0819  0.4156  0.1079
 2287SOL    HW1 9178   2.344   3.465   2.788  1.4773  1.7926 -0.8566
 2287SOL    HW2 9179   2.430   3.543   2.886 -0.3272  0.8736  1.5371
 2288SOL     OW 9180   5.361   4.153   5.960  0.1862 -0.3493  1.0588
 2288SOL    HW1 9181   5.423   4.137   5.889  0.4362  2.8915  0.3961
 2288SOL    HW2 9182   5.281   4.181   5.915 -0.5515 -0.8925  2.0011
 2289SOL     OW 9183  10.233   7.212   4.881 -0.3762 -0.3448 -0.3091
 2289SOL    HW1 9184  10.242   7.265   4.801  0.9474 -0.8810 -0.5334
 2289SOL    HW2 9185  10.313   7.229   4.930 -1.6117  0.8027  1.4627
 2290SOL     OW 9186   5.762   6.428   4.624 -0.6816 -0.3940 -0.0659
 2290SOL    HW1 9187   5.716   6.494   4.572 -1.1295 -0.5568  0.1140
 2290SOL    HW2 9188   5.826   6.390   4.564  0.0480  0.6606  0.0109
 2291SOL     OW 9189   3.756   2.376   4.457 -0.4811 -0.4443  0.3475
 2291SOL    HW1 9190   3.698   2.369   4.533 -0.4743 -0.0995  0.3859
 2291SOL    HW2 9191   3.789   2.287   4.444  0.5036 -0.2829  1.5248
 2292SOL     OW 9192   6.544   2.517   0.811  0.2196  0.2336 -0.1228
 2292SOL    HW1 9193   6.563   2.611   0.815  0.1844  0.2007  1.6328
 2292SOL    HW2 9194   6.624   2.478   0.774  1.6788  0.6385  2.3517
 2293SOL     OW 9195   9.178   7.666   3.216  0.0867  0.0963 -0.0458
 2293SOL    HW1 9196   9.224   7.611   3.153 -0.7403  0.3230 -0.8786
 2293SOL    HW2 9197   9.187   7.755   3.181  1.1535  0.4723  1.1251
 2294SOL     OW 9198   7.533   0.352   6.577 -0.1953 -0.7814 -0.1476
 2294SOL    HW1 9199   7.603   0.324   6.637  1.1593  0.2400 -1.1789
 2294SOL    HW2 9200   7.457   0.364   6.634  0.9083 -0.3241  1.3018
 2295SOL     OW 9201   9.668   1.228   2.304  0.3275  0.3684 -0.1649
 2295SOL    HW1 9202   9.746   1.276   2.332  0.2497  2.2038 -2.7970
 2295SOL    HW2 9203   9.600   1.295   2.297 -1.0144 -0.9025  0.2581
 2296SOL     OW 9204   9.269   5.789   9.142 -0.6542  0.5293 -0.4779
 2296SOL    HW1 9205   9.295   5.815   9.053 -0.8630  2.4044 -0.0357
 2296SOL    HW2 9206   9.192   5.735   9.129 -0.6310  0.7061 -1.4562
 2297SOL     OW 9207   3.398   5.392   9.620  0.4446 -0.3295  0.3658
 2297SOL    HW1 9208   3.386   5.371   9.527  1.6077 -1.9775  0.5441
 2297SOL    HW2 9209   3.309   5.401   9.654 -0.0529  2.7963 -1.3609
 2298SOL     OW 9210   1.815   8.248   5.702  0.3084 -0.0154  0.0878
 2298SOL    HW1 9211   1.804   8.207   5.788  0.5152  1.4429  0.8470
 2298SOL    HW2 9212   1.878   8.193   5.657  0.7739 -0.3974  1.1718
 2299SOL     OW 9213   2.508   1.838   3.055 -0.0421 -0.2818 -0.0741
 2299SOL    HW1 9214   2.592   1.850   3.011 -0.9411 -1.9301 -2.4312
 2299SOL    HW2 9215   2.530   1.794   3.137  1.3494 -1.4590 -1.0381
 2300SOL     OW 9216   7.119   1.808   7.017 -0.0417 -0.3540  0.4617
 2300SOL    HW1 9217   7.094   1.749   6.945  0.0054  1.4853 -1.1390
 2300SOL    HW2 9218   7.040   1.814   7.070  0.0073 -1.9712  0.7701
 2301SOL     OW 9219   1.135   0.785   1.081  0.1457  0.2037  0.4334
 2301SOL    HW1 9220   1.115   0.770   0.989  0.6246 -0.6755  0.4584
 2301SOL    HW2 9221   1.178   0.870   1.083  2.2243 -0.7475 -0.5008
 2302SOL     OW 9222   6.345   7.567   6.850  0.2387  0.0172  0.2635
 2302SOL    HW1 9223   6.276   7.582   6.915  0.6290  2.9727  0.1231
 2302SOL    HW2 9224   6.309   7.499   6.793 -1.8540  0.2594  1.1882
 2303SOL     OW 9225   4.475   2.906   6.453 -0.5877  0.5755 -0.0486
 2303SOL    HW1 9226   4.532   2.907   6.530 -0.9232  0.4129  0.2015
 2303SOL    HW2 9227   4.387   2.922   6.487 -0.6390  1.2545 -0.4839
 2304SOL     OW 9228   9.319   9.031   5.134  0.0595 -0.5907  0.4665
 2304SOL    HW1 9229   9.339   8.958   5.076  1.0122  0.8692 -1.1166
 2304SOL    HW2 9230   9.405   9.065   5.160 -0.3228 -1.3164  2.9605
 2305SOL     OW 9231   2.835   9.108  10.395  0.2124 -0.3555  0.3505
 2305SOL    HW1 9232   2.889   9.048  10.446  1.1164 -0.5291 -0.7860
 2305SOL    HW2 9233   2.894   9.180  10.372 -0.8538  1.0435  1.7233
 2306SOL     OW 9234   6.066   2.027   4.622  0.0273 -0.1746 -0.1268
 2306SOL    HW1 9235   6.007   2.060   4.690  1.6721 -1.1620  1.9096
 2306SOL    HW2 9236   6.067   2.095   4.555  1.3345  2.8092  2.6715
 2307SOL     OW 9237   3.303   4.925   4.167  0.2166 -0.0079  0.1146
 2307SOL    HW1 9238   3.265   4.902   4.082 -0.2600 -0.4041  0.4321
 2307SOL    HW2 9239   3.397   4.930   4.150  0.1202 -0.0352 -0.4481
 2308SOL     OW 9240   2.175  10.563   5.694  0.0974 -0.3935  0.7196
 2308SOL    HW1 9241   2.128  10.522   5.621 -0.5798 -1.2651  1.6107
 2308SOL    HW2 9242   2.135  10.525   5.773  1.1588  0.1264  1.5406
 2309SOL     OW 9243   7.404   2.826   2.312  1.1223 -0.0934  0.3750
 2309SOL    HW1 9244   7.351   2.831   2.391 -2.1148  0.2738 -1.6073
 2309SOL    HW2 9245   7.420   2.918   2.288  0.8986 -0.1569 -0.0456
 2310SOL     OW 9246   2.283   2.270   7.413 -0.1787 -0.5774 -0.3253
 2310SOL    HW1 9247   2.379   2.276   7.417 -0.1611 -1.3614  1.4189
 2310SOL    HW2 9248   2.252   2.351   7.454 -0.1624 -1.8696  2.4809
 2311SOL     OW 9249   1.145   0.645   3.353  0.0850 -0.0683 -0.2772
 2311SOL    HW1 9250   1.173   0.590   3.280  0.0537  0.5495 -0.7614
 2311SOL    HW2 9251   1.050   0.653   3.341 -0.0558 -0.6970  0.3474
 2312SOL     OW 9252   3.639   3.282   0.146 -0.4823 -0.0286  0.0848
 2312SOL    HW1 9253   3.672   3.193   0.155  0.6715  0.3604 -0.1381
 2312SOL    HW2 9254   3.561   3.285   0.201 -0.8851 -1.3401 -0.3780
 2313SOL     OW 9255   4.157   0.606   2.405 -0.3564 -0.1004  0.5384
 2313SOL    HW1 9256   4.147   0.564   2.320 -0.2296 -1.0737  0.9881
 2313SOL    HW2 9257   4.122   0.694   2.393 -0.6579 -0.3427 -0.4229
 2314SOL     OW 9258   8.581   7.945   5.153  0.0512  0.0361  0.8238
 2314SOL    HW1 9259   8.621   7.973   5.235  1.2490  1.0395 -0.0602
 2314SOL    HW2 9260   8.648   7.963   5.086 -1.5247  0.9610 -0.5988
 2315SOL     OW 9261   6.704   3.718   6.780 -0.0011  0.4130 -0.0349
 2315SOL    HW1 9262   6.666   3.631   6.784 -0.1994  0.5348  0.8440
 2315SOL    HW2 9263   6.686   3.748   6.690 -1.5264  0.2633  0.2033
 2316SOL     OW 9264   4.237   0.663   3.757  0.1388 -0.8904  0.1240
 2316SOL    HW1 9265   4.194   0.592   3.804  0.9452  0.0585  2.4290
 2316SOL    HW2 9266   4.320   0.626   3.728 -0.4123 -1.5114 -0.7459
 2317SOL     OW 9267  10.018  10.288  10.527 -0.4432  0.6814 -0.3481
 2317SOL    HW1 9268   9.997  10.381  10.522 -1.0305  0.8965  3.4181
 2317SOL    HW2 9269  10.101  10.285  10.574  1.1168 -0.7228 -2.9229
 2318SOL     OW 9270   0.181  10.120  10.427  0.6584 -0.3449 -0.5196
 2318SOL    HW1 9271   0.151  10.200  10.470  0.4724  0.3781 -1.9470
 2318SOL    HW2 9272   0.270  10.140  10.397  1.1959 -1.2082  0.4298
 2319SOL     OW 9273   5.826   7.609   7.761  0.2608  0.3409 -0.2350
 2319SOL    HW1 9274   5.741   7.630   7.721 -0.3063 -2.6134 -0.8467
 2319SOL    HW2 9275   5.886   7.599   7.687  0.9159  1.3736  0.1347
 2320SOL     OW 9276   7.588   0.179   3.775  0.3005  0.1445  0.0624
 2320SOL    HW1 9277   7.649   0.252   3.764  2.2087 -1.6750 -2.5176
 2320SOL    HW2 9278   7.619   0.133   3.853  1.0112  0.3516 -0.0960
 2321SOL     OW 9279   1.808   0.157   0.004 -0.4099 -0.1238 -0.1708
 2321SOL    HW1 9280   1.857   0.139  -0.077 -1.5669 -0.2611 -0.8690
 2321SOL    HW2 9281   1.817   0.077   0.055 -0.6709 -0.5048 -0.7059
 2322SOL     OW 9282   3.786   2.091   7.596 -0.0052  0.2197  0.2233
 2322SOL    HW1 9283   3.774   2.025   7.528 -1.5575 -0.7793  1.3955
 2322SOL    HW2 9284   3.736   2.058   7.671  1.9670  1.0639  2.0091
 2323SOL     OW 9285   5.565   2.587   8.302 -0.5268 -0.2209  0.1805
 2323SOL    HW1 9286   5.546   2.609   8.211  0.2706 -0.2547 -0.0005
 2323SOL    HW2 9287   5.481   2.596   8.347 -0.7129  0.8365 -0.3448
 2324SOL     OW 9288   1.075   8.245   1.813 -0.3043 -0.7188  0.0172
 2324SOL    HW1 9289   0.993   8.283   1.845 -0.7692 -2.7735  1.4706
 2324SOL    HW2 9290   1.139   8.264   1.881  0.0453 -0.5023 -0.3673
 2325SOL     OW 9291   3.371   5.396   4.718  0.1634 -0.0379  0.1673
 2325SOL    HW1 9292   3.404   5.424   4.632  0.3386 -0.9488 -0.0736
 2325SOL    HW2 9293   3.436   5.428   4.780  0.1404  0.4510 -0.0574
 2326SOL     OW 9294   6.646   6.708   5.632 -0.2615 -0.5749  0.4851
 2326SOL    HW1 9295   6.637   6.637   5.696 -0.1784 -1.1079 -0.0800
 2326SOL    HW2 9296   6.652   6.663   5.547 -2.7815  0.1652 -0.1870
 2327SOL     OW 9297   0.533   1.999   6.296 -0.0943 -0.1299 -0.5690
 2327SOL    HW1 9298   0.494   2.086   6.291 -0.3248 -0.1357  0.7522
 2327SOL    HW2 9299   0.518   1.971   6.387  0.3975 -1.3470 -0.8406
 2328SOL     OW 9300   0.497   6.872   6.498  0.2468  0.1759 -0.4346
 2328SOL    HW1 9301   0.413   6.908   6.527 -0.1319 -1.4623  0.6724
 2328SOL    HW2 9302   0.543   6.946   6.459 -1.1046  1.4583  0.3052
 2329SOL     OW 9303   9.949   2.675   3.283  0.2343 -0.3874 -0.3692
 2329SOL    HW1 9304  10.016   2.703   3.220 -0.1803 -0.1801 -0.7251
 2329SOL    HW2 9305   9.890   2.751   3.290 -0.4540 -0.8725 -0.7370
 2330SOL     OW 9306   6.181   3.864   0.750  0.1879 -0.2025  0.7114
 2330SOL    HW1 9307   6.244   3.796   0.727 -0.3978 -0.8950  1.1144
 2330SOL    HW2 9308   6.096   3.827   0.725 -0.1772  0.2099  1.3171
 2331SOL     OW 9309  10.482   1.822   1.821 -0.1511 -0.0281 -0.1371
 2331SOL    HW1 9310  10.463   1.750   1.882  0.5917  0.3919  0.6027
 2331SOL    HW2 9311  10.396   1.855   1.797 -0.5127 -1.1761 -0.5132
 2332SOL     OW 9312   5.036   0.648   5.923 -0.2503 -0.4334  0.0611
 2332SOL    HW1 9313   4.990   0.612   5.999 -1.0061  0.6894  0.1613
 2332SOL    HW2 9314   5.004   0.738   5.916  1.1468  0.0442 -0.5235
 2333SOL     OW 9315   4.424   3.320   5.041 -0.6167  0.2279 -0.4661
 2333SOL    HW1 9316   4.419   3.228   5.015  0.7115  0.1966 -0.7000
 2333SOL    HW2 9317   4.492   3.357   4.985  0.5846  0.7590  1.2618
 2334SOL     OW 9318   4.242   1.432   2.842 -0.1784  0.1421  0.1559
 2334SOL    HW1 9319   4.197   1.511   2.810  0.4078 -0.1614 -1.5173
 2334SOL    HW2 9320   4.289   1.461   2.920 -1.3232  1.0336  0.5476
 2335SOL     OW 9321   4.458   8.916   2.701  0.4328 -0.3329  0.1390
 2335SOL    HW1 9322   4.419   8.901   2.787 -2.7710 -2.0075 -1.4412
 2335SOL    HW2 9323   4.498   8.833   2.678 -1.9045 -1.1447 -1.3643
 2336SOL     OW 9324   9.916   7.839   0.824  0.3832 -0.5078  0.5785
 2336SOL    HW1 9325   9.955   7.921   0.854 -1.1196  0.0270  1.1614
 2336SOL    HW2 9326   9.868   7.862   0.745  1.5840 -1.2678 -0.4309
 2337SOL     OW 9327   1.986   0.795   7.865 -0.0964  0.1194  0.0196
 2337SOL    HW1 9328   1.999   0.700   7.866 -0.5950  0.0363  2.0018
 2337SOL    HW2 9329   1.893   0.806   7.843  0.2969  0.2505 -1.7496
 2338SOL     OW 9330   1.107   4.065   5.359  0.0194  0.0782 -0.1184
 2338SOL    HW1 9331   1.059   4.108   5.288 -1.6732 -0.7982  0.4440
 2338SOL    HW2 9332   1.064   3.981   5.370  0.8924 -0.2208  1.2859
 2339SOL     OW 9333   8.712   8.835   9.665  0.7708  0.5563 -0.4320
 2339SOL    HW1 9334   8.787   8.888   9.639  1.8196 -0.4916  0.3711
 2339SOL    HW2 9335   8.709   8.843   9.760 -0.7812  1.4037 -0.5173
 2340SOL     OW 9336   0.478   8.823   8.021  0.3137 -0.2922  0.4465
 2340SOL    HW1 9337   0.494   8.866   7.936  0.6404  0.2679  0.7864
 2340SOL    HW2 9338   0.386   8.796   8.017  0.2110  0.0994  0.0754
 2341SOL     OW 9339   8.834   3.922   0.371  0.5012  0.5100 -0.1722
 2341SOL    HW1 9340   8.785   3.875   0.304 -0.2485 -0.3103  0.9049
 2341SOL    HW2 9341   8.870   3.999   0.327 -0.3744  0.2412 -1.3742
 2342SOL     OW 9342   3.182   1.070   6.416  0.3125 -0.1500  0.3097
 2342SOL    HW1 9343   3.115   1.005   6.434  0.0307 -0.2065 -0.8577
 2342SOL    HW2 9344   3.197   1.113   6.500 -1.6744  0.3308  0.4765
 2343SOL     OW 9345   3.877   9.181  10.152  0.1941  0.0346  0.2239
 2343SOL    HW1 9346   3.803   9.243  10.147  0.8610  0.7740 -1.2418
 2343SOL    HW2 9347   3.941   9.216  10.090  0.7427 -1.9450 -0.4135
 2344SOL     OW 9348   4.536   3.270   7.816  0.3223 -0.0278  0.2662
 2344SOL    HW1 9349   4.588   3.349   7.832 -1.3186  1.0824  0.3587
 2344SOL    HW2 9350   4.507   3.279   7.725  1.9474 -1.6860 -0.4835
 2345SOL     OW 9351   6.232   8.588   5.769 -0.0288 -0.0049  0.1922
 2345SOL    HW1 9352   6.146   8.570   5.731  0.0253  1.1812 -0.5446
 2345SOL    HW2 9353   6.214   8.643   5.845  0.1347  1.8821 -1.0473
 2346SOL     OW 9354   9.802   3.723   3.594  0.0021 -0.0808 -0.6408
 2346SOL    HW1 9355   9.858   3.799   3.576 -0.2787 -0.2108 -2.2381
 2346SOL    HW2 9356   9.724   3.739   3.541 -1.0575 -0.3934  0.7698
 2347SOL     OW 9357   1.707   6.594   3.901  0.0161 -0.1091  0.1467
 2347SOL    HW1 9358   1.690   6.627   3.813  0.5557 -0.0010  0.0802
 2347SOL    HW2 9359   1.724   6.501   3.889 -3.6765 -0.9929  0.5700
 2348SOL     OW 9360   7.120   8.810   1.951 -0.4313  0.1177 -0.4994
 2348SOL    HW1 9361   7.090   8.756   2.024  1.1806 -0.2082 -0.0417
 2348SOL    HW2 9362   7.212   8.829   1.971  0.2854 -0.5881 -2.7741
 2349SOL     OW 9363  10.291   5.241   5.618 -0.1490 -0.0940  0.8556
 2349SOL    HW1 9364  10.299   5.148   5.594  1.4682  0.3657 -0.6095
 2349SOL    HW2 9365  10.334   5.247   5.704  1.4477 -0.4433  0.1326
 2350SOL     OW 9366  10.347   3.230   5.902  0.1902  0.2160  0.1435
 2350SOL    HW1 9367  10.311   3.231   5.813 -0.7288  1.7001  0.4953
 2350SOL    HW2 9368  10.292   3.168   5.950  1.3485 -1.4015 -0.5406
 2351SOL     OW 9369   8.542   2.585   7.295  0.4904 -0.1445  0.4677
 2351SOL    HW1 9370   8.565   2.647   7.225  0.4530 -2.2127 -1.5205
 2351SOL    HW2 9371   8.623   2.575   7.345  0.7811  0.7249  0.1993
 2352SOL     OW 9372   6.419   8.554   4.554 -0.0193  0.3687  0.2220
 2352SOL    HW1 9373   6.350   8.596   4.503 -0.0882 -0.6307 -0.5543
 2352SOL    HW2 9374   6.470   8.626   4.591 -1.4415  1.1285  0.7739
 2353SOL     OW 9375   1.757   2.014   8.511 -0.1970  0.4733 -0.0842
 2353SOL    HW1 9376   1.686   2.054   8.461 -0.7107 -0.7898 -0.4078
 2353SOL    HW2 9377   1.836   2.062   8.485 -1.0532  2.6251  1.1137
 2354SOL     OW 9378  10.399   5.569   6.028  0.1912 -0.3012 -0.1808
 2354SOL    HW1 9379  10.414   5.488   5.980 -1.5774  0.4770 -2.2579
 2354SOL    HW2 9380  10.435   5.638   5.971  0.0397  0.5170  0.6768
 2355SOL     OW 9381   7.855   7.865   3.617  0.4619 -0.0276  0.0897
 2355SOL    HW1 9382   7.803   7.875   3.697  0.2155 -0.0660 -0.0641
 2355SOL    HW2 9383   7.923   7.802   3.641  0.7047  0.3504  0.4199
 2356SOL     OW 9384   9.639   7.988   8.563 -0.1213 -0.3283 -0.2783
 2356SOL    HW1 9385   9.613   8.075   8.592 -0.1787 -0.7203  0.8961
 2356SOL    HW2 9386   9.728   7.999   8.530 -0.1410  0.1806 -0.1635
 2357SOL     OW 9387   1.581   7.563   0.441 -0.4612  0.1148  0.0458
 2357SOL    HW1 9388   1.669   7.526   0.448 -1.0767 -1.5867 -0.6282
 2357SOL    HW2 9389   1.574   7.624   0.515  0.7364 -0.9082  1.0413
 2358SOL     OW 9390   4.274   6.616   5.119  0.5245 -0.2940  0.0286
 2358SOL    HW1 9391   4.218   6.692   5.131 -0.3996 -1.0787  0.8797
 2358SOL    HW2 9392   4.356   6.640   5.161 -0.6237 -0.6831  2.7259
 2359SOL     OW 9393   0.152   5.634   4.852  0.2485 -0.1899 -0.1866
 2359SOL    HW1 9394   0.236   5.681   4.850  1.0216 -1.5229 -0.2177
 2359SOL    HW2 9395   0.154   5.586   4.934 -0.7951  0.2661  0.1200
 2360SOL     OW 9396   9.446   3.696   8.451  0.2760 -0.3536 -0.7073
 2360SOL    HW1 9397   9.533   3.730   8.432  0.9442 -1.4215  0.2817
 2360SOL    HW2 9398   9.417   3.746   8.528  1.0883 -1.6536  0.4946
 2361SOL     OW 9399   5.528   8.990   1.532  0.0685  0.2725  0.1623
 2361SOL    HW1 9400   5.551   8.931   1.460 -1.2943 -1.6919  1.2319
 2361SOL    HW2 9401   5.530   9.077   1.493 -1.0872 -0.7406 -2.4178
 2362SOL     OW 9402   5.587  10.430   6.758 -0.0946 -0.2167  0.3547
 2362SOL    HW1 9403   5.554  10.345   6.728  0.0486 -0.9875  2.2232
 2362SOL    HW2 9404   5.577  10.427   6.853 -1.8190  2.6280  0.3503
 2363SOL     OW 9405   5.309   8.811   2.716  0.1313 -0.3503  0.0405
 2363SOL    HW1 9406   5.219   8.801   2.749 -0.2631  1.3629 -0.4234
 2363SOL    HW2 9407   5.341   8.891   2.758  1.0835 -0.4022 -0.5759
 2364SOL     OW 9408   8.847   1.224   4.967 -0.5488  0.7602 -0.3061
 2364SOL    HW1 9409   8.793   1.248   4.892 -0.1884  0.2835 -0.7236
 2364SOL    HW2 9410   8.810   1.141   4.998 -2.2048  2.0803  1.5326
 2365SOL     OW 9411   8.230   2.167   7.781 -0.2385 -1.0298  0.1350
 2365SOL    HW1 9412   8.216   2.201   7.693  0.3241 -0.9477  0.0715
 2365SOL    HW2 9413   8.236   2.246   7.836 -1.0694 -1.0917  0.3274
 2366SOL     OW 9414   5.345   3.776   2.980  0.4637  0.0293  0.2884
 2366SOL    HW1 9415   5.417   3.732   3.027  1.3083  0.3938 -0.6181
 2366SOL    HW2 9416   5.279   3.708   2.970  0.6162 -0.2887  1.2466
 2367SOL     OW 9417   2.463   3.368   0.559 -0.0161  0.2274 -0.2435
 2367SOL    HW1 9418   2.543   3.339   0.516  0.4923  0.7850  0.2933
 2367SOL    HW2 9419   2.488   3.450   0.602 -0.6595 -0.0107  0.6081
 2368SOL     OW 9420  10.255   6.541   0.871  0.1343 -0.1960  0.2492
 2368SOL    HW1 9421  10.279   6.632   0.855 -0.4138 -0.0066  0.4936
 2368SOL    HW2 9422  10.313   6.514   0.943 -0.6868  0.4115  1.1743
 2369SOL     OW 9423   8.619   0.665   5.360 -0.1614 -0.6531  0.2565
 2369SOL    HW1 9424   8.556   0.727   5.397 -0.4576 -1.0409  0.4169
 2369SOL    HW2 9425   8.600   0.582   5.405  0.9739 -0.6042  0.8671
 2370SOL     OW 9426   8.133   0.418   1.028  0.0285  0.1548  0.1003
 2370SOL    HW1 9427   8.091   0.405   0.943 -0.3664  1.1763  0.1197
 2370SOL    HW2 9428   8.226   0.430   1.007 -0.4460  3.9050 -0.6516
 2371SOL     OW 9429  10.526   9.213   2.537  0.0303 -0.0904 -0.3202
 2371SOL    HW1 9430  10.568   9.137   2.578  1.1915 -0.1334 -1.5511
 2371SOL    HW2 9431  10.567   9.221   2.451 -1.6146  0.6373 -1.0825
 2372SOL     OW 9432   5.555  10.429   0.856 -0.0572  0.2655  0.0402
 2372SOL    HW1 9433   5.567  10.410   0.949  0.3670  1.1741  0.1804
 2372SOL    HW2 9434   5.605  10.361   0.811 -0.6055 -0.4229  0.4636
 2373SOL     OW 9435   9.653  10.339   1.638  0.3989  0.0148  0.5341
 2373SOL    HW1 9436   9.587  10.332   1.569  0.7200 -0.9731  0.3075
 2373SOL    HW2 9437   9.606  10.319   1.719  0.6001 -1.7225  0.2610
 2374SOL     OW 9438   4.154   8.168   5.867  0.5548 -0.3794 -0.0959
 2374SOL    HW1 9439   4.117   8.235   5.809 -1.5089  0.0423  1.5803
 2374SOL    HW2 9440   4.230   8.210   5.907 -0.9615  1.2430  1.2704
 2375SOL     OW 9441   5.314   9.200   5.653 -0.1435  0.2504  0.6344
 2375SOL    HW1 9442   5.260   9.278   5.671  0.0427  0.8371 -1.1345
 2375SOL    HW2 9443   5.271   9.158   5.579 -0.2737 -1.4193  1.6015
 2376SOL     OW 9444  10.127   1.477   6.934  0.1835 -0.0625 -0.1475
 2376SOL    HW1 9445  10.092   1.388   6.929  1.0374 -0.4489  0.6803
 2376SOL    HW2 9446  10.158   1.487   7.024  0.1160  1.0724 -0.2264
 2377SOL     OW 9447   5.585   1.386   6.724 -0.1120  0.6002  0.5385
 2377SOL    HW1 9448   5.508   1.442   6.729 -0.9148 -0.3794 -0.3247
 2377SOL    HW2 9449   5.613   1.391   6.632 -1.7271 -2.3074 -0.2250
 2378SOL     OW 9450   6.200   7.242   4.873  0.0665 -0.0869  0.6780
 2378SOL    HW1 9451   6.215   7.335   4.856  1.5849  0.0068  2.2501
 2378SOL    HW2 9452   6.108   7.237   4.899 -0.4370  0.7246 -0.8513
 2379SOL     OW 9453   0.989  10.174  10.095 -0.0317  0.2552  0.0668
 2379SOL    HW1 9454   0.917  10.126  10.137 -0.2137  0.7419  0.3259
 2379SOL    HW2 9455   0.959  10.265  10.095 -0.1224  0.2460 -1.2975
 2380SOL     OW 9456   7.224   6.801   3.053  0.0024  0.3262  0.0674
 2380SOL    HW1 9457   7.229   6.718   3.006 -0.8441  0.5996 -0.5247
 2380SOL    HW2 9458   7.140   6.839   3.026  0.4972  1.4954  0.1143
 2381SOL     OW 9459   4.697   2.950   5.973 -0.2308 -0.5471  0.0060
 2381SOL    HW1 9460   4.636   2.888   6.013 -0.1676 -0.3035  0.4939
 2381SOL    HW2 9461   4.754   2.978   6.045  0.4747 -0.7844 -0.4464
 2382SOL     OW 9462   0.687   7.412   5.528  0.1791  0.4723 -0.5873
 2382SOL    HW1 9463   0.724   7.456   5.605  0.3035  0.2132 -0.4976
 2382SOL    HW2 9464   0.601   7.453   5.517 -0.7892 -0.9583  1.0198
 2383SOL     OW 9465   6.623   5.353   8.709 -0.1672 -0.2021  0.2108
 2383SOL    HW1 9466   6.708   5.329   8.746 -0.9325 -2.7408  0.4998
 2383SOL    HW2 9467   6.559   5.323   8.774 -1.4623 -3.0888 -2.1737
 2384SOL     OW 9468   3.256   4.394   7.228  0.2597  0.5648  0.5057
 2384SOL    HW1 9469   3.259   4.376   7.322  0.5589 -0.2998  0.3402
 2384SOL    HW2 9470   3.177   4.350   7.197  0.8602 -0.2812  0.1376
 2385SOL     OW 9471   7.386  10.052   6.652 -0.2955  0.1757  0.0495
 2385SOL    HW1 9472   7.428  10.134   6.628 -1.7364  0.8409 -0.2996
 2385SOL    HW2 9473   7.336  10.072   6.731  0.0324 -0.6023  0.4712
 2386SOL     OW 9474   9.051   4.216   6.395 -0.0527 -0.0923 -0.4313
 2386SOL    HW1 9475   9.085   4.302   6.370  0.9059  0.2452  1.8010
 2386SOL    HW2 9476   9.037   4.223   6.490 -0.9227 -2.0914 -0.3765
 2387SOL     OW 9477   5.849   7.030   5.211  0.8964 -0.2774  0.7342
 2387SOL    HW1 9478   5.807   7.114   5.192  2.6288  0.5268  0.2623
 2387SOL    HW2 9479   5.778   6.974   5.243 -0.0728  1.7666  2.3454
 2388SOL     OW 9480   8.353   7.013   7.344 -0.0197  0.0122 -0.8131
 2388SOL    HW1 9481   8.340   7.004   7.250 -0.5073  2.5655 -1.0510
 2388SOL    HW2 9482   8.355   6.923   7.377 -2.5337 -0.9328 -2.9006
 2389SOL     OW 9483   3.843   0.271   4.346 -0.1038 -0.2632  0.2300
 2389SOL    HW1 9484   3.770   0.218   4.378  0.5264 -1.8257 -0.7980
 2389SOL    HW2 9485   3.895   0.210   4.294  0.7552  1.3517 -0.8632
 2390SOL     OW 9486   4.459   9.112   1.317 -1.0089  0.0499  0.5245
 2390SOL    HW1 9487   4.416   9.166   1.251  0.6949  0.8052 -0.0216
 2390SOL    HW2 9488   4.524   9.061   1.268 -0.3099 -0.0190  1.4886
 2391SOL     OW 9489  10.458   0.094   9.141 -0.1031  0.2820 -0.4024
 2391SOL    HW1 9490  10.382   0.129   9.094 -0.2285  1.0275  0.3363
 2391SOL    HW2 9491  10.525   0.162   9.132  0.2002 -0.0056 -0.3318
 2392SOL     OW 9492   0.626   8.913   6.608 -0.0948  0.4398 -0.0146
 2392SOL    HW1 9493   0.719   8.924   6.587 -0.2341  0.1798 -0.8237
 2392SOL    HW2 9494   0.619   8.823   6.641 -0.4797 -0.6272 -2.7100
 2393SOL     OW 9495   0.586   1.692   7.838 -0.3187  0.1876  0.2412
 2393SOL    HW1 9496   0.544   1.624   7.891 -0.3511 -0.2622 -0.3476
 2393SOL    HW2 9497   0.593   1.653   7.751 -1.9203  1.5516 -0.5475
 2394SOL     OW 9498   5.267   5.550   6.130 -0.5648  0.4586 -0.0381
 2394SOL    HW1 9499   5.266   5.522   6.221  1.4462  1.5782  0.3796
 2394SOL    HW2 9500   5.261   5.469   6.080  0.1089 -0.3142  1.1011
 2395SOL     OW 9501   0.925   4.935   4.137  0.2980  0.8607 -0.2823
 2395SOL    HW1 9502   0.960   4.847   4.145  1.0480  1.1518 -0.2192
 2395SOL    HW2 9503   0.830   4.924   4.139  0.3617 -0.0474 -1.4843
 2396SOL     OW 9504   3.959   2.316   9.632 -0.1039 -0.1064  0.0078
 2396SOL    HW1 9505   3.932   2.237   9.678 -1.4837 -0.3399 -1.1243
 2396SOL    HW2 9506   3.983   2.286   9.544 -0.2167  0.6779 -0.3055
 2397SOL     OW 9507   6.746   4.241   2.433  0.4145  0.4368  0.2059
 2397SOL    HW1 9508   6.745   4.337   2.428  0.4237  0.4465  0.3808
 2397SOL    HW2 9509   6.816   4.214   2.375  0.8198  0.5669  0.6285
 2398SOL     OW 9510   0.514   5.956   9.641  0.5041 -0.4582 -0.3838
 2398SOL    HW1 9511   0.448   5.982   9.576  0.6495  1.0951  0.0646
 2398SOL    HW2 9512   0.462   5.930   9.718  0.3877 -0.5342 -0.4867
 2399SOL     OW 9513   6.115   0.753   9.609 -0.2325  0.2805  0.4672
 2399SOL    HW1 9514   6.143   0.842   9.587 -1.4861  0.4939 -0.3348
 2399SOL    HW2 9515   6.071   0.722   9.530  1.3951 -1.5911  0.2359
 2400SOL     OW 9516   3.551   0.573   3.324  0.2882 -0.1010 -0.4174
 2400SOL    HW1 9517   3.632   0.539   3.286  0.4748  0.3243 -0.4120
 2400SOL    HW2 9518   3.576   0.600   3.412  0.1285 -0.0229 -0.3955
 2401SOL     OW 9519   8.931   9.725   5.655 -0.6455  0.2071 -0.4871
 2401SOL    HW1 9520   8.898   9.778   5.728 -2.0287  0.7797 -1.4777
 2401SOL    HW2 9521   8.862   9.662   5.638 -0.7342  0.6434 -1.8395
 2402SOL     OW 9522   1.633   8.984   4.635 -0.6075  0.1754  0.2058
 2402SOL    HW1 9523   1.593   9.012   4.716 -1.7371  0.8235 -0.5536
 2402SOL    HW2 9524   1.688   9.057   4.607 -0.5251  0.1067  0.1842
 2403SOL     OW 9525  10.453   8.049   5.712  0.2241  0.2237  0.0592
 2403SOL    HW1 9526  10.413   8.097   5.640  0.8405 -0.4344 -0.7553
 2403SOL    HW2 9527  10.407   8.079   5.790  0.4945  2.0156 -0.4244
 2404SOL     OW 9528   4.833   8.243   5.867 -0.0010 -1.4522  0.0959
 2404SOL    HW1 9529   4.801   8.329   5.894 -0.2254 -1.2971 -0.6578
 2404SOL    HW2 9530   4.926   8.244   5.890 -0.2865 -1.5265  1.3484
 2405SOL     OW 9531   1.580   1.091   8.480 -0.0640 -0.1569  0.4209
 2405SOL    HW1 9532   1.628   1.088   8.397  0.8976  1.1266  0.9049
 2405SOL    HW2 9533   1.580   1.183   8.504  0.0939 -0.5664  2.0929
 2406SOL     OW 9534   4.729   5.056   2.854 -0.3392  0.2543 -0.7468
 2406SOL    HW1 9535   4.663   5.122   2.877  0.0331  0.2650  0.3256
 2406SOL    HW2 9536   4.808   5.082   2.901 -0.0531 -0.6959 -0.6647
 2407SOL     OW 9537   0.876   4.468   5.586  0.1925  0.6269 -0.4189
 2407SOL    HW1 9538   0.933   4.510   5.650  0.6923  0.3145 -0.6429
 2407SOL    HW2 9539   0.888   4.520   5.506 -0.0157  0.6987 -0.4026
 2408SOL     OW 9540   4.619   4.297   7.358 -0.4861  0.1106  0.0938
 2408SOL    HW1 9541   4.644   4.386   7.335  0.0031  0.0216  0.2731
 2408SOL    HW2 9542   4.578   4.262   7.279  1.2287 -0.2178 -0.6747
 2409SOL     OW 9543   8.222   4.745   4.174 -0.0018 -0.6156  0.5129
 2409SOL    HW1 9544   8.255   4.779   4.257 -1.3736 -1.8151  1.6035
 2409SOL    HW2 9545   8.299   4.708   4.131  1.0526  1.5806  0.3974
 2410SOL     OW 9546   3.985   7.345   6.823  0.7453 -0.4512 -0.1735
 2410SOL    HW1 9547   4.047   7.416   6.809 -0.7255  0.9646  0.1384
 2410SOL    HW2 9548   3.900   7.383   6.801 -0.2982 -1.5812  1.5867
 2411SOL     OW 9549   7.291   0.186   0.543 -0.2106 -0.2594 -0.3689
 2411SOL    HW1 9550   7.329   0.142   0.467 -2.2610 -2.2770 -0.3346
 2411SOL    HW2 9551   7.356   0.175   0.612  0.6367 -0.5251 -1.1917
 2412SOL     OW 9552   0.337   6.301   1.415  0.7399 -0.1171 -0.4336
 2412SOL    HW1 9553   0.385   6.272   1.337 -0.5329  0.5396 -1.5045
 2412SOL    HW2 9554   0.245   6.301   1.388  0.3431  0.9048  0.8120
 2413SOL     OW 9555  10.567  10.378   6.544 -0.3472 -0.3188  0.3356
 2413SOL    HW1 9556  10.640  10.319   6.526 -0.8532 -0.3256 -2.2203
 2413SOL    HW2 9557  10.603  10.446   6.600  1.8481  0.0156 -1.3451
 2414SOL     OW 9558   9.745   9.354   2.101  0.2661  0.0587  0.1473
 2414SOL    HW1 9559   9.772   9.299   2.028 -0.3031  0.4229 -0.3469
 2414SOL    HW2 9560   9.749   9.443   2.066 -1.3072  0.1430  0.1322
 2415SOL     OW 9561   2.853   8.525   2.378 -0.2422  0.2540  0.2805
 2415SOL    HW1 9562   2.893   8.605   2.412  0.2543  0.0289  0.2372
 2415SOL    HW2 9563   2.761   8.531   2.404 -0.0403  0.4587  0.9794
 2416SOL     OW 9564  10.130   0.859   9.512  0.2513 -0.6985 -0.8395
 2416SOL    HW1 9565  10.055   0.812   9.548 -0.1017  0.1254 -0.4634
 2416SOL    HW2 9566  10.102   0.884   9.424 -0.7146  1.3102 -0.0155
 2417SOL     OW 9567   6.798   6.235   0.063  0.0482 -0.6220  0.0448
 2417SOL    HW1 9568   6.794   6.167   0.130  0.5315 -0.1123  0.6054
 2417SOL    HW2 9569   6.724   6.293   0.082  0.5217 -0.1557  0.5055
 2418SOL     OW 9570   7.062   8.988   7.096 -0.5934  0.2332 -0.1531
 2418SOL    HW1 9571   7.088   9.055   7.032  1.0802 -1.1320 -0.9854
 2418SOL    HW2 9572   7.130   8.992   7.164 -1.7364  0.8907  1.0090
 2419SOL     OW 9573   0.379   2.948   4.913 -0.1038 -0.7646  0.3058
 2419SOL    HW1 9574   0.361   2.876   4.973  0.7083 -1.3627 -0.1554
 2419SOL    HW2 9575   0.388   2.907   4.827  0.1080 -0.0859 -0.0045
 2420SOL     OW 9576   9.954   4.389   1.360  0.0495  0.6281  0.0941
 2420SOL    HW1 9577   9.880   4.330   1.369  0.2973  0.6058  3.2588
 2420SOL    HW2 9578  10.030   4.331   1.358  0.1030  0.7244 -1.1800
 2421SOL     OW 9579   8.557  10.076   9.915  0.4605 -0.6505  0.2545
 2421SOL    HW1 9580   8.523   9.986   9.918  0.2245 -0.5854 -0.3710
 2421SOL    HW2 9581   8.480  10.130   9.896  0.7994 -0.4350 -0.5208
 2422SOL     OW 9582   1.217   3.165   3.694 -0.2984 -0.2836 -0.4667
 2422SOL    HW1 9583   1.165   3.244   3.676 -0.9834 -0.9711 -1.6003
 2422SOL    HW2 9584   1.281   3.163   3.624  0.0919 -0.4382 -0.1083
 2423SOL     OW 9585   8.318   4.382   7.613 -0.2827 -0.1145 -0.4523
 2423SOL    HW1 9586   8.236   4.341   7.643  0.3464 -0.7551  0.4227
 2423SOL    HW2 9587   8.351   4.428   7.690  0.4387 -0.2783 -0.6579
 2424SOL     OW 9588   2.673   5.686   9.981 -0.0367  0.1712  0.1682
 2424SOL    HW1 9589   2.595   5.735   9.957 -0.0899  0.3174  0.6245
 2424SOL    HW2 9590   2.707   5.731  10.058  1.9678  1.6939 -1.4900
 2425SOL     OW 9591   8.467   5.897   3.517  0.3875  0.0213 -0.0524
 2425SOL    HW1 9592   8.532   5.942   3.464  0.7524 -1.7882 -1.2280
 2425SOL    HW2 9593   8.519   5.844   3.578  0.0039 -0.3452 -0.0388
 2426SOL     OW 9594   0.415   7.043   2.924 -0.0513 -0.3367 -0.3804
 2426SOL    HW1 9595   0.460   7.013   3.003 -0.4505  0.4230  0.1568
 2426SOL    HW2 9596   0.322   7.035   2.945 -0.1638 -0.8561 -1.0648
 2427SOL     OW 9597   4.461   9.709   8.975  0.3387 -0.6264 -0.3514
 2427SOL    HW1 9598   4.538   9.752   9.013 -0.9276  2.3096 -0.8461
 2427SOL    HW2 9599   4.496   9.658   8.902  1.8764  0.3483 -0.3526
 2428SOL     OW 9600   8.649   7.682   2.827  0.1423  0.6247  0.0107
 2428SOL    HW1 9601   8.576   7.665   2.768  1.5310 -0.5034 -1.4839
 2428SOL    HW2 9602   8.725   7.642   2.784  0.7916 -3.0029  3.8807
 2429SOL     OW 9603   0.003  10.422   2.128  0.1783  0.2919 -0.2629
 2429SOL    HW1 9604  -0.070  10.377   2.170 -0.0178 -0.0746 -0.9943
 2429SOL    HW2 9605   0.077  10.406   2.187  0.1394 -1.0748 -0.5403
 2430SOL     OW 9606   7.483   2.728   0.324  0.0284  0.0490 -0.2363
 2430SOL    HW1 9607   7.520   2.816   0.323 -0.8023  0.4199  0.5192
 2430SOL    HW2 9608   7.392   2.739   0.297  0.2164 -0.7429 -1.2698
 2431SOL     OW 9609  10.170   8.124   2.788 -0.7028 -0.3270 -0.1633
 2431SOL    HW1 9610  10.114   8.195   2.757  0.2733  0.6245  0.1912
 2431SOL    HW2 9611  10.160   8.124   2.883  1.3710  1.1930  0.1231
 2432SOL     OW 9612   7.123   6.422   2.040  0.4071  0.3133 -0.5141
 2432SOL    HW1 9613   7.030   6.399   2.037  0.3631  0.4981 -2.9809
 2432SOL    HW2 9614   7.165   6.357   1.983  1.5597  1.0732 -0.5557
 2433SOL     OW 9615   4.886   6.082   2.643 -0.3697 -0.2161  0.3438
 2433SOL    HW1 9616   4.902   6.175   2.627  1.7267 -0.5276  0.3103
 2433SOL    HW2 9617   4.816   6.059   2.583 -0.4825  1.1982 -0.1117
 2434SOL     OW 9618   5.256   1.917   8.734 -0.1939  0.6448  0.7855
 2434SOL    HW1 9619   5.326   1.963   8.688 -0.1305 -0.1705  0.0534
 2434SOL    HW2 9620   5.300   1.850   8.785 -0.4240  0.2587  0.4789
 2435SOL     OW 9621   3.784   3.034   4.650  0.6197 -0.5506  0.5377
 2435SOL    HW1 9622   3.820   3.110   4.696  0.1265 -1.0387  1.7680
 2435SOL    HW2 9623   3.700   3.018   4.692 -0.6556 -0.0023 -1.6675
 2436SOL     OW 9624   1.057   4.370   0.474 -0.2438 -0.1014 -0.1470
 2436SOL    HW1 9625   1.144   4.408   0.472 -0.4661  0.6112  1.6642
 2436SOL    HW2 9626   1.018   4.392   0.390 -0.2968  3.6538  0.7082
 2437SOL     OW 9627   2.914   2.039   5.624  0.3129  0.3355 -0.0407
 2437SOL    HW1 9628   2.945   1.950   5.606  1.6822  0.9172 -0.7021
 2437SOL    HW2 9629   2.914   2.046   5.719  2.6873  0.4191  0.0143
 2438SOL     OW 9630   0.672   3.222   0.123  0.4468 -0.2869  0.1913
 2438SOL    HW1 9631   0.744   3.272   0.083  1.0196 -0.5711  0.8378
 2438SOL    HW2 9632   0.661   3.146   0.067 -0.2645  0.4339 -0.6630
 2439SOL     OW 9633   2.973   5.168   1.078 -0.1525  0.6158 -0.0257
 2439SOL    HW1 9634   3.032   5.093   1.072  0.1592  0.8166  0.4952
 2439SOL    HW2 9635   2.893   5.132   1.116 -0.1542  0.4667 -0.1656
 2440SOL     OW 9636   5.505   7.183   1.177 -0.4077  0.1019  0.1355
 2440SOL    HW1 9637   5.452   7.260   1.156 -2.1677 -1.4360 -1.4586
 2440SOL    HW2 9638   5.463   7.146   1.255 -0.3281  0.0488  0.1533
 2441SOL     OW 9639   0.954   8.914   0.577  0.5193 -0.0404  0.1214
 2441SOL    HW1 9640   0.925   8.951   0.493  0.7560 -0.7648 -0.2869
 2441SOL    HW2 9641   0.874   8.910   0.629  1.0383  5.3976  1.9897
 2442SOL     OW 9642   1.373   6.897   6.945  0.4890 -0.4024 -0.2902
 2442SOL    HW1 9643   1.334   6.902   6.858 -1.6477  0.5765  0.6555
 2442SOL    HW2 9644   1.333   6.819   6.985 -1.9491  1.4747  1.2521
 2443SOL     OW 9645   4.557   4.777   3.449  0.3399 -0.1855  0.5719
 2443SOL    HW1 9646   4.523   4.840   3.512  0.5637  1.8150 -1.1926
 2443SOL    HW2 9647   4.557   4.694   3.496 -0.7998  0.9416  2.7234
 2444SOL     OW 9648   3.179   0.558   5.671 -0.1177  0.1925 -0.4369
 2444SOL    HW1 9649   3.211   0.516   5.750 -0.1938  0.8714 -0.0321
 2444SOL    HW2 9650   3.246   0.541   5.605  1.5157  2.2098  0.5716
 2445SOL     OW 9651   7.671   2.787  10.515  0.1332  0.8510  0.3083
 2445SOL    HW1 9652   7.708   2.816  10.431 -0.3035 -1.5144 -0.8191
 2445SOL    HW2 9653   7.641   2.697  10.497 -1.5575  0.8827  2.5525
 2446SOL     OW 9654   6.820   8.170   5.978  0.4364 -0.2856  0.6710
 2446SOL    HW1 9655   6.851   8.080   5.989  2.2573  0.1574 -0.4611
 2446SOL    HW2 9656   6.737   8.161   5.931  0.8595 -1.3781  0.0902
 2447SOL     OW 9657   7.950   0.365   6.449  0.1134 -0.0129  0.1830
 2447SOL    HW1 9658   7.911   0.296   6.502  0.2994 -0.6977 -0.5467
 2447SOL    HW2 9659   7.889   0.438   6.455 -0.9225 -0.8078 -0.3294
 2448SOL     OW 9660   3.636   1.477   2.777  0.1976 -0.2620 -0.3127
 2448SOL    HW1 9661   3.647   1.468   2.682 -0.2458  1.4198 -0.5542
 2448SOL    HW2 9662   3.725   1.471   2.812  0.1889 -3.0430 -0.5692
 2449SOL     OW 9663   1.122   6.472   1.323  0.0175 -0.0614 -0.5912
 2449SOL    HW1 9664   1.093   6.384   1.298  0.6868 -0.4575 -0.0197
 2449SOL    HW2 9665   1.043   6.517   1.352 -0.1996 -0.7743 -0.0533
 2450SOL     OW 9666   7.238   5.125   2.959 -0.3436 -0.5185  0.6589
 2450SOL    HW1 9667   7.197   5.203   2.923  0.1626 -0.6205 -0.1468
 2450SOL    HW2 9668   7.199   5.052   2.911 -0.1264 -0.7006  0.7542
 2451SOL     OW 9669   0.791   5.202   0.271  0.0760 -0.2696 -0.3687
 2451SOL    HW1 9670   0.794   5.155   0.188  1.8467 -1.0101  0.0821
 2451SOL    HW2 9671   0.881   5.203   0.302 -0.4875  0.3093  1.3841
 2452SOL     OW 9672   5.611   6.260   5.202  0.4513  0.4694 -0.7567
 2452SOL    HW1 9673   5.595   6.177   5.158  0.8226  0.9434 -1.8225
 2452SOL    HW2 9674   5.693   6.247   5.249  0.5257  0.2418 -0.9467
 2453SOL     OW 9675   0.633   5.464   5.963  0.1328  0.7430 -0.2341
 2453SOL    HW1 9676   0.727   5.455   5.978 -0.0193 -0.3741  0.0686
 2453SOL    HW2 9677   0.606   5.534   6.023  0.7092  0.8493 -0.0906
 2454SOL     OW 9678   1.396  10.092   9.406  0.2348 -0.2372  0.0262
 2454SOL    HW1 9679   1.375  10.123   9.495  2.9463  0.4831  0.5002
 2454SOL    HW2 9680   1.312  10.091   9.361 -0.7794  2.7975  1.5697
 2455SOL     OW 9681   2.165   5.122   2.164 -0.2951  0.7821 -0.0577
 2455SOL    HW1 9682   2.169   5.149   2.256 -2.9630  0.5852  0.1913
 2455SOL    HW2 9683   2.072   5.115   2.145  0.1936 -1.3918 -2.1539
 2456SOL     OW 9684   4.903   8.798   4.404  0.2705  0.1761 -0.2300
 2456SOL    HW1 9685   4.903   8.863   4.475  0.3480  0.6002 -0.6112
 2456SOL    HW2 9686   4.826   8.821   4.352  0.3525  0.0148 -0.4210
 2457SOL     OW 9687   6.951   0.129   9.533 -0.2786 -0.5053  0.1692
 2457SOL    HW1 9688   7.008   0.052   9.530  1.9190  0.9860  1.1996
 2457SOL    HW2 9689   6.968   0.173   9.449  2.1767  1.2402  1.4482
 2458SOL     OW 9690   8.201   1.247   7.153 -0.1423 -0.0441  0.4569
 2458SOL    HW1 9691   8.240   1.160   7.144  0.4882  0.3466 -1.0179
 2458SOL    HW2 9692   8.256   1.303   7.097 -0.9363  1.1589  0.8538
 2459SOL     OW 9693   3.182   9.298   1.299 -0.3678  0.0960  0.2830
 2459SOL    HW1 9694   3.125   9.302   1.376 -0.8485 -0.3031 -0.0362
 2459SOL    HW2 9695   3.271   9.301   1.333 -0.5334 -1.8673  1.0041
 2460SOL     OW 9696   2.616   4.646   7.831 -0.4707 -0.1793  0.1882
 2460SOL    HW1 9697   2.632   4.683   7.918 -0.4908 -0.1043  0.1597
 2460SOL    HW2 9698   2.585   4.557   7.849 -0.3802 -0.1972  0.2546
 2461SOL     OW 9699   7.449  10.042   1.071  0.5601 -0.9843  0.2417
 2461SOL    HW1 9700   7.420  10.114   1.015 -1.7450 -1.0807  1.2297
 2461SOL    HW2 9701   7.540  10.064   1.091 -0.1891  1.9447  0.8934
 2462SOL     OW 9702   8.289   6.989  10.397 -0.0942  0.1750 -0.2363
 2462SOL    HW1 9703   8.367   7.015  10.348  0.0761 -0.8595 -0.5545
 2462SOL    HW2 9704   8.320   6.973  10.486 -0.5643  2.9180  0.4840
 2463SOL     OW 9705   5.122   6.564   5.753 -0.4786  0.1356 -0.3808
 2463SOL    HW1 9706   5.060   6.615   5.701 -1.9496 -1.1595  0.0411
 2463SOL    HW2 9707   5.093   6.574   5.843  2.5914  3.1206  0.4813
 2464SOL     OW 9708   3.871   3.369   6.307  0.2743 -0.2821  0.2997
 2464SOL    HW1 9709   3.789   3.320   6.314  0.2493 -0.2285  0.3875
 2464SOL    HW2 9710   3.865   3.416   6.224  0.1440 -0.1466  0.3867
 2465SOL     OW 9711   2.687   0.464   8.418  0.4694  0.3199  0.0187
 2465SOL    HW1 9712   2.648   0.552   8.419  0.0094  0.1308 -0.5716
 2465SOL    HW2 9713   2.620   0.407   8.455  0.6224  0.1599  0.0502
 2466SOL     OW 9714   2.588   8.340  10.151  0.2644 -0.0451 -0.3061
 2466SOL    HW1 9715   2.651   8.387  10.098  0.4097  0.8925  0.6563
 2466SOL    HW2 9716   2.599   8.376  10.239  0.0943 -1.6006  0.3932
 2467SOL     OW 9717   2.751   0.339   6.288 -0.3071  0.1985  0.3614
 2467SOL    HW1 9718   2.696   0.343   6.367  0.0946 -1.3910  0.7767
 2467SOL    HW2 9719   2.820   0.277   6.311  0.6443  0.8116 -0.7676
 2468SOL     OW 9720   2.999   8.759   9.494  0.5316  0.2988 -0.2720
 2468SOL    HW1 9721   3.057   8.830   9.521  0.8218  0.3721 -1.0623
 2468SOL    HW2 9722   2.913   8.783   9.528  0.2085  2.0057 -2.1050
 2469SOL     OW 9723   9.690   7.060   1.600 -0.2611  0.2897 -0.2654
 2469SOL    HW1 9724   9.673   7.062   1.694  1.0031  2.4677 -0.0049
 2469SOL    HW2 9725   9.608   7.092   1.561 -0.5294  0.1349  0.1571
 2470SOL     OW 9726   0.561  10.286   9.443  0.0494  0.9153  0.1722
 2470SOL    HW1 9727   0.650  10.321   9.436 -0.1173  1.4044  0.4544
 2470SOL    HW2 9728   0.561  10.209   9.386  0.5651  1.0880 -0.0664
 2471SOL     OW 9729   3.719   9.749   6.753 -0.2187 -0.5302 -0.2735
 2471SOL    HW1 9730   3.762   9.761   6.837  0.2844 -0.0266 -0.6045
 2471SOL    HW2 9731   3.659   9.823   6.745 -0.3092 -0.6087 -0.3417
 2472SOL     OW 9732   5.879   9.612   0.399 -0.0078 -0.4691 -0.6894
 2472SOL    HW1 9733   5.796   9.659   0.402 -0.1270 -0.5490 -2.1305
 2472SOL    HW2 9734   5.945   9.681   0.410 -0.2371 -0.3601  0.0911
 2473SOL     OW 9735   8.030   7.858   1.003 -0.1941  0.0967  0.0694
 2473SOL    HW1 9736   7.956   7.850   1.063 -1.4153  1.6577 -1.1442
 2473SOL    HW2 9737   8.090   7.918   1.046 -0.2494 -0.1369  0.4766
 2474SOL     OW 9738   9.768   4.192   2.849 -0.2637  0.1595  0.0871
 2474SOL    HW1 9739   9.750   4.166   2.940  0.3082 -2.2806 -0.4094
 2474SOL    HW2 9740   9.862   4.175   2.838  0.8129  4.7175  0.2473
 2475SOL     OW 9741   3.385   6.796   2.338  0.1244 -0.6223 -0.3077
 2475SOL    HW1 9742   3.480   6.799   2.329  0.3259 -2.9569  0.3733
 2475SOL    HW2 9743   3.371   6.792   2.433 -0.7815  1.2335 -0.3170
 2476SOL     OW 9744   9.581   8.296   5.717 -0.0760 -0.0366 -0.0538
 2476SOL    HW1 9745   9.594   8.286   5.623  0.3389  0.9523 -0.1129
 2476SOL    HW2 9746   9.669   8.313   5.752  0.1914 -2.8262  0.8745
 2477SOL     OW 9747  10.409   5.989   7.049  0.9703 -0.5437 -0.0275
 2477SOL    HW1 9748  10.370   5.942   6.976  0.1948 -0.6791  0.4653
 2477SOL    HW2 9749  10.338   5.999   7.112  1.1650  1.0725 -0.0113
 2478SOL     OW 9750   9.175   2.860   3.681 -0.4049  0.3796 -0.2366
 2478SOL    HW1 9751   9.088   2.898   3.695  0.0814  1.2428  0.4803
 2478SOL    HW2 9752   9.177   2.784   3.740  0.5048  2.2486  2.2945
 2479SOL     OW 9753   7.117   8.973   4.207  0.3294  0.4728 -0.4348
 2479SOL    HW1 9754   7.153   8.941   4.290  0.5581 -0.1996 -0.7884
 2479SOL    HW2 9755   7.106   9.067   4.221  0.1157  0.3239  0.4462
 2480SOL     OW 9756   5.422   0.692   6.202  0.1747 -0.0881  0.0658
 2480SOL    HW1 9757   5.477   0.730   6.270  0.2988  1.0493 -0.6373
 2480SOL    HW2 9758   5.439   0.598   6.206 -0.3082 -0.1340  2.0124
 2481SOL     OW 9759   3.641  10.397   5.076  0.0605  0.0644  0.9871
 2481SOL    HW1 9760   3.612  10.487   5.090  0.8398  0.2170  1.6836
 2481SOL    HW2 9761   3.560  10.347   5.068 -0.4037  0.5947  2.1210
 2482SOL     OW 9762   4.479   9.234   8.705 -0.8356  0.1175  0.0632
 2482SOL    HW1 9763   4.434   9.318   8.710 -0.0516  0.4932  1.2045
 2482SOL    HW2 9764   4.507   9.227   8.614 -0.4719  1.3271  0.0746
 2483SOL     OW 9765   4.911   3.411   3.957  0.2337  0.4129  0.4847
 2483SOL    HW1 9766   4.952   3.466   3.890  0.5248  1.2639  1.3361
 2483SOL    HW2 9767   4.977   3.345   3.978  0.1832  0.2081  0.0264
 2484SOL     OW 9768   8.047   8.666   7.261 -0.3117 -0.0958  0.1908
 2484SOL    HW1 9769   8.091   8.701   7.338 -0.4972  1.7373 -0.5082
 2484SOL    HW2 9770   7.955   8.658   7.287  0.0071 -1.8186  0.9216
 2485SOL     OW 9771   4.127   4.733   4.810 -0.6481  0.3725 -0.4391
 2485SOL    HW1 9772   4.175   4.809   4.841 -1.8045  0.1679  2.1317
 2485SOL    HW2 9773   4.036   4.750   4.836 -1.3144 -0.8706 -1.8472
 2486SOL     OW 9774   7.829   1.579   3.589  0.2481 -0.4682  0.7270
 2486SOL    HW1 9775   7.900   1.589   3.652 -0.2764  0.8985  1.1322
 2486SOL    HW2 9776   7.810   1.669   3.560 -2.1915 -0.6215  1.6324
 2487SOL     OW 9777   8.333   8.773   0.714  0.5291  0.2513 -0.2764
 2487SOL    HW1 9778   8.290   8.818   0.641  0.3263  0.8563  0.2090
 2487SOL    HW2 9779   8.379   8.700   0.673 -1.4054 -0.7647 -0.7569
 2488SOL     OW 9780   6.953   0.610   9.259 -0.3936 -0.0654  0.0023
 2488SOL    HW1 9781   6.932   0.625   9.351 -0.3076 -1.5151  0.2851
 2488SOL    HW2 9782   6.869   0.617   9.213 -0.3217  1.4609  0.0445
 2489SOL     OW 9783   1.327   8.683   2.935 -0.4646 -0.2256 -0.3968
 2489SOL    HW1 9784   1.297   8.656   2.848  0.0502 -0.6765 -0.4407
 2489SOL    HW2 9785   1.422   8.677   2.931 -0.4551 -0.7776  0.3600
 2490SOL     OW 9786   1.994   6.403   4.436  0.2855 -0.1920 -0.2906
 2490SOL    HW1 9787   1.915   6.377   4.388 -0.4642  0.7966  0.3424
 2490SOL    HW2 9788   2.062   6.345   4.404 -0.7729 -1.3109 -0.6113
 2491SOL     OW 9789   0.181   9.384  10.443 -0.7150  0.1818 -0.1026
 2491SOL    HW1 9790   0.105   9.333  10.416  0.0613 -1.7199  1.1015
 2491SOL    HW2 9791   0.232   9.324  10.497  0.9343  1.8529  0.2917
 2492SOL     OW 9792   4.926   7.209   4.892  0.3936 -0.1998 -0.1314
 2492SOL    HW1 9793   4.934   7.114   4.896 -0.6366 -0.2625  1.4798
 2492SOL    HW2 9794   5.013   7.242   4.912  0.9192 -0.7815 -1.3625
 2493SOL     OW 9795   1.475   7.285   1.846  0.3793  0.4143  0.4543
 2493SOL    HW1 9796   1.564   7.290   1.883  0.3503  0.5304  0.5098
 2493SOL    HW2 9797   1.422   7.335   1.908  0.4849  1.4006 -0.2299
 2494SOL     OW 9798   4.531   5.970   9.556 -0.1119 -0.1222 -0.2010
 2494SOL    HW1 9799   4.495   5.941   9.472 -2.1106  1.1117  0.1598
 2494SOL    HW2 9800   4.541   5.889   9.607  1.0636 -0.8820 -1.5470
 2495SOL     OW 9801   8.353  10.471  10.517 -0.0656  0.1891 -0.3954
 2495SOL    HW1 9802   8.282  10.510  10.567  0.9345  0.5457  0.7934
 2495SOL    HW2 9803   8.315  10.393  10.476 -1.2759  0.7001 -0.2820
 2496SOL     OW 9804   3.512   5.529   2.379  0.1848 -0.4155 -0.3850
 2496SOL    HW1 9805   3.496   5.621   2.399 -0.8138 -0.9777  1.7241
 2496SOL    HW2 9806   3.607   5.519   2.383  0.2493  0.3703  0.1048
 2497SOL     OW 9807   8.383   6.085   5.021  0.5723  0.3353 -0.1951
 2497SOL    HW1 9808   8.416   6.086   4.932  1.6923 -1.4243  0.1576
 2497SOL    HW2 9809   8.458   6.111   5.075  0.6451 -1.0213  0.4004
 2498SOL     OW 9810   1.315   7.157   9.450 -0.1722 -0.3301 -0.3725
 2498SOL    HW1 9811   1.371   7.215   9.400 -0.5447  1.4773  1.1558
 2498SOL    HW2 9812   1.244   7.134   9.390  0.5485 -0.0761 -1.3435
 2499SOL     OW 9813   4.071   6.361   3.303  0.1243  0.7415  0.0326
 2499SOL    HW1 9814   4.040   6.419   3.233 -1.3162  1.2699  1.0478
 2499SOL    HW2 9815   4.130   6.300   3.260 -0.6971  1.0671 -1.6431
 2500SOL     OW 9816   0.890   3.758   3.744  0.5309 -0.6103  0.2387
 2500SOL    HW1 9817   0.881   3.663   3.737  1.0761 -0.5564 -1.5328
 2500SOL    HW2 9818   0.823   3.794   3.686  0.6283  0.0925  0.5450
 2501SOL     OW 9819   1.531   6.565   4.707 -0.3400  0.5550  0.4406
 2501SOL    HW1 9820   1.460   6.596   4.762 -0.2499  0.0816  0.8236
 2501SOL    HW2 9821   1.505   6.477   4.681  0.8795 -0.2903  1.9697
 2502SOL     OW 9822  10.487   4.087   6.721 -0.7952 -0.2789 -0.3468
 2502SOL    HW1 9823  10.515   4.122   6.636  0.4604 -0.1606  0.0864
 2502SOL    HW2 9824  10.537   4.138   6.785 -1.3796 -0.6828  0.4378
 2503SOL     OW 9825   2.829   2.723   4.489  1.0213  0.6876  0.8364
 2503SOL    HW1 9826   2.906   2.754   4.537  2.2134 -0.1475 -0.4401
 2503SOL    HW2 9827   2.822   2.630   4.513  0.7472  0.6299  0.5437
 2504SOL     OW 9828   1.866   3.741   8.970 -0.9125 -0.2355 -0.0965
 2504SOL    HW1 9829   1.894   3.748   9.061 -2.0034  0.5566  0.2064
 2504SOL    HW2 9830   1.947   3.739   8.920 -0.2874 -1.2984  0.9172
 2505SOL     OW 9831   9.151   0.462   4.367 -0.0948 -0.2569 -0.5261
 2505SOL    HW1 9832   9.240   0.434   4.387  0.2916  0.2931 -1.4025
 2505SOL    HW2 9833   9.120   0.506   4.447  1.6928  2.6171 -1.2532
 2506SOL     OW 9834   5.071   8.927   2.793 -0.4994  0.9662  0.1302
 2506SOL    HW1 9835   4.985   8.928   2.834 -0.6434  0.0813 -0.1284
 2506SOL    HW2 9836   5.065   8.991   2.723 -0.7861  1.2715  0.4315
 2507SOL     OW 9837   2.698   0.269   5.824  0.1823  0.4353 -0.3730
 2507SOL    HW1 9838   2.676   0.192   5.876  1.1736 -0.4430 -1.2131
 2507SOL    HW2 9839   2.783   0.297   5.857  0.3228  0.5101 -0.7939
 2508SOL     OW 9840   5.773   0.657   1.608  0.0785  0.1757  0.5664
 2508SOL    HW1 9841   5.774   0.589   1.540  0.5195  0.1312  0.6180
 2508SOL    HW2 9842   5.734   0.733   1.565 -1.7120 -0.5111  0.9030
 2509SOL     OW 9843  10.045   1.924   6.203  0.1925 -0.0989 -0.7317
 2509SOL    HW1 9844  10.131   1.928   6.245 -0.3871  3.1407  0.4163
 2509SOL    HW2 9845  10.059   1.869   6.126  3.2621  0.1911 -0.5091
 2510SOL     OW 9846   4.920   2.649  10.137  0.5059  0.1884  0.2503
 2510SOL    HW1 9847   4.978   2.667  10.211  2.2539  0.0484 -1.0257
 2510SOL    HW2 9848   4.931   2.725  10.079 -0.7076  0.2241  0.0505
 2511SOL     OW 9849   3.138   3.156   2.204 -0.4715  0.1326  0.3990
 2511SOL    HW1 9850   3.142   3.087   2.270 -0.1258 -0.8640 -0.6233
 2511SOL    HW2 9851   3.049   3.151   2.169 -0.6565  0.6633  0.7776
 2512SOL     OW 9852   9.643   4.477   3.630 -0.0402  0.2266 -0.6166
 2512SOL    HW1 9853   9.660   4.383   3.631 -1.6013 -0.0706 -0.5717
 2512SOL    HW2 9854   9.678   4.509   3.713 -2.1125 -0.8225  0.7301
 2513SOL     OW 9855   4.205   5.843   8.234 -0.2043 -0.0537 -0.0402
 2513SOL    HW1 9856   4.110   5.848   8.245 -0.3245  2.2253 -1.4541
 2513SOL    HW2 9857   4.219   5.808   8.147  0.2647 -0.5068  0.2095
 2514SOL     OW 9858   1.437   0.668   1.703 -0.1797  0.0545  0.0741
 2514SOL    HW1 9859   1.345   0.666   1.678 -0.1389 -0.3860 -0.0403
 2514SOL    HW2 9860   1.438   0.636   1.793 -0.0314 -0.8607 -0.2488
 2515SOL     OW 9861   8.216   9.962   5.583 -0.0366 -0.3285 -0.0339
 2515SOL    HW1 9862   8.207   9.868   5.601 -1.3930  0.0511  1.4858
 2515SOL    HW2 9863   8.149  10.003   5.637  1.0328  1.5942 -0.0984
 2516SOL     OW 9864  10.378   4.533   2.409  0.0939 -0.1268  0.9363
 2516SOL    HW1 9865  10.332   4.561   2.330  0.3397  2.3558  1.5839
 2516SOL    HW2 9866  10.445   4.472   2.378  1.0871  1.8325 -1.0222
 2517SOL     OW 9867   1.773   4.730   4.174 -0.0695  0.5583 -0.1760
 2517SOL    HW1 9868   1.844   4.680   4.133  0.6622 -0.9114  2.6086
 2517SOL    HW2 9869   1.773   4.700   4.265 -3.2742  1.6712  0.2985
 2518SOL     OW 9870   3.080   7.477   5.804 -0.5617 -0.3218  0.3585
 2518SOL    HW1 9871   3.164   7.519   5.825 -0.2458 -0.7678  0.0242
 2518SOL    HW2 9872   3.079   7.399   5.858 -0.5455 -0.5590  0.0202
 2519SOL     OW 9873   8.960   8.172   2.878  0.3987  0.1288  0.7994
 2519SOL    HW1 9874   8.878   8.141   2.914  0.3463 -0.4691  0.1866
 2519SOL    HW2 9875   8.944   8.177   2.784  0.6253  1.3601  0.8135
 2520SOL     OW 9876   9.655   7.727   0.253 -0.4500  0.4817 -0.2829
 2520SOL    HW1 9877   9.641   7.730   0.348 -2.0479  1.0655 -0.5114
 2520SOL    HW2 9878   9.737   7.678   0.243  1.1408  2.5068  1.5179
 2521SOL     OW 9879   7.586   1.981   0.400  0.3500 -0.0946 -0.2711
 2521SOL    HW1 9880   7.619   1.975   0.311 -2.7438  0.8270 -1.6198
 2521SOL    HW2 9881   7.499   1.941   0.396  0.3673 -0.6109  2.5172
 2522SOL     OW 9882  10.352   8.412   9.262 -0.6398 -0.1136  0.0555
 2522SOL    HW1 9883  10.258   8.392   9.266 -0.6070 -0.2501  0.1606
 2522SOL    HW2 9884  10.356   8.503   9.231 -0.7503 -0.7377 -1.9143
 2523SOL     OW 9885   2.410  10.450   4.148 -0.6213  1.0339  0.0203
 2523SOL    HW1 9886   2.366  10.525   4.107 -0.0749  1.0457 -0.5593
 2523SOL    HW2 9887   2.488  10.486   4.188  0.6288  0.5449 -1.8295
 2524SOL     OW 9888   9.174   9.465   3.323 -0.7162  0.1399 -0.2092
 2524SOL    HW1 9889   9.157   9.477   3.230 -1.9982 -0.1577 -0.0345
 2524SOL    HW2 9890   9.256   9.415   3.327 -1.8195 -1.8621 -1.2518
 2525SOL     OW 9891   2.376   0.353   4.035  0.4631  0.1152 -0.0180
 2525SOL    HW1 9892   2.461   0.399   4.031  1.6593 -2.0248 -0.6156
 2525SOL    HW2 9893   2.312   0.424   4.040  2.1290  1.9265 -1.9595
 2526SOL     OW 9894   2.474   9.046   3.284 -0.5946  0.1511  0.6198
 2526SOL    HW1 9895   2.529   8.987   3.335 -0.2167  1.4188  1.7290
 2526SOL    HW2 9896   2.385   9.013   3.297 -0.3394 -0.5271  0.7123
 2527SOL     OW 9897   5.529   5.088   3.258 -0.7213 -0.8078  0.2262
 2527SOL    HW1 9898   5.498   5.011   3.306 -1.6059  0.3314  1.5487
 2527SOL    HW2 9899   5.561   5.147   3.326 -1.0240  0.4207 -0.6753
 2528SOL     OW 9900   5.160   1.961   2.877 -0.1615  0.2674 -0.2971
 2528SOL    HW1 9901   5.246   1.952   2.837 -0.5350 -0.1377 -1.0346
 2528SOL    HW2 9902   5.135   1.871   2.899 -0.5395  0.3444 -0.4097
 2529SOL     OW 9903   5.477   2.799   5.936  0.1056  0.0235  0.0227
 2529SOL    HW1 9904   5.509   2.838   5.855  0.2293 -0.7518 -0.3160
 2529SOL    HW2 9905   5.405   2.743   5.908  0.2651 -0.3863  0.4217
 2530SOL     OW 9906   2.977   7.475   7.946  0.0098  0.0749 -0.2348
 2530SOL    HW1 9907   2.916   7.402   7.941  1.3476 -1.0126 -2.3148
 2530SOL    HW2 9908   3.058   7.436   7.979 -0.0952  1.2939  1.5895
 2531SOL     OW 9909   6.245   6.052   0.837  0.1445 -0.1607  0.5834
 2531SOL    HW1 9910   6.219   6.082   0.750  1.8077 -0.6699 -0.1116
 2531SOL    HW2 9911   6.208   6.117   0.897 -0.9526  0.2350 -0.4950
 2532SOL     OW 9912   7.519   8.635   9.393 -0.0827  0.1838  0.1941
 2532SOL    HW1 9913   7.581   8.565   9.373 -1.6601 -1.2788  0.2169
 2532SOL    HW2 9914   7.474   8.653   9.310 -0.2563  0.6012  0.3735
 2533SOL     OW 9915   4.831   8.342  10.583 -0.5948 -0.0370 -0.0649
 2533SOL    HW1 9916   4.873   8.393  10.652 -0.6446 -0.5605  0.3576
 2533SOL    HW2 9917   4.776   8.279  10.629  0.5883 -1.4609 -0.5374
 2534SOL     OW 9918   8.558   3.182   8.292  0.0086  0.2784  0.1013
 2534SOL    HW1 9919   8.576   3.089   8.281  0.2001  0.2426  0.6358
 2534SOL    HW2 9920   8.615   3.208   8.366 -0.6430  0.6291  0.4877
 2535SOL     OW 9921   9.157   7.228   5.614  0.3291 -0.3560  0.0204
 2535SOL    HW1 9922   9.200   7.268   5.539 -0.3282 -0.5427 -0.4676
 2535SOL    HW2 9923   9.161   7.134   5.597  0.0255 -0.3901  0.1268
 2536SOL     OW 9924   6.015   5.918   9.465 -0.0890 -0.1226  0.0461
 2536SOL    HW1 9925   6.049   5.868   9.539  0.8766  0.1756 -0.1741
 2536SOL    HW2 9926   5.966   5.854   9.414 -0.9968 -0.2671  1.0756
 2537SOL     OW 9927   0.500   4.309   8.705 -0.7554 -0.0495 -0.2524
 2537SOL    HW1 9928   0.457   4.234   8.666  0.2523 -2.0079  2.1182
 2537SOL    HW2 9929   0.553   4.347   8.635 -0.0017 -2.5764 -1.1387
 2538SOL     OW 9930  10.032   1.542   2.593  1.2802  0.1197 -0.0667
 2538SOL    HW1 9931   9.972   1.612   2.618 -0.8817 -1.4711 -0.5004
 2538SOL    HW2 9932  10.119   1.581   2.601  0.2278  2.4987  0.7224
 2539SOL     OW 9933   6.397   6.868   7.452 -0.0936 -0.3415  0.2489
 2539SOL    HW1 9934   6.310   6.903   7.435  0.3047 -0.0554 -1.4167
 2539SOL    HW2 9935   6.453   6.911   7.386  1.2226 -0.8329  1.0081
 2540SOL     OW 9936   8.729   2.408  10.431  0.1139 -0.4023 -0.2256
 2540SOL    HW1 9937   8.711   2.494  10.393  0.8784  0.0448  0.4000
 2540SOL    HW2 9938   8.805   2.376  10.382 -0.4830 -0.9694 -0.8137
 2541SOL     OW 9939   2.128   3.205   9.763 -0.5580  0.0951  0.1615
 2541SOL    HW1 9940   2.110   3.235   9.674 -1.2914 -0.6717  0.0435
 2541SOL    HW2 9941   2.217   3.237   9.781  0.6350 -1.7937 -1.7620
 2542SOL     OW 9942   0.801   7.568  10.577 -0.0352 -0.0582 -0.3215
 2542SOL    HW1 9943   0.737   7.498  10.590  2.6021 -2.4834  0.4508
 2542SOL    HW2 9944   0.855   7.538  10.504  1.8788  0.5831  0.7633
 2543SOL     OW 9945   6.118   2.361   8.007  0.0195 -0.2277 -0.4392
 2543SOL    HW1 9946   6.204   2.383   8.042  0.7791 -1.4567 -1.4471
 2543SOL    HW2 9947   6.073   2.445   7.998  1.2570  0.4729 -0.2791
 2544SOL     OW 9948   1.785   7.283   1.480 -0.1825 -0.0183 -0.0317
 2544SOL    HW1 9949   1.806   7.360   1.534 -1.8434 -1.1150  2.3738
 2544SOL    HW2 9950   1.864   7.228   1.485  0.4524  0.8331 -0.4962
 2545SOL     OW 9951  10.218   7.498   4.149 -0.6413 -0.4682 -0.2154
 2545SOL    HW1 9952  10.175   7.583   4.161  0.9741  0.7970 -2.5083
 2545SOL    HW2 9953  10.239   7.495   4.056 -0.3487 -3.2811 -0.1338
 2546SOL     OW 9954   7.484   3.234   3.166  0.2010  0.4900 -0.1026
 2546SOL    HW1 9955   7.473   3.219   3.260  0.6946  0.7936  0.0046
 2546SOL    HW2 9956   7.568   3.194   3.144 -0.5107 -0.7486 -0.6867
 2547SOL     OW 9957   9.169   8.466   7.760  0.1203 -0.1215 -0.2910
 2547SOL    HW1 9958   9.248   8.411   7.767  0.6609  0.3976 -1.9652
 2547SOL    HW2 9959   9.200   8.547   7.720 -1.0201  0.6700  0.3953
 2548SOL     OW 9960   0.079   6.908   4.952  0.0561  0.5749  0.2180
 2548SOL    HW1 9961   0.155   6.871   4.997 -1.3601 -0.9475  1.4538
 2548SOL    HW2 9962   0.052   6.981   5.007  0.2261  0.7071  0.1272
 2549SOL     OW 9963   8.465   7.738   2.238 -0.0924 -0.1925  1.0394
 2549SOL    HW1 9964   8.511   7.822   2.247  1.7008 -0.6370 -2.1861
 2549SOL    HW2 9965   8.379   7.762   2.204  0.0857  0.3885  0.9846
 2550SOL     OW 9966   8.271   8.664   9.651 -0.6203 -0.4688  0.0544
 2550SOL    HW1 9967   8.265   8.568   9.656 -1.8800 -0.3437  2.0175
 2550SOL    HW2 9968   8.188   8.695   9.687 -0.0849  1.3901 -0.2184
 2551SOL     OW 9969   2.179   9.670   6.328 -0.3047  0.0053  0.1898
 2551SOL    HW1 9970   2.171   9.723   6.407 -0.4557 -1.2935  1.0743
 2551SOL    HW2 9971   2.256   9.615   6.343  0.8787  1.1420 -1.4402
 2552SOL     OW 9972   9.300   2.905   0.865 -0.1803  0.0042  0.4636
 2552SOL    HW1 9973   9.209   2.927   0.850 -0.2213 -0.1074  0.5529
 2552SOL    HW2 9974   9.304   2.880   0.957 -0.4341 -1.8967 -0.0077
 2553SOL     OW 9975   1.558  10.486   5.577 -0.0052  0.0758 -0.5051
 2553SOL    HW1 9976   1.504  10.489   5.498  0.3146  1.3468 -0.6996
 2553SOL    HW2 9977   1.644  10.457   5.546 -0.3234 -1.1011 -0.3330
 2554SOL     OW 9978   8.159   8.713  10.489 -0.0756 -0.1235  0.4972
 2554SOL    HW1 9979   8.193   8.625  10.477 -0.3971 -0.2031  0.1480
 2554SOL    HW2 9980   8.163   8.752  10.401 -0.9013 -0.1413  0.4417
 2555SOL     OW 9981   7.471   6.495   4.688 -0.5214  0.0057 -0.1956
 2555SOL    HW1 9982   7.499   6.574   4.735 -0.0387 -0.5767  0.5356
 2555SOL    HW2 9983   7.499   6.509   4.598 -0.5262  0.7076 -0.0955
 2556SOL     OW 9984   3.948   9.469   9.746 -0.2312 -0.0300  0.2212
 2556SOL    HW1 9985   3.989   9.508   9.823 -1.7754 -1.8917  2.0930
 2556SOL    HW2 9986   3.866   9.432   9.778 -1.0613 -0.6889 -2.3831
 2557SOL     OW 9987   9.190   7.145   4.685  0.1402  0.2942 -0.1143
 2557SOL    HW1 9988   9.131   7.219   4.702 -0.8256 -0.4984  0.1135
 2557SOL    HW2 9989   9.155   7.075   4.740  2.2685  0.2427  1.2638
 2558SOL     OW 9990   3.780   7.409   9.886 -0.1744  0.0459  0.2237
 2558SOL    HW1 9991   3.723   7.341   9.921  0.5479 -1.2590 -1.0347
 2558SOL    HW2 9992   3.750   7.423   9.796  0.1633  0.8751  0.2227
 2559SOL     OW 9993  10.106   1.483   5.626  0.5679 -0.0290  0.2151
 2559SOL    HW1 9994  10.128   1.502   5.535  0.5752 -2.1689 -0.3013
 2559SOL    HW2 9995  10.150   1.399   5.644 -1.3597 -0.8668  1.4009
 2560SOL     OW 9996   6.514   3.928   3.771  0.3988  0.5461 -0.3590
 2560SOL    HW1 9997   6.538   4.020   3.788  2.1103  0.4971 -2.1832
 2560SOL    HW2 9998   6.549   3.881   3.847  0.2031  1.2921  0.2129
 2561SOL     OW 9999   3.989   7.616   6.343 -0.4440 -0.2746  0.3451
 2561SOL    HW110000   3.962   7.670   6.268  1.4470  0.6831  0.2956
 2561SOL    HW210001   4.026   7.537   6.303  0.7763  0.3373  0.2261
 2562SOL     OW10002   4.879   0.346   2.825  0.1651 -0.6890  0.5026
 2562SOL    HW110003   4.801   0.291   2.815 -0.8374  0.7101  0.2839
 2562SOL    HW210004   4.907   0.332   2.915  0.0365 -1.6672  0.4048
 2563SOL     OW10005   2.571   9.711   0.781  0.3624  0.3026 -0.3759
 2563SOL    HW110006   2.534   9.766   0.713  1.5158  1.5069 -0.0724
 2563SOL    HW210007   2.539   9.748   0.863  1.8616  1.1327 -0.1271
 2564SOL     OW10008  10.063   9.733   7.735 -0.2778 -0.2126 -0.1001
 2564SOL    HW110009  10.046   9.660   7.795  1.2427 -0.0958  0.5326
 2564SOL    HW210010  10.149   9.713   7.698  0.4159  1.5070  0.4871
 2565SOL     OW10011   4.221   6.258   9.987 -0.1152  0.7268 -0.3867
 2565SOL    HW110012   4.272   6.210   9.922  0.8084 -0.2713  1.0039
 2565SOL    HW210013   4.278   6.328  10.017  0.2023  0.0531  0.6473
 2566SOL     OW10014   1.452   6.781   0.278 -0.1993 -0.2848  0.1801
 2566SOL    HW110015   1.391   6.833   0.330  2.4248  1.1244  2.1199
 2566SOL    HW210016   1.428   6.690   0.295 -1.3119  0.2141  1.4177
 2567SOL     OW10017   6.994   4.041  10.004  0.2559 -0.2330  0.2832
 2567SOL    HW110018   6.955   3.957  10.027 -1.2268  1.0546  3.1359
 2567SOL    HW210019   6.938   4.075   9.934 -1.2317 -0.2600  1.3975
 2568SOL     OW10020   6.156  10.464   2.117  0.6884 -0.2554 -0.3834
 2568SOL    HW110021   6.192  10.546   2.083  0.9911 -0.4050 -0.4375
 2568SOL    HW210022   6.204  10.449   2.198 -1.5594  1.2222  1.3386
 2569SOL     OW10023   7.985   7.576   2.931 -0.3291 -0.1725 -0.0264
 2569SOL    HW110024   7.986   7.492   2.977  0.6622 -1.1494 -1.7247
 2569SOL    HW210025   8.069   7.580   2.887 -1.5002  0.3242 -2.3748
 2570SOL     OW10026   2.676   3.023  10.469  0.1336 -0.5665 -0.0656
 2570SOL    HW110027   2.585   3.002  10.491  0.5087 -0.3207  1.8855
 2570SOL    HW210028   2.728   2.962  10.521  1.1105  0.1118 -0.2166
 2571SOL     OW10029   0.100   8.951   6.367  0.1240 -1.1586 -0.0652
 2571SOL    HW110030   0.053   8.870   6.351 -1.1961 -0.4836  0.2656
 2571SOL    HW210031   0.040   9.005   6.419  1.1479 -0.1529  0.1286
 2572SOL     OW10032   8.481   8.927   3.358 -0.3611  0.4996  0.1024
 2572SOL    HW110033   8.564   8.920   3.309 -0.2601 -0.9759  0.4153
 2572SOL    HW210034   8.452   9.016   3.343 -0.1406  0.2369 -2.3458
 2573SOL     OW10035   6.162  10.311   5.340  0.1652 -0.0169 -0.4769
 2573SOL    HW110036   6.109  10.350   5.270  0.9422  1.7059 -0.1767
 2573SOL    HW210037   6.174  10.383   5.402  0.4188 -1.2059  0.8850
 2574SOL     OW10038   4.141   4.645   0.737  0.2443  0.5780 -0.1196
 2574SOL    HW110039   4.190   4.724   0.716  0.5192  0.5712  0.4903
 2574SOL    HW210040   4.050   4.674   0.744  0.3824  0.8869  0.3744
 2575SOL     OW10041   2.971   4.905   6.049 -0.5656 -0.0087  0.0845
 2575SOL    HW110042   2.964   4.944   5.962 -1.4095  0.9145  0.5563
 2575SOL    HW210043   2.926   4.821   6.041  1.1156 -0.8718 -0.8923
 2576SOL     OW10044   0.395   3.115  10.543 -0.3296  0.3132  0.2121
 2576SOL    HW110045   0.397   3.076  10.631 -0.2247 -0.1787 -0.0030
 2576SOL    HW210046   0.386   3.209  10.559  0.3130  0.2978  0.7681
 2577SOL     OW10047   0.466   7.886   1.342 -0.4506  0.8288 -0.1136
 2577SOL    HW110048   0.481   7.793   1.357 -2.0241  0.5413 -0.1243
 2577SOL    HW210049   0.442   7.921   1.428  0.5723  1.3303 -0.0213
 2578SOL     OW10050   1.567   7.959   9.508 -0.6506  0.0341 -0.0454
 2578SOL    HW110051   1.488   8.000   9.473 -1.0479 -1.5475 -1.1364
 2578SOL    HW210052   1.573   7.876   9.461  0.7772 -0.6056  1.1919
 2579SOL     OW10053   3.998   0.133   3.467  0.1771 -0.0332 -0.3504
 2579SOL    HW110054   4.024   0.041   3.468 -1.1884 -0.4435  0.7077
 2579SOL    HW210055   3.945   0.142   3.388  0.7236 -0.0308 -0.7176
 2580SOL     OW10056   3.966   3.119   6.839  0.2439  0.3169  0.0308
 2580SOL    HW110057   3.880   3.159   6.853  0.0217 -0.1251 -0.0730
 2580SOL    HW210058   3.949   3.025   6.838  0.3465  0.2678 -2.3482
 2581SOL     OW10059   8.319   0.782   3.681 -0.2696 -0.8870  0.2788
 2581SOL    HW110060   8.320   0.765   3.587  1.2765 -0.0665  0.1193
 2581SOL    HW210061   8.318   0.877   3.688 -0.8537 -0.9409  1.1122
 2582SOL     OW10062   0.862   6.975   1.240  0.4036 -0.3253  0.2834
 2582SOL    HW110063   0.866   6.973   1.336 -1.3773  0.7551  0.4120
 2582SOL    HW210064   0.773   6.947   1.219  0.9117 -1.0058 -1.1086
 2583SOL     OW10065   1.710  10.076   0.767 -0.6729  0.1196 -0.3681
 2583SOL    HW110066   1.778  10.018   0.802 -0.4641  0.0027 -0.9631
 2583SOL    HW210067   1.631  10.052   0.816 -1.0491 -1.9838 -1.8369
 2584SOL     OW10068   7.969   1.134   5.533  0.4230 -0.5122  0.7104
 2584SOL    HW110069   7.897   1.164   5.589  0.6805  3.0196 -0.5848
 2584SOL    HW210070   8.048   1.154   5.584  0.5688 -1.0329  0.6893
 2585SOL     OW10071   6.709   1.803   1.363  0.5694  0.0971  0.5321
 2585SOL    HW110072   6.749   1.889   1.361 -0.3892  0.5571  0.1507
 2585SOL    HW210073   6.689   1.783   1.271  1.3310 -0.8074  0.5448
 2586SOL     OW10074   6.780  10.434  10.103  0.5541 -0.4246 -0.1769
 2586SOL    HW110075   6.733  10.512  10.133  0.1068 -0.6496 -0.2850
 2586SOL    HW210076   6.794  10.449  10.009 -1.7838 -1.5630 -0.8032
 2587SOL     OW10077   7.112   6.864   6.462  0.0691  0.1477  0.5739
 2587SOL    HW110078   7.162   6.783   6.461  0.3118  0.2971  0.3928
 2587SOL    HW210079   7.023   6.838   6.435  0.4402  0.1246 -0.7120
 2588SOL     OW10080   8.009   8.490   9.855  0.1604 -0.4925 -0.0166
 2588SOL    HW110081   7.990   8.579   9.881 -0.4950 -0.7048  0.2392
 2588SOL    HW210082   8.092   8.469   9.899  1.5825  0.7715 -1.9280
 2589SOL     OW10083   1.077   8.025   2.569 -0.0356 -0.1470 -0.1530
 2589SOL    HW110084   1.171   8.044   2.568 -0.0429  0.0812 -2.5008
 2589SOL    HW210085   1.036   8.111   2.573 -0.1091 -0.1342 -0.9578
 2590SOL     OW10086  10.309  10.286   4.005  0.4935 -0.2447  0.1838
 2590SOL    HW110087  10.383  10.315   3.952 -0.0473 -1.3245 -1.2230
 2590SOL    HW210088  10.250  10.362   4.007  0.8370  0.0354 -0.1649
 2591SOL     OW10089   1.437   1.976   9.656 -0.0770  0.0982  0.0710
 2591SOL    HW110090   1.449   1.911   9.725 -0.0874 -0.8499 -0.7889
 2591SOL    HW210091   1.386   2.045   9.697  0.2331 -0.2757  1.1121
 2592SOL     OW10092   0.475   9.008  10.048  0.2675  1.0140 -0.1212
 2592SOL    HW110093   0.563   9.025  10.015  1.0213 -1.7513  0.2475
 2592SOL    HW210094   0.485   9.005  10.144 -0.3836  1.3980 -0.0341
 2593SOL     OW10095   2.088   0.748   2.863  0.7448 -0.3065 -0.1226
 2593SOL    HW110096   2.135   0.809   2.920  0.3195 -1.3098  1.3433
 2593SOL    HW210097   2.069   0.672   2.918 -2.0057 -0.2441 -0.8416
 2594SOL     OW10098   1.869   6.680   1.510  0.3225  0.1820 -0.0194
 2594SOL    HW110099   1.831   6.768   1.508 -0.4322 -0.1393 -0.0069
 2594SOL    HW210100   1.794   6.621   1.507  0.8597 -0.4867 -1.8410
 2595SOL     OW10101   2.204   6.006   2.080 -0.5949  0.2382 -0.2854
 2595SOL    HW110102   2.203   6.100   2.059  0.1960  0.5250  0.8692
 2595SOL    HW210103   2.203   6.003   2.175 -0.9124 -0.9460 -0.3160
 2596SOL     OW10104   0.663   6.217   0.798  0.2260 -0.7950  0.4756
 2596SOL    HW110105   0.692   6.270   0.872  0.6889 -0.1253 -0.1615
 2596SOL    HW210106   0.572   6.245   0.783  0.6610  0.3197 -0.2541
 2597SOL     OW10107   4.651   9.176   2.425  0.7364  0.1783 -0.0336
 2597SOL    HW110108   4.707   9.253   2.439  2.1523 -0.6326 -0.9757
 2597SOL    HW210109   4.659   9.158   2.332 -1.6277  0.3763 -0.3214
 2598SOL     OW10110  10.158   4.831   3.387  0.0138  0.1962 -0.4685
 2598SOL    HW110111  10.130   4.914   3.349 -2.3982  0.3281  1.3106
 2598SOL    HW210112  10.109   4.765   3.339  1.1985 -0.1643 -1.2298
 2599SOL     OW10113   0.944   7.268   3.933 -0.6944 -0.3631 -0.2539
 2599SOL    HW110114   0.899   7.287   4.015 -0.0565  0.4749 -0.0762
 2599SOL    HW210115   0.913   7.182   3.907 -0.3077 -0.9955  1.2893
 2600SOL     OW10116   4.015   7.572   9.128 -0.1441 -0.6059 -0.2750
 2600SOL    HW110117   4.091   7.570   9.186  2.3245  1.3226 -3.1256
 2600SOL    HW210118   3.962   7.645   9.160 -0.3644 -1.3484  1.1526
 2601SOL     OW10119   2.753   4.549   4.268  0.1703  0.4966 -0.2545
 2601SOL    HW110120   2.818   4.480   4.255 -0.3923 -0.3779  1.2568
 2601SOL    HW210121   2.783   4.621   4.213  1.9650 -0.1702 -0.2173
 2602SOL     OW10122   5.557   7.831   4.663 -0.8557 -0.1094 -0.0491
 2602SOL    HW110123   5.529   7.834   4.755  0.3046 -0.3199  0.3232
 2602SOL    HW210124   5.602   7.747   4.654 -1.0928 -0.1623 -0.8668
 2603SOL     OW10125   2.452   1.294   2.496  0.4958  0.4125  0.4340
 2603SOL    HW110126   2.523   1.262   2.440 -0.1272 -0.2869  0.0290
 2603SOL    HW210127   2.392   1.220   2.503 -0.2677  1.0460  0.6574
 2604SOL     OW10128   8.206   5.052   4.588  0.1521  0.2560 -0.2525
 2604SOL    HW110129   8.245   5.019   4.669 -2.3712  1.0556  1.3919
 2604SOL    HW210130   8.253   5.133   4.570 -0.8622  1.4171  1.9052
 2605SOL     OW10131   6.433   3.233   1.052 -0.1924  0.0584 -0.2902
 2605SOL    HW110132   6.397   3.189   1.128 -2.4598 -0.6497 -1.6676
 2605SOL    HW210133   6.483   3.306   1.087  0.5269 -1.4073  1.9061
 2606SOL     OW10134   1.395   1.004   8.203  0.1760 -0.3814 -0.6146
 2606SOL    HW110135   1.409   1.097   8.222 -0.6836 -0.3994  0.1770
 2606SOL    HW210136   1.363   0.968   8.285 -0.5087 -1.1651 -1.2148
 2607SOL     OW10137   1.257   5.139   8.485  0.2267 -0.0353  0.0402
 2607SOL    HW110138   1.203   5.118   8.561  1.2454 -0.3691  0.6988
 2607SOL    HW210139   1.247   5.234   8.474  1.7455  0.4203  1.9780
 2608SOL     OW10140   3.778   5.978   4.870  0.8226 -0.1050 -0.1903
 2608SOL    HW110141   3.714   5.915   4.835 -0.7905  1.3350  0.0407
 2608SOL    HW210142   3.838   5.924   4.921 -0.1180 -1.5575 -0.5500
 2609SOL     OW10143  10.420   0.944  10.328 -0.4863 -0.1951  0.6951
 2609SOL    HW110144  10.372   1.016  10.287 -1.6525 -1.4708 -0.2889
 2609SOL    HW210145  10.369   0.924  10.407 -1.7925 -1.6768 -0.4492
 2610SOL     OW10146   0.715   1.635   1.365 -0.3823 -0.6317 -0.6602
 2610SOL    HW110147   0.777   1.653   1.294  2.0246  2.3962  1.9534
 2610SOL    HW210148   0.761   1.574   1.422 -0.9859 -0.5484 -0.0819
 2611SOL     OW10149  10.348  10.354   7.845 -0.8746  0.3500 -0.4828
 2611SOL    HW110150  10.395  10.376   7.926 -1.9778  0.8534  0.0383
 2611SOL    HW210151  10.370  10.263   7.829  0.3996  0.6074 -0.3360
 2612SOL     OW10152   3.209   1.174  10.514  0.0041 -0.1931  0.0513
 2612SOL    HW110153   3.155   1.112  10.563  0.1419  0.9226  1.7048
 2612SOL    HW210154   3.221   1.133  10.428  0.1057 -2.4509  1.0670
 2613SOL     OW10155   1.697   2.951  10.433 -0.1040 -0.0238  0.2710
 2613SOL    HW110156   1.658   3.036  10.415  1.2014  0.9418  1.7146
 2613SOL    HW210157   1.658   2.923  10.516 -2.0487 -1.8600 -1.1564
 2614SOL     OW10158   2.870   3.459   7.959  0.4145  0.5413 -0.5991
 2614SOL    HW110159   2.953   3.470   8.006  0.3228  1.3211 -0.6066
 2614SOL    HW210160   2.894   3.411   7.880  0.7807  0.3257 -0.3591
 2615SOL     OW10161   8.922   1.229   6.611  0.1453  0.1805 -0.0484
 2615SOL    HW110162   8.928   1.164   6.540 -1.4738 -0.3100  0.2241
 2615SOL    HW210163   9.011   1.235   6.645  0.9056  0.1774 -1.8922
 2616SOL     OW10164   1.726   5.155   5.723  0.3593  0.7079  0.3785
 2616SOL    HW110165   1.669   5.118   5.656  0.0785  0.7566  0.5895
 2616SOL    HW210166   1.762   5.078   5.769 -0.4835  0.6969  1.0338
 2617SOL     OW10167   7.481   7.041   0.731 -0.2730  0.1940 -0.0312
 2617SOL    HW110168   7.484   6.976   0.801  0.0619 -0.2988 -0.4927
 2617SOL    HW210169   7.388   7.057   0.717 -0.4147 -1.0427 -0.6758
 2618SOL     OW10170   4.477   2.124   3.939 -0.0135  0.7011 -0.0522
 2618SOL    HW110171   4.431   2.144   4.021 -1.6217 -0.3523 -0.6365
 2618SOL    HW210172   4.474   2.028   3.933  0.0974  0.7609 -1.3235
 2619SOL     OW10173   0.559   0.784   7.374 -0.1547  0.0080 -0.6517
 2619SOL    HW110174   0.550   0.863   7.427 -0.0492 -0.7565  0.5291
 2619SOL    HW210175   0.557   0.816   7.283 -0.6647  1.3006 -0.2079
 2620SOL     OW10176   0.830   7.641   0.363  0.1880  0.1011 -0.2892
 2620SOL    HW110177   0.869   7.695   0.294 -1.1284  0.4425 -0.7978
 2620SOL    HW210178   0.834   7.552   0.330 -2.0300  0.4439 -1.6478
 2621SOL     OW10179   2.384   7.758   7.709 -0.0097  0.1021  0.5573
 2621SOL    HW110180   2.373   7.703   7.786 -1.8902  1.3524  1.2692
 2621SOL    HW210181   2.353   7.705   7.636 -0.1674 -0.3780  0.9706
 2622SOL     OW10182   1.111   7.240   5.373 -0.3181 -0.0826 -0.2844
 2622SOL    HW110183   1.025   7.223   5.336  0.2925 -0.5741 -1.5195
 2622SOL    HW210184   1.147   7.153   5.391 -0.2046  0.1245  0.5483
 2623SOL     OW10185   2.128   7.485   4.583  0.2354 -0.3832  0.4289
 2623SOL    HW110186   2.128   7.423   4.656  2.7614 -0.2706  0.6300
 2623SOL    HW210187   2.111   7.570   4.624 -2.6517 -0.7589  0.2264
 2624SOL     OW10188   9.141   0.816  10.577 -0.0080  0.3133 -0.0753
 2624SOL    HW110189   9.229   0.824  10.540  0.0753 -0.8441 -0.1731
 2624SOL    HW210190   9.083   0.814  10.501  0.0501 -0.7460 -0.1050
 2625SOL     OW10191   7.649   8.412   5.856  0.1006 -0.8205 -0.3213
 2625SOL    HW110192   7.741   8.431   5.839 -0.3883  1.7990 -0.4365
 2625SOL    HW210193   7.651   8.340   5.919  2.1998 -1.2596 -0.8217
 2626SOL     OW10194   3.567   6.172   9.173  0.0480 -0.2498  0.1640
 2626SOL    HW110195   3.558   6.222   9.091 -0.3640  1.5157  1.2322
 2626SOL    HW210196   3.630   6.222   9.225  0.9591 -1.8188  0.6137
 2627SOL     OW10197   0.578   6.404   9.378  1.0052 -0.3532  0.6049
 2627SOL    HW110198   0.672   6.386   9.373  1.5016  1.4584  2.3516
 2627SOL    HW210199   0.571   6.499   9.367 -0.6305 -0.4493  0.5752
 2628SOL     OW10200   6.831   9.138   6.952  0.4990 -0.2697 -0.1142
 2628SOL    HW110201   6.774   9.128   6.875 -0.5239 -1.8881  0.7943
 2628SOL    HW210202   6.794   9.078   7.016  0.8887  1.5776  1.9344
 2629SOL     OW10203   3.009   1.313   4.452  0.0288  0.0358 -0.1143
 2629SOL    HW110204   2.948   1.284   4.519  0.3821  1.3603  0.8130
 2629SOL    HW210205   3.071   1.241   4.443 -0.2445 -0.3144  0.7113
 2630SOL     OW10206   5.859   9.110   6.034  0.4425 -0.1701 -0.2818
 2630SOL    HW110207   5.909   9.145   5.959  0.4342 -0.1575 -0.2814
 2630SOL    HW210208   5.768   9.111   6.004  0.7335 -3.6266 -1.6649
 2631SOL     OW10209   2.900   8.087   2.197  0.4208 -0.0810  0.2191
 2631SOL    HW110210   2.893   8.123   2.108 -1.7983 -0.4706  0.2013
 2631SOL    HW210211   2.857   8.151   2.253 -1.4246 -1.4856  0.4994
 2632SOL     OW10212   9.577   6.425   8.492  0.1937  0.3584 -0.2628
 2632SOL    HW110213   9.539   6.413   8.405  0.2180 -0.6046 -0.1532
 2632SOL    HW210214   9.661   6.467   8.476  2.1451 -3.4389 -1.1538
 2633SOL     OW10215   2.629   3.446   8.936  0.3390  0.9995 -0.0783
 2633SOL    HW110216   2.640   3.534   8.972  0.4244  1.3177 -0.8538
 2633SOL    HW210217   2.655   3.387   9.007 -1.0596  1.5618  0.9226
 2634SOL     OW10218   3.393   9.377   0.064  0.2101 -0.7737  0.0936
 2634SOL    HW110219   3.357   9.445   0.121  1.6123  0.8004 -0.8088
 2634SOL    HW210220   3.410   9.303   0.123 -1.3315 -0.3711  1.1071
 2635SOL     OW10221   3.926   6.925   3.413 -0.4588 -0.5411  0.5977
 2635SOL    HW110222   3.957   6.896   3.327  0.5790  0.3843  0.6351
 2635SOL    HW210223   3.906   6.844   3.459 -1.0813 -1.0526 -0.5194
 2636SOL     OW10224   5.148   8.444  10.137 -0.5571  0.8094  0.0216
 2636SOL    HW110225   5.139   8.525  10.188 -1.5158  0.4656  0.4240
 2636SOL    HW210226   5.146   8.374  10.203 -1.7126  0.3656 -0.4609
 2637SOL     OW10227   8.968   8.609   0.458 -0.0049 -0.3487  0.1887
 2637SOL    HW110228   8.948   8.596   0.366 -2.6922 -0.4679  0.7176
 2637SOL    HW210229   9.003   8.698   0.463  0.3084 -0.3985 -0.9450
 2638SOL     OW10230   5.898   2.790   6.526  0.9646 -0.4311  0.3390
 2638SOL    HW110231   5.850   2.756   6.450  0.7409 -2.7575  1.4269
 2638SOL    HW210232   5.987   2.757   6.514  1.4794  1.0170  0.0330
 2639SOL     OW10233   8.904  10.263   8.683 -0.1187 -0.0833 -0.5787
 2639SOL    HW110234   8.896  10.245   8.777 -1.8944  1.4348 -0.3503
 2639SOL    HW210235   8.850  10.196   8.641 -1.0571  0.4752 -0.3070
 2640SOL     OW10236  10.454   6.806   5.210 -0.3342 -0.3629 -0.1379
 2640SOL    HW110237  10.395   6.804   5.135 -0.3580 -1.3763 -0.1114
 2640SOL    HW210238  10.516   6.735   5.194  0.5983  0.3807  0.0653
 2641SOL     OW10239   5.109   0.835   0.696  0.6976  0.2524  0.1607
 2641SOL    HW110240   5.200   0.808   0.702  1.1599  1.6039 -0.5701
 2641SOL    HW210241   5.064   0.759   0.658  1.5035 -0.4080  0.4940
 2642SOL     OW10242   5.976   9.626   8.287 -0.4673  0.2311  0.2532
 2642SOL    HW110243   5.983   9.715   8.251 -0.0705 -0.3808 -1.2682
 2642SOL    HW210244   5.899   9.589   8.243  0.2949 -0.6964 -0.3302
 2643SOL     OW10245   4.037   2.738   2.452  0.4366 -0.6385 -0.4486
 2643SOL    HW110246   3.970   2.782   2.505 -1.1937 -3.2862 -0.1190
 2643SOL    HW210247   4.037   2.786   2.369 -2.4448 -0.9247 -0.7333
 2644SOL     OW10248   6.491   0.403   6.225  0.3990  0.5490 -0.7625
 2644SOL    HW110249   6.436   0.462   6.173  0.7362  1.5594 -0.0040
 2644SOL    HW210250   6.452   0.316   6.212 -1.8685  1.3174  0.3448
 2645SOL     OW10251   2.158   7.535   4.007 -0.3021 -0.2322 -0.1037
 2645SOL    HW110252   2.069   7.541   4.041  0.1299 -0.4284  1.0995
 2645SOL    HW210253   2.213   7.571   4.077  0.5499  0.0316 -0.8940
 2646SOL     OW10254   5.528   4.625   0.735 -0.0710 -0.4676  0.1940
 2646SOL    HW110255   5.496   4.688   0.800 -1.1500 -1.8907  1.1197
 2646SOL    HW210256   5.449   4.591   0.694  0.5802 -0.0001 -1.5247
 2647SOL     OW10257   0.618   9.093   5.118  0.1501  0.8124 -0.2263
 2647SOL    HW110258   0.704   9.120   5.150  0.6618 -2.0009  1.0191
 2647SOL    HW210259   0.617   9.121   5.026  1.8765  1.9544  0.0557
 2648SOL     OW10260   8.877   9.338   9.747 -0.6680 -0.4697 -0.2705
 2648SOL    HW110261   8.863   9.424   9.788 -0.2200 -1.3027  1.7392
 2648SOL    HW210262   8.805   9.284   9.779 -0.0605 -1.2808 -0.2389
 2649SOL     OW10263   0.457   7.933   8.930 -0.4430  0.5916  0.4777
 2649SOL    HW110264   0.404   7.860   8.898  0.1034 -0.4451  1.8117
 2649SOL    HW210265   0.449   7.929   9.025  1.4562  0.8228  0.6894
 2650SOL     OW10266   7.638   8.183   4.195 -0.0041  0.4903  0.5405
 2650SOL    HW110267   7.630   8.260   4.252 -0.3952  0.0243  1.1274
 2650SOL    HW210268   7.670   8.114   4.252  0.2826  0.1943  0.0295
 2651SOL     OW10269   7.090   1.885   9.886 -0.5862 -0.3517 -0.2700
 2651SOL    HW110270   7.022   1.909   9.823 -1.5546  0.9166  1.1613
 2651SOL    HW210271   7.170   1.924   9.851 -0.7909 -0.9257 -1.4286
 2652SOL     OW10272   7.475   3.815   3.500 -0.1417 -0.3898 -0.2629
 2652SOL    HW110273   7.507   3.869   3.428 -0.0112 -0.5364 -0.3144
 2652SOL    HW210274   7.515   3.730   3.486  0.4052 -0.2366  0.3499
 2653SOL     OW10275   5.334   7.148   8.128  0.1209 -0.2055  0.1696
 2653SOL    HW110276   5.257   7.102   8.163  0.7351  0.3947  2.4920
 2653SOL    HW210277   5.332   7.130   8.034 -1.5804 -2.0917  0.4917
 2654SOL     OW10278   9.424   4.781   7.585  0.0103 -0.0587 -0.6039
 2654SOL    HW110279   9.515   4.788   7.556 -0.3048  1.6528 -1.3102
 2654SOL    HW210280   9.396   4.694   7.556  1.4722 -0.6904 -0.1731
 2655SOL     OW10281   0.651   0.158   2.172 -0.2623  0.2144 -0.0191
 2655SOL    HW110282   0.565   0.158   2.213 -0.6893  0.1935 -0.8788
 2655SOL    HW210283   0.700   0.228   2.215 -1.3675  1.5397 -0.8359
 2656SOL     OW10284   6.601   0.681   0.222  0.3300 -0.7953  0.1810
 2656SOL    HW110285   6.513   0.705   0.192  0.8210  0.5552 -0.2904
 2656SOL    HW210286   6.658   0.701   0.147  0.9686 -2.2811  0.2413
 2657SOL     OW10287   9.398   6.527   0.581 -0.5455  0.2677  0.0689
 2657SOL    HW110288   9.400   6.435   0.606 -0.4691 -0.0147 -0.9196
 2657SOL    HW210289   9.469   6.567   0.631 -0.3640 -0.2847  0.2608
 2658SOL     OW10290   0.639   5.903   4.212 -0.1767 -0.2815 -0.3655
 2658SOL    HW110291   0.694   5.866   4.142 -0.0638  1.3009 -1.1542
 2658SOL    HW210292   0.636   5.997   4.193  0.0370  0.2356  1.8961
 2659SOL     OW10293   7.550   7.151   3.517 -0.9087 -0.3154 -0.2932
 2659SOL    HW110294   7.539   7.063   3.480 -1.3101  0.2865 -1.6746
 2659SOL    HW210295   7.595   7.200   3.449 -1.1042  0.6716  0.2774
 2660SOL     OW10296   2.028   5.727   0.526  0.4136  0.1145  0.2341
 2660SOL    HW110297   2.029   5.695   0.616 -0.4475  0.9936  0.5708
 2660SOL    HW210298   1.947   5.778   0.519  0.0336 -0.6356 -1.2924
 2661SOL     OW10299   6.578   6.548   1.505 -0.2828  0.0769 -0.2316
 2661SOL    HW110300   6.616   6.634   1.489  1.3369 -0.5327  0.0943
 2661SOL    HW210301   6.653   6.489   1.509 -1.3293 -1.3176 -0.1725
 2662SOL     OW10302   9.933   6.426   4.251  0.1361  0.0948  0.3890
 2662SOL    HW110303   9.842   6.457   4.260  0.1431  0.3896 -0.4756
 2662SOL    HW210304   9.926   6.331   4.251 -0.3292  0.1059 -0.9485
 2663SOL     OW10305   8.719   9.297   0.444 -0.4009  0.4981  0.0135
 2663SOL    HW110306   8.804   9.334   0.421  1.5180 -1.7814  2.6391
 2663SOL    HW210307   8.678   9.276   0.361  2.1547  0.5414 -1.3531
 2664SOL     OW10308   9.854   3.596   3.166 -0.2012  0.3079 -0.2024
 2664SOL    HW110309   9.855   3.567   3.075  0.3477 -1.1969  0.2445
 2664SOL    HW210310   9.784   3.544   3.207  0.1600  0.2958  0.4147
 2665SOL     OW10311   6.916   6.345   0.797  0.1454  0.8190  0.1378
 2665SOL    HW110312   6.908   6.431   0.840 -1.8357 -0.2090  2.0167
 2665SOL    HW210313   6.885   6.283   0.863  0.0274 -1.2097 -1.7301
 2666SOL     OW10314   3.534   4.208   1.205  0.1608 -0.0651  0.2802
 2666SOL    HW110315   3.572   4.295   1.207 -0.0286  0.0332 -0.1397
 2666SOL    HW210316   3.478   4.209   1.127 -0.2598 -0.3838  0.5767
 2667SOL     OW10317   2.893   9.906   1.731  0.4081 -0.1720  0.0605
 2667SOL    HW110318   2.829   9.881   1.798  0.2044  2.1354  0.8347
 2667SOL    HW210319   2.976   9.910   1.778  0.9289 -1.8753 -0.6484
 2668SOL     OW10320   9.953   6.535   0.843  0.3358 -0.2692  0.0151
 2668SOL    HW110321  10.034   6.538   0.893  0.2575 -1.1084  0.2082
 2668SOL    HW210322   9.981   6.537   0.751  0.4980  0.8740  0.0760
 2669SOL     OW10323   7.028   0.346   5.318  1.0568 -0.3908 -0.4567
 2669SOL    HW110324   7.112   0.354   5.364  1.2697 -1.0770 -0.7113
 2669SOL    HW210325   7.053   0.329   5.227  0.6830 -2.7662 -0.1754
 2670SOL     OW10326   9.422   5.100   7.986  0.8543  0.3350  0.7085
 2670SOL    HW110327   9.493   5.035   7.996 -0.1410 -0.4753  3.3867
 2670SOL    HW210328   9.344   5.047   7.970  0.3651  1.0222  0.8124
 2671SOL     OW10329   8.391   6.222   5.346 -0.1957 -0.0518  0.0706
 2671SOL    HW110330   8.338   6.263   5.279 -0.2671 -2.1128 -1.2474
 2671SOL    HW210331   8.477   6.210   5.305  0.6054  1.0811  1.3300
 2672SOL     OW10332   1.361   6.482   9.116  0.3896 -0.1991  0.0938
 2672SOL    HW110333   1.406   6.404   9.082  0.1255  0.2517 -1.3336
 2672SOL    HW210334   1.421   6.554   9.099 -0.7328  0.3798 -1.6269
 2673SOL     OW10335   0.316   2.430   5.927  0.1433  0.1941 -0.1655
 2673SOL    HW110336   0.383   2.421   5.995  0.1549 -0.6166 -0.2766
 2673SOL    HW210337   0.363   2.416   5.845  0.1041  1.0445 -0.3367
 2674SOL     OW10338   5.104   0.759   8.117 -0.3535 -0.4771 -0.2795
 2674SOL    HW110339   5.077   0.834   8.169 -1.5504 -1.0294 -0.0677
 2674SOL    HW210340   5.148   0.796   8.041  0.7991  0.3636  0.7697
 2675SOL     OW10341   9.902  10.230   4.281 -0.2520  0.0252 -0.4113
 2675SOL    HW110342   9.888  10.303   4.221 -1.6189 -0.5484 -0.8478
 2675SOL    HW210343   9.996  10.214   4.279 -0.0932  0.9749 -1.2529
 2676SOL     OW10344   1.591   0.258   5.351 -0.3640 -1.0700 -0.0120
 2676SOL    HW110345   1.668   0.261   5.408 -0.5712 -0.3338  0.2455
 2676SOL    HW210346   1.624   0.285   5.265 -1.0175  3.4379  0.9384
 2677SOL     OW10347   4.313   1.016   5.623 -0.1351  0.1763 -0.3688
 2677SOL    HW110348   4.359   0.947   5.574 -0.4931 -0.3064 -0.0321
 2677SOL    HW210349   4.265   1.065   5.556 -1.4182 -1.0969 -0.4084
 2678SOL     OW10350   1.891   5.566   8.837  0.2937  0.2698 -0.5395
 2678SOL    HW110351   1.976   5.594   8.871 -0.2436 -0.0887  1.2062
 2678SOL    HW210352   1.831   5.574   8.912 -0.8128 -1.2599 -1.2012
 2679SOL     OW10353   5.275   2.944   9.063  0.4126  0.3962  0.4813
 2679SOL    HW110354   5.296   3.005   9.134  0.5892 -0.5878  1.2915
 2679SOL    HW210355   5.180   2.933   9.068  0.5956 -0.9099  1.6278
 2680SOL     OW10356   5.219   8.013   8.496  0.2707  0.3242 -0.5257
 2680SOL    HW110357   5.228   8.088   8.437 -0.7706  0.3928 -0.6033
 2680SOL    HW210358   5.165   7.951   8.447  0.5696 -0.2020 -0.1951
 2681SOL     OW10359   7.915   1.581   6.324  0.1194 -0.3447  0.5179
 2681SOL    HW110360   7.925   1.644   6.395  0.3123 -1.1442  1.2208
 2681SOL    HW210361   7.824   1.591   6.296  0.1766  0.3108  0.5499
 2682SOL     OW10362   8.742   9.042   5.583 -0.2111 -0.1294 -0.1886
 2682SOL    HW110363   8.795   8.971   5.618 -1.0505 -0.3230  0.7249
 2682SOL    HW210364   8.699   9.005   5.506 -0.1832 -0.4203 -0.0636
 2683SOL     OW10365   1.084   5.354   8.434  0.3653 -0.2399  0.5999
 2683SOL    HW110366   1.051   5.444   8.429 -1.2151 -0.8420 -0.9473
 2683SOL    HW210367   1.080   5.333   8.527  1.1881  1.4103  1.0508
 2684SOL     OW10368   2.794   8.564   3.034 -0.1259  0.0678  0.1413
 2684SOL    HW110369   2.835   8.648   3.014  0.1152 -0.0013  0.3274
 2684SOL    HW210370   2.819   8.507   2.962 -0.2684  0.1511  0.0277
 2685SOL     OW10371   5.471   2.279   9.318  0.1338 -0.0858 -0.1831
 2685SOL    HW110372   5.520   2.196   9.320  0.1867 -0.0470  0.8492
 2685SOL    HW210373   5.505   2.324   9.241  0.9278 -0.5492 -0.1262
 2686SOL     OW10374   2.407   5.008   9.932 -0.5431 -0.2657 -0.2359
 2686SOL    HW110375   2.407   4.944   9.861 -0.8719 -1.1116  0.5211
 2686SOL    HW210376   2.500   5.024   9.950 -0.4626 -0.6877 -0.2842
 2687SOL     OW10377   1.972   7.468   1.566  0.6350  0.0382 -0.5827
 2687SOL    HW110378   2.010   7.386   1.535 -0.4663 -0.6409 -0.2199
 2687SOL    HW210379   2.018   7.487   1.648  0.8882 -0.2283 -0.6614
 2688SOL     OW10380   6.987   8.732   9.159 -0.0146  0.5119 -0.4042
 2688SOL    HW110381   6.988   8.814   9.111  0.4377 -0.5263 -2.2679
 2688SOL    HW210382   7.065   8.685   9.129 -0.8553 -1.0525 -0.2536
 2689SOL     OW10383   9.205   9.292   2.665  0.1957  0.6787  0.3068
 2689SOL    HW110384   9.183   9.382   2.643  0.7131  0.3708 -1.5724
 2689SOL    HW210385   9.192   9.243   2.584 -0.7838 -1.0989  1.4525
 2690SOL     OW10386  10.323   7.369   6.254  0.0036 -0.3038 -0.1134
 2690SOL    HW110387  10.367   7.448   6.284 -0.6847  0.1234 -0.2142
 2690SOL    HW210388  10.393   7.316   6.214  0.1049  1.3042 -2.2306
 2691SOL     OW10389   4.571   7.752   5.347 -0.1127 -0.4608 -0.5640
 2691SOL    HW110390   4.537   7.822   5.292  0.4952  0.4426  0.1899
 2691SOL    HW210391   4.645   7.791   5.393 -0.5359 -1.2390  0.8221
 2692SOL     OW10392   1.182   5.303   5.980  0.1887 -0.2470  0.2914
 2692SOL    HW110393   1.092   5.312   5.949  0.0209 -0.5732  0.6851
 2692SOL    HW210394   1.230   5.271   5.903 -0.3228 -1.5247  0.4771
 2693SOL     OW10395   4.596   8.826   3.766  0.8955 -0.3754 -0.7939
 2693SOL    HW110396   4.601   8.752   3.705 -0.3343 -1.0309 -0.1303
 2693SOL    HW210397   4.512   8.815   3.811  0.7520  1.3452 -0.5620
 2694SOL     OW10398   2.990   4.775   3.114  1.0527  0.4125  0.2905
 2694SOL    HW110399   2.954   4.853   3.157 -0.4569 -1.1420  2.0177
 2694SOL    HW210400   2.940   4.767   3.033  0.9818  1.0326  0.2688
 2695SOL     OW10401   8.446   8.309   9.996 -0.3683  0.5868 -0.0795
 2695SOL    HW110402   8.520   8.356  10.034 -0.3038 -0.3907  1.0354
 2695SOL    HW210403   8.462   8.313   9.901  0.5161  1.3390  0.0860
 2696SOL     OW10404   7.043   1.269   2.817 -0.0063  0.0862 -0.2545
 2696SOL    HW110405   7.020   1.177   2.825  1.1689 -0.1952  0.0763
 2696SOL    HW210406   7.008   1.309   2.897  1.3664 -0.5041  0.6826
 2697SOL     OW10407   8.416   9.895  10.301 -0.3486 -0.2199  0.3602
 2697SOL    HW110408   8.436   9.986  10.278  1.3312 -0.2566  1.4930
 2697SOL    HW210409   8.405   9.897  10.396 -0.4022 -1.1820  0.3805
 2698SOL     OW10410   3.238   9.663   1.835 -0.1947  0.1539 -0.0488
 2698SOL    HW110411   3.266   9.676   1.745  0.3563  0.5429  0.1684
 2698SOL    HW210412   3.229   9.568   1.844 -3.2234  0.1923 -1.3595
 2699SOL     OW10413   8.912   3.484   5.188 -0.5604  0.3557  0.1638
 2699SOL    HW110414   8.941   3.432   5.114 -1.2258 -0.1910  0.2728
 2699SOL    HW210415   8.960   3.449   5.263 -0.3560  0.4847  0.0922
 2700SOL     OW10416   5.681   1.117   1.697  0.3381 -0.0135  0.4110
 2700SOL    HW110417   5.610   1.058   1.672  0.5905 -0.8606  1.5752
 2700SOL    HW210418   5.638   1.198   1.722 -0.3513 -0.8324  2.0344
 2701SOL     OW10419   4.084   6.995   8.933  0.0752  0.3875 -0.0825
 2701SOL    HW110420   4.098   6.923   8.872 -0.6602  0.7693 -0.7160
 2701SOL    HW210421   3.998   6.979   8.971 -0.3228  1.1978 -0.6175
 2702SOL     OW10422   4.239   1.611   7.692 -0.4715  0.2799 -0.5085
 2702SOL    HW110423   4.323   1.571   7.671 -0.9832 -0.8842 -0.4158
 2702SOL    HW210424   4.252   1.650   7.779  0.8635  2.8428 -1.7429
 2703SOL     OW10425   1.677   8.147   7.437  0.1884  0.1642  0.4543
 2703SOL    HW110426   1.770   8.159   7.459  0.1491  1.2708  0.0702
 2703SOL    HW210427   1.676   8.136   7.342 -0.0823  0.2935  0.4409
 2704SOL     OW10428   6.210   7.813   3.271 -0.0069  0.4168  0.4723
 2704SOL    HW110429   6.151   7.880   3.307 -0.3122  1.0637 -1.1276
 2704SOL    HW210430   6.292   7.859   3.255  1.0114 -0.5044  2.7596
 2705SOL     OW10431   3.192   7.777   8.424  0.0382 -0.3604  0.1557
 2705SOL    HW110432   3.228   7.690   8.445  1.0289 -0.4184 -1.5677
 2705SOL    HW210433   3.098   7.769   8.441  0.4740 -0.8551  2.8012
 2706SOL     OW10434   6.069   5.642   7.360 -0.6817  0.3021  0.5684
 2706SOL    HW110435   5.983   5.601   7.370 -0.4363 -0.3130  0.2489
 2706SOL    HW210436   6.078   5.656   7.265 -0.1985 -0.1716  0.5361
 2707SOL     OW10437   1.697   2.013   9.588 -0.1377  0.5396  0.8858
 2707SOL    HW110438   1.609   1.999   9.623 -1.1821  1.1828 -1.2877
 2707SOL    HW210439   1.710   2.107   9.592  0.2076  0.5037  0.6880
 2708SOL     OW10440   5.814   4.781   3.816 -0.1978  0.3934  0.6057
 2708SOL    HW110441   5.857   4.756   3.897 -0.2424  0.8071  0.7620
 2708SOL    HW210442   5.747   4.845   3.843 -0.0113  0.7641  0.2130
 2709SOL     OW10443   1.644   4.952   0.962 -0.4158  0.1477 -0.2637
 2709SOL    HW110444   1.681   4.931   0.876 -1.5140  0.0446 -0.7277
 2709SOL    HW210445   1.713   4.929   1.024  0.0524 -0.6581 -1.0637
 2710SOL     OW10446   0.275   7.604   1.408 -0.3292  0.1388 -0.2476
 2710SOL    HW110447   0.296   7.593   1.315  1.7680 -1.7475  0.3547
 2710SOL    HW210448   0.346   7.559   1.454 -1.5737  0.5734  2.2740
 2711SOL     OW10449   8.833   3.743   2.086 -0.2434 -0.3219  0.6224
 2711SOL    HW110450   8.742   3.726   2.107 -0.6699 -0.3220 -1.0692
 2711SOL    HW210451   8.850   3.830   2.121 -0.7747 -0.4730  1.2685
 2712SOL     OW10452   9.659   2.792  10.284  0.2600 -0.2636 -0.5723
 2712SOL    HW110453   9.689   2.875  10.320 -2.3991  0.2681  0.5958
 2712SOL    HW210454   9.673   2.729  10.354  0.6211 -0.4541 -0.8124
 2713SOL     OW10455   2.673   3.610   8.598  0.1305  0.6193 -0.2901
 2713SOL    HW110456   2.583   3.578   8.606 -0.7298  2.5669 -1.4562
 2713SOL    HW210457   2.674   3.690   8.651  1.7334 -0.3358  1.2113
 2714SOL     OW10458   3.149   5.344   6.540 -0.7065  0.4659  0.4350
 2714SOL    HW110459   3.206   5.287   6.592  1.1275  1.9641  0.1784
 2714SOL    HW210460   3.105   5.399   6.605 -0.6684  0.3542  0.5565
 2715SOL     OW10461   8.906   0.688   8.007  0.3402  0.2031 -0.4427
 2715SOL    HW110462   8.901   0.779   8.035 -4.4631  0.3872 -0.9462
 2715SOL    HW210463   8.893   0.637   8.087 -1.3636  0.2641 -0.6268
 2716SOL     OW10464   3.026   3.445   1.923  0.4426 -0.8172 -0.2466
 2716SOL    HW110465   2.976   3.365   1.941  1.0258 -1.1088  0.0977
 2716SOL    HW210466   3.090   3.450   1.994 -0.1043  0.3818  0.1872
 2717SOL     OW10467   3.588   7.144   7.365  0.5052  0.7369  0.0063
 2717SOL    HW110468   3.590   7.108   7.454 -0.4361  0.3496 -0.1159
 2717SOL    HW210469   3.536   7.224   7.372  1.1942  1.2016 -0.0385
 2718SOL     OW10470   9.467   5.866   6.118  0.0674  0.3102  0.1624
 2718SOL    HW110471   9.546   5.913   6.091  0.8284 -0.2906  1.2453
 2718SOL    HW210472   9.435   5.825   6.038  1.8032 -0.8051 -0.0224
 2719SOL     OW10473   8.004   9.326   5.059 -0.7060 -0.5522 -0.6790
 2719SOL    HW110474   8.002   9.385   4.984 -0.9207  0.9791  0.4862
 2719SOL    HW210475   8.085   9.275   5.048 -0.1144  0.5001 -1.3109
 2720SOL     OW10476   7.013   0.079   0.482 -0.0569  0.5373  0.1162
 2720SOL    HW110477   7.010  -0.015   0.502 -0.6415  0.9656  2.3860
 2720SOL    HW210478   7.104   0.095   0.457 -0.2539 -0.8366 -1.6808
 2721SOL     OW10479   5.235  10.074   1.660 -0.8545 -0.1162 -0.3427
 2721SOL    HW110480   5.301  10.083   1.728 -0.7699  2.1141 -0.6264
 2721SOL    HW210481   5.156  10.115   1.697 -0.9061  0.8132 -1.4011
 2722SOL     OW10482   9.782   1.737   0.326 -0.5440  0.0441 -0.0777
 2722SOL    HW110483   9.736   1.684   0.391 -0.8529  0.7356  0.2845
 2722SOL    HW210484   9.862   1.765   0.370 -1.6794  2.1788  0.7840
 2723SOL     OW10485  10.123   3.494   0.054 -0.0738  0.0172 -0.0967
 2723SOL    HW110486  10.176   3.453  -0.014  1.3258  0.9452  0.3663
 2723SOL    HW210487  10.124   3.587   0.032 -1.3392  0.0858  0.0724
 2724SOL     OW10488   6.126   6.054   7.165 -0.3915  0.1021 -0.5156
 2724SOL    HW110489   6.043   6.064   7.118 -0.3516  0.1616 -0.5740
 2724SOL    HW210490   6.191   6.037   7.096 -0.3066  0.3408 -0.4961
 2725SOL     OW10491   4.665   2.378   7.977  0.0042 -0.3807  0.0304
 2725SOL    HW110492   4.666   2.461   8.025  1.6158 -0.3655  0.0074
 2725SOL    HW210493   4.636   2.402   7.888  2.9450  0.6610 -0.7559
 2726SOL     OW10494   7.091   9.482   5.148 -0.0775 -0.1719  0.9080
 2726SOL    HW110495   7.065   9.574   5.142 -0.6493 -0.3475  0.6076
 2726SOL    HW210496   7.042   9.449   5.224 -0.8842 -0.5507  0.2341
 2727SOL     OW10497  10.472  10.410   3.777 -0.2073 -0.4552 -0.0025
 2727SOL    HW110498  10.522  10.383   3.699 -1.7591 -0.6601 -0.9792
 2727SOL    HW210499  10.388  10.440   3.742 -0.9594 -0.5723  1.6103
 2728SOL     OW10500   4.852   6.521   0.082  0.3641 -0.1544 -0.2168
 2728SOL    HW110501   4.805   6.467   0.020 -0.9018  0.0540  0.5239
 2728SOL    HW210502   4.822   6.610   0.063 -1.8439 -0.2776  2.0893
 2729SOL     OW10503   0.560   8.155   4.946 -0.1017 -0.3399  0.0672
 2729SOL    HW110504   0.476   8.160   4.901  0.0440  1.2986 -0.0939
 2729SOL    HW210505   0.547   8.206   5.026  0.2173 -1.6143  0.9685
 2730SOL     OW10506   9.059  10.056   5.301  0.4831 -0.1483  0.2087
 2730SOL    HW110507   9.111  10.114   5.357  0.0608  0.7771 -0.3394
 2730SOL    HW210508   8.974  10.052   5.343  0.7722 -1.1100  0.7308
 2731SOL     OW10509   7.177   1.394   3.328  0.0218 -0.0148  0.4186
 2731SOL    HW110510   7.176   1.320   3.389  0.5808  0.3788  0.9162
 2731SOL    HW210511   7.093   1.437   3.342  0.0697 -0.0332  0.7859
 2732SOL     OW10512   3.607   0.476   0.797 -0.0815  0.3765 -0.7331
 2732SOL    HW110513   3.551   0.552   0.811  3.1053  2.5840  1.6523
 2732SOL    HW210514   3.559   0.403   0.834 -1.3629  2.1448  1.3153
 2733SOL     OW10515   4.387   6.263   1.918 -0.5673  0.4579 -0.3101
 2733SOL    HW110516   4.372   6.309   1.836 -3.4661  0.6820  0.2677
 2733SOL    HW210517   4.327   6.304   1.981 -1.7403 -2.6216  0.7641
 2734SOL     OW10518   0.605   3.483   4.511 -0.2938 -0.3228  0.0722
 2734SOL    HW110519   0.610   3.417   4.442  0.8830  0.5500 -0.7079
 2734SOL    HW210520   0.579   3.563   4.466 -1.9785 -0.2764  1.0496
 2735SOL     OW10521   0.138   6.706  10.527  0.4174 -1.1747  0.1410
 2735SOL    HW110522   0.069   6.640  10.518  1.0015 -1.9700  1.2580
 2735SOL    HW210523   0.213   6.669  10.481  0.0999 -0.2660 -1.1579
 2736SOL     OW10524   6.140   8.622   8.038  0.0516  0.5653 -0.3127
 2736SOL    HW110525   6.073   8.614   8.106 -0.9920  0.6613 -1.3196
 2736SOL    HW210526   6.169   8.713   8.045  1.4714  0.0502  1.3725
 2737SOL     OW10527   0.474   7.577  10.579 -0.0787  0.1834  0.1226
 2737SOL    HW110528   0.462   7.529  10.497 -0.1332  0.7179 -0.1849
 2737SOL    HW210529   0.543   7.640  10.561  0.4736 -0.2316  0.7288
 2738SOL     OW10530   9.890   8.051   5.559 -0.0441  0.6431 -0.2432
 2738SOL    HW110531   9.886   7.957   5.543  0.1665  0.4716  0.6636
 2738SOL    HW210532   9.860   8.090   5.477 -0.0539 -0.2074 -0.6591
 2739SOL     OW10533   4.553   5.320  10.221  0.2160  0.0671 -0.4622
 2739SOL    HW110534   4.616   5.251  10.245 -1.4369 -1.2140  0.3727
 2739SOL    HW210535   4.600   5.402  10.240  1.3126 -0.8452  1.0700
 2740SOL     OW10536   7.383   3.532   1.699  0.2959 -0.2689 -0.1752
 2740SOL    HW110537   7.290   3.556   1.707 -0.3740 -2.5721 -0.1643
 2740SOL    HW210538   7.409   3.564   1.613 -0.9747 -0.8403 -0.8066
 2741SOL     OW10539   8.560   3.840   4.573  0.6928 -0.3301 -0.1961
 2741SOL    HW110540   8.620   3.873   4.640  2.4600 -0.8945 -1.4145
 2741SOL    HW210541   8.475   3.834   4.617  0.8392  3.0803  0.9096
 2742SOL     OW10542   3.709   8.570   5.189  0.4072  0.2540  0.7461
 2742SOL    HW110543   3.770   8.620   5.243  1.0602  0.4139 -0.1214
 2742SOL    HW210544   3.638   8.547   5.249  0.8528  0.8791  1.5404
 2743SOL     OW10545   3.493   1.873   3.363 -0.3335  0.1246 -0.6490
 2743SOL    HW110546   3.536   1.788   3.373 -1.4108 -0.3674 -0.0098
 2743SOL    HW210547   3.489   1.909   3.452 -2.6283 -0.5650 -0.4154
 2744SOL     OW10548   5.749   0.617   8.503 -0.1082  0.7316 -0.1027
 2744SOL    HW110549   5.748   0.623   8.598  0.9020 -0.2414 -0.0199
 2744SOL    HW210550   5.841   0.602   8.480 -0.5581 -0.7091 -1.1121
 2745SOL     OW10551   5.419  10.270   1.066 -0.1991 -0.4820  0.0090
 2745SOL    HW110552   5.332  10.238   1.090 -0.7765  0.8336 -0.2742
 2745SOL    HW210553   5.468  10.191   1.046 -1.3119 -1.2545  0.2247
 2746SOL     OW10554   2.261   6.842   4.241 -0.1501  0.0621  0.2208
 2746SOL    HW110555   2.194   6.841   4.174  1.1724  0.0479 -1.1599
 2746SOL    HW210556   2.291   6.933   4.245  1.1850 -0.3085 -0.7144
 2747SOL     OW10557  10.201   0.342  10.067 -0.3481  0.0235 -0.1841
 2747SOL    HW110558  10.111   0.324  10.042 -1.6456  2.2138  2.4171
 2747SOL    HW210559  10.214   0.292  10.148 -0.2742  1.9627  1.0494
 2748SOL     OW10560   3.342   1.272   2.071  0.7836  0.0514 -0.1677
 2748SOL    HW110561   3.326   1.253   2.163  0.2423  1.5170  0.0624
 2748SOL    HW210562   3.406   1.206   2.043  0.6186 -0.6733  1.1317
 2749SOL     OW10563   3.291   0.049   3.255 -0.1550  0.3090  0.0682
 2749SOL    HW110564   3.372   0.004   3.231 -1.0509 -0.9061 -0.7842
 2749SOL    HW210565   3.284   0.036   3.349 -0.9965 -2.4971 -0.2830
 2750SOL     OW10566   3.264   5.647   0.080  0.1040  0.3807 -0.0180
 2750SOL    HW110567   3.246   5.706   0.153 -0.1548  1.3407 -0.8436
 2750SOL    HW210568   3.188   5.656   0.023  0.4372 -0.1428 -0.5520
 2751SOL     OW10569   6.237   4.352   4.867 -0.7211  0.0583  0.1803
 2751SOL    HW110570   6.158   4.352   4.814 -0.3038  0.3985 -0.4525
 2751SOL    HW210571   6.227   4.277   4.925 -0.9946 -0.5523 -0.6476
 2752SOL     OW10572   3.344   2.219   5.736  0.3434 -0.2761  0.3292
 2752SOL    HW110573   3.339   2.210   5.831 -2.7695 -0.7600  0.2281
 2752SOL    HW210574   3.378   2.308   5.722  0.2828  0.0248  1.9078
 2753SOL     OW10575   0.199   3.905   3.895  0.1613  0.4056 -0.0566
 2753SOL    HW110576   0.268   3.970   3.900 -0.4556  1.0523  0.2224
 2753SOL    HW210577   0.239   3.825   3.930  0.7900  0.7372  0.0005
 2754SOL     OW10578   4.517   3.816  10.155 -0.0657  0.0396 -0.0075
 2754SOL    HW110579   4.564   3.848  10.078 -2.0418  0.9273 -0.9149
 2754SOL    HW210580   4.494   3.895  10.204 -0.9634 -0.3309  0.1877
 2755SOL     OW10581   7.245   0.897   9.401  0.0719  0.0860 -0.0327
 2755SOL    HW110582   7.185   0.939   9.462 -1.2433 -0.7804 -0.6545
 2755SOL    HW210583   7.253   0.958   9.328 -0.1442  0.1561  0.0024
 2756SOL     OW10584   6.004   1.794   6.839  0.2451  0.0103 -1.1887
 2756SOL    HW110585   6.077   1.850   6.812  0.9504 -0.0804  0.4299
 2756SOL    HW210586   6.046   1.716   6.873 -0.6019  0.0145 -0.1083
 2757SOL     OW10587   4.257   9.027  10.495 -0.2922 -0.0644  0.7014
 2757SOL    HW110588   4.239   9.078  10.574  0.6889 -0.4142  1.1517
 2757SOL    HW210589   4.320   8.961  10.521  0.7942  0.4101 -0.5879
 2758SOL     OW10590   0.016   9.430   8.623  0.0699  0.1695  0.7154
 2758SOL    HW110591  -0.006   9.517   8.589  3.0076  0.4402 -0.8800
 2758SOL    HW210592  -0.036   9.421   8.702 -3.0267  1.8432 -0.9531
 2759SOL     OW10593   7.675   3.981   7.524  0.6072 -0.2120 -0.2147
 2759SOL    HW110594   7.652   4.070   7.551  0.3291 -0.2796 -0.2264
 2759SOL    HW210595   7.763   3.967   7.558  2.3114  1.4896 -3.4420
 2760SOL     OW10596   4.618   0.639   6.564 -0.0693  0.3950  0.4072
 2760SOL    HW110597   4.689   0.583   6.597 -1.1221 -0.2528  1.6841
 2760SOL    HW210598   4.625   0.719   6.616 -0.5769  0.1129  0.9322
 2761SOL     OW10599  10.007   2.052   3.166 -0.0648 -0.0321  0.5510
 2761SOL    HW110600   9.985   2.126   3.109  0.9483 -0.1030  0.0508
 2761SOL    HW210601   9.938   2.052   3.232 -1.1259  0.2114 -0.5171
 2762SOL     OW10602  10.235   5.009   0.342 -0.3472 -0.5028 -0.2365
 2762SOL    HW110603  10.211   5.094   0.377  2.5535  0.3897 -0.1386
 2762SOL    HW210604  10.272   4.961   0.416 -0.9584 -1.4534 -0.5221
 2763SOL     OW10605   9.213   5.669   0.580  1.0027  0.5987  0.5551
 2763SOL    HW110606   9.178   5.593   0.534 -1.3864  2.3204 -0.6737
 2763SOL    HW210607   9.212   5.644   0.673 -0.6420 -0.5427  0.2582
 2764SOL     OW10608   5.064   1.343   7.190  0.6197 -0.7235 -0.6039
 2764SOL    HW110609   5.153   1.318   7.217  1.8242  1.9885 -1.6519
 2764SOL    HW210610   5.067   1.439   7.183 -2.5530 -0.4850 -0.2546
 2765SOL     OW10611   6.546  10.163   0.625 -0.4833 -0.4048 -0.0414
 2765SOL    HW110612   6.527  10.255   0.644  0.2487 -0.4322  0.9130
 2765SOL    HW210613   6.608  10.166   0.553 -1.4361 -0.2105 -0.8839
 2766SOL     OW10614   4.144   7.598   7.493  0.3203  0.1764  0.0240
 2766SOL    HW110615   4.119   7.507   7.473 -0.2378  0.1789  0.6919
 2766SOL    HW210616   4.080   7.627   7.557 -0.2005  1.4371 -1.0388
 2767SOL     OW10617   3.899   8.167   0.400 -0.7659  0.3383  0.0456
 2767SOL    HW110618   3.829   8.108   0.428 -0.2747 -0.0339  0.5104
 2767SOL    HW210619   3.897   8.238   0.464 -0.2010 -0.0781  0.5307
 2768SOL     OW10620  10.541   7.144   9.180  0.2438 -0.0964 -0.6047
 2768SOL    HW110621  10.582   7.159   9.095 -0.2336  0.5240 -0.7294
 2768SOL    HW210622  10.572   7.217   9.234  1.7893 -1.3112  0.2266
 2769SOL     OW10623   8.456   5.513   8.609  0.3789 -0.7124  0.4179
 2769SOL    HW110624   8.494   5.435   8.569  0.7043 -0.3779  0.0623
 2769SOL    HW210625   8.527   5.551   8.660  0.4179 -0.2966  0.0640
 2770SOL     OW10626   7.166   5.480   1.448 -0.5094  0.7082 -0.3024
 2770SOL    HW110627   7.233   5.491   1.515 -1.1556 -0.4404  0.5598
 2770SOL    HW210628   7.209   5.506   1.366  1.0476 -0.1611  0.2047
 2771SOL     OW10629   5.949   6.225   3.169  0.0243  0.5125  0.1370
 2771SOL    HW110630   6.004   6.292   3.128 -0.4777  1.2022  0.5732
 2771SOL    HW210631   5.996   6.201   3.249 -0.5017  1.4123  0.7304
 2772SOL     OW10632   9.660  10.421   2.448 -0.3377 -0.1346  0.0544
 2772SOL    HW110633   9.724  10.432   2.518 -0.7082 -0.3900  0.4415
 2772SOL    HW210634   9.577  10.451   2.486 -0.5925 -0.5197 -0.1861
 2773SOL     OW10635   1.002   1.641  10.075  0.5636  0.0916 -0.5736
 2773SOL    HW110636   1.004   1.565  10.017 -0.7220  0.3594 -0.9945
 2773SOL    HW210637   1.079   1.692  10.049 -1.0214  1.2475 -3.5583
 2774SOL     OW10638   5.081   1.314   5.313  0.6463  0.5185  0.0400
 2774SOL    HW110639   5.174   1.304   5.294  0.9616 -0.3662  1.8026
 2774SOL    HW210640   5.053   1.229   5.346 -1.1958  0.3030 -1.8259
 2775SOL     OW10641   3.765   2.948   4.166 -0.2637 -0.3812 -0.2466
 2775SOL    HW110642   3.701   2.900   4.218 -0.3143  0.9379  0.9424
 2775SOL    HW210643   3.839   2.960   4.224 -0.7714  2.1343 -0.0168
 2776SOL     OW10644   5.011   8.303   8.810 -0.3302  0.0365  0.1267
 2776SOL    HW110645   5.006   8.214   8.773 -2.0750 -0.0643  0.4805
 2776SOL    HW210646   5.076   8.348   8.757  0.3978 -1.3807 -0.2320
 2777SOL     OW10647   9.333   6.507   3.657 -0.1222 -0.7520 -0.3804
 2777SOL    HW110648   9.394   6.467   3.719 -0.6682 -1.0405 -0.0199
 2777SOL    HW210649   9.357   6.600   3.656  0.6008 -0.9307 -0.5796
 2778SOL     OW10650   6.211   6.076  10.147 -0.6205 -0.6641 -0.4522
 2778SOL    HW110651   6.288   6.067  10.090 -1.2268 -1.9211 -1.1026
 2778SOL    HW210652   6.236   6.145  10.209  1.0218 -1.0025 -0.6743
 2779SOL     OW10653   0.007   6.190   3.937  0.2171 -0.4399  0.1129
 2779SOL    HW110654  -0.088   6.191   3.927  0.2165 -2.0719 -0.3854
 2779SOL    HW210655   0.021   6.211   4.030 -0.6169 -0.0462  0.1613
 2780SOL     OW10656   0.858   8.131   2.304 -0.4192 -0.4536 -0.1579
 2780SOL    HW110657   0.922   8.064   2.331 -0.9607 -0.7379  0.4548
 2780SOL    HW210658   0.815   8.094   2.228  0.5615  0.0033 -0.9622
 2781SOL     OW10659   1.374   5.010   9.723 -0.1063  0.1649  0.4629
 2781SOL    HW110660   1.409   5.003   9.812 -0.2174 -2.7531  0.3671
 2781SOL    HW210661   1.427   4.949   9.671 -1.2080  0.4535 -1.0878
 2782SOL     OW10662   7.243   1.266   1.428 -0.0870 -0.4097 -0.4651
 2782SOL    HW110663   7.262   1.298   1.340  0.1687  0.5492 -0.0760
 2782SOL    HW210664   7.285   1.330   1.486  0.1031 -1.2450  0.3495
 2783SOL     OW10665   8.145   1.463   4.940  0.0698  0.6295  0.1704
 2783SOL    HW110666   8.124   1.494   5.028  0.3076 -0.9657  0.8307
 2783SOL    HW210667   8.150   1.368   4.949  1.6193  0.5266 -1.2329
 2784SOL     OW10668   1.116   7.036   9.234 -0.3274  0.0058  0.1519
 2784SOL    HW110669   1.024   7.009   9.241 -0.1667 -0.6873 -0.2525
 2784SOL    HW210670   1.118   7.097   9.160 -0.1182 -1.7345 -1.3617
 2785SOL     OW10671   8.629   6.167   7.906 -0.2103 -0.0540  0.6648
 2785SOL    HW110672   8.643   6.156   7.812  2.6783 -0.5905  1.0621
 2785SOL    HW210673   8.634   6.079   7.942 -1.0712  0.1704  1.3675
 2786SOL     OW10674   3.255   5.624   9.983 -0.6791  0.1709 -0.4115
 2786SOL    HW110675   3.230   5.599   9.894 -1.5388  0.2900 -0.2155
 2786SOL    HW210676   3.285   5.543  10.023 -1.7624 -0.2064 -0.3360
 2787SOL     OW10677   7.100   3.196   6.932  0.0767  0.3272 -0.6001
 2787SOL    HW110678   7.063   3.253   6.865 -0.9099  0.5379  0.1114
 2787SOL    HW210679   7.126   3.255   7.003  0.9177  0.0846 -0.6871
 2788SOL     OW10680   2.282   2.474   8.461  0.3748 -0.1764 -0.2063
 2788SOL    HW110681   2.242   2.497   8.377 -2.0372 -1.9000  0.3370
 2788SOL    HW210682   2.350   2.411   8.438 -0.3765 -0.7701 -0.9166
 2789SOL     OW10683   1.737   8.131   2.320  0.1827  0.4729  0.4657
 2789SOL    HW110684   1.668   8.175   2.370  1.3788  2.2846  0.6117
 2789SOL    HW210685   1.818   8.153   2.366  1.0481 -0.0365 -0.7561
 2790SOL     OW10686   5.871   1.672   7.956 -0.3458  0.2292  0.2013
 2790SOL    HW110687   5.957   1.712   7.956 -0.2504  0.0633 -1.1623
 2790SOL    HW210688   5.843   1.675   8.047  1.8016 -1.2600  1.0030
 2791SOL     OW10689   4.332   7.241   4.112  0.1284 -0.0618  0.3694
 2791SOL    HW110690   4.409   7.245   4.169 -0.3278 -1.0774  1.0813
 2791SOL    HW210691   4.368   7.234   4.024  0.8705 -1.0278  0.7312
 2792SOL     OW10692   8.209   6.415   2.782  0.0553 -0.0346 -0.4072
 2792SOL    HW110693   8.220   6.325   2.750 -1.3295 -0.8734  1.2942
 2792SOL    HW210694   8.117   6.436   2.766  0.5710  1.4852 -1.6399
 2793SOL     OW10695   1.304   0.556   8.288 -0.0705 -0.3234 -0.2064
 2793SOL    HW110696   1.308   0.601   8.372 -0.2900 -0.3127 -0.2010
 2793SOL    HW210697   1.378   0.592   8.238 -1.9467  2.2950 -1.3078
 2794SOL     OW10698   5.307   5.491   3.168 -0.0781  0.2721 -0.2877
 2794SOL    HW110699   5.374   5.496   3.236 -0.0355 -0.1746 -0.2885
 2794SOL    HW210700   5.329   5.411   3.119  0.3942  1.0281 -1.3539
 2795SOL     OW10701   5.418   2.381   2.166  0.9734  0.2534 -0.1567
 2795SOL    HW110702   5.414   2.427   2.250  0.6034 -1.8874  1.0662
 2795SOL    HW210703   5.327   2.358   2.148  1.1053  0.3397 -0.9726
 2796SOL     OW10704   2.240   8.441   4.376  0.1489 -0.2277  0.1097
 2796SOL    HW110705   2.177   8.418   4.445  0.8622 -0.3503  0.7402
 2796SOL    HW210706   2.245   8.363   4.321 -1.5743  0.3953 -1.0131
 2797SOL     OW10707   5.216   3.557   2.294  0.2690  0.2903 -0.7007
 2797SOL    HW110708   5.306   3.523   2.296  0.4364  0.7643 -0.1932
 2797SOL    HW210709   5.192   3.566   2.386  0.3566  1.8869 -0.8044
 2798SOL     OW10710   7.300   0.566   3.988 -0.0562  0.2444 -0.5826
 2798SOL    HW110711   7.258   0.574   3.903  1.3015 -0.6835 -1.3742
 2798SOL    HW210712   7.301   0.473   4.007  1.4572  0.2491 -0.5157
 2799SOL     OW10713   4.304   7.634   6.925  0.2996 -0.1980  0.0543
 2799SOL    HW110714   4.270   7.572   6.861  0.1721  0.5120 -0.5808
 2799SOL    HW210715   4.345   7.580   6.992  0.7208 -0.9521 -0.7875
 2800SOL     OW10716   6.578   7.277   6.651 -0.6123 -0.4838 -0.5456
 2800SOL    HW110717   6.525   7.315   6.581 -0.7598 -0.7404 -0.5751
 2800SOL    HW210718   6.626   7.351   6.688  1.1602 -0.6358 -2.3506
 2801SOL     OW10719   4.026   2.945   0.997 -0.6159  0.5152 -0.0047
 2801SOL    HW110720   4.104   2.965   1.049  0.2587 -3.1224  0.4016
 2801SOL    HW210721   4.061   2.919   0.911 -1.5362  0.5947 -0.4101
 2802SOL     OW10722   7.537   2.861  10.024 -0.0317  0.0960  0.0805
 2802SOL    HW110723   7.497   2.896  10.104 -0.2621 -1.5748  0.7495
 2802SOL    HW210724   7.614   2.813  10.055  0.9370  0.9483 -0.9214
 2803SOL     OW10725   9.784   3.563   3.806 -0.2167  0.3259 -0.6335
 2803SOL    HW110726   9.766   3.615   3.728  1.2681  1.9320  0.0115
 2803SOL    HW210727   9.878   3.544   3.801 -0.2465 -0.1497  0.3987
 2804SOL     OW10728   1.744   3.342   7.741  0.2980  0.2141 -0.6763
 2804SOL    HW110729   1.831   3.302   7.736 -0.0975 -0.7939 -0.0780
 2804SOL    HW210730   1.755   3.415   7.802  0.2679 -1.3608  1.3296
 2805SOL     OW10731   6.928   2.427   0.346 -0.2935 -0.5455  0.2613
 2805SOL    HW110732   7.014   2.428   0.304 -0.6546 -0.6957 -0.4975
 2805SOL    HW210733   6.935   2.490   0.418 -0.2592  1.2167 -1.2243
 2806SOL     OW10734   8.355   4.310   0.411 -0.0068 -0.2579  0.0752
 2806SOL    HW110735   8.289   4.254   0.454 -0.6015 -0.6254 -1.2580
 2806SOL    HW210736   8.324   4.399   0.425  0.6514 -0.2646  1.7443
 2807SOL     OW10737   0.851   8.022   7.408  0.5803 -0.3578  0.0039
 2807SOL    HW110738   0.938   8.051   7.433  0.4035 -0.5555  0.9095
 2807SOL    HW210739   0.865   7.935   7.369  0.8788  0.0138 -0.7335
 2808SOL     OW10740  10.046   0.060   3.647  0.8408 -0.0568 -0.6083
 2808SOL    HW110741  10.005   0.118   3.711  0.9473 -0.3910 -0.2297
 2808SOL    HW210742   9.977  -0.001   3.622  0.3210  1.0887 -2.0754
 2809SOL     OW10743   7.953   8.267   0.352 -0.4643 -0.0537  0.2554
 2809SOL    HW110744   7.942   8.350   0.307  0.0464 -1.4007 -2.5666
 2809SOL    HW210745   7.874   8.217   0.329  0.0948 -0.9995  0.3334
 2810SOL     OW10746   2.884   6.382   9.657  0.3159 -0.3696  0.0405
 2810SOL    HW110747   2.892   6.341   9.742 -2.7849 -0.4861  0.3839
 2810SOL    HW210748   2.875   6.476   9.676 -1.0704 -0.4604 -0.0385
 2811SOL     OW10749   2.957   8.047   0.783  0.1708 -0.1200  0.3269
 2811SOL    HW110750   2.991   8.007   0.703  0.8243 -0.7688  0.9145
 2811SOL    HW210751   2.891   8.109   0.753 -1.7725 -2.4897 -0.5630
 2812SOL     OW10752   5.317   7.130   9.571 -0.2537 -0.4180  0.1681
 2812SOL    HW110753   5.334   7.050   9.621  1.0756 -2.1767 -2.8065
 2812SOL    HW210754   5.384   7.191   9.601 -0.9482 -0.5490  2.1242
 2813SOL     OW10755   7.956   9.187   7.164  0.0196 -0.3825  0.5653
 2813SOL    HW110756   7.921   9.099   7.157  1.0165 -0.7322 -0.2007
 2813SOL    HW210757   8.050   9.178   7.146  0.5382  0.5186  2.5727
 2814SOL     OW10758   9.156  10.095   5.030 -0.5946  0.6457 -0.2725
 2814SOL    HW110759   9.138  10.090   5.124 -4.1194 -0.4539 -0.8699
 2814SOL    HW210760   9.220  10.025   5.014 -0.4698  0.3927  1.1882
 2815SOL     OW10761   7.762   7.696   9.909 -0.6116 -0.6432  0.4580
 2815SOL    HW110762   7.784   7.733   9.994 -0.2686  0.7834 -0.2218
 2815SOL    HW210763   7.847   7.682   9.866 -0.8169 -0.4131 -0.0301
 2816SOL     OW10764   1.765   0.322   9.227  0.2911 -0.1447  0.1644
 2816SOL    HW110765   1.724   0.339   9.312  0.0912 -1.0732  0.2658
 2816SOL    HW210766   1.820   0.398   9.211  1.4116 -0.5777  1.7771
 2817SOL     OW10767   0.117   5.748   3.792  0.1315  0.3009  0.3237
 2817SOL    HW110768   0.176   5.804   3.843 -1.4401  1.1164  1.3397
 2817SOL    HW210769   0.065   5.810   3.741 -0.4179 -0.3555  0.0767
 2818SOL     OW10770   9.361   4.095   5.262  0.0777  0.0954  0.2333
 2818SOL    HW110771   9.339   4.154   5.333 -1.3852 -0.6813  0.4627
 2818SOL    HW210772   9.310   4.127   5.187  1.2555  0.6353 -0.3818
 2819SOL     OW10773   8.857   1.955   1.814  0.0184 -0.3641  0.6740
 2819SOL    HW110774   8.924   1.975   1.879  1.6673 -1.2349 -0.6782
 2819SOL    HW210775   8.780   2.005   1.843  0.8483 -0.2763  2.9290
 2820SOL     OW10776   1.977   7.137   4.802 -0.3099  0.2317 -0.0151
 2820SOL    HW110777   2.044   7.205   4.805 -0.5955  0.5010  0.2732
 2820SOL    HW210778   1.899   7.181   4.767 -0.3918 -0.0348 -0.1730
 2821SOL     OW10779   2.156   4.361   3.883 -0.3464  0.0607 -0.2493
 2821SOL    HW110780   2.190   4.450   3.888 -0.6313  0.1169  0.9747
 2821SOL    HW210781   2.068   4.370   3.848 -1.7666  0.6965  3.1438
 2822SOL     OW10782   2.881   1.646   9.421 -0.0040  0.4767  0.0555
 2822SOL    HW110783   2.933   1.578   9.464 -0.7032 -0.6927 -0.8963
 2822SOL    HW210784   2.792   1.631   9.454 -0.5948 -0.5648 -1.8806
 2823SOL     OW10785   9.140   0.833   2.615  0.1453  0.1480  0.0489
 2823SOL    HW110786   9.062   0.869   2.656  1.0775  1.4586  0.7566
 2823SOL    HW210787   9.108   0.767   2.555 -1.6007  1.5546 -0.6429
 2824SOL     OW10788   8.581   4.579   8.783  0.3959  0.1655  0.0207
 2824SOL    HW110789   8.600   4.606   8.872  0.3970  0.5244 -0.0877
 2824SOL    HW210790   8.666   4.576   8.739  0.4054 -0.0985  0.0564
 2825SOL     OW10791   2.232   4.071   4.596 -0.8740 -0.3842  0.0020
 2825SOL    HW110792   2.208   4.127   4.522  0.0568 -0.1641 -0.1569
 2825SOL    HW210793   2.253   4.133   4.667 -0.5124 -0.5487  0.0410
 2826SOL     OW10794   6.091   2.290   9.957  0.4887 -0.1924  0.2503
 2826SOL    HW110795   6.086   2.247   9.871 -1.2372  1.9995 -0.8391
 2826SOL    HW210796   6.002   2.288   9.990  1.1208 -0.9688  2.0568
 2827SOL     OW10797   1.499   7.447   1.652 -0.0495  0.4539 -0.0653
 2827SOL    HW110798   1.489   7.379   1.718  0.3887 -0.1371 -0.5952
 2827SOL    HW210799   1.569   7.503   1.685 -0.2938  0.5480  0.2916
 2828SOL     OW10800   7.240   8.560   0.795  0.1490  0.0125 -0.6603
 2828SOL    HW110801   7.312   8.509   0.757  0.8073 -0.0311  0.5815
 2828SOL    HW210802   7.276   8.648   0.803  0.9692 -0.4807  2.1105
 2829SOL     OW10803   5.322   0.318   8.361  0.3110  0.2208  1.1211
 2829SOL    HW110804   5.382   0.362   8.301 -0.2824  2.8772  2.3206
 2829SOL    HW210805   5.243   0.373   8.360 -1.7896 -2.5591  0.3911
 2830SOL     OW10806   9.925   1.992   2.137 -0.1515  0.3849  0.1409
 2830SOL    HW110807  10.004   2.046   2.139 -0.2808  0.6373 -0.9310
 2830SOL    HW210808   9.952   1.908   2.174  1.0110  0.0028 -1.4347
 2831SOL     OW10809   3.884   3.494   3.452  0.1082 -0.3684 -0.0872
 2831SOL    HW110810   3.853   3.412   3.414  1.2112  0.1713 -2.3590
 2831SOL    HW210811   3.873   3.483   3.546 -0.7539 -2.6936 -0.3950
 2832SOL     OW10812   1.478   0.726   8.132  0.0983 -0.9350 -0.2532
 2832SOL    HW110813   1.431   0.809   8.122  2.1426  0.4788  1.2345
 2832SOL    HW210814   1.523   0.714   8.048  0.5767 -0.0070 -0.1409
 2833SOL     OW10815   3.510   9.163   9.343 -0.8938  0.3034  0.2017
 2833SOL    HW110816   3.598   9.127   9.355 -1.0709 -1.0637 -2.0256
 2833SOL    HW210817   3.522   9.257   9.347  0.2628  0.1222  2.2274
 2834SOL     OW10818   7.308   7.241   1.243 -0.1066 -0.9313 -0.2843
 2834SOL    HW110819   7.213   7.230   1.247 -0.3469  1.0936  1.3192
 2834SOL    HW210820   7.326   7.262   1.152 -1.3340 -0.4761 -0.4438
 2835SOL     OW10821   8.152   9.145   8.258 -0.5814 -0.4925 -0.1012
 2835SOL    HW110822   8.169   9.135   8.164  0.9656  0.3739  0.0491
 2835SOL    HW210823   8.224   9.098   8.300 -0.0941  0.8378  0.6206
 2836SOL     OW10824   1.602   1.735   3.622  1.0522  0.2505  0.3305
 2836SOL    HW110825   1.541   1.805   3.646  2.4852  1.0661  1.7495
 2836SOL    HW210826   1.614   1.745   3.528  0.4998  1.2966  0.3518
 2837SOL     OW10827   9.170   5.803   2.781 -0.5238 -0.0826 -0.5395
 2837SOL    HW110828   9.081   5.783   2.754 -0.2589 -2.1545 -0.0591
 2837SOL    HW210829   9.182   5.895   2.759 -3.0908  0.5279  0.2609
 2838SOL     OW10830   7.757   0.824   9.368 -0.2048 -0.0887  0.0940
 2838SOL    HW110831   7.691   0.882   9.332 -1.3750 -0.5339  1.4314
 2838SOL    HW210832   7.831   0.831   9.307 -2.0754 -0.9026 -2.4337
 2839SOL     OW10833   2.997   3.873   8.343 -0.5594  0.0608  0.3295
 2839SOL    HW110834   2.975   3.854   8.434  0.8698 -1.0818  0.4760
 2839SOL    HW210835   2.960   3.799   8.294  0.3628 -0.3509  0.2360
 2840SOL     OW10836   7.307   0.737   1.419 -0.2370  0.4541  0.3879
 2840SOL    HW110837   7.269   0.814   1.462  0.2267  0.5012  0.7346
 2840SOL    HW210838   7.395   0.765   1.395  0.0347 -0.0567  0.7738
 2841SOL     OW10839   8.472   2.788   9.155 -0.3576 -0.0065  0.4843
 2841SOL    HW110840   8.431   2.858   9.103 -0.0618  0.0232  0.2908
 2841SOL    HW210841   8.457   2.815   9.246 -0.7963 -0.0127  0.4157
 2842SOL     OW10842   3.143  10.516   8.774  0.4695  0.2030 -0.6830
 2842SOL    HW110843   3.231  10.481   8.763 -0.3737 -2.3998  0.1802
 2842SOL    HW210844   3.131  10.523   8.869 -0.1620  0.8201 -0.7950
 2843SOL     OW10845   9.264   8.455   1.986 -0.3439 -0.4117 -0.2743
 2843SOL    HW110846   9.246   8.511   1.910 -0.4363 -1.8281 -1.3369
 2843SOL    HW210847   9.342   8.494   2.026 -0.8626  0.9173 -0.5205
 2844SOL     OW10848   7.266  10.232   5.753  0.1576  0.0510  0.0372
 2844SOL    HW110849   7.269  10.218   5.848 -3.4412  0.9386  0.4393
 2844SOL    HW210850   7.245  10.146   5.717 -0.9452  0.1651  0.3593
 2845SOL     OW10851   9.433   0.954   8.130 -0.0145 -0.6299 -0.3379
 2845SOL    HW110852   9.380   0.993   8.060 -1.0934 -1.0365  0.2266
 2845SOL    HW210853   9.382   0.970   8.209  0.2649 -1.8476  0.1011
 2846SOL     OW10854   5.556   7.350   7.868  0.1918  0.4531  0.4347
 2846SOL    HW110855   5.585   7.274   7.819 -1.3638 -0.0332  0.2132
 2846SOL    HW210856   5.505   7.402   7.805  0.9135  1.5053  0.6811
 2847SOL     OW10857   8.383   1.283   8.591  0.4444 -0.0097 -0.1525
 2847SOL    HW110858   8.413   1.281   8.500 -0.3410  0.1593 -0.4272
 2847SOL    HW210859   8.338   1.367   8.600  1.1448  0.2931  0.6086
 2848SOL     OW10860   6.160   5.809   2.192 -0.3599  0.4825  0.6869
 2848SOL    HW110861   6.073   5.792   2.229  0.0017  2.1414  2.4750
 2848SOL    HW210862   6.156   5.901   2.164  1.3134  1.1695  2.4642
 2849SOL     OW10863   5.944  10.085   3.830 -0.2513  0.1769 -0.2279
 2849SOL    HW110864   5.863  10.137   3.831 -0.6627 -0.4335 -0.9253
 2849SOL    HW210865   5.916   9.998   3.857 -0.3554 -0.7368 -3.0125
 2850SOL     OW10866   4.337   0.638   0.095 -0.0127 -0.3596  0.0881
 2850SOL    HW110867   4.341   0.679   0.009 -0.9457  0.9588  0.6327
 2850SOL    HW210868   4.326   0.544   0.077 -2.5344  0.1255 -1.2714
 2851SOL     OW10869   5.630   3.625   8.762  0.2045 -0.3847  0.1443
 2851SOL    HW110870   5.571   3.699   8.757  1.0560  0.2883 -4.1199
 2851SOL    HW210871   5.576   3.549   8.739  0.4374 -0.0747 -1.6112
 2852SOL     OW10872   1.184   7.687   0.917 -0.0123 -1.0356  0.3627
 2852SOL    HW110873   1.172   7.757   0.982 -2.1830  0.4780 -1.5217
 2852SOL    HW210874   1.176   7.606   0.968 -2.5920  0.0670  1.9187
 2853SOL     OW10875   6.362   1.321   3.247 -0.3326  0.5236 -0.1947
 2853SOL    HW110876   6.294   1.296   3.310 -0.1643 -0.2994 -0.3310
 2853SOL    HW210877   6.438   1.341   3.301  0.0751 -1.0127 -0.1521
 2854SOL     OW10878   9.124   8.504   7.060  0.0181 -0.2002 -0.4162
 2854SOL    HW110879   9.172   8.508   6.977  0.1672  0.1420 -0.3177
 2854SOL    HW210880   9.145   8.419   7.097 -0.1588 -0.4118 -0.7952
 2855SOL     OW10881   9.684   0.660   1.059  0.3045  0.3557  0.1681
 2855SOL    HW110882   9.656   0.737   1.008  0.2945  0.3022  0.0921
 2855SOL    HW210883   9.753   0.620   1.006 -1.0786 -0.8598 -0.8182
 2856SOL     OW10884   4.614   4.369   4.583 -0.4875 -0.4639 -0.1173
 2856SOL    HW110885   4.545   4.307   4.606 -0.3737 -0.4946  0.1540
 2856SOL    HW210886   4.677   4.363   4.656 -2.1568  2.5223  1.7985
 2857SOL     OW10887  10.147   2.920   1.725  0.0508 -0.6748  0.1777
 2857SOL    HW110888  10.133   2.901   1.632 -0.7132 -1.5524  0.4586
 2857SOL    HW210889  10.242   2.914   1.736  0.4099  1.5798 -0.9680
 2858SOL     OW10890   6.088  10.098   6.514 -0.1575  0.0999  0.4829
 2858SOL    HW110891   6.048  10.061   6.435 -0.9130 -1.0653  1.3655
 2858SOL    HW210892   6.175  10.059   6.516  0.8553  2.1253 -1.0946
 2859SOL     OW10893   9.746   7.960   6.361 -0.2917 -0.0125 -0.0490
 2859SOL    HW110894   9.747   7.935   6.454 -1.4498 -1.5165 -0.4053
 2859SOL    HW210895   9.702   8.045   6.360  0.5070  0.4339  0.8537
 2860SOL     OW10896   6.693   7.687   1.482  0.4507 -0.0693 -0.4421
 2860SOL    HW110897   6.656   7.714   1.566  1.6406  2.6491 -0.6902
 2860SOL    HW210898   6.752   7.615   1.504 -0.8345 -0.8333  0.7001
 2861SOL     OW10899   0.879   0.006   7.430  0.1620 -0.4752 -0.0468
 2861SOL    HW110900   0.967  -0.022   7.406  0.0437 -1.3897  0.5318
 2861SOL    HW210901   0.881   0.102   7.422  0.7333 -0.5816 -1.5820
 2862SOL     OW10902   0.736   3.737   9.931 -0.1449  0.7105 -0.1214
 2862SOL    HW110903   0.764   3.715  10.020  0.7873  0.1674 -0.5288
 2862SOL    HW210904   0.761   3.660   9.879 -0.1426  1.2659 -0.9491
 2863SOL     OW10905   6.321   0.339   4.944 -0.1923  0.3247 -0.4828
 2863SOL    HW110906   6.352   0.266   4.891 -2.3459  0.7755 -2.5131
 2863SOL    HW210907   6.361   0.416   4.904 -0.8928  0.5693 -0.7199
 2864SOL     OW10908   5.280   1.987   0.387  0.0909  1.1566 -0.1868
 2864SOL    HW110909   5.320   1.989   0.474 -0.6512  0.9231  0.1671
 2864SOL    HW210910   5.334   1.925   0.337  1.0358  1.9274 -0.1637
 2865SOL     OW10911   4.830  10.308   6.398 -0.6309  0.1215 -0.6546
 2865SOL    HW110912   4.738  10.310   6.371 -1.0457  1.7341  0.7359
 2865SOL    HW210913   4.854  10.215   6.392 -1.8294 -0.1191 -2.6142
 2866SOL     OW10914   8.877   0.280   6.531  0.1174 -0.0027 -0.0070
 2866SOL    HW110915   8.922   0.199   6.557  0.1856  0.0259 -0.0358
 2866SOL    HW210916   8.918   0.348   6.583 -0.1583 -0.0315  0.2517
 2867SOL     OW10917   0.328   1.257   0.778 -0.0981 -0.3097 -0.8873
 2867SOL    HW110918   0.391   1.246   0.849  0.2154  2.5947 -0.5658
 2867SOL    HW210919   0.265   1.186   0.789 -1.0440  0.9183  3.4245
 2868SOL     OW10920   7.271   8.054   4.874 -0.3406  0.1499  0.1911
 2868SOL    HW110921   7.356   8.097   4.884  1.1539 -1.2335 -4.3034
 2868SOL    HW210922   7.281   7.970   4.919  0.6138  0.0595 -0.1750
 2869SOL     OW10923   4.137   2.441   9.333  0.1897 -0.3126 -0.6146
 2869SOL    HW110924   4.133   2.400   9.246 -0.6184  1.4502 -1.4628
 2869SOL    HW210925   4.048   2.472   9.349  0.6336  0.5723  0.2456
 2870SOL     OW10926   1.735   1.846   2.012 -0.2281  0.0908 -0.1591
 2870SOL    HW110927   1.799   1.832   2.081  1.0638 -2.8568 -1.7785
 2870SOL    HW210928   1.660   1.791   2.037 -1.1140  1.4874  0.4050
 2871SOL     OW10929   8.880  10.134   0.392  0.3218 -0.8260  0.0661
 2871SOL    HW110930   8.934  10.109   0.317  0.4984  0.3392 -0.2196
 2871SOL    HW210931   8.943  10.159   0.459  0.2768  2.7144 -0.9966
 2872SOL     OW10932   8.861   8.591   8.578  0.4675 -0.1816 -0.1895
 2872SOL    HW110933   8.929   8.554   8.522 -0.6040  0.3089 -1.8888
 2872SOL    HW210934   8.864   8.538   8.658  0.9349 -2.0057 -1.3582
 2873SOL     OW10935   4.828  10.562   1.544 -0.2443 -0.2187 -0.3213
 2873SOL    HW110936   4.825  10.587   1.452 -2.6686 -0.9634 -0.5016
 2873SOL    HW210937   4.794  10.473   1.546 -1.5066  0.2411  1.4128
 2874SOL     OW10938   6.988   2.272   1.506  0.2590 -0.0521  0.4106
 2874SOL    HW110939   6.980   2.337   1.576  0.2907 -1.1928  1.5060
 2874SOL    HW210940   7.054   2.308   1.446  0.8929  0.5366  1.4425
 2875SOL     OW10941   2.109   2.194   3.883 -0.4404 -0.6923  0.3569
 2875SOL    HW110942   2.125   2.264   3.946 -1.1226  0.7578 -1.0089
 2875SOL    HW210943   2.054   2.131   3.930 -0.9532  0.3701  1.2067
 2876SOL     OW10944   3.703   3.397   8.135 -0.0793  0.2673 -0.0243
 2876SOL    HW110945   3.652   3.449   8.073 -0.9262 -0.2979  0.1844
 2876SOL    HW210946   3.774   3.359   8.082  0.5801  1.6379 -0.1683
 2877SOL     OW10947   4.833   9.208   4.082  0.7707  0.1687  0.1139
 2877SOL    HW110948   4.750   9.165   4.060  0.5851  0.1899  0.7615
 2877SOL    HW210949   4.879   9.146   4.137  0.3234  0.9382  1.3897
 2878SOL     OW10950   5.051   9.346   9.800 -0.6993 -0.0149  0.1083
 2878SOL    HW110951   5.132   9.393   9.821 -0.3801 -0.5233  0.0312
 2878SOL    HW210952   5.059   9.263   9.846 -1.6599  0.3566  0.9634
 2879SOL     OW10953   6.523  10.455   0.674  0.7889 -0.5456  0.4394
 2879SOL    HW110954   6.551  10.519   0.609  0.9985 -0.2952  0.7747
 2879SOL    HW210955   6.568  10.480   0.754 -2.7634  1.8800  1.9471
 2880SOL     OW10956   2.298   1.037   7.630 -0.7747 -0.1028 -0.7709
 2880SOL    HW110957   2.284   0.963   7.689  0.0150 -1.5154 -2.2752
 2880SOL    HW210958   2.339   1.105   7.685 -1.8577 -0.6055  0.7177
 2881SOL     OW10959   9.838  10.437   8.830 -0.1503  0.2933  0.4600
 2881SOL    HW110960   9.870  10.416   8.918  0.1100 -0.2920  0.2299
 2881SOL    HW210961   9.910  10.411   8.772 -1.3243 -1.8129 -0.1464
 2882SOL     OW10962  10.089   6.298   3.382 -0.3068 -0.1002  0.5567
 2882SOL    HW110963  10.096   6.333   3.293  0.2160 -0.1045  0.5923
 2882SOL    HW210964  10.102   6.204   3.372  1.3856  0.0766  0.8145
 2883SOL     OW10965   4.573   2.088   8.381 -0.1109 -0.1035  0.2820
 2883SOL    HW110966   4.633   2.105   8.308  0.1453  0.1014  0.5387
 2883SOL    HW210967   4.567   2.172   8.426  1.3717 -0.7122  1.7299
 2884SOL     OW10968   9.154   4.220   9.529  0.2862  0.1654 -0.2627
 2884SOL    HW110969   9.212   4.172   9.470  1.0692  0.7347  0.0456
 2884SOL    HW210970   9.153   4.309   9.496  0.2188  0.3444  0.2139
 2885SOL     OW10971   3.930   4.604   7.947 -0.0153 -0.1185  0.0981
 2885SOL    HW110972   3.943   4.514   7.978 -3.8376 -0.4541  1.1768
 2885SOL    HW210973   3.919   4.656   8.026  0.2131  0.9662 -0.5613
 2886SOL     OW10974   1.561   5.278   1.850 -0.2374 -0.1662  0.3990
 2886SOL    HW110975   1.562   5.286   1.755  1.6049 -1.6903  0.2367
 2886SOL    HW210976   1.602   5.359   1.882  0.1649 -0.1395 -0.1713
 2887SOL     OW10977   6.922   9.652   0.501  0.2337 -0.2986  0.8535
 2887SOL    HW110978   6.914   9.721   0.566  0.2096  0.6551 -0.1388
 2887SOL    HW210979   7.006   9.670   0.457 -0.1834 -0.3670  0.0047
 2888SOL     OW10980   7.046   6.630   5.565  0.2243  0.0400  0.4445
 2888SOL    HW110981   6.990   6.691   5.517  0.1327 -1.5278 -1.5272
 2888SOL    HW210982   7.046   6.550   5.513  0.6130 -1.5798  2.7879
 2889SOL     OW10983   3.085   4.788   7.651 -0.2651 -0.1202  0.2973
 2889SOL    HW110984   3.081   4.883   7.651  0.9070 -0.0520  0.4810
 2889SOL    HW210985   2.994   4.760   7.651 -0.6262  1.0020  0.5269
 2890SOL     OW10986   7.542  10.283   6.653 -0.1984 -0.3613 -0.4805
 2890SOL    HW110987   7.584  10.231   6.722  0.4917  0.6752 -0.0957
 2890SOL    HW210988   7.606  10.285   6.582 -0.3413 -0.2680 -0.6057
 2891SOL     OW10989   1.532   4.915   3.426  0.0738  0.1492 -0.1015
 2891SOL    HW110990   1.468   4.985   3.411  0.5369  0.3152 -1.3957
 2891SOL    HW210991   1.514   4.850   3.358  2.0278  0.7658 -1.3057
 2892SOL     OW10992   8.260   5.718   1.732  0.5395 -0.2385  0.0931
 2892SOL    HW110993   8.246   5.781   1.662 -0.7146 -0.6703 -0.0798
 2892SOL    HW210994   8.240   5.633   1.693 -1.5429 -0.3708  1.2623
 2893SOL     OW10995   1.716   2.078   3.674  0.1408 -0.4593 -0.0819
 2893SOL    HW110996   1.703   2.145   3.741  0.5615 -1.8910  1.5008
 2893SOL    HW210997   1.808   2.054   3.681  0.3611 -0.1902 -1.6482
 2894SOL     OW10998   4.236   2.893   9.521  0.0347  1.1696  0.4996
 2894SOL    HW110999   4.236   2.839   9.441 -1.5014  1.4757  0.2595
 2894SOL    HW211000   4.323   2.878   9.560  0.0932 -0.5439 -0.1799
 2895SOL     OW11001   2.589  10.597   6.531 -0.5888 -0.2454  0.4529
 2895SOL    HW111002   2.522  10.536   6.561 -0.6768  0.9492  2.9371
 2895SOL    HW211003   2.659  10.590   6.596  0.4505  0.5944 -0.5238
 2896SOL     OW11004   7.131   2.032   9.244 -0.1387  0.3351  0.0425
 2896SOL    HW111005   7.055   1.999   9.293  0.3494 -0.7391  0.0922
 2896SOL    HW211006   7.203   1.975   9.270  0.2851  0.1744 -1.3980
 2897SOL     OW11007   8.324   5.360   5.280 -0.3468  0.5573  0.7299
 2897SOL    HW111008   8.289   5.329   5.196  0.5263 -1.3499  1.0195
 2897SOL    HW211009   8.248   5.394   5.327 -0.7538  2.3569 -1.0757
 2898SOL     OW11010   5.180   1.424   8.638  0.4755 -0.6390 -0.5815
 2898SOL    HW111011   5.187   1.497   8.701 -1.1208  0.0447 -1.1418
 2898SOL    HW211012   5.228   1.455   8.561  1.5897 -1.0713 -0.0829
 2899SOL     OW11013   8.755   3.933   4.766  0.1489 -0.1862 -0.2145
 2899SOL    HW111014   8.727   4.023   4.783  1.2439  0.1508 -0.0629
 2899SOL    HW211015   8.782   3.901   4.852 -0.6392 -0.8188 -0.1923
 2900SOL     OW11016   5.040   9.475   5.464  0.7508  0.2652  0.0173
 2900SOL    HW111017   5.092   9.460   5.385 -0.7832  0.7168 -1.1236
 2900SOL    HW211018   5.023   9.387   5.498  2.4343  0.1276  0.5454
 2901SOL     OW11019   3.561   7.245  10.031 -0.2318  0.3709  0.2236
 2901SOL    HW111020   3.478   7.219   9.992 -0.9289 -1.5867  2.7388
 2901SOL    HW211021   3.551   7.338  10.049 -0.5214  0.9467 -2.4713
 2902SOL     OW11022   1.112   1.464   4.885 -0.2636  0.0453 -0.4414
 2902SOL    HW111023   1.119   1.416   4.967  1.6327  0.2771 -0.4224
 2902SOL    HW211024   1.018   1.472   4.870 -0.6628 -2.1799  0.4162
 2903SOL     OW11025   9.992   2.448   2.894 -0.3416  0.4699 -0.5424
 2903SOL    HW111026   9.986   2.390   2.971  1.8821 -0.6302 -1.1046
 2903SOL    HW211027   9.913   2.429   2.844 -1.4626  0.6459  1.0825
 2904SOL     OW11028   5.119   8.536   1.433  0.3614  0.0476  0.4509
 2904SOL    HW111029   5.164   8.452   1.421 -0.1517 -0.1652  0.0156
 2904SOL    HW211030   5.082   8.530   1.521 -2.0899 -1.3530 -0.5922
 2905SOL     OW11031   3.619   0.587  10.459  0.0303 -0.2845  0.0748
 2905SOL    HW111032   3.526   0.568  10.448 -0.9805  3.0694  1.3405
 2905SOL    HW211033   3.649   0.611  10.371 -0.3727 -1.0677 -0.2846
 2906SOL     OW11034   8.716   6.200   4.282  0.2708  0.0002 -0.3508
 2906SOL    HW111035   8.661   6.170   4.210  0.3022 -0.1640 -0.3073
 2906SOL    HW211036   8.749   6.285   4.254 -1.6748  1.0973  0.4800
 2907SOL     OW11037   4.797   4.369   0.471 -0.2337  0.6460 -0.2807
 2907SOL    HW111038   4.838   4.409   0.548  0.0802  1.2493 -0.7521
 2907SOL    HW211039   4.704   4.390   0.480 -0.3425 -0.0673  0.3953
 2908SOL     OW11040   3.289   2.462   4.813  0.2086  0.2976 -0.0697
 2908SOL    HW111041   3.380   2.441   4.791  0.2101  0.1446  0.0766
 2908SOL    HW211042   3.295   2.547   4.857  0.2201  0.5360 -0.5303
 2909SOL     OW11043   0.777   0.492   9.667 -0.2279  0.4850  0.7939
 2909SOL    HW111044   0.714   0.555   9.633 -1.1074 -0.0426  1.3987
 2909SOL    HW211045   0.863   0.530   9.648 -0.6867  0.7860 -0.9030
 2910SOL     OW11046   0.887  10.431  10.136 -0.2299  0.1705  0.0553
 2910SOL    HW111047   0.856  10.467  10.054  0.0355  0.9073  0.2764
 2910SOL    HW211048   0.899  10.506  10.194 -1.1176 -0.3922  1.0159
 2911SOL     OW11049   9.870   2.088   0.078  0.3605 -0.4371 -0.4136
 2911SOL    HW111050   9.862   2.181   0.059 -0.8196 -0.3497  0.4165
 2911SOL    HW211051   9.894   2.084   0.170  0.2325 -0.9566 -0.3987
 2912SOL     OW11052   1.034   6.064   8.557 -0.2616  0.2657  0.2151
 2912SOL    HW111053   1.078   6.083   8.640 -1.2184 -0.9090  1.0411
 2912SOL    HW211054   1.092   6.002   8.513 -1.5498 -2.3500  1.9010
 2913SOL     OW11055   2.665   4.911   7.114  0.8051 -0.0836 -0.3971
 2913SOL    HW111056   2.733   4.848   7.139 -0.7434 -1.3781  0.7484
 2913SOL    HW211057   2.585   4.877   7.153 -0.5584  1.3362 -1.8049
 2914SOL     OW11058   9.442   9.154   6.123 -0.7005  0.1897 -0.3120
 2914SOL    HW111059   9.403   9.241   6.134  0.9860  0.7910  1.2091
 2914SOL    HW211060   9.512   9.167   6.059  0.9125  0.4718  1.4152
 2915SOL     OW11061   7.786   7.240   0.661 -0.1512  0.0366 -0.6347
 2915SOL    HW111062   7.691   7.230   0.669 -0.4471  1.5476 -1.8408
 2915SOL    HW211063   7.812   7.280   0.745  0.2109 -4.4288  1.6968
 2916SOL     OW11064   1.558   9.593   5.463  0.3907 -0.1875  0.0246
 2916SOL    HW111065   1.635   9.537   5.456  1.1093  0.9211 -1.7038
 2916SOL    HW211066   1.555   9.619   5.555  1.7913 -0.6670  0.2242
 2917SOL     OW11067   6.374   4.709   9.337  0.3573  0.3044 -0.0929
 2917SOL    HW111068   6.439   4.644   9.309  0.0717  0.4780 -1.2307
 2917SOL    HW211069   6.300   4.696   9.277 -0.3986  0.5460  0.7623
 2918SOL     OW11070   6.886   4.482   6.959 -0.2925 -0.3185  0.3624
 2918SOL    HW111071   6.830   4.555   6.987  0.3154 -0.4621  2.0622
 2918SOL    HW211072   6.825   4.409   6.946 -0.5313 -0.5142  2.3180
 2919SOL     OW11073   2.180  10.156   7.508  0.4008 -0.2241 -0.3947
 2919SOL    HW111074   2.253  10.109   7.467  0.3722  0.2615 -1.0176
 2919SOL    HW211075   2.143  10.209   7.437  0.8939  1.3109  0.4729
 2920SOL     OW11076   9.506   4.472   7.832 -0.0135 -0.2509  0.2358
 2920SOL    HW111077   9.538   4.560   7.812  2.5281 -1.2490 -0.4868
 2920SOL    HW211078   9.555   4.445   7.910  0.5514 -1.6575 -0.5733
 2921SOL     OW11079   0.128  10.496   8.889 -0.1432 -0.4724  0.2100
 2921SOL    HW111080   0.137  10.434   8.817  1.6564 -2.3787  1.9207
 2921SOL    HW211081   0.036  10.490   8.915 -0.0844 -2.2740  0.1375
 2922SOL     OW11082   0.687   7.015   3.696 -0.4132  0.3169  0.2215
 2922SOL    HW111083   0.747   7.077   3.655  0.7293  0.7920  2.4632
 2922SOL    HW211084   0.673   6.948   3.629  0.9329  1.2971 -1.1172
 2923SOL     OW11085   0.004   8.103   9.938 -0.3750 -0.0330 -0.4092
 2923SOL    HW111086   0.022   8.192   9.969  2.0332 -0.9554  1.1310
 2923SOL    HW211087  -0.062   8.070  10.000  0.3703 -0.0393  0.3989
 2924SOL     OW11088   3.984   9.327   2.252  0.0169 -0.0393  0.0726
 2924SOL    HW111089   3.942   9.280   2.180 -1.0365 -1.2834  1.4275
 2924SOL    HW211090   3.928   9.309   2.328  1.5255  0.5415  1.3713
 2925SOL     OW11091   9.100   5.118   4.328  0.0873 -0.3657  0.2085
 2925SOL    HW111092   9.159   5.161   4.391 -0.1730  0.9767 -0.4189
 2925SOL    HW211093   9.041   5.188   4.300 -1.5523 -1.5942  0.5173
 2926SOL     OW11094   4.633  10.531   9.440  1.1085  0.0257 -0.0168
 2926SOL    HW111095   4.659  10.589   9.511  0.0260  0.0569  0.3673
 2926SOL    HW211096   4.627  10.588   9.363 -0.8365  0.6477  0.5395
 2927SOL     OW11097   7.576   2.941   7.811 -0.1121 -0.7176  0.1605
 2927SOL    HW111098   7.515   2.888   7.862 -0.0624  0.0611  1.0486
 2927SOL    HW211099   7.636   2.877   7.773 -1.0293 -1.4357 -0.1478
 2928SOL     OW11100   7.023   2.226   2.921 -0.0744  0.2823  0.1294
 2928SOL    HW111101   6.931   2.247   2.934  0.0443  1.1171 -0.2987
 2928SOL    HW211102   7.070   2.303   2.953  0.5268 -0.5176  1.2231
 2929SOL     OW11103   0.268   1.966   7.530  0.4018  0.4601 -0.0695
 2929SOL    HW111104   0.353   2.007   7.523  0.9200 -0.7116 -0.9395
 2929SOL    HW211105   0.230   2.003   7.610  2.0214  0.4522  0.7405
 2930SOL     OW11106   7.906   4.290   8.288  0.3923 -0.2567  0.3205
 2930SOL    HW111107   7.884   4.205   8.326 -0.3995  0.8733  2.5853
 2930SOL    HW211108   7.999   4.283   8.264  1.3816 -0.6985  3.7786
 2931SOL     OW11109   1.897   4.156   8.810  0.3259 -0.5427  0.3079
 2931SOL    HW111110   1.813   4.197   8.832  0.5950  0.6353 -0.7380
 2931SOL    HW211111   1.876   4.088   8.747  0.1234 -0.4895  0.3192
 2932SOL     OW11112   0.750   3.627   9.603  0.2427 -0.0834 -0.3306
 2932SOL    HW111113   0.800   3.608   9.683  2.4467 -1.5184 -1.9429
 2932SOL    HW211114   0.769   3.719   9.585  2.6144 -0.6326 -1.0084
 2933SOL     OW11115   4.935   4.616   1.951  0.4209  0.2519  0.4536
 2933SOL    HW111116   4.998   4.548   1.928 -0.7674 -0.8937  0.4734
 2933SOL    HW211117   4.921   4.664   1.869  0.0894 -0.5429  0.0340
 2934SOL     OW11118   6.927   1.331   4.980 -0.1607  0.8598 -0.2491
 2934SOL    HW111119   6.860   1.277   5.021  0.4745 -0.1873 -0.5332
 2934SOL    HW211120   6.913   1.319   4.886 -0.2964  1.5529 -0.3174
 2935SOL     OW11121   8.069   8.195  10.236  0.8618  0.2043 -0.9016
 2935SOL    HW111122   8.019   8.274  10.219  0.6075 -0.1241 -1.7381
 2935SOL    HW211123   8.160   8.224  10.239  0.7178  0.6268 -0.5192
 2936SOL     OW11124   8.314   0.997   7.185  0.0863 -0.1518 -0.0093
 2936SOL    HW111125   8.287   0.994   7.277 -2.7625  2.0130 -0.6089
 2936SOL    HW211126   8.285   0.914   7.148 -0.1717 -0.3928  0.7287
 2937SOL     OW11127   4.288   8.471   1.326 -0.1347 -0.0648 -0.5505
 2937SOL    HW111128   4.200   8.507   1.313 -0.3827 -0.8780 -1.2217
 2937SOL    HW211129   4.274   8.377   1.336  0.6795 -0.2249 -0.8416
 2938SOL     OW11130   8.546   2.990   6.671  0.1230  0.4015  0.0082
 2938SOL    HW111131   8.522   2.919   6.731 -1.2847 -0.3322 -1.3739
 2938SOL    HW211132   8.618   3.035   6.716  0.4749 -1.3444  1.3198
 2939SOL     OW11133   5.076   9.483   2.600 -0.2507  0.2427  0.7176
 2939SOL    HW111134   5.075   9.467   2.694  1.0288 -1.7416  0.4436
 2939SOL    HW211135   4.996   9.442   2.568 -0.4400  0.4907  0.8659
 2940SOL     OW11136   5.568   6.476   4.968  0.1200 -0.3834  0.2081
 2940SOL    HW111137   5.573   6.397   5.022  0.6905 -0.4944  0.0062
 2940SOL    HW211138   5.528   6.447   4.887 -1.6091 -0.0238  0.8958
 2941SOL     OW11139   5.829   5.332   6.421  0.3861  0.3949  0.4180
 2941SOL    HW111140   5.867   5.261   6.369  1.0921  1.3844 -0.4724
 2941SOL    HW211141   5.771   5.378   6.359 -0.6742  0.1399  1.1941
 2942SOL     OW11142   3.750   1.086   6.517 -0.0341  0.2248 -0.5076
 2942SOL    HW111143   3.662   1.099   6.551 -0.6675 -1.2476 -1.4661
 2942SOL    HW211144   3.800   1.055   6.592 -0.6469 -0.1158 -0.2325
 2943SOL     OW11145   2.535   4.810   1.742 -0.5039 -0.3096  0.1429
 2943SOL    HW111146   2.614   4.858   1.768 -1.4126  0.8771  0.7510
 2943SOL    HW211147   2.478   4.876   1.703 -1.1139 -1.2010 -0.5151
 2944SOL     OW11148   2.610   7.625   8.790  0.0699 -0.0435  0.0520
 2944SOL    HW111149   2.646   7.633   8.879 -1.1102  0.4633  0.5001
 2944SOL    HW211150   2.628   7.709   8.749  0.4026 -0.1934 -0.1108
 2945SOL     OW11151   2.400   0.511   1.556 -0.2306  0.1230  0.2323
 2945SOL    HW111152   2.435   0.434   1.511 -0.5103 -0.1440  0.4746
 2945SOL    HW211153   2.335   0.546   1.495  0.4277  0.6058 -0.2092
 2946SOL     OW11154   1.373   5.947   0.265 -0.0379 -0.1982 -0.6323
 2946SOL    HW111155   1.309   6.005   0.305  0.3582 -0.8213  0.9540
 2946SOL    HW211156   1.456   5.993   0.273  0.0788 -0.4188 -0.5573
 2947SOL     OW11157   7.430   7.027   2.040 -0.3006  0.1420  0.0081
 2947SOL    HW111158   7.454   7.065   2.124 -0.2924  0.0921  0.0281
 2947SOL    HW211159   7.385   7.098   1.994  0.4024  0.4130 -0.2653
 2948SOL     OW11160   1.971   3.432   8.597 -0.1778 -0.4328 -0.6800
 2948SOL    HW111161   2.013   3.517   8.607  0.0804 -0.4721 -1.3405
 2948SOL    HW211162   1.938   3.410   8.684  0.3174  0.0484 -0.3700
 2949SOL     OW11163   6.733   0.604   3.652  0.0265  0.4259 -0.3352
 2949SOL    HW111164   6.766   0.593   3.742 -1.0603  0.0860  0.0388
 2949SOL    HW211165   6.642   0.631   3.663  0.0426  0.9395 -1.3450
 2950SOL     OW11166   9.507   4.218   1.274 -0.2322  0.2472 -0.2002
 2950SOL    HW111167   9.416   4.211   1.302 -0.2252 -2.4578 -0.6184
 2950SOL    HW211168   9.547   4.278   1.337 -1.7241 -0.4456  1.4973
 2951SOL     OW11169   1.254   6.315   0.668  0.1408  0.1403  0.1179
 2951SOL    HW111170   1.316   6.381   0.698 -0.4407 -0.3206  2.5146
 2951SOL    HW211171   1.192   6.364   0.614  1.0383  1.0955 -0.0882
 2952SOL     OW11172   4.838   9.423   7.457  0.2914  0.0327  0.4970
 2952SOL    HW111173   4.927   9.456   7.451  1.1429 -1.7244  2.3637
 2952SOL    HW211174   4.818   9.423   7.551 -1.3316 -0.4300  0.1857
 2953SOL     OW11175   6.760   9.050   8.381 -0.0015 -0.4957 -0.3746
 2953SOL    HW111176   6.685   9.007   8.338 -0.8358  0.8681 -0.3319
 2953SOL    HW211177   6.788   9.116   8.318  0.5958 -0.3950  0.0008
 2954SOL     OW11178   9.265  10.228   3.386 -0.4643 -0.4447  0.4053
 2954SOL    HW111179   9.284  10.316   3.420  0.0071 -1.2117  2.2301
 2954SOL    HW211180   9.349  10.182   3.391 -0.4398 -0.7107 -1.6080
 2955SOL     OW11181   9.685   4.806   6.263  0.0834  0.8365  0.6093
 2955SOL    HW111182   9.732   4.755   6.197 -1.0360 -0.5595  0.8361
 2955SOL    HW211183   9.738   4.885   6.275  0.4205  1.0299 -1.7757
 2956SOL     OW11184   3.449   8.575   2.630 -0.0831  0.5141 -0.1147
 2956SOL    HW111185   3.488   8.642   2.573  2.6036 -1.0521 -0.2969
 2956SOL    HW211186   3.356   8.574   2.606  0.4518  1.7774 -2.5610
 2957SOL     OW11187   8.101   1.138   8.552  0.0439  0.2305  0.0539
 2957SOL    HW111188   8.029   1.174   8.499  0.3552  0.6260 -0.1121
 2957SOL    HW211189   8.139   1.215   8.595  1.2552  0.2392 -0.9599
 2958SOL     OW11190   5.336   8.649  10.511  0.4312 -0.2740 -0.1976
 2958SOL    HW111191   5.428   8.667  10.526  0.5226  0.5888 -1.5654
 2958SOL    HW211192   5.308   8.716  10.448 -1.3144 -0.0696  0.7230
 2959SOL     OW11193   9.959   9.587   2.424  0.5571 -0.2704 -0.2484
 2959SOL    HW111194   9.929   9.531   2.496  1.0574 -0.9967 -0.5919
 2959SOL    HW211195  10.025   9.645   2.464 -0.4692  0.5799  0.2643
 2960SOL     OW11196   7.182   7.620   6.969 -0.1390 -0.3393 -0.1417
 2960SOL    HW111197   7.216   7.691   6.914  0.9229 -0.4288  0.3913
 2960SOL    HW211198   7.095   7.602   6.933 -0.6822  1.6346  0.0617
 2961SOL     OW11199   8.418   4.026   5.475  0.8780 -0.0443 -1.0113
 2961SOL    HW111200   8.429   4.117   5.445  1.0515  0.6624  1.0433
 2961SOL    HW211201   8.489   4.013   5.537  0.4868 -1.3990 -0.8319
 2962SOL     OW11202   9.935   1.934   8.725 -0.0755  0.3357  0.5473
 2962SOL    HW111203   9.843   1.925   8.700  0.2305 -0.5028 -0.3681
 2962SOL    HW211204   9.946   1.875   8.799  0.2559 -1.5305 -0.9017
 2963SOL     OW11205   4.217   3.446   2.205  0.0527  0.0539 -0.2709
 2963SOL    HW111206   4.185   3.520   2.257  2.6599  0.6738  0.5964
 2963SOL    HW211207   4.142   3.386   2.200 -1.3068  1.5140  1.3325
 2964SOL     OW11208   1.205   0.952   5.526 -0.0772 -0.2375 -0.0870
 2964SOL    HW111209   1.209   0.860   5.501  0.3329 -0.0943 -0.5535
 2964SOL    HW211210   1.126   0.959   5.579 -0.0512 -0.8808  0.0437
 2965SOL     OW11211   3.536   4.386  10.307  0.0565  0.4274 -0.1866
 2965SOL    HW111212   3.546   4.380  10.212  1.9982  0.4509 -0.0260
 2965SOL    HW211213   3.571   4.303  10.340 -2.1483 -0.3269  0.4765
 2966SOL     OW11214   8.504   3.653  10.452  0.5837 -0.0637  0.5636
 2966SOL    HW111215   8.507   3.595  10.376 -0.8086  0.5713  0.0001
 2966SOL    HW211216   8.583   3.708  10.443  0.9216 -0.6139  0.0964
 2967SOL     OW11217   4.028   0.668  10.459 -0.3420 -0.3157  0.1453
 2967SOL    HW111218   3.969   0.605  10.500 -0.4217 -0.4012 -0.0990
 2967SOL    HW211219   3.992   0.754  10.481  0.2185 -0.3299  1.1628
 2968SOL     OW11220   4.107   3.655   0.153 -0.0294 -0.3438 -0.1142
 2968SOL    HW111221   4.179   3.601   0.122 -0.2510 -0.5518 -0.2701
 2968SOL    HW211222   4.051   3.667   0.077  0.4844  0.8712 -0.3165
 2969SOL     OW11223   0.683   8.123   6.041  0.0112  0.4820 -0.4344
 2969SOL    HW111224   0.746   8.186   6.007 -0.6266  1.5906  0.3949
 2969SOL    HW211225   0.611   8.176   6.074 -0.8199 -0.7116 -0.2804
 2970SOL     OW11226   5.810   2.195   6.244  0.0806 -0.0076 -0.0234
 2970SOL    HW111227   5.854   2.279   6.254  0.2731 -0.1621  0.4706
 2970SOL    HW211228   5.765   2.182   6.328 -2.2797  0.9276 -1.0499
 2971SOL     OW11229  10.356   1.536   6.309 -0.0233 -0.9577  0.4484
 2971SOL    HW111230  10.372   1.589   6.230  0.4806 -1.6042  0.1099
 2971SOL    HW211231  10.339   1.601   6.378 -1.0591 -0.3825 -0.3019
 2972SOL     OW11232   1.796   9.714   6.490  0.0901 -0.2457  0.6426
 2972SOL    HW111233   1.705   9.686   6.502  0.3112 -0.7880  1.0931
 2972SOL    HW211234   1.828   9.659   6.419 -0.4835  1.2676 -0.8798
 2973SOL     OW11235   3.346   3.195   8.834  0.6520 -1.0134 -0.5333
 2973SOL    HW111236   3.339   3.116   8.781  1.5955 -2.0768  0.8430
 2973SOL    HW211237   3.358   3.162   8.923  1.8759  0.6781 -0.0302
 2974SOL     OW11238   3.451   2.469   2.784  0.6839  0.5697  0.3162
 2974SOL    HW111239   3.356   2.468   2.779  0.5807  0.3317  1.8414
 2974SOL    HW211240   3.470   2.467   2.878  2.2004 -1.4319  0.0498
 2975SOL     OW11241   4.059   8.024   7.933  0.1722  1.0209 -0.2793
 2975SOL    HW111242   4.026   7.940   7.965 -1.4856  1.8287  0.2418
 2975SOL    HW211243   4.144   8.003   7.893 -0.2322 -0.8964 -0.2215
 2976SOL     OW11244   1.744  10.071   9.690  0.3474  0.0410  0.4261
 2976SOL    HW111245   1.737  10.063   9.785  1.9903 -1.9309  0.4665
 2976SOL    HW211246   1.681  10.008   9.655  0.8763 -0.4098  0.2675
 2977SOL     OW11247   0.295   7.574   2.201 -0.4667 -0.4163  0.2995
 2977SOL    HW111248   0.357   7.647   2.201 -0.3513 -0.3346 -3.4701
 2977SOL    HW211249   0.209   7.616   2.196 -0.4736 -0.4978 -0.3991
 2978SOL     OW11250   4.812   3.406   0.180  0.3886 -0.8149 -0.7339
 2978SOL    HW111251   4.832   3.499   0.192 -0.0101 -1.0587  2.6832
 2978SOL    HW211252   4.894   3.361   0.200  0.0527 -1.2648 -0.3473
 2979SOL     OW11253   5.372   5.542   2.547  0.2084 -0.8269  0.7191
 2979SOL    HW111254   5.339   5.630   2.564  1.8125 -0.0898  0.2068
 2979SOL    HW211255   5.386   5.504   2.634  2.2780  0.5444  1.0578
 2980SOL     OW11256   4.224   1.977   9.609  0.1435  0.2711  0.3948
 2980SOL    HW111257   4.311   1.967   9.647 -0.4738 -1.1764  1.5142
 2980SOL    HW211258   4.213   2.072   9.599  1.4221  0.5388  1.2685
 2981SOL     OW11259   1.610   6.619   8.090  0.0322  0.1857 -0.5057
 2981SOL    HW111260   1.672   6.645   8.158 -0.0719  0.1822 -0.4086
 2981SOL    HW211261   1.648   6.540   8.051 -0.2562 -0.2190  0.0251
 2982SOL     OW11262   1.705   8.442   6.413 -0.4660  0.0877  0.7390
 2982SOL    HW111263   1.797   8.427   6.393 -0.3969  0.8988  0.4053
 2982SOL    HW211264   1.702   8.448   6.509 -0.3009 -0.7303  0.7970
 2983SOL     OW11265  10.221   1.680   3.617  0.1701 -0.2274 -0.3109
 2983SOL    HW111266  10.210   1.586   3.626 -0.9938 -0.3451 -2.3508
 2983SOL    HW211267  10.307   1.691   3.578  0.5998 -0.3760  0.5696
 2984SOL     OW11268  10.232   8.983   2.488  0.5684  0.2482 -0.0350
 2984SOL    HW111269  10.249   8.901   2.441  2.7656  0.5494  0.1090
 2984SOL    HW211270  10.270   9.050   2.432 -0.0405  1.0204  0.4670
 2985SOL     OW11271   8.474  10.531   2.257  0.0186 -0.5432 -0.1883
 2985SOL    HW111272   8.409  10.570   2.197  0.2416 -0.7854 -0.5889
 2985SOL    HW211273   8.473  10.589   2.334  1.1698  0.9351 -1.2233
 2986SOL     OW11274   2.495   5.870   5.027  1.1401 -0.5155  0.2453
 2986SOL    HW111275   2.480   5.897   4.936 -0.3934 -2.6311 -0.1894
 2986SOL    HW211276   2.460   5.943   5.079 -0.0150 -0.2342 -0.8656
 2987SOL     OW11277   5.691   8.287   4.603 -0.1560 -0.4789 -0.1531
 2987SOL    HW111278   5.630   8.303   4.676  0.5004 -1.6038  0.6784
 2987SOL    HW211279   5.768   8.341   4.624 -0.9825  1.3145 -1.4469
 2988SOL     OW11280   4.845   9.107   0.082 -0.3557  0.1906 -0.2065
 2988SOL    HW111281   4.754   9.126   0.100 -0.1517  0.6698  0.3301
 2988SOL    HW211282   4.849   9.099  -0.014 -1.5439 -2.9303 -0.1150
 2989SOL     OW11283   7.718   1.027   2.889 -0.0074 -0.2259 -0.0717
 2989SOL    HW111284   7.707   0.956   2.826  1.8452  1.1671 -2.1481
 2989SOL    HW211285   7.807   1.059   2.874 -0.9381  2.9280  0.2590
 2990SOL     OW11286  10.472   2.573   6.220  0.1877  0.4716 -0.2634
 2990SOL    HW111287  10.469   2.664   6.251 -1.9456  0.3824 -0.0667
 2990SOL    HW211288  10.442   2.577   6.130  1.1511  0.0599 -0.6200
 2991SOL     OW11289   9.598   5.379   5.497  0.3037 -0.4512  0.1020
 2991SOL    HW111290   9.535   5.450   5.506 -1.9056 -2.3171  0.2904
 2991SOL    HW211291   9.640   5.373   5.583  0.4737  0.5664  0.0956
 2992SOL     OW11292   3.419   3.751   4.202 -0.4812  0.0038  0.3004
 2992SOL    HW111293   3.492   3.730   4.261 -0.0015  0.4049 -0.1491
 2992SOL    HW211294   3.364   3.810   4.253 -0.0981  0.3033  0.3754
 2993SOL     OW11295   2.096  10.088   2.851  0.1695 -0.2394  0.2292
 2993SOL    HW111296   2.018  10.107   2.798  0.8647  0.7554 -0.4824
 2993SOL    HW211297   2.129  10.006   2.815 -0.0828 -0.2324 -0.0306
 2994SOL     OW11298   0.728   3.219   9.728  1.1167 -0.2597 -0.1489
 2994SOL    HW111299   0.731   3.215   9.633  0.6996 -3.0677 -0.1032
 2994SOL    HW211300   0.787   3.292   9.750 -1.6575  3.0656 -2.5696
 2995SOL     OW11301  10.156   3.665   8.887 -0.1314  0.1870 -0.3250
 2995SOL    HW111302  10.238   3.678   8.935  0.3057 -0.0092 -0.9884
 2995SOL    HW211303  10.175   3.590   8.829 -2.1766 -2.8927  2.6343
 2996SOL     OW11304   1.902   8.940   4.107 -0.2505 -0.6614 -0.1285
 2996SOL    HW111305   1.894   8.953   4.013  2.1758  0.5883 -0.2345
 2996SOL    HW211306   1.871   9.022   4.145  0.3029 -0.5433  0.0713
 2997SOL     OW11307   8.605   2.492   2.865 -0.2806  0.6206 -0.3373
 2997SOL    HW111308   8.649   2.546   2.931  0.5327  1.7124 -1.7260
 2997SOL    HW211309   8.607   2.545   2.785 -0.9959 -0.7782 -1.3208
 2998SOL     OW11310   9.708   5.169   8.620 -0.0683 -0.8107  0.1507
 2998SOL    HW111311   9.796   5.131   8.621 -0.5495 -2.0896 -1.4686
 2998SOL    HW211312   9.649   5.093   8.621 -1.2838 -0.0056  3.4129
 2999SOL     OW11313   3.617   9.207   3.864  0.3635  0.4295  0.0598
 2999SOL    HW111314   3.565   9.184   3.941  0.1991  1.4756  0.2670
 2999SOL    HW211315   3.567   9.172   3.790  0.7295 -0.9562  0.4281
 3000SOL     OW11316   1.726   9.410   7.597 -0.4133  0.4067  0.5590
 3000SOL    HW111317   1.635   9.418   7.568 -0.9080 -1.1648  1.5528
 3000SOL    HW211318   1.777   9.415   7.516 -1.5029 -0.2678 -0.2040
 3001SOL     OW11319   4.470   9.539   7.589 -0.2330 -0.4283 -0.2959
 3001SOL    HW111320   4.481   9.502   7.676 -0.4031  0.4337  0.0966
 3001SOL    HW211321   4.503   9.471   7.530 -0.0856 -1.0024  0.4374
 3002SOL     OW11322   5.584   8.960   6.927 -0.0260 -0.1242 -0.0757
 3002SOL    HW111323   5.541   8.919   7.002 -0.0623  0.2241  0.0935
 3002SOL    HW211324   5.670   8.986   6.960  0.4934 -1.1828 -0.5158
 3003SOL     OW11325   8.732   7.405   4.478  0.3820  0.1916  0.0685
 3003SOL    HW111326   8.686   7.433   4.399 -0.0045 -0.7674 -0.0561
 3003SOL    HW211327   8.779   7.326   4.451 -0.3129 -0.5428  0.9776
 3004SOL     OW11328   6.252   9.433  10.221  0.6814 -0.4598 -0.4560
 3004SOL    HW111329   6.312   9.387  10.280  1.0028  0.2693 -0.2041
 3004SOL    HW211330   6.167   9.391  10.237  0.2044  1.3015  2.3793
 3005SOL     OW11331   1.926   7.673   7.364  0.0767 -0.5147 -0.2705
 3005SOL    HW111332   1.922   7.585   7.326 -0.3478 -0.0060 -1.4552
 3005SOL    HW211333   1.836   7.705   7.360 -0.1263 -0.6700  1.8215
 3006SOL     OW11334   9.545   2.599   1.135 -0.1539 -0.4235  0.2910
 3006SOL    HW111335   9.505   2.595   1.222 -2.2888  1.5471 -0.4747
 3006SOL    HW211336   9.477   2.568   1.075  0.4695  0.2805 -0.8334
 3007SOL     OW11337   7.559   1.380   0.466  0.9098  0.0596 -0.0351
 3007SOL    HW111338   7.636   1.335   0.501  0.0035 -1.3219  0.2366
 3007SOL    HW211339   7.548   1.343   0.378  1.0731  0.9105 -0.4218
 3008SOL     OW11340   3.676   6.916   9.416 -1.1316  0.0305 -0.0145
 3008SOL    HW111341   3.636   6.859   9.351 -1.7227  1.7605 -1.2425
 3008SOL    HW211342   3.770   6.896   9.411 -1.0940  0.4784 -1.8055
 3009SOL     OW11343   8.100   4.372  10.214  0.1514 -0.3858 -0.5462
 3009SOL    HW111344   8.170   4.434  10.192 -1.4976  2.5414  1.7003
 3009SOL    HW211345   8.126   4.335  10.298 -1.8384  2.5780  1.5967
 3010SOL     OW11346   0.634   6.257   5.592  0.6706  0.1166 -0.5000
 3010SOL    HW111347   0.663   6.321   5.657  0.6986 -0.8704  0.4978
 3010SOL    HW211348   0.710   6.200   5.578  1.1136  1.0959 -2.4492
 3011SOL     OW11349   9.655   6.416   4.240 -0.4101 -0.2018 -0.1858
 3011SOL    HW111350   9.613   6.496   4.272 -1.2770 -0.2936 -1.0375
 3011SOL    HW211351   9.583   6.361   4.209  0.1987 -1.1861  0.0911
 3012SOL     OW11352   4.352   3.824   2.767 -0.4729  0.0648 -0.4963
 3012SOL    HW111353   4.342   3.863   2.680 -1.0825  0.3040 -0.3195
 3012SOL    HW211354   4.438   3.782   2.764 -0.6016 -0.1567 -1.3041
 3013SOL     OW11355   2.025   5.319   9.255 -0.1874  0.2606 -0.1453
 3013SOL    HW111356   2.046   5.243   9.201 -0.1466  0.0163  0.2094
 3013SOL    HW211357   1.997   5.282   9.339  0.9052  0.6444  0.4078
 3014SOL     OW11358   9.696   1.190   2.958 -0.1649 -0.4423 -0.3404
 3014SOL    HW111359   9.759   1.235   3.014  0.5128 -1.1987 -0.4786
 3014SOL    HW211360   9.619   1.178   3.014  0.8211 -1.9790  0.7708
 3015SOL     OW11361   2.796   5.311   5.248 -0.0824  0.3655  0.0821
 3015SOL    HW111362   2.815   5.306   5.155  1.1346  1.0080  0.2714
 3015SOL    HW211363   2.791   5.404   5.268 -0.5559  0.2337  0.6125
 3016SOL     OW11364   9.920   6.637   9.002  0.2213 -0.4139 -0.3350
 3016SOL    HW111365  10.012   6.611   9.005  1.3955  2.8495 -2.7262
 3016SOL    HW211366   9.906   6.685   9.083  0.7647 -0.5148 -0.1787
 3017SOL     OW11367   2.790   4.741   5.471 -0.1447 -0.1468 -0.3201
 3017SOL    HW111368   2.864   4.773   5.420  0.1082  0.2360  0.2809
 3017SOL    HW211369   2.754   4.669   5.419  0.5194 -0.1970 -0.7157
 3018SOL     OW11370   3.593   9.935   3.258  0.5299  0.2111  0.3026
 3018SOL    HW111371   3.571   9.903   3.345 -2.5863 -2.0903 -1.1276
 3018SOL    HW211372   3.570  10.028   3.260 -0.9242 -0.1440  1.5538
 3019SOL     OW11373   7.040   4.169   6.577  0.2693  0.4096 -0.5430
 3019SOL    HW111374   7.120   4.119   6.595 -0.3191 -0.5792 -0.6100
 3019SOL    HW211375   7.005   4.189   6.664  0.9167  1.4094 -0.4978
 3020SOL     OW11376   8.528   0.667   2.969  0.3290 -0.1009  0.3672
 3020SOL    HW111377   8.591   0.738   2.979  1.1490 -1.0889  3.5411
 3020SOL    HW211378   8.582   0.588   2.965 -0.6354 -0.8213  1.2066
 3021SOL     OW11379   4.460   3.421   7.041  0.1492  0.4842 -0.1435
 3021SOL    HW111380   4.550   3.392   7.052  0.0471  0.5549  1.0428
 3021SOL    HW211381   4.440   3.468   7.123 -0.9327  0.5372 -0.4204
 3022SOL     OW11382   1.748   8.032   8.252  0.1441 -0.5942 -0.6261
 3022SOL    HW111383   1.687   8.104   8.235  0.4056  0.9867  3.8180
 3022SOL    HW211384   1.692   7.958   8.275 -0.1756 -0.0465  0.4385
 3023SOL     OW11385   4.142  10.490   9.914  0.1519 -0.7207 -0.7132
 3023SOL    HW111386   4.147  10.394   9.907  0.3237 -0.6430 -1.8093
 3023SOL    HW211387   4.052  10.507   9.941  1.0148 -1.3373  3.2355
 3024SOL     OW11388   3.894   4.798   8.732 -0.3699 -0.0596 -0.0667
 3024SOL    HW111389   3.825   4.788   8.797  0.2834  3.7246  1.5117
 3024SOL    HW211390   3.975   4.780   8.780 -0.0439 -1.2165 -1.0013
 3025SOL     OW11391   5.705  10.524   6.494  0.5891  0.4882 -0.3920
 3025SOL    HW111392   5.678  10.514   6.586  0.1539 -0.1322 -0.5840
 3025SOL    HW211393   5.771  10.456   6.482  1.5414  1.3523 -0.2077
 3026SOL     OW11394   9.826   6.406   3.463 -0.0111 -0.1291  0.5713
 3026SOL    HW111395   9.912   6.372   3.439 -0.1522 -0.9632  1.1645
 3026SOL    HW211396   9.781   6.421   3.380  0.1411 -1.2253  0.2732
 3027SOL     OW11397   3.588   1.922   2.826  0.1600 -0.0169  0.3267
 3027SOL    HW111398   3.583   1.907   2.732 -1.0232  1.5331  0.0860
 3027SOL    HW211399   3.574   2.017   2.835 -2.0908 -0.4568  2.1928
 3028SOL     OW11400   5.077   0.749   7.027 -0.2423  0.0145  0.2222
 3028SOL    HW111401   5.065   0.724   7.119 -1.2411  3.6966  1.2733
 3028SOL    HW211402   4.988   0.765   6.995  0.0893 -1.2807 -1.4630
 3029SOL     OW11403   3.220   9.662   4.127 -0.0447  0.0718  0.0049
 3029SOL    HW111404   3.275   9.598   4.171 -1.1382 -0.3297  0.8406
 3029SOL    HW211405   3.213   9.735   4.189 -0.6813 -0.0057  0.0286
 3030SOL     OW11406   0.585   9.723   6.542 -0.4414  0.3447 -0.1112
 3030SOL    HW111407   0.633   9.739   6.623 -1.7753 -1.5383  1.1423
 3030SOL    HW211408   0.606   9.633   6.519 -2.8037 -0.3519  0.1699
 3031SOL     OW11409   4.420   5.943   7.374  0.4820 -0.1386 -0.1956
 3031SOL    HW111410   4.362   5.885   7.324 -0.3914  0.2038  0.3910
 3031SOL    HW211411   4.471   5.988   7.308  0.1000 -0.4740 -0.7335
 3032SOL     OW11412   7.186   6.048   9.824 -0.1265  0.4367  0.1791
 3032SOL    HW111413   7.278   6.075   9.818 -0.0912  0.6139  1.2317
 3032SOL    HW211414   7.173   6.030   9.917 -0.6013 -1.6496 -0.2541
 3033SOL     OW11415   4.454   9.702   0.730 -0.2994 -0.3861  0.4357
 3033SOL    HW111416   4.519   9.656   0.782 -1.4659 -0.2932  2.0538
 3033SOL    HW211417   4.380   9.641   0.725 -0.0953 -0.5298 -1.4476
 3034SOL     OW11418  10.160   0.947   8.959 -0.2058  0.1401 -0.1562
 3034SOL    HW111419  10.107   0.901   9.024 -1.1635  0.5266 -0.6416
 3034SOL    HW211420  10.234   0.888   8.942 -0.5863 -0.5062  0.3793
 3035SOL     OW11421   7.216   0.379   9.149 -0.0938 -0.2415 -0.3586
 3035SOL    HW111422   7.185   0.380   9.059  0.2383 -0.1105 -0.4729
 3035SOL    HW211423   7.260   0.463   9.161  0.0632 -0.3506 -0.1476
 3036SOL     OW11424   3.729  10.159   9.700 -0.3713  0.2534  0.0968
 3036SOL    HW111425   3.747  10.251   9.719  2.0098 -0.4111  1.5589
 3036SOL    HW211426   3.730  10.153   9.605  0.0614  1.6419 -0.0057
 3037SOL     OW11427   5.131   5.978   5.994 -0.7856 -0.8277 -0.1133
 3037SOL    HW111428   5.142   5.982   6.089  0.5793 -0.2397 -0.2742
 3037SOL    HW211429   5.078   5.900   5.980 -1.0185 -0.9257  1.1309
 3038SOL     OW11430   8.450  10.089   5.451 -0.7133 -0.4046  0.4481
 3038SOL    HW111431   8.381  10.069   5.514 -0.1010 -0.3732  1.1349
 3038SOL    HW211432   8.475  10.179   5.471 -0.8195 -0.2448 -0.1305
 3039SOL     OW11433   0.935   2.656   3.387  0.2896 -0.0866  0.4017
 3039SOL    HW111434   0.856   2.697   3.353  0.1183 -0.1647  0.7026
 3039SOL    HW211435   0.942   2.573   3.341  0.9592  0.5279 -0.6479
 3040SOL     OW11436   5.981   9.557   4.654  0.2769 -0.0437  0.0867
 3040SOL    HW111437   5.975   9.462   4.662  1.4755 -0.1532 -0.1366
 3040SOL    HW211438   5.968   9.589   4.744  1.7038 -0.5336  0.4863
 3041SOL     OW11439   4.066   8.797   6.020  0.2353  0.1522  0.1357
 3041SOL    HW111440   4.137   8.743   6.056 -0.3502 -0.6466  0.1258
 3041SOL    HW211441   4.107   8.881   6.002  1.5720 -0.7379 -1.2979
 3042SOL     OW11442   5.739   6.401   0.180  0.2082 -0.1649 -0.4734
 3042SOL    HW111443   5.783   6.317   0.191  1.1337  0.1541 -1.5129
 3042SOL    HW211444   5.655   6.380   0.140  0.3855 -0.6096 -0.6134
 3043SOL     OW11445   5.747   6.975   0.230  0.7442  0.4824  0.1501
 3043SOL    HW111446   5.732   6.962   0.324  0.5236 -2.4064 -0.2047
 3043SOL    HW211447   5.841   6.994   0.223  1.6546 -3.0605  0.7732
 3044SOL     OW11448   6.882   7.913   6.061  0.0100 -0.5194  0.4526
 3044SOL    HW111449   6.972   7.885   6.076 -0.1463 -1.4035 -0.2071
 3044SOL    HW211450   6.856   7.871   5.979 -0.6367  0.6288  0.0443
 3045SOL     OW11451   8.884   5.291   6.631 -0.1858  0.4580  0.5887
 3045SOL    HW111452   8.900   5.205   6.669  2.4093  0.0467 -1.1498
 3045SOL    HW211453   8.911   5.282   6.539  0.7553  3.2518  0.4998
 3046SOL     OW11454   9.043   6.462   1.400  0.4511  0.2608 -0.3186
 3046SOL    HW111455   9.016   6.491   1.313 -1.6493  2.8278  1.0340
 3046SOL    HW211456   9.003   6.375   1.410 -0.4452  0.5222 -1.4090
 3047SOL     OW11457   1.470   8.612   4.101 -1.3782 -0.7342 -0.0279
 3047SOL    HW111458   1.392   8.588   4.151 -1.1561  0.3739  0.8956
 3047SOL    HW211459   1.443   8.604   4.010 -1.7979 -2.7996  0.2247
 3048SOL     OW11460   7.417  10.232   6.312  0.1183 -0.0346 -0.4182
 3048SOL    HW111461   7.505  10.267   6.326  0.5623 -1.3536  0.1646
 3048SOL    HW211462   7.359  10.294   6.357  0.9945 -0.7089  1.7221
 3049SOL     OW11463   3.871   8.434   1.783 -0.4038  0.0086  0.3700
 3049SOL    HW111464   3.893   8.378   1.857 -1.3231  0.1443  0.7600
 3049SOL    HW211465   3.889   8.381   1.706  4.3234  1.1028  0.4284
 3050SOL     OW11466   7.303   7.688  10.454 -0.4079 -0.4532 -0.1550
 3050SOL    HW111467   7.335   7.676  10.364 -0.4935  0.4699 -0.3115
 3050SOL    HW211468   7.375   7.655  10.508 -1.0881 -2.7933 -0.5503
 3051SOL     OW11469   0.035   3.175  10.428  0.1807 -0.5218 -0.4575
 3051SOL    HW111470   0.018   3.100  10.485 -2.1214 -0.1539 -0.5636
 3051SOL    HW211471   0.124   3.203  10.450  1.1404 -3.2472 -0.4074
 3052SOL     OW11472   0.943   2.786   1.979 -0.2433 -0.5504 -0.0052
 3052SOL    HW111473   1.015   2.815   1.924 -0.3660  0.5836  0.4144
 3052SOL    HW211474   0.877   2.754   1.916  0.1046 -0.3954 -0.4555
 3053SOL     OW11475   2.201  10.303   5.491  0.3814  0.3301 -0.4946
 3053SOL    HW111476   2.290  10.268   5.494  0.8017  1.4183  1.8271
 3053SOL    HW211477   2.147  10.229   5.462  1.7998 -0.8901 -0.1652
 3054SOL     OW11478   3.325   7.316   3.870 -0.0096  0.2542 -0.3925
 3054SOL    HW111479   3.252   7.351   3.820 -0.6098 -0.8956 -0.3568
 3054SOL    HW211480   3.379   7.271   3.805  0.5090  0.8450 -0.3740
 3055SOL     OW11481   3.721   2.432   6.135  0.5241  0.4656  0.0033
 3055SOL    HW111482   3.666   2.508   6.118  1.1808  1.4686  1.9776
 3055SOL    HW211483   3.775   2.458   6.210  2.3773 -1.1325 -0.6765
 3056SOL     OW11484   2.935   2.345   4.873 -0.4740 -0.2920  0.0764
 3056SOL    HW111485   2.860   2.304   4.831 -1.4507  1.2027  0.2791
 3056SOL    HW211486   2.978   2.274   4.920 -1.6163 -1.2224 -0.2283
 3057SOL     OW11487   1.694   9.016   9.806 -0.2999 -0.2523  0.2898
 3057SOL    HW111488   1.689   8.954   9.879 -2.0669 -0.8121 -0.2495
 3057SOL    HW211489   1.788   9.030   9.792  0.1467 -2.3944  0.7851
 3058SOL     OW11490   3.529   1.504   0.951  0.5045  0.0011  0.0484
 3058SOL    HW111491   3.450   1.556   0.946  0.9967  0.8610  0.9403
 3058SOL    HW211492   3.519   1.451   1.030  0.7014 -0.0957  0.0117
 3059SOL     OW11493   2.124   5.779   7.888  0.1619  0.0898  0.6185
 3059SOL    HW111494   2.083   5.831   7.957 -0.3922  0.7951 -0.2254
 3059SOL    HW211495   2.175   5.712   7.935 -0.6146  0.2381  1.6948
 3060SOL     OW11496  10.129   3.160   3.662 -0.4951  0.4655 -0.1363
 3060SOL    HW111497  10.098   3.074   3.634  0.8017 -0.4149  1.0217
 3060SOL    HW211498  10.072   3.183   3.736 -0.2705  0.1702  0.1342
 3061SOL     OW11499   4.942   5.446   9.621  0.9929  0.0411 -0.3963
 3061SOL    HW111500   5.027   5.468   9.581  1.4401  0.2662  0.6334
 3061SOL    HW211501   4.964   5.424   9.712 -0.1215  0.7306  0.0570
 3062SOL     OW11502   8.004   8.082   9.016  0.5641 -0.4645  0.7801
 3062SOL    HW111503   8.052   8.130   8.948  0.1837 -2.2002 -0.7970
 3062SOL    HW211504   7.919   8.125   9.021  0.8319  0.0908  0.6237
 3063SOL     OW11505   1.186   1.442   6.401  0.6893 -0.3657 -0.0635
 3063SOL    HW111506   1.184   1.536   6.423  2.4208  0.2969 -2.3693
 3063SOL    HW211507   1.143   1.400   6.476 -0.0860  2.2342  1.1024
 3064SOL     OW11508   3.894   5.060   2.365 -0.0211 -0.1398  0.5242
 3064SOL    HW111509   3.962   4.996   2.346  0.4889  0.3807  0.5616
 3064SOL    HW211510   3.922   5.101   2.447  1.2627  2.1970 -0.9517
 3065SOL     OW11511   4.438   8.196   4.902  0.7146  0.3768 -0.6248
 3065SOL    HW111512   4.482   8.278   4.926  1.4336  0.6767 -2.7842
 3065SOL    HW211513   4.499   8.127   4.929  0.8793  0.6342 -0.3310
 3066SOL     OW11514   2.808   2.318   0.228  0.0219  0.0610  0.5872
 3066SOL    HW111515   2.748   2.304   0.155 -0.9379 -0.7311  1.4858
 3066SOL    HW211516   2.803   2.412   0.245  0.3910  0.2835 -0.4605
 3067SOL     OW11517  10.113   0.210   0.482 -0.4352 -0.1248  0.2051
 3067SOL    HW111518  10.183   0.146   0.469 -1.5972 -1.0541 -2.1641
 3067SOL    HW211519  10.034   0.157   0.488 -1.2257  1.0235  0.1038
 3068SOL     OW11520   2.475   1.212   5.936 -0.2464  0.1683  0.2742
 3068SOL    HW111521   2.418   1.245   5.867  0.5350 -0.1386 -0.5312
 3068SOL    HW211522   2.526   1.143   5.894 -1.4006 -1.6739  1.7447
 3069SOL     OW11523  10.078  10.497   9.466 -0.0476 -0.3791 -0.4028
 3069SOL    HW111524  10.160  10.529   9.428  0.1055  3.3549  2.4778
 3069SOL    HW211525  10.103  10.416   9.510  1.6313 -0.3095 -1.1142
 3070SOL     OW11526   0.339   6.368   3.453  0.5976  0.3900  0.3348
 3070SOL    HW111527   0.356   6.277   3.429 -0.7257 -0.0113  0.8427
 3070SOL    HW211528   0.262   6.364   3.509  0.0658  1.8965 -0.2403
 3071SOL     OW11529   7.176   3.738   5.057 -0.0819  0.5618 -0.1719
 3071SOL    HW111530   7.127   3.681   5.117  1.2063  0.5549  0.9170
 3071SOL    HW211531   7.164   3.698   4.971 -2.3776  0.8375 -0.0592
 3072SOL     OW11532   2.324   6.550   4.282  0.2214 -0.0900  0.2151
 3072SOL    HW111533   2.305   6.456   4.289 -0.2859 -0.1675 -1.6775
 3072SOL    HW211534   2.410   6.554   4.241  0.6714  0.2847  1.1775
 3073SOL     OW11535   7.594   7.609   7.181 -0.8425 -0.5917  0.5822
 3073SOL    HW111536   7.614   7.679   7.119  0.3632 -1.6903 -0.3520
 3073SOL    HW211537   7.514   7.568   7.146  0.3345 -1.7944 -0.8729
 3074SOL     OW11538   8.538   9.204   4.607 -0.6582 -0.4945 -0.1567
 3074SOL    HW111539   8.593   9.167   4.539  0.7847  1.8484 -0.3661
 3074SOL    HW211540   8.553   9.148   4.683 -0.0455 -1.4257 -0.9419
 3075SOL     OW11541   9.551   6.024   4.325  0.4106  0.1988  0.1596
 3075SOL    HW111542   9.520   6.014   4.235 -0.7797 -0.4995  0.6366
 3075SOL    HW211543   9.483   6.075   4.368  0.8716  0.3358  0.7395
 3076SOL     OW11544   5.008   0.490   1.916  0.0833  0.1644 -0.3691
 3076SOL    HW111545   5.100   0.464   1.907  0.5717  1.4369  0.5252
 3076SOL    HW211546   4.996   0.557   1.849 -0.3001 -0.2553 -0.7210
 3077SOL     OW11547   7.315  10.168   3.393  0.1506  0.3074 -0.0031
 3077SOL    HW111548   7.234  10.118   3.401 -0.1302  0.7136 -0.3003
 3077SOL    HW211549   7.375  10.126   3.455 -0.8467  1.1193  1.6029
 3078SOL     OW11550   0.798  10.005  10.199 -0.5073 -0.5361  0.0674
 3078SOL    HW111551   0.729   9.957  10.153 -0.3215 -0.4762 -0.2715
 3078SOL    HW211552   0.758  10.029  10.283 -0.2053 -2.3841  0.7860
 3079SOL     OW11553   1.246   0.859   1.985  0.6477  0.5934  0.1843
 3079SOL    HW111554   1.329   0.862   2.033  1.9442  1.1577 -1.9900
 3079SOL    HW211555   1.213   0.770   2.000  1.9493  0.1544  0.5546
 3080SOL     OW11556   5.852   1.917   9.853  0.1176 -0.1664 -0.3218
 3080SOL    HW111557   5.875   1.998   9.808  0.8667 -0.0333  0.2744
 3080SOL    HW211558   5.760   1.927   9.876 -0.4090 -0.4029 -2.1547
 3081SOL     OW11559   1.949   0.472   1.537  0.3445  0.7943  0.4211
 3081SOL    HW111560   1.883   0.533   1.504  0.3634  1.2063  1.1194
 3081SOL    HW211561   1.948   0.485   1.632  3.0398  2.5430  0.3426
 3082SOL     OW11562   1.496   4.883   9.090 -0.4207 -0.0934 -0.4038
 3082SOL    HW111563   1.555   4.906   9.019 -0.6729  0.7353 -0.3527
 3082SOL    HW211564   1.493   4.787   9.089  0.0964 -0.1073 -1.0763
 3083SOL     OW11565   6.622  10.441   2.617  0.0419  0.5401  0.7981
 3083SOL    HW111566   6.672  10.420   2.695  0.4084 -0.5176  0.3018
 3083SOL    HW211567   6.545  10.386   2.622 -0.0876  0.6962  0.5680
 3084SOL     OW11568   0.005   0.820   5.631  0.1515  0.1525 -0.1457
 3084SOL    HW111569   0.044   0.885   5.690  0.0457 -1.1605  1.4518
 3084SOL    HW211570  -0.081   0.855   5.609 -0.2964  0.1195  1.4734
 3085SOL     OW11571   9.470   0.267   8.473 -0.8613  0.3805  0.5474
 3085SOL    HW111572   9.486   0.355   8.506  1.1973  0.2233  0.0551
 3085SOL    HW211573   9.453   0.280   8.379  0.7225  0.1626  0.2135
 3086SOL     OW11574   1.606   4.913   4.670  0.4473 -0.3793  0.6031
 3086SOL    HW111575   1.512   4.903   4.689  0.0020 -1.2658 -1.7383
 3086SOL    HW211576   1.617   5.007   4.658 -0.1797 -0.2759  0.7713
 3087SOL     OW11577   0.164   4.398   6.378  0.1469 -0.1731  0.1790
 3087SOL    HW111578   0.125   4.420   6.294  1.3858 -0.2501 -0.4478
 3087SOL    HW211579   0.090   4.392   6.439 -0.8632 -0.9469 -1.0785
 3088SOL     OW11580   7.201   0.630   6.292 -0.2559  0.0562  0.2522
 3088SOL    HW111581   7.195   0.709   6.237 -0.0365  0.3489  0.6437
 3088SOL    HW211582   7.151   0.564   6.244  1.9120 -0.4143 -1.5237
 3089SOL     OW11583   0.299   9.838   6.472  0.0966 -0.1329 -0.2453
 3089SOL    HW111584   0.374   9.778   6.475 -0.3055 -0.7121 -1.1624
 3089SOL    HW211585   0.292   9.873   6.561  1.6094  0.1362 -0.2152
 3090SOL     OW11586   5.745   6.856   0.797 -0.5224 -0.1308 -0.2183
 3090SOL    HW111587   5.821   6.915   0.792 -0.2308 -0.3460  1.1613
 3090SOL    HW211588   5.696   6.888   0.873 -1.1466 -0.7656 -0.3491
 3091SOL     OW11589   7.215  10.561   0.977  0.4289 -0.0624  0.2760
 3091SOL    HW111590   7.245  10.651   0.992  1.3286 -0.2898 -0.1189
 3091SOL    HW211591   7.142  10.571   0.916 -0.6405  0.5288  1.5831
 3092SOL     OW11592  10.189   9.485   0.916 -0.3538 -0.3645  0.0582
 3092SOL    HW111593  10.158   9.526   0.835 -1.4382  0.9106  1.0634
 3092SOL    HW211594  10.154   9.540   0.986 -0.2425 -1.9525  1.4428
 3093SOL     OW11595   6.741  10.310   8.368  0.0212 -0.4717 -0.1386
 3093SOL    HW111596   6.764  10.386   8.316  0.0194  0.3245  0.9944
 3093SOL    HW211597   6.645  10.310   8.371  0.0384  0.3551  1.0781
 3094SOL     OW11598   2.531   7.195   5.276 -0.1170  0.2099  0.3132
 3094SOL    HW111599   2.509   7.245   5.197  0.5643  0.6627  0.3982
 3094SOL    HW211600   2.447   7.165   5.310 -0.5829  1.6246  0.4667
 3095SOL     OW11601   8.364   4.158   3.424 -0.0781 -0.2835 -0.5691
 3095SOL    HW111602   8.392   4.217   3.494 -0.0535 -0.3526 -0.5211
 3095SOL    HW211603   8.431   4.166   3.357  1.7331 -2.7317  0.7854
 3096SOL     OW11604   9.305   9.401   8.889  0.4382 -0.2833  0.0532
 3096SOL    HW111605   9.298   9.381   8.983  1.5052 -1.6865 -0.1234
 3096SOL    HW211606   9.255   9.331   8.847  1.4853 -0.7286 -0.4780
 3097SOL     OW11607   9.277   1.418   3.789  0.0721 -0.0201 -0.1532
 3097SOL    HW111608   9.293   1.509   3.813  3.1366  0.1695 -2.2721
 3097SOL    HW211609   9.253   1.421   3.696 -3.2768 -1.2404  0.5343
 3098SOL     OW11610   3.767  10.396   7.732  0.0888  0.3886 -0.2513
 3098SOL    HW111611   3.745  10.487   7.714  0.6073  0.3676 -1.0275
 3098SOL    HW211612   3.863  10.394   7.735  0.0827 -0.1397 -0.2745
 3099SOL     OW11613   0.528   8.920   7.779 -0.0063  0.2075 -0.0814
 3099SOL    HW111614   0.528   8.867   7.699  1.5710 -2.7208  1.6743
 3099SOL    HW211615   0.606   8.974   7.772  1.7470 -2.0942  0.5853
 3100SOL     OW11616   0.070   0.908   0.586 -0.5182  0.2826  0.1146
 3100SOL    HW111617   0.153   0.870   0.557 -2.0014 -2.3022 -1.1292
 3100SOL    HW211618   0.039   0.961   0.512  0.6435  2.5413  1.1440
 3101SOL     OW11619   7.530   4.805   5.105  0.8512  0.0705  0.3213
 3101SOL    HW111620   7.483   4.758   5.174  1.9341 -0.9143  0.4083
 3101SOL    HW211621   7.571   4.879   5.150  1.5970 -0.5946  0.7639
 3102SOL     OW11622   6.593  10.529   0.931  0.2964 -0.0121 -0.3973
 3102SOL    HW111623   6.633  10.458   0.981  1.4001 -0.6688 -2.1209
 3102SOL    HW211624   6.646  10.606   0.952  0.7646 -0.2870 -0.5663
 3103SOL     OW11625   5.090   0.504   0.772  0.1825  0.7942 -0.1542
 3103SOL    HW111626   5.141   0.547   0.704 -3.1329  1.8218 -2.2279
 3103SOL    HW211627   5.073   0.572   0.837  1.1629  0.5224  0.4012
 3104SOL     OW11628   3.868   0.211   8.884 -0.4301 -0.0342 -0.4172
 3104SOL    HW111629   3.776   0.199   8.860  0.0829 -1.4623 -1.7922
 3104SOL    HW211630   3.867   0.288   8.941 -2.3300  0.6880 -1.3175
 3105SOL     OW11631   0.379   2.037   2.483 -0.1467  0.0571  0.1418
 3105SOL    HW111632   0.387   2.122   2.440 -0.1650  0.0758  0.1753
 3105SOL    HW211633   0.325   2.054   2.560  1.0168  0.3104  0.9379
 3106SOL     OW11634   7.500   0.102   8.248 -0.9548  0.1161  0.2062
 3106SOL    HW111635   7.504   0.195   8.271 -2.5583  0.2275  0.1485
 3106SOL    HW211636   7.580   0.086   8.198 -0.7555  1.5145  0.0362
 3107SOL     OW11637   2.924   3.420   7.467  0.8200  0.2345  0.2106
 3107SOL    HW111638   3.009   3.377   7.460  1.0204  0.6900 -0.2090
 3107SOL    HW211639   2.898   3.435   7.376  0.3008  0.1184  0.3390
 3108SOL     OW11640   6.214   2.573   0.116  0.2317  0.1400 -0.1831
 3108SOL    HW111641   6.283   2.624   0.159 -1.1675  0.2222  2.1936
 3108SOL    HW211642   6.251   2.486   0.107  0.9039  0.3542  0.4069
 3109SOL     OW11643   2.923   3.713   2.296  0.0959 -0.7070  0.3362
 3109SOL    HW111644   2.982   3.786   2.312 -0.5032 -0.2561  0.5411
 3109SOL    HW211645   2.858   3.748   2.235 -0.0490 -1.1445  0.2373
 3110SOL     OW11646   2.671   9.769   3.322 -0.4395 -0.7648  0.3587
 3110SOL    HW111647   2.763   9.755   3.303 -0.7223 -1.0267 -0.9389
 3110SOL    HW211648   2.646   9.844   3.268 -1.2471 -1.4356 -0.2328
 3111SOL     OW11649   4.925   3.903   7.115  0.2912 -0.6474  0.5373
 3111SOL    HW111650   4.919   3.843   7.189  0.4664  1.2820  2.2268
 3111SOL    HW211651   5.016   3.898   7.086  0.3687 -0.9971  0.8413
 3112SOL     OW11652  10.292   9.228   7.462  0.0827 -0.3467 -0.0407
 3112SOL    HW111653  10.255   9.163   7.521  1.2660  0.3236  1.5092
 3112SOL    HW211654  10.387   9.222   7.476  0.2281  1.6233  0.1064
 3113SOL     OW11655   2.818   4.064   4.156  0.2186 -0.3566  0.0489
 3113SOL    HW111656   2.726   4.054   4.132  0.3684  0.4879 -0.9544
 3113SOL    HW211657   2.836   3.991   4.214 -0.8626 -1.0156 -0.4225
 3114SOL     OW11658   4.106   2.479   6.622 -0.3520 -0.3638  0.4498
 3114SOL    HW111659   4.057   2.406   6.659 -0.0475 -0.4750  0.6419
 3114SOL    HW211660   4.198   2.455   6.636 -0.2011 -0.7683 -1.0590
 3115SOL     OW11661   6.311   0.581   8.480  0.2671  0.3165 -0.2912
 3115SOL    HW111662   6.342   0.661   8.524 -0.6442  0.4685  0.0885
 3115SOL    HW211663   6.331   0.511   8.541  0.6919  0.2970 -0.4476
 3116SOL     OW11664   4.767   8.473   4.181  0.0001  0.4356  0.1745
 3116SOL    HW111665   4.816   8.441   4.105 -0.4748  2.2238 -0.9502
 3116SOL    HW211666   4.829   8.472   4.253  0.7308 -0.4158 -0.4461
 3117SOL     OW11667  10.532   5.951   9.759  0.0601  0.2271  0.5361
 3117SOL    HW111668  10.595   5.996   9.816 -0.8910  1.9127  0.3038
 3117SOL    HW211669  10.538   5.859   9.786  1.4692  0.5880  1.5975
 3118SOL     OW11670   5.079  10.104   5.680  0.0928  0.5355  0.3123
 3118SOL    HW111671   5.007  10.110   5.617  0.6479 -0.6448 -0.4784
 3118SOL    HW211672   5.152  10.068   5.629  0.8173  0.3835  1.4320
 3119SOL     OW11673   2.259  10.366   8.623 -0.2181  0.2211  0.4950
 3119SOL    HW111674   2.168  10.343   8.605 -0.2813  0.0362  1.0328
 3119SOL    HW211675   2.254  10.442   8.680 -0.0243  0.6408 -0.0378
 3120SOL     OW11676   6.871   1.650   4.804 -0.4619 -0.3346 -0.7438
 3120SOL    HW111677   6.855   1.639   4.710 -1.6919 -0.5595 -0.5188
 3120SOL    HW211678   6.824   1.578   4.846  0.1389 -0.2831  0.0513
 3121SOL     OW11679   2.085   2.727   7.683  0.1344  0.2809  0.2443
 3121SOL    HW111680   2.169   2.704   7.644  1.0826  2.6064  0.7537
 3121SOL    HW211681   2.026   2.737   7.608  1.1176  1.5330 -0.4068
 3122SOL     OW11682   8.134  10.341   2.374  0.0043 -0.3757 -0.0472
 3122SOL    HW111683   8.105  10.374   2.289 -0.3121  0.6050  0.4272
 3122SOL    HW211684   8.229  10.328   2.364 -0.1687 -1.1611 -0.8188
 3123SOL     OW11685   3.971   0.485   1.274 -0.0917 -0.3913  0.1161
 3123SOL    HW111686   3.958   0.563   1.327 -0.3527 -0.1989 -0.2306
 3123SOL    HW211687   3.946   0.413   1.332 -2.8524 -0.0601 -0.5095
 3124SOL     OW11688   3.438   9.779   1.278 -0.0226 -0.1914  0.7023
 3124SOL    HW111689   3.516   9.729   1.300  0.6020  0.9140  1.0757
 3124SOL    HW211690   3.398   9.731   1.205  1.1135 -0.6540  0.3708
 3125SOL     OW11691   3.467  10.070   9.690  0.5078 -0.1604 -0.3483
 3125SOL    HW111692   3.466  10.020   9.771  0.9582  3.2926  1.9893
 3125SOL    HW211693   3.551  10.115   9.690  0.1742  0.5781 -2.3112
 3126SOL     OW11694   7.944   5.485   2.827 -0.0142  0.7665 -0.4323
 3126SOL    HW111695   7.912   5.395   2.824 -0.4552  0.8653  0.8170
 3126SOL    HW211696   8.029   5.479   2.871 -0.9250  1.1629  1.4679
 3127SOL     OW11697   1.142   2.903  10.025  0.4119 -0.0534  0.6233
 3127SOL    HW111698   1.146   2.970   9.956 -0.1378  0.2874  0.9213
 3127SOL    HW211699   1.183   2.826   9.985  0.3891  0.2391  0.0231
 3128SOL     OW11700   1.076   7.905   9.598  0.2291  0.1169  0.0056
 3128SOL    HW111701   1.110   7.816   9.590  1.0046  0.5069 -1.4812
 3128SOL    HW211702   1.119   7.940   9.676  1.7249 -0.0714 -0.7003
 3129SOL     OW11703   9.461   8.373   6.841  0.4930  0.0217  1.0487
 3129SOL    HW111704   9.555   8.360   6.825  0.0151 -1.6603 -0.8512
 3129SOL    HW211705   9.449   8.352   6.934  1.9002 -0.4851  1.1384
 3130SOL     OW11706   0.218   7.012   6.008  0.1170 -0.5720  0.3464
 3130SOL    HW111707   0.136   6.969   6.030 -1.1165  1.5527  0.1910
 3130SOL    HW211708   0.269   7.009   6.089 -1.5704  1.1156  1.5563
 3131SOL     OW11709  10.226   0.077   5.413  0.1503  0.1724  0.5210
 3131SOL    HW111710  10.270  -0.008   5.405 -0.5922 -0.1746  0.0669
 3131SOL    HW211711  10.136   0.061   5.387  0.1516  1.2507 -0.2264
 3132SOL     OW11712   8.864   4.764   6.151  0.6911  0.2489  0.8309
 3132SOL    HW111713   8.784   4.716   6.129 -0.0990  0.6210  2.7127
 3132SOL    HW211714   8.860   4.842   6.096  0.5707 -0.4653 -0.2093
 3133SOL     OW11715   9.174   6.406   4.511 -0.1487  0.3205  0.5308
 3133SOL    HW111716   9.112   6.334   4.517 -1.6029  1.5163  0.5656
 3133SOL    HW211717   9.168   6.435   4.420  1.2367 -0.2614  0.2278
 3134SOL     OW11718   6.177   3.108   2.684  0.0555 -0.5042  0.3175
 3134SOL    HW111719   6.180   3.198   2.651  0.5626 -0.6065  0.0764
 3134SOL    HW211720   6.232   3.109   2.763 -0.1781 -0.5357  0.4810
 3135SOL     OW11721   1.035   9.720   3.816  0.9697  0.0002  0.3424
 3135SOL    HW111722   1.054   9.638   3.770  1.5922 -0.2975  1.1174
 3135SOL    HW211723   0.967   9.761   3.763  1.0621 -0.7391 -0.3777
 3136SOL     OW11724   8.752   0.470   4.695 -0.3674 -0.0569  0.1429
 3136SOL    HW111725   8.677   0.414   4.712  0.2180 -0.5494  1.2055
 3136SOL    HW211726   8.826   0.422   4.733  0.4193  0.6060 -0.5223
 3137SOL     OW11727   8.610   1.987   7.252 -0.2854  0.5962  0.8780
 3137SOL    HW111728   8.518   2.004   7.231 -0.2837 -1.1574 -0.8610
 3137SOL    HW211729   8.655   1.992   7.168  1.1537  1.0349  1.6548
 3138SOL     OW11730   7.708   2.718   5.151 -0.4578  0.0285  0.1420
 3138SOL    HW111731   7.722   2.798   5.201  0.9844 -0.5185  0.6681
 3138SOL    HW211732   7.613   2.712   5.141 -0.5798  2.0376 -0.3350
 3139SOL     OW11733   6.878   3.245   1.812  0.0087 -0.4839 -0.4991
 3139SOL    HW111734   6.891   3.195   1.731  1.2164 -1.2699  0.1508
 3139SOL    HW211735   6.842   3.181   1.873 -0.6396  0.0388 -0.3376
 3140SOL     OW11736   3.683   2.301  10.330  0.8551  0.2537 -0.3449
 3140SOL    HW111737   3.667   2.343  10.415 -0.7418 -1.3142  0.2040
 3140SOL    HW211738   3.770   2.263  10.338  0.0355 -1.4274  1.3372
 3141SOL     OW11739   5.460   7.464   5.630 -0.2500  0.4530 -0.0000
 3141SOL    HW111740   5.463   7.375   5.664  2.3415  0.8605  1.1371
 3141SOL    HW211741   5.532   7.468   5.567 -2.7291  0.7463 -3.0317
 3142SOL     OW11742   5.586   4.582   4.999  0.0055 -0.2330  0.4323
 3142SOL    HW111743   5.555   4.537   4.920 -0.8896  1.8381 -0.4849
 3142SOL    HW211744   5.606   4.512   5.060 -0.2208 -1.8958 -1.2842
 3143SOL     OW11745   5.751   5.849   3.886 -0.0496  0.0483 -0.4104
 3143SOL    HW111746   5.809   5.888   3.951 -0.6106  0.4175 -0.1309
 3143SOL    HW211747   5.664   5.881   3.908 -0.2749  0.0176 -1.2244
 3144SOL     OW11748   8.974   0.245   8.992 -0.0604 -0.5726 -0.2152
 3144SOL    HW111749   8.985   0.156   8.958  0.0745 -1.3327  1.6818
 3144SOL    HW211750   9.013   0.242   9.079 -0.4250  1.2542  0.0523
 3145SOL     OW11751   3.943   7.151  10.581  0.2829 -0.6870  0.5071
 3145SOL    HW111752   3.887   7.202  10.640  0.7275 -1.1353  1.3378
 3145SOL    HW211753   4.027   7.198  10.582  0.2279 -0.5770  0.0618
 3146SOL     OW11754   7.050   5.738   3.758 -0.4839  0.0352  0.1218
 3146SOL    HW111755   7.002   5.716   3.837  1.7691  0.5156  1.7103
 3146SOL    HW211756   7.020   5.674   3.693 -0.7190 -1.8739  2.0108
 3147SOL     OW11757   8.884   1.812   8.852 -0.1507  0.1170  0.0344
 3147SOL    HW111758   8.909   1.819   8.944  1.8501 -1.9100 -0.2735
 3147SOL    HW211759   8.816   1.879   8.841  0.5495  1.4058  2.6062
 3148SOL     OW11760   8.773   8.000   4.752  0.4956 -0.2281 -0.3187
 3148SOL    HW111761   8.745   7.913   4.726 -0.2651 -0.2915  0.6415
 3148SOL    HW211762   8.797   7.991   4.844 -1.9137  1.0356  0.5285
 3149SOL     OW11763  10.101   6.597   2.600 -0.2654 -0.1753  0.7186
 3149SOL    HW111764  10.157   6.519   2.594 -0.1404 -0.0962  0.8456
 3149SOL    HW211765  10.061   6.605   2.513  0.0962 -0.1014  0.5584
 3150SOL     OW11766   5.271   2.509   6.388  0.7302 -0.2982 -0.4209
 3150SOL    HW111767   5.280   2.594   6.431  0.8667 -1.4296  2.0139
 3150SOL    HW211768   5.355   2.494   6.346  0.8616  0.5878 -0.4785
 3151SOL     OW11769   9.211   0.865   5.454  0.4098 -0.1342  0.8339
 3151SOL    HW111770   9.287   0.915   5.424  0.7920 -0.7634  0.7293
 3151SOL    HW211771   9.136   0.922   5.435  0.7308 -0.0749 -0.3440
 3152SOL     OW11772   7.894   7.187   7.868 -0.1148 -0.0208  0.2587
 3152SOL    HW111773   7.903   7.257   7.932 -2.8144  1.9436 -1.3217
 3152SOL    HW211774   7.934   7.223   7.788 -0.7114 -0.6399 -0.3295
 3153SOL     OW11775   7.496   3.741   8.287 -0.4517 -0.2144  0.9645
 3153SOL    HW111776   7.511   3.652   8.319  2.0717 -0.8172 -1.4785
 3153SOL    HW211777   7.575   3.789   8.312 -0.3910  0.4591 -0.4373
 3154SOL     OW11778   3.045   8.847   8.801  0.1803  0.1116 -0.3234
 3154SOL    HW111779   3.130   8.834   8.842  0.7962  0.6564 -1.3727
 3154SOL    HW211780   3.026   8.940   8.815 -1.0382 -0.3428  1.3270
 3155SOL     OW11781   5.008   5.524   4.224  1.0283 -0.4708 -0.0700
 3155SOL    HW111782   5.017   5.439   4.179  0.6062  0.2109 -1.5050
 3155SOL    HW211783   4.927   5.516   4.273  0.8437 -0.8072 -0.4161
 3156SOL     OW11784  10.484   9.358   9.094  0.2588 -0.5892  0.1277
 3156SOL    HW111785  10.517   9.268   9.098  1.6931 -0.0563  1.3704
 3156SOL    HW211786  10.558   9.408   9.059 -0.6871  0.0605 -0.9958
 3157SOL     OW11787   0.295   8.193   4.267 -0.2121 -0.1499  0.3147
 3157SOL    HW111788   0.337   8.107   4.267  0.0503 -0.0922 -2.4117
 3157SOL    HW211789   0.367   8.255   4.267 -0.3036 -0.0127 -1.4703
 3158SOL     OW11790   8.898   8.979   3.108  0.3555  0.1514 -0.2739
 3158SOL    HW111791   8.886   9.060   3.058 -0.9758 -0.0007 -0.2302
 3158SOL    HW211792   8.960   8.929   3.057  0.1802  0.6484 -0.9915
 3159SOL     OW11793   2.127   8.563   6.293 -0.0568  0.3010 -0.9023
 3159SOL    HW111794   2.197   8.585   6.354  0.1528 -1.9726 -0.2100
 3159SOL    HW211795   2.056   8.531   6.348 -1.6175  2.3632 -1.6129
 3160SOL     OW11796   6.393   7.272   3.252  0.1152 -0.2340  0.0895
 3160SOL    HW111797   6.346   7.336   3.199 -0.4397  0.3275  1.2415
 3160SOL    HW211798   6.485   7.295   3.242  0.0458 -0.2884 -0.8027
 3161SOL     OW11799   7.287   0.464   1.530  0.2448  0.0796  0.3277
 3161SOL    HW111800   7.255   0.552   1.514 -0.9903 -0.3662  0.2138
 3161SOL    HW211801   7.229   0.407   1.479  2.0232 -0.7106 -0.9533
 3162SOL     OW11802   5.758   5.718   5.822  0.5589 -0.3997  0.0443
 3162SOL    HW111803   5.685   5.692   5.878  0.5151  1.6706  1.0628
 3162SOL    HW211804   5.835   5.709   5.878  0.8141 -0.5515 -0.3322
 3163SOL     OW11805   5.957   4.968   8.115  0.2616 -0.2517  0.7228
 3163SOL    HW111806   6.029   4.989   8.056 -0.2484  1.6471  0.6951
 3163SOL    HW211807   5.997   4.959   8.201  0.8602 -1.9153  0.2995
 3164SOL     OW11808  10.200   0.241   7.037  0.1276  0.0302  0.1372
 3164SOL    HW111809  10.165   0.230   6.948 -1.1653  0.7846  0.5270
 3164SOL    HW211810  10.129   0.213   7.094  0.2950  1.2411  0.9583
 3165SOL     OW11811   0.380   4.135   8.406  0.2157 -0.3476  0.0538
 3165SOL    HW111812   0.397   4.099   8.318 -1.2344  0.5053 -0.6006
 3165SOL    HW211813   0.391   4.060   8.464  1.6483 -0.8370 -0.7807
 3166SOL     OW11814   1.089   3.490   6.790  0.4423 -0.2319 -0.7640
 3166SOL    HW111815   1.071   3.412   6.842 -0.1509  0.6187  0.3355
 3166SOL    HW211816   1.081   3.563   6.851 -1.4226  0.9008 -2.2587
 3167SOL     OW11817   7.194   7.134   3.811  0.3154  0.6587 -0.5077
 3167SOL    HW111818   7.151   7.049   3.804 -1.2891  1.3464  0.3710
 3167SOL    HW211819   7.228   7.151   3.723  1.1328 -1.0890 -0.5730
 3168SOL     OW11820   7.649   9.148  10.118  0.8053 -0.7212 -0.0192
 3168SOL    HW111821   7.744   9.151  10.127  0.7027 -0.5925  1.1894
 3168SOL    HW211822   7.621   9.078  10.178  0.1890 -1.2526 -0.9018
 3169SOL     OW11823   1.595   5.925   2.992 -0.6128  0.0314  0.7254
 3169SOL    HW111824   1.656   5.891   2.926  0.9282  1.2374  1.4315
 3169SOL    HW211825   1.600   6.020   2.981 -3.3889  0.1580 -0.0121
 3170SOL     OW11826   0.446   3.300   9.877 -0.5306  0.0851 -0.1107
 3170SOL    HW111827   0.377   3.234   9.887 -0.3909  0.1008  1.1031
 3170SOL    HW211828   0.521   3.251   9.843 -0.5977 -0.2789  0.2573
 3171SOL     OW11829   7.668   3.708   0.871 -0.1416  0.3167 -0.6643
 3171SOL    HW111830   7.729   3.634   0.875 -2.2214 -1.4667  0.4646
 3171SOL    HW211831   7.724   3.786   0.868  2.1580 -1.1843  0.6668
 3172SOL     OW11832   9.304   7.193   6.610  0.2506  0.1688 -0.4620
 3172SOL    HW111833   9.365   7.263   6.633  0.4201  0.2141 -1.0441
 3172SOL    HW211834   9.218   7.236   6.607  0.3945  0.4139 -1.1123
 3173SOL     OW11835   7.858   8.505   8.086  0.1714  0.4818 -0.2144
 3173SOL    HW111836   7.860   8.426   8.140  0.4161  0.2574 -0.5516
 3173SOL    HW211837   7.787   8.491   8.023 -1.4750  1.5721  1.2774
 3174SOL     OW11838   3.777   8.675   1.123 -0.6212  0.1254  0.7645
 3174SOL    HW111839   3.754   8.584   1.143  0.1460  0.3356  2.8197
 3174SOL    HW211840   3.698   8.712   1.084 -0.9945 -1.3604  0.0221
 3175SOL     OW11841   8.285   1.117   6.277  0.2659  0.1195  0.7607
 3175SOL    HW111842   8.208   1.102   6.332 -1.0821 -0.3964 -1.1634
 3175SOL    HW211843   8.310   1.208   6.295 -0.6708  0.2334  1.5714
 3176SOL     OW11844   0.443   2.886   6.606 -0.5685 -0.1951  0.1871
 3176SOL    HW111845   0.533   2.895   6.577 -0.6835 -0.4877 -0.2736
 3176SOL    HW211846   0.394   2.949   6.553 -0.7697 -0.6823 -0.2086
 3177SOL     OW11847   6.142   1.148   4.016 -0.6344 -0.0434 -0.0692
 3177SOL    HW111848   6.182   1.231   3.992  2.3238 -1.6624 -1.3413
 3177SOL    HW211849   6.146   1.095   3.936 -0.7897 -1.9887  1.1257
 3178SOL     OW11850  10.080   2.798   4.384  0.5241 -0.0937 -0.4210
 3178SOL    HW111851  10.041   2.850   4.313  0.2235 -1.3060 -1.1730
 3178SOL    HW211852  10.092   2.860   4.456 -2.0066  0.5597 -0.4529
 3179SOL     OW11853   9.597   4.046   9.055 -0.2246  0.0926  0.2861
 3179SOL    HW111854   9.678   4.094   9.043 -0.0624 -0.3110 -0.3182
 3179SOL    HW211855   9.528   4.112   9.054  0.0750  0.4070  0.5290
 3180SOL     OW11856   1.777   0.918   0.705  0.1911  0.1844  0.3201
 3180SOL    HW111857   1.779   1.012   0.689  0.4484  0.1647  0.2385
 3180SOL    HW211858   1.688   0.892   0.682  0.1776  0.3732  0.1583
 3181SOL     OW11859   9.546   2.786   5.894  0.2831 -0.4678  0.3582
 3181SOL    HW111860   9.580   2.732   5.823  0.0704 -0.9944  0.6510
 3181SOL    HW211861   9.502   2.858   5.850 -0.6059 -1.2549 -0.0732
 3182SOL     OW11862   1.413   6.287   6.344 -0.0837 -0.7805  0.1831
 3182SOL    HW111863   1.484   6.279   6.281  1.5687 -0.1232  1.8926
 3182SOL    HW211864   1.357   6.356   6.308  1.1354 -0.0112 -0.2674
 3183SOL     OW11865   0.282   6.641   1.273 -0.5954 -0.1113 -0.7482
 3183SOL    HW111866   0.275   6.732   1.301 -0.4589  0.1905 -1.6388
 3183SOL    HW211867   0.204   6.599   1.308  0.2963 -0.1377  1.3482
 3184SOL     OW11868   5.472   7.006   2.295 -0.3909  0.6259  0.4581
 3184SOL    HW111869   5.514   7.088   2.321  0.7906  0.3111 -0.4140
 3184SOL    HW211870   5.440   7.022   2.206 -2.4073  0.9461  1.1902
 3185SOL     OW11871   0.311   4.589   9.828  0.2369  0.1707 -0.4756
 3185SOL    HW111872   0.231   4.619   9.785  0.6569  2.3353  0.1141
 3185SOL    HW211873   0.286   4.577   9.919  0.9261  2.7676  0.1394
 3186SOL     OW11874   3.224   8.556   3.499 -0.0884  0.2785 -0.0374
 3186SOL    HW111875   3.167   8.631   3.519  0.8470  0.3753  2.7977
 3186SOL    HW211876   3.299   8.595   3.455  0.1660  0.9987  0.9788
 3187SOL     OW11877   6.132   9.878   1.508  0.2938 -0.3610  0.2503
 3187SOL    HW111878   6.038   9.869   1.521  0.0709 -0.1882 -1.1053
 3187SOL    HW211879   6.156   9.803   1.454  0.5261  0.6888 -1.1818
 3188SOL     OW11880   5.162   7.569   6.112  0.2390 -0.4824  0.0794
 3188SOL    HW111881   5.210   7.539   6.190  0.1198 -0.8866 -0.0017
 3188SOL    HW211882   5.219   7.636   6.073  0.6675 -0.8490  0.0682
 3189SOL     OW11883   5.403   8.574   0.184 -0.3962  0.1771 -0.5721
 3189SOL    HW111884   5.481   8.606   0.138  0.0603  1.0552  0.7683
 3189SOL    HW211885   5.334   8.636   0.159  0.1228  1.3549  0.7832
 3190SOL     OW11886  10.055   7.739   3.906  0.2037  0.5827  0.2934
 3190SOL    HW111887  10.041   7.660   3.854 -1.2487  0.3322  1.0301
 3190SOL    HW211888  10.150   7.741   3.922  0.0856 -2.0758  1.9012
 3191SOL     OW11889   9.968   8.255   6.248  0.2612  0.1495 -0.5056
 3191SOL    HW111890   9.897   8.290   6.300  1.5867  0.7080  1.0047
 3191SOL    HW211891  10.022   8.331   6.225 -0.4599 -0.0192 -3.0600
 3192SOL     OW11892   5.164   1.368  10.226  0.5406 -0.1530 -0.2865
 3192SOL    HW111893   5.214   1.303  10.177  0.0543  0.0500 -1.0501
 3192SOL    HW211894   5.231   1.418  10.273  0.9837 -0.5753 -0.4589
 3193SOL     OW11895   6.405   2.356   8.502 -0.0507  0.2116 -0.3286
 3193SOL    HW111896   6.418   2.445   8.535  0.1616  0.9859 -2.3135
 3193SOL    HW211897   6.318   2.331   8.532  0.3380  0.6334  1.2102
 3194SOL     OW11898   8.413   7.196   2.432  0.2184  0.2883 -0.0034
 3194SOL    HW111899   8.335   7.245   2.404  0.4421  2.2005  2.3831
 3194SOL    HW211900   8.486   7.240   2.389  0.2431  0.6018  0.3612
 3195SOL     OW11901   4.288   7.217   6.177 -0.4407  0.1423  0.8747
 3195SOL    HW111902   4.319   7.209   6.087  0.9656 -0.9949  1.4301
 3195SOL    HW211903   4.357   7.177   6.230 -0.6136  1.9323  2.5761
 3196SOL     OW11904   0.568   6.904   8.276  0.3794  0.2217  0.2689
 3196SOL    HW111905   0.609   6.983   8.311  0.3573  0.9642 -1.2985
 3196SOL    HW211906   0.625   6.832   8.303  1.1170  0.9280  0.6019
 3197SOL     OW11907   0.281   2.113   2.947  0.3193  0.0085 -0.0310
 3197SOL    HW111908   0.265   2.205   2.968 -1.7909 -0.6708  1.6657
 3197SOL    HW211909   0.234   2.064   3.014  0.5713 -2.3463 -1.4433
 3198SOL     OW11910   3.976   0.568   1.718  0.1868 -0.3770  0.4264
 3198SOL    HW111911   3.910   0.538   1.780 -0.8729 -0.1647 -0.5546
 3198SOL    HW211912   4.047   0.603   1.772 -1.0746  0.5971  1.5026
 3199SOL     OW11913   4.532   8.577   3.258  0.5505  0.3379 -0.4818
 3199SOL    HW111914   4.593   8.504   3.264  0.2356  0.1202  0.0751
 3199SOL    HW211915   4.568   8.632   3.188  2.2028  0.9841  0.8229
 3200SOL     OW11916   3.935   8.216   4.175 -0.0424  0.0840  0.1764
 3200SOL    HW111917   3.871   8.273   4.217 -0.6761  0.0322 -0.6958
 3200SOL    HW211918   3.921   8.130   4.215 -0.0450  0.2276  0.4842
 3201SOL     OW11919   4.813   6.266   8.697  0.2163  0.4854  0.0149
 3201SOL    HW111920   4.859   6.344   8.727  1.8752 -0.9120  1.3285
 3201SOL    HW211921   4.857   6.243   8.615  1.5979 -0.5377  0.9917
 3202SOL     OW11922   4.068   5.638   7.467 -0.2094  0.8047  0.1172
 3202SOL    HW111923   3.980   5.646   7.504 -0.3576  1.0488 -0.2854
 3202SOL    HW211924   4.106   5.726   7.476  0.1118  0.6244  0.5780
 3203SOL     OW11925   1.714   9.498   9.420  0.0679 -0.3023  0.3449
 3203SOL    HW111926   1.774   9.424   9.436  1.6056  0.6797 -0.5827
 3203SOL    HW211927   1.650   9.464   9.358  1.4612 -0.5814 -1.0109
 3204SOL     OW11928   8.364   4.695   6.449 -0.0224 -0.2091  0.0094
 3204SOL    HW111929   8.406   4.661   6.528 -2.2514 -2.4316  0.3513
 3204SOL    HW211930   8.436   4.705   6.387  1.1325 -4.2470  0.3973
 3205SOL     OW11931   9.604   7.499   8.643  0.4270 -0.2863 -0.9773
 3205SOL    HW111932   9.624   7.500   8.550  2.5076  0.9542 -0.5662
 3205SOL    HW211933   9.592   7.591   8.666 -2.3236 -0.6932 -0.3941
 3206SOL     OW11934   4.009   7.000   4.911 -0.7101 -0.1699 -0.1087
 3206SOL    HW111935   3.923   7.010   4.872 -0.3103 -1.8416 -1.5441
 3206SOL    HW211936   4.069   7.040   4.848 -0.3275 -0.1570  0.2603
 3207SOL     OW11937   6.572   6.229   9.430 -0.0484  0.8856  0.0518
 3207SOL    HW111938   6.495   6.284   9.446 -1.6001 -0.9981 -0.5622
 3207SOL    HW211939   6.550   6.144   9.469  2.3191  0.6368  1.0845
 3208SOL     OW11940   1.129   3.261  10.315 -0.0276  0.3950  0.1050
 3208SOL    HW111941   1.045   3.254  10.362  0.3783 -0.9551  0.6556
 3208SOL    HW211942   1.149   3.355  10.318 -2.6274  1.1399 -2.0518
 3209SOL     OW11943   6.088   6.389   0.308 -0.2038 -0.4458 -0.5862
 3209SOL    HW111944   6.095   6.437   0.390 -0.0333 -0.6579 -0.4756
 3209SOL    HW211945   6.137   6.442   0.245  0.0621 -0.5212 -0.4432
 3210SOL     OW11946  10.132   4.537   8.861 -0.3389  0.6637 -0.1681
 3210SOL    HW111947  10.151   4.454   8.906 -1.5736 -0.3379 -1.4150
 3210SOL    HW211948  10.042   4.557   8.884 -0.6114  0.7388 -1.2329
 3211SOL     OW11949   8.908   9.878   7.154  0.2268  0.2162  0.4613
 3211SOL    HW111950   8.862   9.811   7.204  0.2826 -0.6536 -0.6325
 3211SOL    HW211951   8.959   9.926   7.220 -0.1723 -0.5032  1.3156
 3212SOL     OW11952   8.121   4.155   6.372 -0.4532  0.3057  0.2791
 3212SOL    HW111953   8.052   4.114   6.321 -0.0434 -0.1941  0.1106
 3212SOL    HW211954   8.144   4.090   6.438 -1.2283  1.0879  1.3557
 3213SOL     OW11955   3.932   1.402   1.931  0.5720  0.5046 -0.5724
 3213SOL    HW111956   3.948   1.495   1.912  0.0691  0.4912 -1.1025
 3213SOL    HW211957   4.002   1.378   1.992  0.3206  1.3949  0.0939
 3214SOL     OW11958   7.583   8.403   6.882  0.2137 -0.1630  0.2954
 3214SOL    HW111959   7.656   8.379   6.825  1.9684  1.0471  1.9203
 3214SOL    HW211960   7.596   8.496   6.900 -2.8857  0.6083 -0.9085
 3215SOL     OW11961   5.299   9.293   9.557 -0.5268  0.2677  0.5566
 3215SOL    HW111962   5.225   9.332   9.605  0.3936  0.0316  2.2693
 3215SOL    HW211963   5.258   9.234   9.494 -1.8160  0.2430  1.3759
 3216SOL     OW11964   3.806   3.772   5.467 -0.0945  0.0871  0.1105
 3216SOL    HW111965   3.866   3.835   5.507  0.2076  1.1808 -1.9324
 3216SOL    HW211966   3.752   3.824   5.408 -0.7004 -1.4038 -0.7169
 3217SOL     OW11967   2.700   6.822   6.473  0.0042 -0.0997  0.2216
 3217SOL    HW111968   2.695   6.910   6.435 -1.0543 -0.5321 -0.6824
 3217SOL    HW211969   2.618   6.780   6.448  0.8211 -1.6288 -0.0437
 3218SOL     OW11970   5.568   8.187   4.347 -0.4180 -0.1755  0.4857
 3218SOL    HW111971   5.630   8.231   4.406 -1.6848 -2.3226  3.7281
 3218SOL    HW211972   5.482   8.221   4.373 -1.0233 -1.1833 -0.1342
 3219SOL     OW11973   5.450   1.127   1.954  0.3893  0.9187  0.5455
 3219SOL    HW111974   5.388   1.192   1.923 -0.1551  0.2660  0.2339
 3219SOL    HW211975   5.536   1.159   1.927  0.0251  0.9437 -0.6077
 3220SOL     OW11976   3.572   9.560   2.963  0.2395 -0.3733 -0.2548
 3220SOL    HW111977   3.665   9.580   2.976  0.3453 -1.1161  0.1534
 3220SOL    HW211978   3.530   9.646   2.960  0.7460 -0.0428  1.0525
 3221SOL     OW11979   0.578   5.251   0.728 -0.1340  0.0740  0.2247
 3221SOL    HW111980   0.502   5.307   0.715 -0.3252 -0.4218 -0.9370
 3221SOL    HW211981   0.637   5.272   0.655  0.4546 -0.1657  0.6176
 3222SOL     OW11982   1.132   3.420   5.240 -0.0446  0.4094 -0.8417
 3222SOL    HW111983   1.137   3.479   5.315  0.2756  0.9807 -1.3047
 3222SOL    HW211984   1.040   3.394   5.236 -0.3112  1.3190 -0.9571
 3223SOL     OW11985   7.459   8.881   6.592  0.3626  0.2215  0.2530
 3223SOL    HW111986   7.542   8.912   6.627 -0.4289  1.5724  1.0261
 3223SOL    HW211987   7.393   8.934   6.636 -0.8240  0.3821 -1.5871
 3224SOL     OW11988   8.856   7.135   3.003  0.3885 -0.5541 -0.4023
 3224SOL    HW111989   8.867   7.228   2.984 -0.1226  0.0491  1.9286
 3224SOL    HW211990   8.773   7.112   2.961  0.1299  0.2443 -0.3446
 3225SOL     OW11991   2.545   5.979   2.282  0.0761  0.7610  0.9411
 3225SOL    HW111992   2.546   6.004   2.189  0.0591  0.1890  0.7818
 3225SOL    HW211993   2.636   5.986   2.310 -0.2873  3.7814  1.6837
 3226SOL     OW11994   7.490   8.811   4.733 -0.1698  0.8263  0.2513
 3226SOL    HW111995   7.440   8.778   4.659 -0.7746 -0.7617  1.3139
 3226SOL    HW211996   7.577   8.772   4.722 -0.2511  0.6138  0.3677
 3227SOL     OW11997   7.150   5.332   0.497  0.1904  0.1147 -0.4703
 3227SOL    HW111998   7.085   5.262   0.507  1.5902 -1.2075 -0.1644
 3227SOL    HW211999   7.234   5.290   0.517  1.1282  1.8240 -0.5860
 3228SOL     OW12000   2.679   9.215   6.136  0.0920 -0.1325 -0.0159
 3228SOL    HW112001   2.624   9.180   6.206 -0.7217 -0.4378 -0.7978
 3228SOL    HW212002   2.631   9.197   6.055 -0.9240  3.7163 -0.4445
 3229SOL     OW12003   5.613   3.692   4.406  0.5439  0.4087 -0.3862
 3229SOL    HW112004   5.616   3.648   4.491 -1.2015 -0.5592 -0.7909
 3229SOL    HW212005   5.653   3.629   4.345  0.9052  0.7030 -0.4600
 3230SOL     OW12006   8.878   7.079   7.293 -0.0890 -0.7375 -0.0995
 3230SOL    HW112007   8.829   7.004   7.327 -0.1876 -1.8827 -2.6219
 3230SOL    HW212008   8.941   7.100   7.363 -0.2154 -2.9895  0.7598
 3231SOL     OW12009   8.586   6.185   1.925 -0.1597 -0.3571 -0.4125
 3231SOL    HW112010   8.588   6.250   1.855 -1.0131 -0.0831 -0.1907
 3231SOL    HW212011   8.505   6.136   1.909 -0.4692 -0.1519  0.5148
 3232SOL     OW12012   1.311   0.215   7.763 -0.0969 -0.1356  0.3627
 3232SOL    HW112013   1.377   0.166   7.813 -0.0890  0.1259  0.6069
 3232SOL    HW212014   1.251   0.148   7.732 -0.9812 -0.1565  2.0201
 3233SOL     OW12015   2.004  10.047   9.639 -0.3019 -0.1141 -0.5243
 3233SOL    HW112016   2.013  10.123   9.582 -1.0613 -0.0156 -0.5276
 3233SOL    HW212017   1.919  10.059   9.681  0.1247 -0.3314  0.4234
 3234SOL     OW12018   3.720   3.762   1.902  0.1420  0.7008  0.0714
 3234SOL    HW112019   3.632   3.733   1.926  0.5678 -0.1759  0.6090
 3234SOL    HW212020   3.740   3.832   1.964  0.8229 -0.8495  1.6797
 3235SOL     OW12021   4.644   1.145   0.558  0.2897  0.2218  0.1038
 3235SOL    HW112022   4.580   1.180   0.495 -0.6209 -0.8325  0.4206
 3235SOL    HW212023   4.685   1.071   0.512  0.9694  0.6008  0.0789
 3236SOL     OW12024   9.499   1.670   0.434  0.0389  0.6415  0.3687
 3236SOL    HW112025   9.416   1.669   0.482 -0.5056 -0.9939 -0.5123
 3236SOL    HW212026   9.566   1.653   0.501 -0.2693  2.3035  1.1387
 3237SOL     OW12027   1.526   8.888   2.660 -0.2695 -0.5968 -0.1875
 3237SOL    HW112028   1.579   8.932   2.594  1.4344 -0.6352  1.0756
 3237SOL    HW212029   1.447   8.942   2.669  0.1626  0.2243 -1.1529
 3238SOL     OW12030   8.676   6.484   5.090  0.2246  0.5516  0.4403
 3238SOL    HW112031   8.647   6.486   5.181 -1.0512  3.0706  0.0935
 3238SOL    HW212032   8.609   6.535   5.043  1.5211  0.4235 -1.6757
 3239SOL     OW12033   3.622   8.360   3.702 -0.4519  0.2062 -0.6988
 3239SOL    HW112034   3.596   8.358   3.795 -0.1001 -0.8090 -0.5985
 3239SOL    HW212035   3.674   8.439   3.693  0.3846 -0.2097  0.2390
 3240SOL     OW12036   0.217   2.165   9.884  0.5841 -0.3205  0.0973
 3240SOL    HW112037   0.288   2.112   9.848  1.2632 -0.6702  1.8252
 3240SOL    HW212038   0.256   2.251   9.900 -0.2305  0.4380 -1.7026
 3241SOL     OW12039   7.180   0.976   0.775 -0.4085 -0.3212 -0.0967
 3241SOL    HW112040   7.210   1.017   0.694 -0.5246 -1.3869 -0.6985
 3241SOL    HW212041   7.260   0.960   0.824 -0.2446 -0.5583 -0.4349
 3242SOL     OW12042   4.695   3.783   0.361 -0.0254  0.2453 -0.2291
 3242SOL    HW112043   4.709   3.878   0.366 -2.1131  0.5476  1.5056
 3242SOL    HW212044   4.757   3.753   0.294  0.6658  2.8195 -0.8637
 3243SOL     OW12045   5.397   4.663   0.275  0.4410  0.9802  0.3830
 3243SOL    HW112046   5.384   4.626   0.188  0.3619  0.9199  0.4208
 3243SOL    HW212047   5.489   4.690   0.275  0.2210  1.7516 -0.0112
 3244SOL     OW12048   6.689   1.913   6.014  0.4202 -0.1876  0.1659
 3244SOL    HW112049   6.676   2.007   6.021  2.3426  0.0680  0.7666
 3244SOL    HW212050   6.625   1.875   6.074  0.6982  0.8242  1.1330
 3245SOL     OW12051   2.995   8.909   2.244  0.4851 -0.2445  0.3514
 3245SOL    HW112052   2.981   8.820   2.277  1.7498 -0.4771  0.3047
 3245SOL    HW212053   3.049   8.897   2.166 -1.1035  0.4211 -0.8947
 3246SOL     OW12054  10.124   3.455   5.430 -0.2063  0.0439  0.2574
 3246SOL    HW112055  10.039   3.419   5.456 -0.3484 -0.2679 -0.6212
 3246SOL    HW212056  10.151   3.402   5.355 -0.2314  1.4833 -0.8165
 3247SOL     OW12057   3.110   3.528   6.294  0.0244  0.1372  0.0671
 3247SOL    HW112058   3.040   3.510   6.231  1.1169  1.2202 -1.5526
 3247SOL    HW212059   3.139   3.616   6.272  1.8077 -0.2364  0.7598
 3248SOL     OW12060   5.462   9.093   8.155  0.5562  0.7643 -0.7115
 3248SOL    HW112061   5.465   8.998   8.140  1.0073  1.1048 -3.1512
 3248SOL    HW212062   5.492   9.131   8.073 -0.6533  3.0683 -0.1700
 3249SOL     OW12063   0.166   9.980   3.156  0.1998  0.6878 -0.3142
 3249SOL    HW112064   0.079  10.006   3.125  0.4032 -0.0085 -1.5210
 3249SOL    HW212065   0.191  10.048   3.218 -0.1898  2.1926 -1.7543
 3250SOL     OW12066   3.880   3.365   7.892 -0.1659  0.4003  0.2312
 3250SOL    HW112067   3.967   3.403   7.904 -0.1692  0.7480 -0.7514
 3250SOL    HW212068   3.879   3.335   7.801 -0.3853 -1.4155  0.7921
 3251SOL     OW12069   8.398   2.665   4.632  0.3094  0.4692 -0.7512
 3251SOL    HW112070   8.306   2.655   4.658  0.3412 -0.9659 -1.1136
 3251SOL    HW212071   8.416   2.759   4.643 -0.6127  0.4646  1.2520
 3252SOL     OW12072   4.653   7.080   8.003  0.1135  0.2095  0.2577
 3252SOL    HW112073   4.601   7.000   8.007  0.7520 -0.2693 -0.6250
 3252SOL    HW212074   4.743   7.052   8.020  0.1040  1.0446  1.8833
 3253SOL     OW12075   8.522   3.876   2.938 -0.7404  0.4896  0.1106
 3253SOL    HW112076   8.502   3.880   3.031  3.3286  0.8209  1.1682
 3253SOL    HW212077   8.518   3.966   2.908 -2.6700  0.3125 -0.2618
 3254SOL     OW12078   7.147   9.325   3.666 -0.3313 -0.1336 -0.5793
 3254SOL    HW112079   7.083   9.393   3.644  0.2101  0.0202 -1.7403
 3254SOL    HW212080   7.124   9.299   3.755 -0.0183  2.1855  0.2597
 3255SOL     OW12081   8.542   3.142   1.313 -0.3017 -0.1481 -0.0428
 3255SOL    HW112082   8.543   3.213   1.249 -0.8984  0.2386  0.3765
 3255SOL    HW212083   8.625   3.096   1.298  0.6466  1.3354  0.4760
 3256SOL     OW12084   7.103   7.749   6.368 -0.6430  0.0395  0.7785
 3256SOL    HW112085   7.093   7.684   6.438 -0.0900 -1.0698 -0.1354
 3256SOL    HW212086   7.145   7.701   6.297  0.6548  1.6478  0.4035
 3257SOL     OW12087   9.703   3.091  10.139  0.1651 -0.1417 -0.3829
 3257SOL    HW112088   9.643   3.117  10.069 -0.6266  1.5181  0.8453
 3257SOL    HW212089   9.790   3.095  10.098 -0.4058 -1.0159 -1.7462
 3258SOL     OW12090   5.452   5.153   9.308  0.0406 -0.2764  0.3447
 3258SOL    HW112091   5.465   5.059   9.295  1.8377  0.2115 -2.2186
 3258SOL    HW212092   5.483   5.170   9.397  0.0162 -2.0435  0.7265
 3259SOL     OW12093   1.903   5.861   4.103 -1.4300  0.1703  0.0554
 3259SOL    HW112094   1.898   5.936   4.162 -0.1884  0.5377 -0.2765
 3259SOL    HW212095   1.921   5.787   4.161 -2.1112  0.2139  0.3274
 3260SOL     OW12096   7.585  10.057   4.695 -0.5051 -0.1023 -0.0046
 3260SOL    HW112097   7.629  10.067   4.779 -0.0977  1.6917 -0.4021
 3260SOL    HW212098   7.497  10.027   4.717 -0.5319  0.7316  1.0957
 3261SOL     OW12099   9.764   2.198   1.778  0.2304  0.2077  0.2210
 3261SOL    HW112100   9.754   2.134   1.848  0.2386  0.6574  0.6385
 3261SOL    HW212101   9.851   2.237   1.793  0.4985 -0.1412 -0.4133
 3262SOL     OW12102   3.383   6.314   3.829 -0.2241 -0.0691 -0.2987
 3262SOL    HW112103   3.356   6.243   3.770 -0.3089 -0.3802  0.1132
 3262SOL    HW212104   3.407   6.386   3.770 -3.7074  0.9293 -0.7377
 3263SOL     OW12105   1.543   4.917   6.960 -0.5577 -0.4500  0.5889
 3263SOL    HW112106   1.593   4.954   7.033 -0.0274 -0.2623  0.1367
 3263SOL    HW212107   1.459   4.891   6.999 -0.4815  0.1326  1.1530
 3264SOL     OW12108   3.037   5.010   1.542 -0.6252  0.1388  0.5898
 3264SOL    HW112109   3.116   4.957   1.543 -0.6021  0.1493 -0.4981
 3264SOL    HW212110   2.974   4.959   1.595 -0.4308 -0.7033  0.0266
 3265SOL     OW12111   5.254   3.274   1.684  0.0956  0.1890 -0.1152
 3265SOL    HW112112   5.211   3.357   1.669 -0.5962  0.3390  2.3029
 3265SOL    HW212113   5.347   3.296   1.692 -0.2446  1.0853  2.2314
 3266SOL     OW12114   3.070   8.019   9.241 -0.0334  0.3151 -0.3010
 3266SOL    HW112115   3.037   7.990   9.326  1.9474  0.6695  0.6502
 3266SOL    HW212116   3.102   8.108   9.257  0.5422  0.3153 -1.3738
 3267SOL     OW12117  10.158   4.766   6.514  0.1085 -0.6003 -0.2635
 3267SOL    HW112118  10.171   4.742   6.422 -0.2069 -0.1734 -0.4201
 3267SOL    HW212119  10.187   4.857   6.519 -1.5909 -0.0289 -0.3391
 3268SOL     OW12120   8.607   9.115   7.488 -0.1795 -0.2358  0.1651
 3268SOL    HW112121   8.692   9.106   7.530 -0.2179 -1.8124 -0.0095
 3268SOL    HW212122   8.614   9.062   7.409 -1.0997  0.1846 -0.2156
 3269SOL     OW12123   8.177   8.278   9.223 -0.0034 -0.2603  0.3342
 3269SOL    HW112124   8.150   8.203   9.170 -0.2976 -1.5927  2.2741
 3269SOL    HW212125   8.270   8.265   9.239 -0.0239 -0.1432  0.5606
 3270SOL     OW12126   0.088   3.511   6.391 -0.0571 -0.5289 -0.3723
 3270SOL    HW112127   0.111   3.564   6.314  0.4095  2.6627  1.7504
 3270SOL    HW212128   0.166   3.514   6.446 -1.4339  0.1014  1.6284
 3271SOL     OW12129   4.438   3.448   1.452  0.2392 -0.5066  0.0287
 3271SOL    HW112130   4.359   3.442   1.505 -0.0597 -0.3353 -0.3902
 3271SOL    HW212131   4.471   3.537   1.468 -0.0101 -0.3532 -0.2853
 3272SOL     OW12132   9.874   6.752   4.379  0.3075 -0.2873  0.2414
 3272SOL    HW112133   9.917   6.685   4.434  1.2035 -0.3621 -0.5310
 3272SOL    HW212134   9.818   6.800   4.440  0.6445 -0.9094  1.0650
 3273SOL     OW12135   0.768   1.242   4.692 -1.2686  0.3676  0.5480
 3273SOL    HW112136   0.803   1.331   4.695  0.2809 -0.2017  0.4745
 3273SOL    HW212137   0.789   1.205   4.778  1.1725 -0.9633 -0.4871
 3274SOL     OW12138   4.697   0.142   1.002 -0.2421 -0.1164  0.4159
 3274SOL    HW112139   4.777   0.175   1.042 -0.7491  0.4907  0.9604
 3274SOL    HW212140   4.710   0.153   0.908 -0.1150  1.0046  0.5523
 3275SOL     OW12141   3.613   1.106   5.761  0.6467  0.4099  0.0202
 3275SOL    HW112142   3.621   1.193   5.799  1.6027 -0.0500  0.9047
 3275SOL    HW212143   3.678   1.053   5.807 -1.3820 -1.3338  1.0729
 3276SOL     OW12144   3.132   3.663  10.377  0.3473 -0.7534 -0.1316
 3276SOL    HW112145   3.212   3.639  10.421  0.2776 -0.0769  0.3849
 3276SOL    HW212146   3.154   3.662  10.284  0.7186 -1.3824 -0.0356
 3277SOL     OW12147   0.379   9.863  10.299  0.0938 -0.1193 -0.0449
 3277SOL    HW112148   0.433   9.795  10.339 -0.6905 -0.4551  0.4884
 3277SOL    HW212149   0.389   9.939  10.358  0.2757 -0.0588 -0.1529
 3278SOL     OW12150   6.910   4.047   0.412 -0.1578  0.4035  0.2360
 3278SOL    HW112151   6.829   4.001   0.393  0.1625  0.3353 -1.0661
 3278SOL    HW212152   6.978   3.992   0.373  0.7748 -0.6150  3.0439
 3279SOL     OW12153   6.844   5.489   9.305  0.0481 -0.1624  0.0896
 3279SOL    HW112154   6.757   5.508   9.341  0.7303  0.2909  1.5547
 3279SOL    HW212155   6.900   5.479   9.381  1.6061  1.0744 -0.8398
 3280SOL     OW12156   4.317   1.241   3.126 -0.5449  0.2330  0.3897
 3280SOL    HW112157   4.318   1.336   3.137 -1.3434  0.3281 -0.2111
 3280SOL    HW212158   4.372   1.208   3.197  0.5535  1.1837  0.0159
 3281SOL     OW12159   9.721   8.654   4.106 -0.6846  0.8640  0.3606
 3281SOL    HW112160   9.657   8.683   4.041  0.5940  1.6022 -0.6128
 3281SOL    HW212161   9.799   8.632   4.055 -0.5603 -1.2940  1.3900
 3282SOL     OW12162   9.766   1.783   6.508 -0.5049 -0.3215 -0.3168
 3282SOL    HW112163   9.704   1.850   6.537 -0.7336 -0.5466 -0.2866
 3282SOL    HW212164   9.845   1.832   6.486 -1.4400  0.3131 -2.6891
 3283SOL     OW12165   6.120   9.480   1.913  0.4482 -0.2194  0.3881
 3283SOL    HW112166   6.058   9.417   1.876 -2.1868  1.5350  1.5058
 3283SOL    HW212167   6.129   9.547   1.845  1.6938 -0.7891 -0.0289
 3284SOL     OW12168   6.559   7.557   2.607 -0.3236 -0.2726  0.0621
 3284SOL    HW112169   6.552   7.648   2.579  1.2101 -0.3491 -0.6842
 3284SOL    HW212170   6.629   7.558   2.673 -3.8735 -0.0601  4.3204
 3285SOL     OW12171   3.806   8.940  10.291 -0.0592  0.2562 -0.0537
 3285SOL    HW112172   3.830   9.024  10.252  1.6064 -1.3191 -2.7645
 3285SOL    HW212173   3.755   8.896  10.224 -0.4023 -1.1436  1.0874
 3286SOL     OW12174   4.678   2.089   7.500 -0.3824 -0.1171  0.0267
 3286SOL    HW112175   4.584   2.084   7.519 -0.3109  0.5050  0.6045
 3286SOL    HW212176   4.683   2.118   7.409 -0.7371 -1.6099 -0.4954
 3287SOL     OW12177   8.192   3.895   1.624  0.6611 -0.5932  0.1056
 3287SOL    HW112178   8.187   3.932   1.712  0.4078 -2.1214  0.7774
 3287SOL    HW212179   8.247   3.955   1.575  0.1599  0.7111  1.0830
 3288SOL     OW12180   0.847   2.869   7.533 -0.2655  0.3027 -0.4228
 3288SOL    HW112181   0.779   2.887   7.599 -0.2385 -1.2118  0.0800
 3288SOL    HW212182   0.893   2.792   7.568  2.1254  1.6514 -0.4602
 3289SOL     OW12183   8.031   0.998   3.146 -0.0376  0.1026  1.2697
 3289SOL    HW112184   8.111   0.987   3.095 -0.2103  2.6156  0.3355
 3289SOL    HW212185   8.056   0.971   3.235  1.3140 -0.8292  0.6505
 3290SOL     OW12186   3.652   1.244   6.205 -0.1790 -0.3952  0.0260
 3290SOL    HW112187   3.691   1.156   6.206  0.0260 -0.3050  0.6146
 3290SOL    HW212188   3.725   1.302   6.223 -0.2466 -0.0637 -0.7305
 3291SOL     OW12189   6.897   5.117  10.278  0.2383 -0.3925  0.0818
 3291SOL    HW112190   6.991   5.101  10.273  0.4579  1.0478 -1.6273
 3291SOL    HW212191   6.858   5.029  10.277  1.5322 -1.1067  2.6426
 3292SOL     OW12192  10.317   1.535   7.498 -0.2013 -0.2470 -0.0400
 3292SOL    HW112193  10.367   1.599   7.448  0.5092 -0.5164  0.2983
 3292SOL    HW212194  10.365   1.527   7.581 -1.0094 -0.2568  0.4353
 3293SOL     OW12195  10.071   3.783   3.990 -0.1909 -0.1634 -0.0634
 3293SOL    HW112196  10.156   3.827   3.980 -0.5847  0.9266  1.1298
 3293SOL    HW212197  10.062   3.731   3.910  0.2646  2.0074 -1.6319
 3294SOL     OW12198   8.527   8.503   3.030  0.1027  0.1742 -0.2050
 3294SOL    HW112199   8.501   8.495   2.938  0.9849 -0.7238 -0.3974
 3294SOL    HW212200   8.480   8.433   3.075  0.7072 -0.2584 -0.2268
 3295SOL     OW12201   8.741   9.805   2.924 -0.3676 -0.5916  0.1651
 3295SOL    HW112202   8.782   9.807   2.838 -1.1760 -1.1578 -0.2524
 3295SOL    HW212203   8.662   9.752   2.911 -0.8359 -0.1435  1.1040
 3296SOL     OW12204   7.891   6.712   0.367 -0.1378 -0.7976 -0.0082
 3296SOL    HW112205   7.951   6.757   0.427  1.5535 -1.8528 -0.8767
 3296SOL    HW212206   7.873   6.776   0.298  1.4036 -1.0485 -0.6669
 3297SOL     OW12207   5.389   8.357   3.730 -0.4156  0.3718  0.1689
 3297SOL    HW112208   5.394   8.339   3.823 -0.8165  1.0403  0.3269
 3297SOL    HW212209   5.471   8.403   3.710 -0.9542  1.5179  0.5012
 3298SOL     OW12210  10.395   9.430   3.475 -0.0260 -0.2114 -0.2732
 3298SOL    HW112211  10.345   9.348   3.480 -0.0956 -0.1716 -0.3179
 3298SOL    HW212212  10.411   9.454   3.566  1.3960 -1.1288 -0.2460
 3299SOL     OW12213   5.667   0.939   8.049 -0.2147  0.2588 -0.2844
 3299SOL    HW112214   5.649   0.946   7.956  0.7597 -1.1430 -0.6075
 3299SOL    HW212215   5.582   0.915   8.088 -0.5231  0.3941 -0.8619
 3300SOL     OW12216   2.878   1.539   8.516  0.1936  0.0452  0.8360
 3300SOL    HW112217   2.974   1.535   8.507  0.3270 -0.3588  2.1822
 3300SOL    HW212218   2.856   1.628   8.487  0.9273  0.0293  0.1800
 3301SOL     OW12219   5.963   8.422   6.762 -0.1264 -0.3738  0.1609
 3301SOL    HW112220   6.056   8.445   6.764 -0.1362 -0.2301 -0.6379
 3301SOL    HW212221   5.928   8.458   6.843  0.8894 -2.1764  1.4695
 3302SOL     OW12222   6.708   5.654  10.173 -0.0953  0.2231  0.0180
 3302SOL    HW112223   6.684   5.661  10.265 -0.8901 -2.6845  0.1172
 3302SOL    HW212224   6.754   5.570  10.166  1.4418  1.1186 -1.9777
 3303SOL     OW12225   3.012   7.011   9.804  0.3562 -0.2307  0.0644
 3303SOL    HW112226   2.936   7.059   9.838  0.5519  1.0231 -1.1736
 3303SOL    HW212227   3.016   7.036   9.712 -0.1235 -3.4517 -0.9510
 3304SOL     OW12228   4.021   1.140   0.794 -0.1321  0.0871 -0.3072
 3304SOL    HW112229   3.975   1.119   0.713 -1.6478 -1.4933  0.9019
 3304SOL    HW212230   4.079   1.066   0.809  0.2518  0.4420 -0.0117
 3305SOL     OW12231   8.935   8.578   9.324 -0.3110 -0.0217 -0.5078
 3305SOL    HW112232   8.866   8.593   9.388 -0.3682 -0.4143 -0.4718
 3305SOL    HW212233   8.937   8.657   9.271 -0.7402  0.0216 -0.4600
 3306SOL     OW12234   7.876   0.173   8.398 -0.2339  0.2265 -0.1180
 3306SOL    HW112235   7.815   0.107   8.431 -1.0205  1.3606  0.7788
 3306SOL    HW212236   7.954   0.123   8.373 -1.3328 -1.2010 -0.8435
 3307SOL     OW12237   7.709   3.925   2.922  0.3746 -0.3256 -0.5727
 3307SOL    HW112238   7.774   3.945   2.855  0.0954 -2.8637 -1.6923
 3307SOL    HW212239   7.703   3.830   2.923 -2.0370 -0.2419  0.7526
 3308SOL     OW12240   3.326   0.362   8.828 -0.1412  0.0458  0.0093
 3308SOL    HW112241   3.298   0.451   8.849  0.7521  0.0928  1.0547
 3308SOL    HW212242   3.265   0.334   8.760 -1.3917  0.9082  0.7282
 3309SOL     OW12243   8.503   3.426   0.004  0.6815  0.2727 -0.4299
 3309SOL    HW112244   8.509   3.521  -0.009 -1.0630  0.1674 -2.7445
 3309SOL    HW212245   8.560   3.390  -0.064  0.7043 -0.3517 -0.0788
 3310SOL     OW12246   9.551   3.426   1.262 -0.0775  0.2672 -0.4538
 3310SOL    HW112247   9.462   3.452   1.240  0.0928  0.3140 -1.1370
 3310SOL    HW212248   9.602   3.451   1.185  0.7166  1.2355  0.3514
 3311SOL     OW12249   8.933   9.694   3.632 -0.2419 -0.4754  0.2189
 3311SOL    HW112250   8.942   9.652   3.546  1.0845  1.2723 -0.5571
 3311SOL    HW212251   8.905   9.784   3.612 -1.2475 -0.4222  1.7193
 3312SOL     OW12252   0.020   6.493   6.544 -0.6256  0.0100  0.0639
 3312SOL    HW112253   0.060   6.578   6.524 -1.2219 -0.0145 -1.2969
 3312SOL    HW212254  -0.067   6.514   6.576 -0.1864 -0.0317  1.3730
 3313SOL     OW12255   2.707   1.122   1.695  0.0722 -0.2409  0.7574
 3313SOL    HW112256   2.759   1.043   1.710 -0.2214 -0.5297  0.2771
 3313SOL    HW212257   2.644   1.097   1.627  0.1414  0.4752  0.4183
 3314SOL     OW12258   5.228   0.075  10.022 -0.1018 -0.2124 -0.6095
 3314SOL    HW112259   5.303   0.135  10.022 -0.5750  0.4431 -2.4136
 3314SOL    HW212260   5.197   0.075  10.112 -0.2729  2.5433 -0.5880
 3315SOL     OW12261   2.043   2.708   4.629 -0.4115  0.9715  0.3711
 3315SOL    HW112262   2.085   2.763   4.563  0.6502  0.0781  0.2575
 3315SOL    HW212263   2.109   2.700   4.699 -0.2432 -0.7033  0.0605
 3316SOL     OW12264  10.348   5.725   8.772  0.1179  0.4265  0.1606
 3316SOL    HW112265  10.390   5.642   8.797 -1.9417 -0.4165  1.0276
 3316SOL    HW212266  10.263   5.722   8.814 -0.4320  2.5302 -0.7023
 3317SOL     OW12267   1.407   2.828   8.884  0.6313  0.7487  0.5465
 3317SOL    HW112268   1.348   2.758   8.856  0.6508  1.2716 -0.8946
 3317SOL    HW212269   1.403   2.826   8.979 -0.6855 -0.0930  0.5017
 3318SOL     OW12270   2.841   6.685   6.652  0.2640 -0.5359 -0.5249
 3318SOL    HW112271   2.901   6.645   6.589  0.8320 -0.5502  0.0128
 3318SOL    HW212272   2.801   6.758   6.604  0.9645 -0.3159 -0.7908
 3319SOL     OW12273   5.434   5.243   2.380 -0.1695 -0.1972  0.2311
 3319SOL    HW112274   5.360   5.255   2.322 -0.4638  1.7764  0.9356
 3319SOL    HW212275   5.461   5.332   2.403  1.6418 -0.8852  0.9677
 3320SOL     OW12276   1.099   5.899   2.002  0.2887 -0.1363 -0.4872
 3320SOL    HW112277   1.040   5.948   2.060  1.1273 -1.1582  1.3319
 3320SOL    HW212278   1.151   5.967   1.959  0.6681  0.6468  1.1312
 3321SOL     OW12279   4.700   1.930   0.891 -0.5385  0.2525 -0.0530
 3321SOL    HW112280   4.638   2.000   0.910 -0.3372  0.0175  1.6278
 3321SOL    HW212281   4.786   1.969   0.908 -0.3609 -0.0929 -0.1445
 3322SOL     OW12282   7.759   3.197   4.473 -0.1050 -0.2189  0.2705
 3322SOL    HW112283   7.813   3.118   4.468 -0.1248 -0.1534 -1.7310
 3322SOL    HW212284   7.795   3.255   4.406 -1.3886  0.6637  0.3049
 3323SOL     OW12285   5.705   3.131   9.561 -0.6705 -0.2763 -0.0448
 3323SOL    HW112286   5.722   3.151   9.653 -0.8471  0.0941 -0.0944
 3323SOL    HW212287   5.647   3.055   9.564  0.1784 -0.9426  0.1367
 3324SOL     OW12288   3.404   7.368   1.257  0.2764 -0.0670 -0.5541
 3324SOL    HW112289   3.405   7.317   1.338  0.1385 -0.5102 -0.8288
 3324SOL    HW212290   3.321   7.346   1.215  0.0083  0.7229 -0.4671
 3325SOL     OW12291   6.302   3.848   9.848  0.0360  0.0941 -0.4121
 3325SOL    HW112292   6.350   3.913   9.797  2.0944 -1.3684 -0.4376
 3325SOL    HW212293   6.284   3.777   9.786 -1.1954  0.1224 -0.1149
 3326SOL     OW12294   4.914   0.526   1.205 -0.7407 -0.0425 -0.0350
 3326SOL    HW112295   4.988   0.538   1.264 -2.5565 -0.9054  2.6042
 3326SOL    HW212296   4.844   0.579   1.242 -1.6657  0.3162 -2.1242
 3327SOL     OW12297   7.601   6.737  10.279  0.2342 -0.7480  0.7832
 3327SOL    HW112298   7.550   6.688  10.343 -4.7180  2.4566 -0.1931
 3327SOL    HW212299   7.642   6.807  10.329  0.4286 -1.0425  1.0409
 3328SOL     OW12300   1.219   7.384   4.474  0.1962 -0.2336  0.3094
 3328SOL    HW112301   1.254   7.331   4.403  0.9953 -0.7111  1.0428
 3328SOL    HW212302   1.141   7.426   4.437  1.1871  0.3794 -1.1885
 3329SOL     OW12303   2.129   2.681   0.277 -0.1832  0.2776 -0.0276
 3329SOL    HW112304   2.062   2.710   0.215 -1.2311 -0.2168  0.8350
 3329SOL    HW212305   2.080   2.635   0.345  0.9593  0.6425  1.0780
 3330SOL     OW12306  10.477   7.524   1.784 -0.3140 -0.3924 -0.0547
 3330SOL    HW112307  10.528   7.511   1.704  0.6852  0.2577  0.4607
 3330SOL    HW212308  10.483   7.617   1.802 -0.6533 -0.5065  0.7130
 3331SOL     OW12309   7.446   6.632  10.496  0.3983  0.0129  0.0064
 3331SOL    HW112310   7.391   6.571  10.544  1.7783 -2.5184 -1.4125
 3331SOL    HW212311   7.494   6.680  10.564 -0.4842 -0.7031  1.1636
 3332SOL     OW12312   7.096  10.000   4.443  0.5084 -0.0198  0.9974
 3332SOL    HW112313   7.108  10.095   4.444 -2.5112  0.5296 -0.8033
 3332SOL    HW212314   7.005   9.987   4.470 -0.2488 -2.0622 -2.0404
 3333SOL     OW12315   6.707   3.978   3.973 -0.2857 -0.6320  0.0845
 3333SOL    HW112316   6.769   3.905   3.973  1.6139  0.8935 -0.2206
 3333SOL    HW212317   6.706   4.009   4.063  0.9732  0.5568 -0.2732
 3334SOL     OW12318   7.758   7.127   2.429  0.3580  0.5551  0.5612
 3334SOL    HW112319   7.686   7.147   2.488 -0.2807  0.3512 -0.1259
 3334SOL    HW212320   7.798   7.048   2.465 -0.1371  0.3285  0.6226
 3335SOL     OW12321   5.895   0.981   1.914  0.1992  0.3412  0.2083
 3335SOL    HW112322   5.857   0.893   1.909 -0.6340  0.7313 -0.4676
 3335SOL    HW212323   5.864   1.026   1.836  1.8733  0.7665 -0.2470
 3336SOL     OW12324   0.350   7.587   1.038 -0.0532  0.3507 -0.4956
 3336SOL    HW112325   0.428   7.610   1.087 -0.2580  1.8804 -0.8314
 3336SOL    HW212326   0.286   7.561   1.105  0.6618 -0.7119 -0.2094
 3337SOL     OW12327   7.139   1.962   8.377  0.3605 -0.6253  0.3186
 3337SOL    HW112328   7.134   1.866   8.379  0.3995 -0.6245  0.4527
 3337SOL    HW212329   7.055   1.991   8.411 -0.2002 -0.6082 -1.0221
 3338SOL     OW12330   2.065   0.082  10.086 -0.3323 -0.3140 -0.9774
 3338SOL    HW112331   2.094   0.145  10.153  0.5857 -0.4233 -1.2589
 3338SOL    HW212332   2.004   0.025  10.133 -0.0856 -0.0834 -0.3543
 3339SOL     OW12333   9.235   4.441   1.045  0.6730  0.2310  0.3677
 3339SOL    HW112334   9.181   4.363   1.064  0.4875  0.0134 -0.9364
 3339SOL    HW212335   9.325   4.411   1.057  0.6807 -0.6334 -1.4506
 3340SOL     OW12336   2.926   7.462   9.553 -0.1733  0.3583  0.1008
 3340SOL    HW112337   2.966   7.466   9.466 -0.4582 -1.8134 -0.1987
 3340SOL    HW212338   2.999   7.474   9.614  0.6149 -1.3007 -0.4546
 3341SOL     OW12339   7.237   7.397   0.349  0.0332 -0.2648  0.7677
 3341SOL    HW112340   7.263   7.425   0.437  0.7281 -0.5002  0.6470
 3341SOL    HW212341   7.142   7.391   0.353  0.0123  0.3202  1.3250
 3342SOL     OW12342   4.042  10.227   5.504  0.0184 -0.4372 -0.0234
 3342SOL    HW112343   3.954  10.226   5.468 -0.0534 -2.3427  0.1117
 3342SOL    HW212344   4.085  10.301   5.460 -2.3512  2.3156  1.8546
 3343SOL     OW12345   9.588   9.616   3.752  0.1524 -0.1855 -0.4229
 3343SOL    HW112346   9.646   9.646   3.681  0.2167 -0.4036 -0.4630
 3343SOL    HW212347   9.646   9.611   3.828 -0.3545  2.2205  0.2178
 3344SOL     OW12348   0.922   5.755   9.968 -0.0425  0.3759  0.3237
 3344SOL    HW112349   0.996   5.768   9.909 -1.4002  1.8253 -1.1781
 3344SOL    HW212350   0.883   5.843   9.977  0.3321  0.3511  3.7868
 3345SOL     OW12351   8.340   7.703   2.956 -0.1242 -0.1761  0.0829
 3345SOL    HW112352   8.403   7.744   3.016  1.1383 -0.1023 -1.2528
 3345SOL    HW212353   8.309   7.776   2.901 -2.4159  0.0539  1.5384
 3346SOL     OW12354   1.176   8.051   0.076  0.4855  0.3375  0.1851
 3346SOL    HW112355   1.118   8.038   0.151  2.8959 -0.0384  2.1154
 3346SOL    HW212356   1.211   8.139   0.088  1.5738 -0.0638  0.0178
 3347SOL     OW12357   1.991   8.164   9.206  0.0238  0.2951  0.0857
 3347SOL    HW112358   2.040   8.092   9.245 -0.9798  0.4934  1.7930
 3347SOL    HW212359   1.922   8.121   9.156  0.6038  0.0673 -0.5488
 3348SOL     OW12360   6.661   8.462   8.426 -0.1017 -0.0183  0.6689
 3348SOL    HW112361   6.641   8.509   8.345 -0.3620  0.2049  0.8621
 3348SOL    HW212362   6.662   8.370   8.400  0.2531  0.0776  0.3206
 3349SOL     OW12363   1.104   2.901   3.636  0.3523  0.0336  0.3720
 3349SOL    HW112364   1.146   2.854   3.709  2.6333  0.3601 -0.6407
 3349SOL    HW212365   1.119   2.845   3.560 -0.6709  0.4041 -0.1150
 3350SOL     OW12366   8.587  10.213   6.079 -0.5601  0.0876  0.4440
 3350SOL    HW112367   8.677  10.235   6.058 -0.2075 -2.1155 -0.5773
 3350SOL    HW212368   8.592  10.170   6.164 -1.2749  3.7264  2.5464
 3351SOL     OW12369   5.787   8.359   7.284 -0.1762 -0.0837 -0.1635
 3351SOL    HW112370   5.770   8.268   7.262 -0.0123 -0.4509  1.1777
 3351SOL    HW212371   5.738   8.374   7.365 -1.2418  1.3922 -1.0133
 3352SOL     OW12372   4.383   0.175   6.887  0.2189 -0.1192  0.2070
 3352SOL    HW112373   4.476   0.177   6.864 -0.0627 -1.5223 -1.2168
 3352SOL    HW212374   4.345   0.246   6.835 -0.4169 -3.2794 -4.2125
 3353SOL     OW12375   1.311   2.360   0.252  0.0849 -0.2767 -0.0679
 3353SOL    HW112376   1.296   2.432   0.314 -2.4764  1.5146 -2.4867
 3353SOL    HW212377   1.236   2.301   0.266  0.0577 -0.4067 -0.7484
 3354SOL     OW12378   1.593  10.548   0.257  0.3035 -0.2835 -0.0501
 3354SOL    HW112379   1.666  10.487   0.268  1.3747  0.8200 -0.7049
 3354SOL    HW212380   1.562  10.565   0.346  2.4790  1.0946  0.5192
 3355SOL     OW12381   3.975   6.248   1.906 -0.0671 -0.0150  0.4712
 3355SOL    HW112382   3.960   6.206   1.821  0.8993 -0.7707  0.6534
 3355SOL    HW212383   3.992   6.339   1.885 -0.4700 -0.0674 -0.0948
 3356SOL     OW12384   8.599   1.836   4.871 -0.4912  0.1551  0.6040
 3356SOL    HW112385   8.576   1.777   4.799 -0.7137 -1.4295  1.9243
 3356SOL    HW212386   8.634   1.914   4.828 -1.4872 -0.3670 -1.2393
 3357SOL     OW12387   2.602   5.821   6.841 -0.0414  0.3755  0.3403
 3357SOL    HW112388   2.667   5.766   6.885  0.3069  1.3675  1.1165
 3357SOL    HW212389   2.521   5.807   6.891 -0.8788 -2.0227 -1.5390
 3358SOL     OW12390  10.125   1.778   7.576  0.3160 -0.2398  0.4916
 3358SOL    HW112391  10.114   1.766   7.482 -1.7643 -0.1672  0.6815
 3358SOL    HW212392  10.220   1.784   7.588  0.5952  1.6178 -1.8312
 3359SOL     OW12393   2.552   0.590   0.247 -0.5059  0.1833 -0.1531
 3359SOL    HW112394   2.511   0.659   0.299 -3.3332 -1.3573 -0.1536
 3359SOL    HW212395   2.613   0.547   0.308 -0.3256  1.2834  0.4678
 3360SOL     OW12396   3.744   9.457   4.165  0.1641 -0.0696 -0.4968
 3360SOL    HW112397   3.722   9.365   4.158 -0.3981  0.1731 -2.6333
 3360SOL    HW212398   3.811   9.461   4.234 -0.1577 -1.9826 -0.0364
 3361SOL     OW12399   7.570   1.083   5.512  0.0960  0.3699  0.5541
 3361SOL    HW112400   7.581   1.110   5.421  4.7973 -1.9727  0.1000
 3361SOL    HW212401   7.570   0.987   5.508 -1.1037  0.1932  2.9940
 3362SOL     OW12402   6.849   6.829   5.780  0.1471 -0.0045 -0.0576
 3362SOL    HW112403   6.788   6.877   5.837  0.6563  0.8333 -0.1985
 3362SOL    HW212404   6.793   6.788   5.714 -0.7459 -3.0240  2.3389
 3363SOL     OW12405   9.874   7.653   3.538  0.4500  0.5248  0.4644
 3363SOL    HW112406   9.953   7.687   3.496 -1.4432  3.4439 -1.0427
 3363SOL    HW212407   9.852   7.575   3.487  0.7160  1.4429 -1.1298
 3364SOL     OW12408   7.455  10.552   2.405 -0.2588 -0.3134 -0.4057
 3364SOL    HW112409   7.541  10.511   2.418 -0.5650 -0.8334  0.0653
 3364SOL    HW212410   7.471  10.625   2.346  0.5082 -0.4088 -0.3225
 3365SOL     OW12411   9.303   6.303  10.015  0.8877 -0.4180  0.7377
 3365SOL    HW112412   9.236   6.259  10.067  0.6512 -2.3065 -1.0470
 3365SOL    HW212413   9.386   6.270  10.051  0.8237  0.2370  1.5178
 3366SOL     OW12414   1.850   9.779   3.474 -0.5704  0.0854 -0.4288
 3366SOL    HW112415   1.874   9.713   3.408 -1.0288  0.3928 -0.9140
 3366SOL    HW212416   1.755   9.788   3.465 -0.9464 -1.1981  1.5289
 3367SOL     OW12417   1.310  10.325   3.663  0.5127  0.5290  0.4053
 3367SOL    HW112418   1.242  10.344   3.728  0.0273  1.6337 -0.3875
 3367SOL    HW212419   1.387  10.371   3.695 -0.4900  3.6449 -1.1856
 3368SOL     OW12420   6.490  10.539   6.983 -0.2412  0.1147  0.5376
 3368SOL    HW112421   6.526  10.456   6.951  0.2240 -0.0886  1.5662
 3368SOL    HW212422   6.411  10.514   7.030 -0.2253  0.2734  0.6499
 3369SOL     OW12423   9.237   6.136   1.235 -0.2472 -0.0842 -0.0583
 3369SOL    HW112424   9.248   6.043   1.252 -0.8361 -0.1287  0.0908
 3369SOL    HW212425   9.143   6.147   1.220 -0.1382  0.4318 -0.3986
 3370SOL     OW12426   3.285   3.031   9.820 -0.1911  0.4475  0.4475
 3370SOL    HW112427   3.250   3.105   9.869  1.2912  1.5426 -0.0616
 3370SOL    HW212428   3.356   3.068   9.768 -0.7064 -0.9604 -1.3660
 3371SOL     OW12429   2.821   3.897  10.119 -0.2436  0.3095  0.0986
 3371SOL    HW112430   2.795   3.828  10.179 -1.6711  0.6653 -0.0630
 3371SOL    HW212431   2.743   3.953  10.112  0.9996  2.1990  0.5776
 3372SOL     OW12432   0.294   1.805   5.096  0.6118  0.3185 -0.4272
 3372SOL    HW112433   0.282   1.711   5.111  0.4411  0.2738 -0.8379
 3372SOL    HW212434   0.354   1.833   5.165  0.7893 -0.1251 -0.4002
 3373SOL     OW12435   0.651   6.362   8.602 -0.1271 -0.2139 -0.0584
 3373SOL    HW112436   0.645   6.457   8.597  0.4231 -0.1108  0.9654
 3373SOL    HW212437   0.743   6.342   8.586  0.4432 -0.2987  2.8297
 3374SOL     OW12438   3.023   9.995   5.429 -0.3447  0.2031 -0.3852
 3374SOL    HW112439   3.084   9.922   5.415  0.8692  1.3363 -1.1751
 3374SOL    HW212440   2.979  10.006   5.345 -0.5386  0.4022 -0.2595
 3375SOL     OW12441  10.362   6.553   5.385  0.0698  0.0427 -0.1605
 3375SOL    HW112442  10.408   6.620   5.334 -2.1843  1.2772 -0.7094
 3375SOL    HW212443  10.342   6.484   5.322 -1.3271  0.8478 -0.6423
 3376SOL     OW12444   6.278   0.443   6.030 -0.3060 -0.2328  0.4897
 3376SOL    HW112445   6.191   0.464   5.994 -0.3553 -0.2625  0.5908
 3376SOL    HW212446   6.270   0.353   6.060 -0.4730  0.0130  1.2066
 3377SOL     OW12447   1.412   1.535   9.148  0.8698 -0.1215 -0.0730
 3377SOL    HW112448   1.426   1.497   9.234  1.5440 -1.0254 -0.5728
 3377SOL    HW212449   1.318   1.552   9.145  1.0235  1.2370  1.3570
 3378SOL     OW12450   3.604   2.687  10.562  0.7019  1.0862 -0.2620
 3378SOL    HW112451   3.521   2.670  10.516  1.3921 -0.8032 -0.9396
 3378SOL    HW212452   3.594   2.775  10.598 -1.3730  1.1356 -0.7977
 3379SOL     OW12453   2.788   5.155   1.811  0.0190  0.1875 -0.7087
 3379SOL    HW112454   2.777   5.112   1.896 -0.8698 -0.2776 -1.0431
 3379SOL    HW212455   2.698   5.173   1.782  0.2545 -0.5621 -1.9950
 3380SOL     OW12456   7.569   0.965   3.938 -0.4751 -0.1480 -0.3171
 3380SOL    HW112457   7.505   0.904   3.974 -1.4365  0.5854 -0.7348
 3380SOL    HW212458   7.648   0.951   3.991 -0.9949 -1.0224  0.2487
 3381SOL     OW12459   1.778   3.246   0.003 -0.0342 -0.0016  0.1089
 3381SOL    HW112460   1.687   3.222  -0.012 -0.2190  0.6707  0.1120
 3381SOL    HW212461   1.801   3.205   0.086 -0.8534  1.2125  0.9636
 3382SOL     OW12462   5.095   8.390   3.729 -0.1614  0.0700  0.0190
 3382SOL    HW112463   5.112   8.484   3.734 -0.8995  0.2732 -0.9741
 3382SOL    HW212464   5.180   8.351   3.712 -0.1884  0.7837 -1.9838
 3383SOL     OW12465  10.442   5.494   4.240  0.5231 -0.0739 -0.2146
 3383SOL    HW112466  10.499   5.474   4.314 -0.3592 -1.6927  0.0566
 3383SOL    HW212467  10.493   5.468   4.163  0.0773 -1.8076  0.0407
 3384SOL     OW12468   4.380   8.119   4.429  0.0111  0.2116 -0.5545
 3384SOL    HW112469   4.404   8.169   4.507  0.2761  0.3105 -0.6989
 3384SOL    HW212470   4.438   8.152   4.361  1.1150 -1.1809 -0.3574
 3385SOL     OW12471   0.598   0.373   1.930  0.3930 -0.2501  0.9583
 3385SOL    HW112472   0.527   0.328   1.884  0.7005 -1.2846  1.4663
 3385SOL    HW212473   0.617   0.317   2.005  1.7334  0.0179  0.8450
 3386SOL     OW12474   4.907   2.530   5.269  0.0125 -0.5394 -0.1028
 3386SOL    HW112475   4.866   2.617   5.271  0.3870 -0.3614  1.6734
 3386SOL    HW212476   4.979   2.539   5.207  0.0600  0.4332  0.0726
 3387SOL     OW12477   7.796   3.008   6.995 -0.9649  0.2577  0.4386
 3387SOL    HW112478   7.841   2.942   7.048  0.2842  1.3754  0.8079
 3387SOL    HW212479   7.726   2.959   6.952 -0.1143 -1.3107  0.7365
 3388SOL     OW12480   3.862   8.640   0.191  0.0063  0.7272  0.8733
 3388SOL    HW112481   3.931   8.633   0.125  0.3152  0.0357  1.2572
 3388SOL    HW212482   3.897   8.701   0.256  0.0169  0.8206  0.7799
 3389SOL     OW12483   8.386   9.490   7.675  0.1799 -0.5647  0.0417
 3389SOL    HW112484   8.456   9.555   7.675 -0.2458 -0.0677  1.1723
 3389SOL    HW212485   8.343   9.500   7.590  0.8023 -0.1254 -0.2235
 3390SOL     OW12486   3.205   0.473   2.889  0.3812  0.1482 -0.0950
 3390SOL    HW112487   3.280   0.519   2.927  0.1861  0.5714 -0.2172
 3390SOL    HW212488   3.178   0.527   2.815  0.2858 -0.2803 -0.3809
 3391SOL     OW12489   2.711   5.689   9.440 -0.6320  0.7288 -0.7629
 3391SOL    HW112490   2.726   5.594   9.445  0.6940  0.9708  0.5915
 3391SOL    HW212491   2.637   5.698   9.381  0.3569 -1.0455 -2.3958
 3392SOL     OW12492   3.573   3.725  10.026  0.4002 -0.5478  0.0534
 3392SOL    HW112493   3.519   3.680  10.091 -2.4312  0.3830 -1.5027
 3392SOL    HW212494   3.602   3.805  10.070 -2.2520  0.5404 -0.0047
 3393SOL     OW12495   1.705   4.176   1.903  0.2057 -0.1533 -0.3838
 3393SOL    HW112496   1.692   4.093   1.856  1.2242 -0.4565 -0.1476
 3393SOL    HW212497   1.775   4.158   1.966 -2.1373 -0.2109  2.4056
 3394SOL     OW12498   5.669   3.464   2.634 -0.5461  0.0392  0.1230
 3394SOL    HW112499   5.667   3.533   2.701  1.3685 -0.1245  0.4187
 3394SOL    HW212500   5.724   3.396   2.672 -0.1297 -0.4381 -1.2650
 3395SOL     OW12501   2.290   7.071   5.400  0.4280  0.2887  0.1157
 3395SOL    HW112502   2.214   7.070   5.459  0.7010 -1.2768  0.4796
 3395SOL    HW212503   2.261   7.125   5.326 -0.5203  0.8913  0.8895
 3396SOL     OW12504   3.238   2.297   0.095 -0.0945  0.3408  0.0203
 3396SOL    HW112505   3.197   2.376   0.060 -0.9429  0.0167  0.2469
 3396SOL    HW212506   3.249   2.240   0.020 -3.1328 -0.8904  0.3648
 3397SOL     OW12507   6.472   4.870  10.443 -0.4894 -0.0844  0.9901
 3397SOL    HW112508   6.448   4.914  10.524 -2.0381  0.1168  0.4530
 3397SOL    HW212509   6.468   4.939  10.376 -2.1673 -0.8100  0.2754
 3398SOL     OW12510   6.355   9.381   4.432  0.1280 -0.1793  0.3790
 3398SOL    HW112511   6.440   9.422   4.413  0.9627 -2.2887 -0.6782
 3398SOL    HW212512   6.372   9.326   4.509 -0.2267 -0.7408  0.0584
 3399SOL     OW12513   3.246   2.643   8.535 -0.0087 -0.1388 -0.5824
 3399SOL    HW112514   3.324   2.655   8.590  0.9047  0.1870 -1.8957
 3399SOL    HW212515   3.236   2.727   8.490  0.9467 -1.2096 -2.9851
 3400SOL     OW12516   0.237   6.772   0.750  0.2111 -0.0768  0.4162
 3400SOL    HW112517   0.151   6.813   0.738  0.5518  1.3057  2.2660
 3400SOL    HW212518   0.287   6.799   0.673 -1.0891 -1.2033 -0.8700
 3401SOL     OW12519   3.430   3.560   0.487 -0.4992  0.2522 -0.2470
 3401SOL    HW112520   3.363   3.501   0.520 -0.2021  0.9131  1.6611
 3401SOL    HW212521   3.508   3.540   0.539 -0.3901  2.2607  0.4816
 3402SOL     OW12522   9.233   3.066   3.983 -0.4629 -0.5387 -0.7392
 3402SOL    HW112523   9.146   3.088   4.017 -0.2060 -1.4121  0.5633
 3402SOL    HW212524   9.260   3.143   3.933 -0.8185  0.9131  1.1810
 3403SOL     OW12525   6.441  10.379   6.187  0.3159 -0.0406  0.1580
 3403SOL    HW112526   6.532  10.369   6.159 -0.1057  0.8745 -1.6748
 3403SOL    HW212527   6.401  10.294   6.169  0.0676  0.5028 -2.1638
 3404SOL     OW12528   7.561   7.699   7.821  0.1348  0.1609 -0.2936
 3404SOL    HW112529   7.624   7.676   7.890 -1.6189 -0.1664  1.2842
 3404SOL    HW212530   7.526   7.783   7.847 -0.6253 -0.0045 -0.7395
 3405SOL     OW12531  10.250   5.602   6.750 -0.0403 -0.3929 -0.7817
 3405SOL    HW112532  10.217   5.513   6.760  0.2346 -0.6657 -2.1148
 3405SOL    HW212533  10.249   5.638   6.839 -0.5191 -1.5864 -0.2799
 3406SOL     OW12534   2.188   0.792   8.920  0.2599  0.4952 -0.2564
 3406SOL    HW112535   2.230   0.838   8.847  1.1791  0.6224  0.3434
 3406SOL    HW212536   2.253   0.794   8.990 -1.0961  1.5485  1.0282
 3407SOL     OW12537   8.501   0.664   9.900 -0.3222  0.3471 -0.9312
 3407SOL    HW112538   8.471   0.754   9.910 -1.1384  0.1518 -1.5589
 3407SOL    HW212539   8.427   0.618   9.861  0.0827 -0.6003 -0.6122
 3408SOL     OW12540   6.973   9.468   6.449  1.1506  0.3567 -0.4763
 3408SOL    HW112541   6.944   9.458   6.358  0.7755  0.2566 -0.3488
 3408SOL    HW212542   7.065   9.439   6.448  1.5403  1.5604 -1.0606
 3409SOL     OW12543   2.974  10.220   9.600 -0.7378 -0.3219  0.2828
 3409SOL    HW112544   3.023  10.289   9.644 -0.3614 -0.6552  0.4031
 3409SOL    HW212545   2.960  10.253   9.511 -0.7202 -0.0191  0.3927
 3410SOL     OW12546   2.166   6.056   0.444  0.1211 -0.3712 -0.2219
 3410SOL    HW112547   2.205   5.969   0.439  1.5598  0.1498  1.1914
 3410SOL    HW212548   2.199   6.101   0.367 -0.7635 -1.1117 -1.0512
 3411SOL     OW12549  10.164   8.193   2.366 -0.5800  0.3193  0.2687
 3411SOL    HW112550  10.227   8.218   2.298 -0.3684 -0.7619  0.0468
 3411SOL    HW212551  10.217   8.155   2.435 -0.8995  0.4239  0.5748
 3412SOL     OW12552   0.868   1.542   5.267 -0.0214 -0.5524  0.1936
 3412SOL    HW112553   0.916   1.484   5.326  1.7735  0.8378  0.2034
 3412SOL    HW212554   0.866   1.626   5.312 -2.7472 -0.5691  0.2645
 3413SOL     OW12555   2.012  10.553   4.982 -0.1771  0.0397 -0.1962
 3413SOL    HW112556   1.982  10.633   5.026 -1.6941  0.8750 -2.5441
 3413SOL    HW212557   2.007  10.574   4.888 -0.6731 -2.8174 -0.9076
 3414SOL     OW12558   4.577   1.432   8.463  0.4052  0.0593  0.3212
 3414SOL    HW112559   4.563   1.409   8.371  1.1026 -0.9860  0.4695
 3414SOL    HW212560   4.670   1.419   8.477  0.5163  1.3024  0.9019
 3415SOL     OW12561   9.003   7.792   7.487 -0.0957 -0.9670 -0.4629
 3415SOL    HW112562   9.014   7.701   7.516 -0.8275 -1.1217 -0.6547
 3415SOL    HW212563   9.001   7.787   7.391  0.7301 -0.6402 -0.5051
 3416SOL     OW12564   7.640   5.584   9.932  0.1681 -0.3360 -0.2432
 3416SOL    HW112565   7.572   5.644   9.901 -0.2118 -0.2207  0.7965
 3416SOL    HW212566   7.593   5.502   9.949  0.7833 -1.1735 -2.2686
 3417SOL     OW12567   9.839   8.419   9.278 -0.6064 -0.0280  0.6066
 3417SOL    HW112568   9.796   8.341   9.243 -1.3163  0.5035  0.2702
 3417SOL    HW212569   9.926   8.388   9.305 -0.9443 -0.9710  0.6613
 3418SOL     OW12570   6.269   0.538   1.477  0.1513  0.2398 -0.1623
 3418SOL    HW112571   6.287   0.460   1.425 -0.5342  0.7658 -1.2121
 3418SOL    HW212572   6.331   0.603   1.446 -1.5394  1.1764 -1.8009
 3419SOL     OW12573   4.991   6.020   1.176  0.2049  0.5496  0.4882
 3419SOL    HW112574   5.070   5.967   1.182 -0.7610 -0.9249  0.9079
 3419SOL    HW212575   4.981   6.058   1.264  0.6842  1.1413  0.2977
 3420SOL     OW12576   8.413   0.371  10.466  0.2553 -0.2614 -0.4817
 3420SOL    HW112577   8.414   0.276  10.480  0.1023 -0.2222 -0.1870
 3420SOL    HW212578   8.421   0.381  10.371  0.3951 -0.5657 -0.5038
 3421SOL     OW12579   9.535   2.670   2.742  0.0872 -0.3067  0.0692
 3421SOL    HW112580   9.444   2.661   2.716  0.2573  1.2964 -1.2105
 3421SOL    HW212581   9.584   2.668   2.660  0.9572  1.3557  0.5058
 3422SOL     OW12582  10.484   9.138   1.174 -0.1201  0.2813 -0.0936
 3422SOL    HW112583  10.494   9.047   1.147  2.4249  0.8710 -1.4453
 3422SOL    HW212584  10.464   9.186   1.093  2.0673  1.3386 -0.0789
 3423SOL     OW12585   8.698   2.650  10.259 -0.2220 -0.0937  0.4354
 3423SOL    HW112586   8.664   2.725  10.210  1.1668  0.1253 -0.2392
 3423SOL    HW212587   8.766   2.614  10.203 -0.7533 -1.7758  0.8294
 3424SOL     OW12588   5.754   7.454   2.824  0.2296 -0.5919 -0.5729
 3424SOL    HW112589   5.775   7.521   2.760  0.8382 -0.9800 -0.7934
 3424SOL    HW212590   5.659   7.455   2.831  0.2294  0.2097 -0.6561
 3425SOL     OW12591   4.847   1.298   1.671  0.1388 -0.4567  0.2997
 3425SOL    HW112592   4.912   1.365   1.648 -0.4685 -0.2331 -0.8381
 3425SOL    HW212593   4.809   1.272   1.587 -2.9133  1.1192  1.0579
 3426SOL     OW12594   2.670   5.523   5.749  0.1382 -0.0432  0.6244
 3426SOL    HW112595   2.715   5.497   5.830 -0.3955  0.0262  0.9489
 3426SOL    HW212596   2.726   5.490   5.679  0.2456 -0.7469  1.0253
 3427SOL     OW12597   6.207   1.540   4.224 -0.1413 -0.0496 -0.4663
 3427SOL    HW112598   6.228   1.601   4.294  0.2837 -0.3091 -0.3608
 3427SOL    HW212599   6.288   1.488   4.212  0.4067  1.1287 -2.3209
 3428SOL     OW12600   4.455   2.666   9.567  0.4446 -0.1694 -0.1144
 3428SOL    HW112601   4.436   2.646   9.658 -4.0151  1.7744 -0.3881
 3428SOL    HW212602   4.487   2.757   9.569  1.2029 -0.4151 -0.4837
 3429SOL     OW12603   8.414   2.427   8.102  0.5556 -0.0567 -0.2112
 3429SOL    HW112604   8.336   2.481   8.088 -0.1468 -0.7672  0.8022
 3429SOL    HW212605   8.401   2.389   8.189  0.2944 -3.0527 -1.4516
 3430SOL     OW12606   3.205   5.093   4.449  0.0653 -0.3227  0.3563
 3430SOL    HW112607   3.148   5.160   4.487  0.8856  0.1565  0.7695
 3430SOL    HW212608   3.163   5.068   4.367 -1.3702 -0.8471  1.2141
 3431SOL     OW12609   2.047   5.257   2.418 -0.6478  0.3968 -0.3886
 3431SOL    HW112610   1.979   5.200   2.453 -0.9162 -0.0478 -1.5876
 3431SOL    HW212611   2.112   5.263   2.488 -0.8447 -1.0108 -0.0585
 3432SOL     OW12612   8.733   3.809   3.681  0.0313  0.0175 -0.5647
 3432SOL    HW112613   8.693   3.897   3.681  1.2595  0.6172  0.5902
 3432SOL    HW212614   8.793   3.811   3.755  1.8776 -1.0084 -1.9675
 3433SOL     OW12615  10.085   0.503   8.796  0.1326  0.3519  0.4052
 3433SOL    HW112616  10.151   0.469   8.736 -0.3170 -1.0024  0.6273
 3433SOL    HW212617  10.117   0.480   8.883  0.2168  1.2584  0.6174
 3434SOL     OW12618   9.450   1.294   3.106 -0.3430  0.6765 -1.0004
 3434SOL    HW112619   9.468   1.387   3.096 -0.0914  1.0014  1.6802
 3434SOL    HW212620   9.360   1.284   3.074 -0.7756  2.0915 -0.3399
 3435SOL     OW12621   5.464   1.714   0.527  0.3947 -0.1141  0.0941
 3435SOL    HW112622   5.531   1.779   0.507  0.4187  0.3073  1.4623
 3435SOL    HW212623   5.505   1.630   0.504  1.1694  0.1836  0.3579
 3436SOL     OW12624   8.611   4.462   3.506  0.0130  0.9321  0.7749
 3436SOL    HW112625   8.589   4.423   3.591 -0.2187  0.9801  0.7390
 3436SOL    HW212626   8.703   4.486   3.514  0.9489 -1.9426 -0.0627
 3437SOL     OW12627   4.973   6.505  10.057 -0.1245  0.1809  0.0616
 3437SOL    HW112628   4.965   6.501  10.152  1.0409 -1.3593  0.1464
 3437SOL    HW212629   4.895   6.460  10.025 -0.7573  1.1200  0.2574
 3438SOL     OW12630   2.621   6.750   1.393 -0.0008  0.0950  0.0166
 3438SOL    HW112631   2.607   6.773   1.301  0.2152 -0.8225 -0.2566
 3438SOL    HW212632   2.714   6.762   1.407 -0.0561  0.3693  0.1604
 3439SOL     OW12633   2.258   1.819  10.583 -0.0190 -0.7267  0.3182
 3439SOL    HW112634   2.292   1.793  10.498  0.9791 -0.4955  0.6285
 3439SOL    HW212635   2.303   1.901  10.603 -1.7353  0.2766  0.1831
 3440SOL     OW12636   3.521   6.877   3.496 -0.5588 -0.4051 -0.3908
 3440SOL    HW112637   3.433   6.842   3.507 -1.2067  0.8874 -1.2207
 3440SOL    HW212638   3.532   6.883   3.401 -0.3530  1.2604 -0.3001
 3441SOL     OW12639   5.022   2.691   2.920  0.5212  0.3711  0.2153
 3441SOL    HW112640   5.090   2.758   2.921 -0.1771  1.0888 -0.1225
 3441SOL    HW212641   5.048   2.629   2.989  0.5006  1.6469  1.4025
 3442SOL     OW12642  10.526   9.268  10.403  0.2067 -0.5820 -0.1346
 3442SOL    HW112643  10.452   9.306  10.356 -0.6178 -0.7507  0.9621
 3442SOL    HW212644  10.522   9.175  10.382  0.4517 -0.5031 -0.5265
 3443SOL     OW12645   8.424   5.029   4.058 -0.0671  0.3753 -0.1729
 3443SOL    HW112646   8.514   5.037   4.026  0.4847 -2.2428  0.4861
 3443SOL    HW212647   8.433   5.021   4.153 -0.8740 -1.0313 -0.1996
 3444SOL     OW12648   9.147   9.568   5.632  0.1486 -0.6245 -0.4989
 3444SOL    HW112649   9.086   9.642   5.639  2.7047  1.6602 -1.0011
 3444SOL    HW212650   9.090   9.491   5.637 -2.5636  1.2795  1.1971
 3445SOL     OW12651   6.872   3.057   0.608  0.4476  0.3785 -0.2421
 3445SOL    HW112652   6.947   3.039   0.665  0.8340 -1.8303 -1.3740
 3445SOL    HW212653   6.816   2.980   0.618 -0.7210  1.1177 -0.9378
 3446SOL     OW12654   9.062   4.777   0.951 -0.2673  0.2871 -0.1065
 3446SOL    HW112655   9.134   4.774   1.014  0.4906 -2.8738 -0.9653
 3446SOL    HW212656   9.104   4.793   0.867 -0.5289 -1.2865 -0.5742
 3447SOL     OW12657   0.417   7.054   2.076  0.1090 -0.1113 -0.3525
 3447SOL    HW112658   0.410   6.962   2.052  1.6707 -0.2067 -0.5386
 3447SOL    HW212659   0.392   7.102   1.997  0.5141 -0.3865 -0.6500
 3448SOL     OW12660  10.252   7.848   5.298  0.4738  0.0448  0.3303
 3448SOL    HW112661  10.274   7.941   5.292 -0.9949  0.3405 -1.3921
 3448SOL    HW212662  10.321   7.805   5.248  1.5993  0.0799  1.7831
 3449SOL     OW12663   4.236   3.082   7.225  0.4958  0.0942  0.5335
 3449SOL    HW112664   4.210   3.172   7.205  1.2325  0.7629  2.3585
 3449SOL    HW212665   4.243   3.080   7.321  2.3543 -1.3823  0.4207
 3450SOL     OW12666   9.996   1.081   1.185  0.1667 -0.4438  0.1311
 3450SOL    HW112667   9.973   1.106   1.274  1.2502  1.9996 -0.1915
 3450SOL    HW212668   9.920   1.104   1.132  0.6323  0.9396  0.0386
 3451SOL     OW12669   6.723   8.048   4.526  0.2760  0.1321 -0.9538
 3451SOL    HW112670   6.742   8.141   4.535  2.1999 -0.3142  0.4481
 3451SOL    HW212671   6.704   8.036   4.433 -1.6766  2.1506 -0.8919
 3452SOL     OW12672   9.869   5.770   8.914 -0.2063 -0.0068 -0.4611
 3452SOL    HW112673   9.802   5.816   8.863 -1.0118 -1.4015 -0.7194
 3452SOL    HW212674   9.826   5.691   8.945  0.8955 -0.2139  0.6602
 3453SOL     OW12675   2.744   5.317   2.457 -0.2951  0.3453 -0.2554
 3453SOL    HW112676   2.655   5.335   2.487  0.0488  1.1486  0.3594
 3453SOL    HW212677   2.780   5.257   2.523 -0.3824  0.0176 -0.5056
 3454SOL     OW12678   2.841   2.181   3.260 -0.0014  0.5145 -0.1062
 3454SOL    HW112679   2.777   2.224   3.204  0.0615  2.4645  1.1958
 3454SOL    HW212680   2.810   2.091   3.268 -0.7848  0.5713 -2.0538
 3455SOL     OW12681   0.092  10.382   5.047  0.5989 -0.1262  0.2697
 3455SOL    HW112682   0.178  10.423   5.059  0.9135 -0.4536 -0.7954
 3455SOL    HW212683   0.091  10.355   4.955 -0.4430 -0.5924  0.4099
 3456SOL     OW12684   7.940   1.953  10.328  0.1009  0.1814  0.3551
 3456SOL    HW112685   7.925   2.043  10.298  2.7312  0.4961 -0.3399
 3456SOL    HW212686   7.954   1.903  10.248  1.7494 -0.1423  0.8038
 3457SOL     OW12687   5.435   7.812   2.456 -0.0691 -0.5614 -0.1053
 3457SOL    HW112688   5.344   7.838   2.472 -0.0179 -0.2524 -0.3115
 3457SOL    HW212689   5.478   7.892   2.427  0.2447 -0.7324 -0.1133
 3458SOL     OW12690   0.539   8.127   5.593 -0.1523  0.1084  0.4849
 3458SOL    HW112691   0.469   8.077   5.550  1.0768 -1.0218 -0.2761
 3458SOL    HW212692   0.535   8.101   5.685  1.1275 -2.2604 -0.0723
 3459SOL     OW12693   1.896   7.703   6.632  0.8020 -0.3222  0.4627
 3459SOL    HW112694   1.895   7.776   6.570  2.2695  0.5704  1.4194
 3459SOL    HW212695   1.865   7.741   6.714 -0.2310 -1.2622  0.5318
 3460SOL     OW12696   3.887   4.137   8.511 -0.2467 -0.0912 -0.2672
 3460SOL    HW112697   3.821   4.107   8.449 -0.6714 -0.3391  0.2920
 3460SOL    HW212698   3.947   4.063   8.519 -0.1324 -0.0201 -0.4589
 3461SOL     OW12699   5.420   9.036   2.814  0.0025  0.6550  0.0210
 3461SOL    HW112700   5.456   8.986   2.887  0.3578 -0.2318 -0.7296
 3461SOL    HW212701   5.491   9.095   2.788  0.0445  0.6350  0.0917
 3462SOL     OW12702   4.585   1.926  10.401 -0.0040 -0.0286 -0.1059
 3462SOL    HW112703   4.668   1.971  10.418 -0.7660  1.7205 -0.8377
 3462SOL    HW212704   4.607   1.864  10.331  0.1266  2.5646 -2.5552
 3463SOL     OW12705   3.780   4.631   9.173  0.3444 -0.4817  0.2736
 3463SOL    HW112706   3.731   4.681   9.108  2.2126 -0.5592 -1.2807
 3463SOL    HW212707   3.714   4.576   9.216 -0.9754 -0.4095 -1.5409
 3464SOL     OW12708   8.716   9.122   7.043  0.5291 -0.1458  0.3573
 3464SOL    HW112709   8.756   9.084   6.964  0.4013  0.3704  0.0427
 3464SOL    HW212710   8.759   9.207   7.052 -0.8876  0.6701 -0.3080
 3465SOL     OW12711   4.621  10.033   1.883  0.4165  0.0568 -0.0102
 3465SOL    HW112712   4.665  10.078   1.811  2.3639  0.0348  1.0853
 3465SOL    HW212713   4.585  10.104   1.937 -1.7834  0.0547 -1.3662
 3466SOL     OW12714   3.531   8.032   7.283  0.1627  0.3320 -0.1542
 3466SOL    HW112715   3.571   8.036   7.196  0.0288  0.7675 -0.1966
 3466SOL    HW212716   3.438   8.020   7.267  0.3560 -1.7010 -0.0486
 3467SOL     OW12717   8.825   9.384   5.207 -0.5606  0.2596  0.5107
 3467SOL    HW112718   8.868   9.299   5.215  0.3054 -0.0179 -4.0483
 3467SOL    HW212719   8.732   9.364   5.204 -0.5666 -0.1230  2.2382
 3468SOL     OW12720   5.377   7.985   5.602 -0.0198 -0.3483 -0.5199
 3468SOL    HW112721   5.463   8.001   5.561  0.8782 -0.0086  1.3709
 3468SOL    HW212722   5.380   7.893   5.629 -0.0185 -0.1972  0.0156
 3469SOL     OW12723   2.756   0.007   5.536 -0.4922 -0.4802  0.7323
 3469SOL    HW112724   2.681  -0.046   5.511 -1.7371  1.3257  0.4411
 3469SOL    HW212725   2.730   0.097   5.515  2.2653  0.1159 -0.7267
 3470SOL     OW12726   9.946   9.304   7.793 -0.2085 -0.9830  0.4464
 3470SOL    HW112727   9.974   9.225   7.747 -2.6036 -1.4798 -0.2980
 3470SOL    HW212728  10.024   9.359   7.795  0.9338 -2.4365 -1.0352
 3471SOL     OW12729   3.478   9.044  10.131 -0.0604 -0.5571 -0.2579
 3471SOL    HW112730   3.465   9.107  10.202  0.1833 -1.9457  1.0856
 3471SOL    HW212731   3.395   8.997  10.125 -0.3988  0.1504 -1.5625
 3472SOL     OW12732   8.753   6.870   6.098  0.3198 -0.2324 -1.4361
 3472SOL    HW112733   8.725   6.884   6.007 -2.5788  2.7429 -0.2997
 3472SOL    HW212734   8.806   6.946   6.119 -1.0518  0.3697  0.0104
 3473SOL     OW12735   3.475   2.822   3.062 -0.3459 -0.7302 -0.2320
 3473SOL    HW112736   3.560   2.858   3.038  0.1801 -0.7260  1.5351
 3473SOL    HW212737   3.414   2.894   3.046  0.2195 -0.1797  0.0457
 3474SOL     OW12738   7.045   1.895   1.278  0.3959 -0.6351  0.4366
 3474SOL    HW112739   6.961   1.926   1.310 -0.0804 -1.6636  0.2144
 3474SOL    HW212740   7.086   1.853   1.354  0.0537 -1.4455  0.1914
 3475SOL     OW12741   5.850   3.348   4.510  0.4546  0.2879  0.5317
 3475SOL    HW112742   5.934   3.320   4.546  0.1732  0.3364  1.2458
 3475SOL    HW212743   5.798   3.268   4.505  0.4240  0.3140  0.4253
 3476SOL     OW12744   9.796   3.374   5.085  0.4520  0.0227  0.2518
 3476SOL    HW112745   9.710   3.333   5.076  0.8254 -0.7458  0.1300
 3476SOL    HW212746   9.855   3.302   5.104  0.7442  0.7756  2.5790
 3477SOL     OW12747  10.294   4.274   9.418  0.2305 -0.3570 -0.2670
 3477SOL    HW112748  10.200   4.283   9.405  0.5836  1.0445 -2.4492
 3477SOL    HW212749  10.312   4.325   9.497 -0.7926 -0.4179  0.0252
 3478SOL     OW12750   4.684   9.833   9.084  0.2300 -0.4290  0.4351
 3478SOL    HW112751   4.733   9.780   9.147  2.2753  0.1063 -0.6143
 3478SOL    HW212752   4.656   9.910   9.134  0.0390 -0.9566  1.1626
 3479SOL     OW12753   4.418   3.589   7.899 -0.2547 -0.1254 -0.3891
 3479SOL    HW112754   4.456   3.569   7.814 -2.6973 -1.8799 -1.1921
 3479SOL    HW212755   4.413   3.685   7.901 -0.6379 -0.0473 -2.5008
 3480SOL     OW12756   7.379   8.691   6.400 -0.6102  0.0779  0.5510
 3480SOL    HW112757   7.411   8.760   6.457  1.2768 -0.6046  0.3843
 3480SOL    HW212758   7.439   8.618   6.414 -2.5491 -1.5829  0.7533
 3481SOL     OW12759   5.286   4.400   2.375 -0.0831 -0.7501  0.1869
 3481SOL    HW112760   5.216   4.463   2.391  1.4369  1.0619 -0.0085
 3481SOL    HW212761   5.240   4.317   2.360 -2.1483  0.2639  0.5176
 3482SOL     OW12762   1.053   0.888  10.119  0.3658 -0.5267 -0.5642
 3482SOL    HW112763   1.048   0.922  10.209 -0.7291 -0.1915 -0.7434
 3482SOL    HW212764   0.972   0.839  10.107  0.5556 -0.6657 -1.3365
 3483SOL     OW12765   6.759   5.406   8.949  0.4110  0.3536  0.4546
 3483SOL    HW112766   6.851   5.397   8.974  0.6761  0.5161 -0.4310
 3483SOL    HW212767   6.716   5.436   9.028  0.7299 -1.7686  1.5090
 3484SOL     OW12768   3.790   9.858   9.395 -0.0229  0.4051 -0.0134
 3484SOL    HW112769   3.704   9.886   9.364  1.1619  0.8423 -3.2202
 3484SOL    HW212770   3.851   9.922   9.357  1.9361 -1.3531  0.0324
 3485SOL     OW12771  10.255   4.858   1.749  0.0912  0.1824  0.0708
 3485SOL    HW112772  10.335   4.856   1.802  1.0466 -0.2726 -1.3385
 3485SOL    HW212773  10.186   4.826   1.808  1.0127  0.2005  1.1825
 3486SOL     OW12774   6.957   2.181   8.481 -0.4459  0.1392  0.0711
 3486SOL    HW112775   6.873   2.178   8.527 -1.2950  1.2344 -1.3046
 3486SOL    HW212776   6.935   2.163   8.390  0.7524  0.8172 -0.3772
 3487SOL     OW12777   0.385   5.510   4.356 -0.2136  0.5611  0.4333
 3487SOL    HW112778   0.441   5.574   4.401 -0.5200  1.0085  0.1827
 3487SOL    HW212779   0.359   5.448   4.425  1.3525 -0.2111  0.3854
 3488SOL     OW12780   9.962   4.521   9.145 -0.3671 -0.2705  0.0132
 3488SOL    HW112781   9.939   4.464   9.072  1.1483 -1.4593  0.4161
 3488SOL    HW212782   9.929   4.607   9.119 -1.0614 -0.9370 -1.4458
 3489SOL     OW12783   5.231   6.238   9.121  0.2464 -0.0989 -0.1149
 3489SOL    HW112784   5.176   6.241   9.043 -0.8526 -1.0686  0.5821
 3489SOL    HW212785   5.267   6.150   9.122  0.7249  0.0961  0.1658
 3490SOL     OW12786   1.922   9.968  10.087  0.2097  0.0537  0.2336
 3490SOL    HW112787   2.016   9.988  10.088  0.3136 -0.4586  0.5823
 3490SOL    HW212788   1.895   9.976  10.179  0.0477 -0.4405  0.2298
 3491SOL     OW12789   2.930   2.094   5.900  0.0818  0.3203  0.1537
 3491SOL    HW112790   2.962   2.017   5.946  0.4789  0.5953  0.3494
 3491SOL    HW212791   2.860   2.128   5.956 -1.3534 -0.9166 -0.8233
 3492SOL     OW12792   0.355   7.320   6.691  0.1469  0.4566 -0.1588
 3492SOL    HW112793   0.263   7.338   6.672 -0.0615 -0.8558 -0.4591
 3492SOL    HW212794   0.376   7.378   6.765 -0.9312  0.7250 -0.0481
 3493SOL     OW12795   0.084   4.647   9.065  0.0268  1.0078  0.1821
 3493SOL    HW112796   0.071   4.724   9.010 -1.7035  0.4909 -0.2152
 3493SOL    HW212797   0.179   4.635   9.069  0.2525  1.9528 -1.4468
 3494SOL     OW12798   2.497   4.196  10.586 -0.0546  0.0104  0.2601
 3494SOL    HW112799   2.512   4.250  10.664 -0.4175  0.1246  0.2541
 3494SOL    HW212800   2.429   4.243  10.538  1.5750  1.0332 -1.1625
 3495SOL     OW12801   3.643   0.646   8.121 -0.2346 -0.4215 -0.3421
 3495SOL    HW112802   3.721   0.602   8.156  0.6610  0.5972 -0.9894
 3495SOL    HW212803   3.591   0.575   8.082 -1.0401 -1.5311  2.5315
 3496SOL     OW12804   1.007   2.967   6.055 -0.4340 -0.3064 -0.4434
 3496SOL    HW112805   1.028   2.992   6.145 -1.6166 -1.7021  0.2642
 3496SOL    HW212806   1.077   2.905   6.031 -1.4954 -1.9675  0.5164
 3497SOL     OW12807   2.169   5.818   4.343 -0.1114 -0.6214 -0.2639
 3497SOL    HW112808   2.181   5.793   4.435  0.9240 -3.8778 -1.1420
 3497SOL    HW212809   2.105   5.756   4.310 -0.2052  0.2777 -1.8318
 3498SOL     OW12810   3.583   9.328   7.463 -0.8161 -0.1137  0.6436
 3498SOL    HW112811   3.495   9.308   7.494 -2.2699 -0.2952 -3.0678
 3498SOL    HW212812   3.606   9.254   7.406  1.9647 -0.2406  1.7565
 3499SOL     OW12813   4.408   0.935   0.309 -0.7306 -0.2790 -0.2607
 3499SOL    HW112814   4.424   0.911   0.400 -0.0487 -2.6413 -0.9310
 3499SOL    HW212815   4.376   0.854   0.268 -1.7263  0.9031 -1.9783
 3500SOL     OW12816   2.562   1.645   0.134  0.3943  0.7214 -0.3338
 3500SOL    HW112817   2.587   1.633   0.043  1.5964 -0.2324  0.0949
 3500SOL    HW212818   2.481   1.594   0.144 -0.1191  1.3847 -1.0100
 3501SOL     OW12819  10.366   1.097   7.040 -0.1296 -0.1639  0.1579
 3501SOL    HW112820  10.426   1.117   7.112 -0.2819 -0.4390  0.3605
 3501SOL    HW212821  10.279   1.119   7.074 -0.2974 -1.1329  0.3695
 3502SOL     OW12822   4.550   8.638   0.221 -0.0248  0.2827 -0.4141
 3502SOL    HW112823   4.487   8.709   0.228  1.8874  2.0380  0.0407
 3502SOL    HW212824   4.532   8.599   0.135 -1.1264  1.3130 -0.6863
 3503SOL     OW12825   5.256   4.779   6.518 -0.1209 -0.4377  0.1338
 3503SOL    HW112826   5.297   4.797   6.433  1.3895  1.6105  1.2227
 3503SOL    HW212827   5.163   4.795   6.503 -0.6205 -4.1042 -2.1090
 3504SOL     OW12828   4.853   1.265   7.071 -0.2327 -0.0279  0.0407
 3504SOL    HW112829   4.895   1.189   7.030 -0.4655 -0.8692  1.2825
 3504SOL    HW212830   4.914   1.290   7.142 -1.3025 -0.6276  1.2122
 3505SOL     OW12831   2.756   1.775   8.893  0.3019  0.4687  0.1554
 3505SOL    HW112832   2.680   1.724   8.923  0.7200  0.0814  0.5746
 3505SOL    HW212833   2.725   1.820   8.815 -0.5528  0.8145  0.6735
 3506SOL     OW12834  10.065   7.378   6.132 -0.1215  0.2370  0.3801
 3506SOL    HW112835  10.138   7.344   6.185  0.3495  1.4140  0.5132
 3506SOL    HW212836  10.083   7.471   6.123  0.1293 -0.0000 -2.3704
 3507SOL     OW12837   1.425   8.069   2.710  0.2097 -1.1917 -1.0179
 3507SOL    HW112838   1.445   7.979   2.735  0.3668 -1.4207 -1.9127
 3507SOL    HW212839   1.445   8.121   2.787  0.9187 -1.8305 -0.7654
 3508SOL     OW12840   1.776   6.118   4.593 -0.2238 -0.0794 -0.5495
 3508SOL    HW112841   1.752   6.187   4.531 -2.8801 -0.4054 -0.0193
 3508SOL    HW212842   1.738   6.039   4.555 -0.8691 -0.4807  0.8745
 3509SOL     OW12843   5.782   2.899   8.787  0.4750  0.0920 -0.3317
 3509SOL    HW112844   5.743   2.985   8.768  0.9651  0.6860  1.1801
 3509SOL    HW212845   5.731   2.838   8.734 -0.5122  1.2003 -0.7222
 3510SOL     OW12846   3.532   6.940   1.383 -0.7924 -0.0972  0.1473
 3510SOL    HW112847   3.577   6.855   1.381 -1.1383 -0.2756 -0.5418
 3510SOL    HW212848   3.508   6.956   1.291  0.1922  1.2536  0.0959
 3511SOL     OW12849   3.226   1.311   6.284 -0.6780 -0.4617 -0.1555
 3511SOL    HW112850   3.206   1.302   6.190  0.9545 -0.3589 -0.5486
 3511SOL    HW212851   3.190   1.233   6.324 -0.4691 -1.0327 -1.0491
 3512SOL     OW12852   4.041  10.377   7.896  0.4653  0.2546 -0.3769
 3512SOL    HW112853   4.111  10.423   7.942 -0.0646 -0.0549  0.7722
 3512SOL    HW212854   4.075  10.288   7.883 -0.2194 -0.3387  1.4972
 3513SOL     OW12855   2.448   4.205   8.441 -0.3076 -0.1481  0.3181
 3513SOL    HW112856   2.516   4.245   8.495 -1.5909  0.6211  1.4399
 3513SOL    HW212857   2.401   4.279   8.402 -0.2622 -0.6729 -0.7728
 3514SOL     OW12858   2.372   7.461   8.583 -0.2610  0.1989 -0.0892
 3514SOL    HW112859   2.328   7.401   8.644 -2.8744  2.1422  0.1118
 3514SOL    HW212860   2.330   7.444   8.499 -1.9930  2.5519  0.2344
 3515SOL     OW12861   1.558   8.923   5.600 -0.8113 -0.2954  0.0174
 3515SOL    HW112862   1.613   8.844   5.596 -0.0093  0.1640  1.4062
 3515SOL    HW212863   1.562   8.950   5.692 -2.1705  0.6094 -0.1680
 3516SOL     OW12864   9.264   7.282   0.631  0.4999  0.3426  0.6222
 3516SOL    HW112865   9.236   7.212   0.572 -1.4482  0.9198  0.7887
 3516SOL    HW212866   9.206   7.274   0.707  1.3121  1.1521  1.3553
 3517SOL     OW12867  10.164   9.634   0.131  0.2149 -0.0288 -0.5395
 3517SOL    HW112868  10.242   9.624   0.186  1.8160  0.7550 -2.5379
 3517SOL    HW212869  10.179   9.577   0.056 -0.3962  1.2694 -1.6991
 3518SOL     OW12870   2.418   5.850   8.154  0.3529 -0.0959 -0.4123
 3518SOL    HW112871   2.492   5.848   8.215 -0.9291 -1.5449  1.1983
 3518SOL    HW212872   2.421   5.764   8.111  0.6033  0.5066 -1.6569
 3519SOL     OW12873   3.167   5.181   7.328 -0.0461  0.1567  0.1305
 3519SOL    HW112874   3.168   5.091   7.296  2.0679 -0.6194  2.0747
 3519SOL    HW212875   3.080   5.215   7.304 -1.0893 -2.5561 -0.2338
 3520SOL     OW12876   3.617   1.033   9.614  0.3642  0.3206  0.1981
 3520SOL    HW112877   3.667   0.976   9.672 -0.0046 -0.2527 -0.0300
 3520SOL    HW212878   3.554   1.076   9.671 -0.8173 -1.1571  0.0923
 3521SOL     OW12879   6.321  10.123   6.188  0.2855  0.3505 -0.5519
 3521SOL    HW112880   6.233  10.128   6.226  0.1991 -0.0311 -0.6996
 3521SOL    HW212881   6.336  10.030   6.173  0.9996  0.3507  0.1130
 3522SOL     OW12882   7.088   3.969   5.152  0.0324 -0.6578  0.1477
 3522SOL    HW112883   7.121   3.890   5.109  1.3959  0.8462 -1.7558
 3522SOL    HW212884   7.145   3.980   5.228  0.1368 -1.2579  0.1631
 3523SOL     OW12885   5.184  10.406   0.956  0.0772  0.3634  0.3999
 3523SOL    HW112886   5.118  10.338   0.959 -0.6044  0.9671 -0.4405
 3523SOL    HW212887   5.267  10.360   0.966 -0.0733 -1.0718 -3.5113
 3524SOL     OW12888   0.989   2.245   7.982 -0.2558  0.4555  0.4144
 3524SOL    HW112889   0.968   2.163   7.938 -0.6155  0.0887  1.2654
 3524SOL    HW212890   0.909   2.297   7.976 -0.1073  0.6525  0.0980
 3525SOL     OW12891   4.095   7.584   4.031  0.0331  0.0744 -0.2007
 3525SOL    HW112892   4.103   7.508   3.973  1.1632 -0.3462  0.4812
 3525SOL    HW212893   4.126   7.658   3.979 -1.6759  0.2283 -1.0932
 3526SOL     OW12894   3.312   8.558   5.137 -0.5727  0.7368 -0.2210
 3526SOL    HW112895   3.389   8.566   5.194  0.9401  0.8645 -2.1952
 3526SOL    HW212896   3.295   8.464   5.133 -0.5449  0.7080  0.2194
 3527SOL     OW12897   3.750   0.228  10.036  0.4513 -0.2914  0.1092
 3527SOL    HW112898   3.660   0.259  10.031  0.5053 -0.0548  0.5459
 3527SOL    HW212899   3.774   0.236  10.129  0.9101 -0.3721  0.0036
 3528SOL     OW12900   8.077   2.364   5.667  0.4765 -0.0324  0.0646
 3528SOL    HW112901   8.011   2.382   5.600  0.8077  0.2477 -0.1887
 3528SOL    HW212902   8.032   2.307   5.730  0.6232 -1.6648 -1.2225
 3529SOL     OW12903   0.743   9.386   6.845  0.1599  0.6696 -0.0926
 3529SOL    HW112904   0.836   9.403   6.861 -0.2351  1.1916  2.0015
 3529SOL    HW212905   0.741   9.297   6.811  1.5189  1.1824 -1.6341
 3530SOL     OW12906   9.906   6.539   7.620  0.2622  0.1372  0.0947
 3530SOL    HW112907   9.884   6.632   7.614  0.9135  0.1881 -3.7110
 3530SOL    HW212908  10.001   6.537   7.629  0.1482 -0.2095  1.4665
 3531SOL     OW12909   1.074   5.474   3.231 -0.0878  0.0835  0.1448
 3531SOL    HW112910   1.047   5.543   3.170 -2.0817  1.1720  2.1069
 3531SOL    HW212911   1.164   5.498   3.255  0.0519  0.6959 -0.8986
 3532SOL     OW12912   3.232   6.374   0.324  0.5468  0.0866  0.3888
 3532SOL    HW112913   3.322   6.403   0.308 -0.2971  1.2864 -2.9864
 3532SOL    HW212914   3.185   6.397   0.245 -2.9388  0.0458  2.2560
 3533SOL     OW12915   2.594   9.320   8.135 -0.2039 -0.3797 -0.3831
 3533SOL    HW112916   2.679   9.276   8.133  0.4312  0.8166 -0.3074
 3533SOL    HW212917   2.541   9.273   8.071 -0.2920 -2.6914  1.2301
 3534SOL     OW12918   5.265   3.023   5.257 -0.1314 -0.1493 -1.1057
 3534SOL    HW112919   5.235   2.932   5.263 -0.3436 -0.0083  0.1948
 3534SOL    HW212920   5.270   3.053   5.348  0.7779  0.8733 -1.4740
 3535SOL     OW12921   0.953   4.395  10.358  0.4144  0.0430 -0.1310
 3535SOL    HW112922   0.975   4.342  10.282 -2.4354  0.4602 -1.3596
 3535SOL    HW212923   1.017   4.466  10.357  0.8999 -0.3891 -1.6634
 3536SOL     OW12924   3.611   5.760   3.754 -0.6525  0.4753  0.0471
 3536SOL    HW112925   3.581   5.690   3.698  2.7368 -0.3734 -0.9369
 3536SOL    HW212926   3.593   5.840   3.705  1.0856 -0.1779 -1.7886
 3537SOL     OW12927   8.854   8.195   2.431  0.0315  0.2547  0.0859
 3537SOL    HW112928   8.785   8.236   2.378  0.6978  0.9932 -0.2402
 3537SOL    HW212929   8.926   8.182   2.369  0.0575 -0.8653  0.3340
 3538SOL     OW12930   1.901   1.845   9.539 -0.1762  0.4172 -0.2167
 3538SOL    HW112931   1.869   1.760   9.571  1.8385  0.3845  2.0623
 3538SOL    HW212932   1.828   1.905   9.553 -1.0701 -0.6269 -0.2969
 3539SOL     OW12933   0.813   3.138   0.980 -0.7454  0.2681  0.0224
 3539SOL    HW112934   0.756   3.133   0.903  1.3629  1.3489 -1.7180
 3539SOL    HW212935   0.766   3.089   1.047 -1.6225 -2.8360 -2.5736
 3540SOL     OW12936   2.311   4.946   6.473  0.0583  0.0961  0.1642
 3540SOL    HW112937   2.273   5.017   6.526  1.3042 -1.0928  2.8512
 3540SOL    HW212938   2.362   4.992   6.406 -3.8170  1.6919 -2.0018
 3541SOL     OW12939   5.591   8.021   2.347  0.0275 -0.4133  0.4655
 3541SOL    HW112940   5.603   8.044   2.255 -0.1658 -2.2505 -0.0357
 3541SOL    HW212941   5.637   8.091   2.395  0.1325  0.5542 -1.0068
 3542SOL     OW12942   4.584   2.882   3.451 -0.4376  0.5433  0.0528
 3542SOL    HW112943   4.496   2.914   3.470  0.5919  2.3345  2.2935
 3542SOL    HW212944   4.599   2.905   3.359 -2.3305  0.0767 -0.3972
 3543SOL     OW12945   3.485   3.870   2.162 -0.4108 -0.1322 -0.2752
 3543SOL    HW112946   3.415   3.893   2.100 -2.3055 -2.4651  0.8186
 3543SOL    HW212947   3.457   3.907   2.245 -0.6390 -1.4585  0.2702
 3544SOL     OW12948   0.675   4.492   0.192  0.8345  0.1158 -0.0302
 3544SOL    HW112949   0.613   4.441   0.141 -0.4811 -0.0922  1.7045
 3544SOL    HW212950   0.750   4.434   0.204 -0.6545 -1.4885  1.9500
 3545SOL     OW12951   4.484   7.379   6.430 -0.4902  0.0997  0.4840
 3545SOL    HW112952   4.564   7.424   6.404 -0.7703  0.1664 -0.2606
 3545SOL    HW212953   4.493   7.291   6.395 -0.6963  0.0740  0.4942
 3546SOL     OW12954   3.716   2.115   7.946 -0.3304 -0.8348 -0.0366
 3546SOL    HW112955   3.757   2.070   8.020  1.0022  0.4978  0.0773
 3546SOL    HW212956   3.692   2.045   7.885  0.8319 -1.7623  0.5471
 3547SOL     OW12957   1.225   1.185   6.324 -0.0693 -0.2474 -0.4136
 3547SOL    HW112958   1.141   1.153   6.291  0.5958 -0.9508 -1.4924
 3547SOL    HW212959   1.210   1.278   6.340 -1.1122 -0.4060 -0.3983
 3548SOL     OW12960   7.583   1.161  10.157 -0.5680  0.0924 -0.3008
 3548SOL    HW112961   7.589   1.167  10.061 -1.4954 -0.5638 -0.4141
 3548SOL    HW212962   7.552   1.248  10.184  0.4262  0.5247 -0.5185
 3549SOL     OW12963   9.091   4.904  10.317 -0.1218  0.3944 -0.1617
 3549SOL    HW112964   9.140   4.822  10.309  0.1331  0.5611 -0.3168
 3549SOL    HW212965   9.144   4.959  10.374 -0.4773  0.3135  0.2565
 3550SOL     OW12966   4.085   4.866   3.989  0.1763  0.1260 -0.1893
 3550SOL    HW112967   4.043   4.943   4.027  1.5050  0.5437  0.4886
 3550SOL    HW212968   4.034   4.792   4.024 -0.2127  0.6219  0.3173
 3551SOL     OW12969   5.079   5.912  10.426 -0.7345 -0.0869  0.0506
 3551SOL    HW112970   5.030   5.852  10.369  0.3362 -0.8278 -0.1205
 3551SOL    HW212971   5.072   5.997  10.383  0.8323 -0.8005 -1.7460
 3552SOL     OW12972  10.281   2.199   8.340 -0.0138 -0.3559 -0.2049
 3552SOL    HW112973  10.212   2.161   8.286  0.5738  0.6298 -1.7218
 3552SOL    HW212974  10.362   2.159   8.307  0.2761 -0.5024  0.6521
 3553SOL     OW12975   5.509   7.211  10.469  0.0783  0.0975  0.5712
 3553SOL    HW112976   5.554   7.261  10.537  0.5663  0.4199  0.0223
 3553SOL    HW212977   5.424   7.253  10.461  0.3754  0.6651  0.3214
 3554SOL     OW12978   0.949   4.530   3.962  0.6486 -0.3140 -0.2023
 3554SOL    HW112979   0.906   4.570   3.886  0.3233  0.6604  0.4755
 3554SOL    HW212980   0.880   4.520   4.027  0.6759 -2.2187 -0.4135
 3555SOL     OW12981   8.794   6.093  10.597 -0.2632 -0.8571 -0.3412
 3555SOL    HW112982   8.767   6.185  10.587  0.9932 -0.4097  0.2176
 3555SOL    HW212983   8.778   6.074  10.689  1.9220 -0.3466  0.1980
 3556SOL     OW12984   6.614   4.647   2.618  0.3618  0.1141  0.3870
 3556SOL    HW112985   6.672   4.642   2.694 -1.4365  0.3950  1.8392
 3556SOL    HW212986   6.556   4.571   2.627 -0.7239  0.8797  0.0504
 3557SOL     OW12987   2.678   5.567   2.696  0.8762 -0.3512 -0.1008
 3557SOL    HW112988   2.626   5.508   2.642 -3.1427  1.5333  1.2844
 3557SOL    HW212989   2.679   5.650   2.647 -3.1533  1.5072  2.3968
 3558SOL     OW12990   0.053  10.330   4.762  0.0237 -0.4780 -0.3873
 3558SOL    HW112991   0.149  10.328   4.772  0.1233  0.3584 -1.0690
 3558SOL    HW212992   0.038  10.295   4.674 -0.4752 -2.6942  0.5033
 3559SOL     OW12993   1.279   6.697  10.393  0.0376 -0.1268  0.3400
 3559SOL    HW112994   1.216   6.698  10.321  1.2786  0.0310 -0.7844
 3559SOL    HW212995   1.226   6.708  10.472 -1.3273  0.0173 -0.5702
 3560SOL     OW12996   9.157  10.194  10.371  0.3314  0.4083  0.0782
 3560SOL    HW112997   9.142  10.288  10.370 -0.5024  0.3250 -2.3185
 3560SOL    HW212998   9.234  10.181  10.316  0.3422 -0.3329  0.2575
 3561SOL     OW12999   5.862   7.298   1.336 -0.2200  0.4729 -0.0050
 3561SOL    HW113000   5.849   7.208   1.306 -2.0778  0.5483  0.4606
 3561SOL    HW213001   5.855   7.350   1.256  1.1387  0.2031 -0.3185
 3562SOL     OW13002   5.092   5.556   6.659 -0.3378  0.2413 -1.1644
 3562SOL    HW113003   5.053   5.483   6.707  1.6571 -1.0682 -1.3955
 3562SOL    HW213004   5.029   5.576   6.590 -2.8244  1.5162  1.2842
 3563SOL     OW13005   9.231   6.236   5.080 -0.2899  0.7212 -0.2105
 3563SOL    HW113006   9.194   6.192   5.003 -1.0927  1.1566 -0.0875
 3563SOL    HW213007   9.181   6.317   5.087 -0.2022  0.7012  0.7554
 3564SOL     OW13008   1.640   6.246   4.138 -0.0483  0.1301 -0.1841
 3564SOL    HW113009   1.644   6.155   4.108  0.3184 -0.3867  1.3236
 3564SOL    HW213010   1.676   6.297   4.065 -0.5172 -0.9003 -1.1571
 3565SOL     OW13011   5.802  10.283   4.876  0.4201  0.5562 -0.1190
 3565SOL    HW113012   5.845  10.249   4.798 -0.1734  1.9655 -1.0974
 3565SOL    HW213013   5.793  10.377   4.860  0.1438  0.8508  1.5798
 3566SOL     OW13014   4.095   2.566   4.849 -0.5526 -0.3954  0.0309
 3566SOL    HW113015   4.054   2.643   4.888  1.4256  1.0814 -0.6381
 3566SOL    HW213016   4.023   2.521   4.804 -1.6298  1.5645 -0.3545
 3567SOL     OW13017   0.858   3.656   3.238  0.5906  0.0109 -0.3532
 3567SOL    HW113018   0.797   3.591   3.271  0.8052  0.4054  0.8535
 3567SOL    HW213019   0.943   3.612   3.241  0.3834 -0.5724 -2.1241
 3568SOL     OW13020   5.395   6.850   7.882 -0.2949 -0.0338  0.2839
 3568SOL    HW113021   5.348   6.933   7.877 -0.4665 -0.0938  0.7971
 3568SOL    HW213022   5.384   6.810   7.796 -3.5619 -1.3151  1.1527
 3569SOL     OW13023   0.429   8.566   9.409 -0.1316 -0.0460 -0.0993
 3569SOL    HW113024   0.471   8.491   9.366 -0.2569  0.3593 -0.9536
 3569SOL    HW213025   0.351   8.529   9.450 -0.3274 -0.3430 -0.7266
 3570SOL     OW13026   7.917   6.809   8.850 -0.0764  0.1798 -0.3563
 3570SOL    HW113027   8.001   6.853   8.863  1.2424 -2.3871  0.4409
 3570SOL    HW213028   7.861   6.876   8.811  2.0199  2.2713 -0.0049
 3571SOL     OW13029   9.183   9.033   4.050  0.3391  0.3325  0.2773
 3571SOL    HW113030   9.209   8.969   3.983  0.8997  2.1645 -1.3633
 3571SOL    HW213031   9.088   9.024   4.056  0.5138 -1.4496  0.9899
 3572SOL     OW13032   3.929   6.491   6.216 -0.6094 -0.5007  0.2180
 3572SOL    HW113033   3.841   6.524   6.195 -0.2334 -0.0460 -0.7154
 3572SOL    HW213034   3.913   6.416   6.274 -1.5963 -0.2200  0.3329
 3573SOL     OW13035   1.004   2.257   4.434  0.5636 -0.2424 -0.3284
 3573SOL    HW113036   0.948   2.195   4.480 -1.9034  0.6401 -1.9486
 3573SOL    HW213037   0.989   2.340   4.478  0.2224  0.0962 -1.0768
 3574SOL     OW13038   2.896  10.388  10.146 -0.3146  0.1036  0.1112
 3574SOL    HW113039   2.973  10.437  10.117 -1.0354  0.4705 -1.2795
 3574SOL    HW213040   2.822  10.445  10.124 -1.1405 -1.3368 -1.0677
 3575SOL     OW13041   9.888   2.054   7.159  0.0230 -0.3725 -0.2835
 3575SOL    HW113042   9.888   2.070   7.065 -0.2355 -0.6578 -0.3346
 3575SOL    HW213043   9.963   2.103   7.192  0.9818 -1.4155 -0.8293
 3576SOL     OW13044   9.095   5.547   6.092  0.0030 -0.0287  0.2830
 3576SOL    HW113045   9.035   5.488   6.047  1.4143 -1.5199  0.2782
 3576SOL    HW213046   9.167   5.491   6.121  1.4353  1.6855  0.2197
 3577SOL     OW13047   5.801   4.080   5.853 -0.1861 -0.2391  0.6603
 3577SOL    HW113048   5.776   3.991   5.878  1.5288 -0.8980  0.2014
 3577SOL    HW213049   5.847   4.114   5.930  1.0321 -0.5727  0.1127
 3578SOL     OW13050   5.733   3.407   7.466 -0.0825  0.6445  0.2331
 3578SOL    HW113051   5.819   3.448   7.478 -0.6879  1.3804  2.4771
 3578SOL    HW213052   5.673   3.481   7.459 -0.5023  0.1564 -2.3025
 3579SOL     OW13053   5.408   0.323   3.068 -0.0476 -0.0977 -0.2162
 3579SOL    HW113054   5.478   0.292   3.011  0.4680 -0.5888  0.6750
 3579SOL    HW213055   5.384   0.409   3.031  0.0708 -0.5244 -1.3347
 3580SOL     OW13056   8.361   5.783   4.527  0.3376 -0.0727  0.7942
 3580SOL    HW113057   8.272   5.759   4.504  0.2545  1.4689 -0.6390
 3580SOL    HW213058   8.415   5.748   4.455  0.8989 -0.9153  1.5984
 3581SOL     OW13059   3.637   4.924   9.160 -0.7720 -0.0160  0.0112
 3581SOL    HW113060   3.569   4.871   9.202 -0.7432  0.8574  1.2335
 3581SOL    HW213061   3.703   4.936   9.228 -0.0997  0.3960 -0.6984
 3582SOL     OW13062   9.770   7.886   2.741  0.2413 -0.5110 -0.2597
 3582SOL    HW113063   9.735   7.956   2.687  1.1112 -0.3362 -0.6045
 3582SOL    HW213064   9.785   7.928   2.826  0.9712 -0.2171 -0.5292
 3583SOL     OW13065   6.439   9.703   0.251 -0.1257 -0.0203  0.1919
 3583SOL    HW113066   6.504   9.635   0.235 -0.3795  0.0976 -1.5301
 3583SOL    HW213067   6.358   9.667   0.216 -1.3744 -0.6893  3.4384
 3584SOL     OW13068   9.153   0.226   8.289  0.0612  0.4555 -0.3227
 3584SOL    HW113069   9.158   0.236   8.194 -0.7567  0.6628 -0.3527
 3584SOL    HW213070   9.178   0.311   8.324 -1.7622  1.0892 -0.4323
 3585SOL     OW13071   0.277   0.271   5.023  0.1495 -0.0908  0.3340
 3585SOL    HW113072   0.197   0.286   4.972  0.5314  0.6273 -0.0737
 3585SOL    HW213073   0.289   0.353   5.072  1.1274  0.1460 -0.2970
 3586SOL     OW13074   1.763   1.375   6.060 -0.7732 -0.3591  0.4848
 3586SOL    HW113075   1.748   1.382   6.155 -0.4802 -0.6048  0.5497
 3586SOL    HW213076   1.676   1.361   6.024 -0.9089 -0.0981  0.7006
 3587SOL     OW13077  10.231   5.938   5.656 -0.0045  0.1200  0.4526
 3587SOL    HW113078  10.201   5.851   5.629  2.5577 -0.3952 -1.0211
 3587SOL    HW213079  10.278   5.972   5.579 -0.1984  2.4512  1.3011
 3588SOL     OW13080   0.952   7.018   8.017 -0.2986  0.0087  0.0077
 3588SOL    HW113081   0.927   7.105   7.988  0.8367  0.1613 -0.5978
 3588SOL    HW213082   0.926   6.960   7.946  0.4002  0.0841 -0.3261
 3589SOL     OW13083   3.063   7.315   1.207 -0.2620  0.1873 -0.2915
 3589SOL    HW113084   2.975   7.324   1.171 -0.1082  0.7332 -0.5366
 3589SOL    HW213085   3.049   7.275   1.293 -0.7120 -0.1290 -0.5075
 3590SOL     OW13086   4.158   6.045   1.368 -0.1233 -0.1976  0.1175
 3590SOL    HW113087   4.157   6.036   1.272  3.2745  0.4385 -0.1054
 3590SOL    HW213088   4.099   6.117   1.386 -2.2119 -1.4442 -1.2626
 3591SOL     OW13089   5.630   0.029  10.049  0.0382 -0.3953 -0.4515
 3591SOL    HW113090   5.627   0.114  10.092 -0.3494 -0.5555 -0.1474
 3591SOL    HW213091   5.694  -0.021  10.101  0.8540 -0.0544 -1.0949
 3592SOL     OW13092   1.271   6.580   0.356  0.6450  0.2123  0.4190
 3592SOL    HW113093   1.249   6.506   0.299  1.2477 -0.7643  1.3967
 3592SOL    HW213094   1.214   6.569   0.432  1.6117  0.0173  1.1316
 3593SOL     OW13095   1.347   3.088   5.836  0.0479  0.0999 -0.4724
 3593SOL    HW113096   1.393   3.098   5.753  0.2661 -0.9682 -0.4884
 3593SOL    HW213097   1.290   3.165   5.841  1.1410  0.9569 -0.8867
 3594SOL     OW13098   8.210   4.148   0.160 -0.1655 -0.5168 -0.4819
 3594SOL    HW113099   8.240   4.062   0.191 -0.9113 -1.0234 -1.1598
 3594SOL    HW213100   8.116   4.137   0.145 -0.3050  0.4770 -0.3830
 3595SOL     OW13101   8.285   9.039   1.530  0.5617 -0.1498 -0.2925
 3595SOL    HW113102   8.302   8.958   1.482 -1.0673 -1.5544  1.3333
 3595SOL    HW213103   8.260   9.010   1.618  1.5828  2.2089  0.8836
 3596SOL     OW13104   5.399   8.863   9.560  0.1290  0.6386 -0.1245
 3596SOL    HW113105   5.318   8.911   9.576  1.2236  3.2666 -1.8037
 3596SOL    HW213106   5.463   8.904   9.618  0.5750 -0.4977  0.2104
 3597SOL     OW13107   7.536   1.961   2.232 -0.5480 -0.1851 -0.0135
 3597SOL    HW113108   7.620   1.977   2.276 -0.6149  0.7688 -0.2101
 3597SOL    HW213109   7.495   2.048   2.228 -2.3246 -0.8797  1.6224
 3598SOL     OW13110   0.271   8.893   8.593  0.5068 -0.4819  0.6481
 3598SOL    HW113111   0.338   8.962   8.593  0.5052 -0.4761  0.3271
 3598SOL    HW213112   0.297   8.836   8.520  1.7062 -1.9891  2.1486
 3599SOL     OW13113   3.191   2.530   1.426 -0.1741  0.1550 -0.3331
 3599SOL    HW113114   3.252   2.517   1.499  0.4886 -0.3730 -0.9625
 3599SOL    HW213115   3.110   2.559   1.468  0.6053  1.2340  0.4969
 3600SOL     OW13116   4.254  10.506   8.841 -0.8374 -0.2123  0.0678
 3600SOL    HW113117   4.300  10.479   8.920 -1.5734 -1.5397  0.0739
 3600SOL    HW213118   4.298  10.586   8.813  0.6584 -0.7749  0.7428
 3601SOL     OW13119  10.123   1.420   0.782  0.0974  0.2121 -0.1511
 3601SOL    HW113120  10.107   1.393   0.872  0.9281  1.9529  0.5697
 3601SOL    HW213121  10.218   1.434   0.777 -0.0830  1.4279 -0.8707
 3602SOL     OW13122   1.753   8.188   6.147 -0.2642 -0.8113 -0.4315
 3602SOL    HW113123   1.840   8.216   6.121 -0.1324 -0.3652  0.4556
 3602SOL    HW213124   1.733   8.115   6.089 -0.3056  0.6192 -2.3034
 3603SOL     OW13125  10.043   9.032   9.960  0.2763 -0.0635 -0.2631
 3603SOL    HW113126   9.967   8.975   9.952  0.3034 -0.0741 -0.4478
 3603SOL    HW213127  10.017   9.098  10.024 -0.0666  0.2152 -0.6846
 3604SOL     OW13128   1.691   9.954   5.556 -0.3027  0.2850 -0.5608
 3604SOL    HW113129   1.761   9.955   5.491 -0.9463  1.1585 -1.2628
 3604SOL    HW213130   1.618   9.999   5.513 -2.2599 -2.9301 -0.9472
 3605SOL     OW13131   4.527   1.317   1.999  0.4149 -0.6858  0.4921
 3605SOL    HW113132   4.562   1.285   1.915  1.3121 -1.9424  1.3089
 3605SOL    HW213133   4.559   1.254   2.063 -1.9422 -0.9133  1.5412
 3606SOL     OW13134   5.677   1.698  10.108  0.2864  0.6146  0.1304
 3606SOL    HW113135   5.586   1.718  10.087  0.4669  1.2506 -0.0728
 3606SOL    HW213136   5.689   1.734  10.196  0.3390  0.5220  0.1609
 3607SOL     OW13137   9.117   9.232  10.356  0.1508  0.4508 -0.0343
 3607SOL    HW113138   9.040   9.228  10.413  0.3417  1.1106  0.2758
 3607SOL    HW213139   9.189   9.257  10.414  0.4003  0.8548 -0.5151
 3608SOL     OW13140   9.563   6.197   0.170  1.1868  0.1994  0.7239
 3608SOL    HW113141   9.658   6.197   0.177  1.4589  0.8516 -1.9570
 3608SOL    HW213142   9.542   6.283   0.134 -0.5660  0.5166  2.3462
 3609SOL     OW13143   2.670   0.734   5.500  0.1814  0.1644 -0.1963
 3609SOL    HW113144   2.649   0.642   5.519 -0.4303  0.5025  0.8235
 3609SOL    HW213145   2.668   0.740   5.405 -1.1711 -0.5665 -0.2376
 3610SOL     OW13146   5.977   3.160   1.470  0.4695 -0.2344  0.4995
 3610SOL    HW113147   5.900   3.197   1.425 -0.0019 -0.1576  1.3545
 3610SOL    HW213148   6.047   3.223   1.454  0.2703 -0.1354 -0.0020
 3611SOL     OW13149   9.556   5.414   3.665 -0.4061  0.3351 -0.0033
 3611SOL    HW113150   9.515   5.453   3.743 -0.2623 -0.6396  0.5769
 3611SOL    HW213151   9.507   5.334   3.650  0.8349 -0.5139  0.3029
 3612SOL     OW13152   7.926   5.901   5.716  0.7178 -0.2187  0.2458
 3612SOL    HW113153   7.919   5.975   5.776 -1.2450 -0.4675  0.3728
 3612SOL    HW213154   7.916   5.824   5.771 -0.8041 -0.4579 -0.3117
 3613SOL     OW13155   3.954   2.152   1.288 -0.5355 -0.0883  0.2030
 3613SOL    HW113156   3.862   2.154   1.259 -0.6025  2.3536  0.3465
 3613SOL    HW213157   3.956   2.209   1.365  1.1545  0.2022 -0.0185
 3614SOL     OW13158   9.768   5.183   6.502 -0.7266  0.3417  0.5088
 3614SOL    HW113159   9.673   5.183   6.489 -0.5818 -0.9953 -0.8287
 3614SOL    HW213160   9.790   5.092   6.520  0.5183  0.2737 -1.1500
 3615SOL     OW13161  10.400   5.528   3.917 -0.0726  0.2430 -0.0968
 3615SOL    HW113162  10.317   5.489   3.944 -0.3080  0.4647 -0.4917
 3615SOL    HW213163  10.389   5.622   3.933 -0.1530  0.3576 -0.7836
 3616SOL     OW13164   7.606   6.202  10.407  0.3518 -0.1446  0.4561
 3616SOL    HW113165   7.569   6.245  10.484  1.3745 -0.7871  1.3202
 3616SOL    HW213166   7.550   6.126  10.393 -0.7949  0.8075 -0.4197
 3617SOL     OW13167   6.517   4.447   6.426 -0.6389 -0.6234  0.1888
 3617SOL    HW113168   6.436   4.465   6.379  0.2198 -0.6945 -1.3805
 3617SOL    HW213169   6.569   4.395   6.365  0.9498  0.1676  0.8167
 3618SOL     OW13170   1.089   7.288   2.137 -0.3616  0.0726 -0.0621
 3618SOL    HW113171   1.028   7.230   2.090 -2.3881  0.8104  1.4731
 3618SOL    HW213172   1.128   7.232   2.204  0.5165 -0.3643 -0.9325
 3619SOL     OW13173  10.294   5.004   2.464  0.0602 -0.2760 -0.3444
 3619SOL    HW113174  10.334   5.073   2.410  0.4970  0.3881  0.8027
 3619SOL    HW213175  10.200   5.013   2.448  0.0892  0.7336 -0.0593
 3620SOL     OW13176   2.252   5.253   4.855 -0.2125 -0.3020 -1.2444
 3620SOL    HW113177   2.305   5.182   4.892 -0.3220  0.5463  0.6509
 3620SOL    HW213178   2.167   5.213   4.838 -0.7361 -0.3796  1.1608
 3621SOL     OW13179   7.810   4.106   5.368  0.1467  0.3552  0.7231
 3621SOL    HW113180   7.804   4.076   5.277 -1.5095  1.0049  0.5805
 3621SOL    HW213181   7.816   4.202   5.361  0.0262  0.4096  1.2867
 3622SOL     OW13182   2.971   5.945   5.088 -0.1775 -0.0219  0.2932
 3622SOL    HW113183   2.899   5.984   5.138 -0.0723  0.5757 -0.0199
 3622SOL    HW213184   3.012   6.018   5.043  1.3173 -0.1806  1.3219
 3623SOL     OW13185   4.788   8.310   6.588 -0.1308  0.2519 -0.1843
 3623SOL    HW113186   4.872   8.271   6.564 -0.8480 -0.2138 -2.0571
 3623SOL    HW213187   4.771   8.276   6.676  1.4651  0.0814  0.0958
 3624SOL     OW13188   7.209   5.937   9.198 -0.0857 -0.0221  0.1257
 3624SOL    HW113189   7.197   5.849   9.162  1.9798 -0.0466 -0.6905
 3624SOL    HW213190   7.139   5.988   9.159 -0.6800 -1.0834 -0.2539
 3625SOL     OW13191   6.832   5.770   0.402 -0.0471  0.4981  0.6189
 3625SOL    HW113192   6.880   5.845   0.437 -0.0285  0.2466  1.1426
 3625SOL    HW213193   6.878   5.693   0.436 -0.8632  0.2544  1.2098
 3626SOL     OW13194   1.337   4.495   6.466 -0.2334  0.1175  0.1062
 3626SOL    HW113195   1.359   4.546   6.388  1.1978 -0.4652  0.0984
 3626SOL    HW213196   1.356   4.553   6.539  1.6913 -0.4372  0.1086
 3627SOL     OW13197  10.570   9.739   1.850 -0.7835 -0.7817 -0.2210
 3627SOL    HW113198  10.475   9.735   1.865 -1.1120  1.7091 -1.1559
 3627SOL    HW213199  10.601   9.806   1.911  0.1011 -0.4104 -1.0555
 3628SOL     OW13200   2.770   3.292   4.993 -0.4168  0.4500  0.2431
 3628SOL    HW113201   2.756   3.197   4.988 -0.0677  0.4443 -0.8799
 3628SOL    HW213202   2.846   3.302   5.051  0.6751 -0.0794 -1.0526
 3629SOL     OW13203   1.201   3.701   5.680  0.4411  0.3001  0.8011
 3629SOL    HW113204   1.201   3.776   5.740 -0.0066 -1.1857  2.7773
 3629SOL    HW213205   1.111   3.669   5.683  0.3793  0.2565 -0.8290
 3630SOL     OW13206   7.769   3.191   5.552 -0.1639 -0.5064 -0.1712
 3630SOL    HW113207   7.798   3.259   5.491 -0.2966 -0.8702 -0.6478
 3630SOL    HW213208   7.850   3.157   5.590 -0.1136  0.1018  0.2736
 3631SOL     OW13209   9.230   9.271   5.682 -0.5596 -0.6750  0.3757
 3631SOL    HW113210   9.258   9.181   5.698  1.0183 -0.4409 -0.8450
 3631SOL    HW213211   9.301   9.310   5.631 -1.0231  1.3964  1.2194
 3632SOL     OW13212   5.812   5.573   9.125  0.3076  0.4576 -0.4910
 3632SOL    HW113213   5.888   5.532   9.083 -0.7796 -0.2351 -1.8835
 3632SOL    HW213214   5.740   5.513   9.107 -0.8039  1.6716 -0.2301
 3633SOL     OW13215  10.391   0.942   1.411 -0.0283  0.0875 -0.6833
 3633SOL    HW113216  10.335   0.983   1.477 -0.0286  0.9819 -1.2034
 3633SOL    HW213217  10.415   0.857   1.447 -1.3055 -0.0949 -0.2223
 3634SOL     OW13218   8.779   2.528   7.404  0.0628  0.3574 -0.4537
 3634SOL    HW113219   8.853   2.476   7.372 -1.1143 -0.5735 -1.7427
 3634SOL    HW213220   8.809   2.561   7.489  1.3214 -1.4015 -0.1559
 3635SOL     OW13221   7.795   5.354   5.246  0.1609 -0.2723  0.2240
 3635SOL    HW113222   7.845   5.274   5.231 -2.2127 -2.0987  1.3660
 3635SOL    HW213223   7.849   5.423   5.208  1.8343 -2.5139 -1.8337
 3636SOL     OW13224  10.339   1.230   1.254  0.0857  0.4764  0.0615
 3636SOL    HW113225  10.325   1.164   1.185 -0.1691  0.3142  0.2652
 3636SOL    HW213226  10.388   1.184   1.322 -0.3710  0.3986  0.3468
 3637SOL     OW13227   1.301   1.744   8.373  0.2523  0.0343  0.0094
 3637SOL    HW113228   1.216   1.763   8.333 -0.1159  0.7958  1.1290
 3637SOL    HW213229   1.290   1.658   8.413 -0.0661  0.2226  0.3333
 3638SOL     OW13230   5.649   8.320   8.980  0.4504 -0.2963 -0.2754
 3638SOL    HW113231   5.662   8.293   9.071  0.4270  0.4300 -0.0472
 3638SOL    HW213232   5.558   8.351   8.977  0.7316  0.5669 -0.3010
 3639SOL     OW13233   9.090   3.749   5.101 -0.0813  0.1063 -0.0985
 3639SOL    HW113234   9.083   3.687   5.029 -0.8664  0.1735 -0.0967
 3639SOL    HW213235   9.182   3.776   5.102  0.2699 -1.0461 -0.1013
 3640SOL     OW13236   5.573   1.471   0.516 -0.5769  0.0553 -0.2671
 3640SOL    HW113237   5.590   1.377   0.505  1.8604  0.1125  2.0551
 3640SOL    HW213238   5.534   1.479   0.603  0.8799  1.2995  0.3183
 3641SOL     OW13239   9.024   6.506   2.377 -0.0008 -0.2444  0.3198
 3641SOL    HW113240   9.025   6.448   2.301  0.8474  0.7044 -0.4242
 3641SOL    HW213241   8.962   6.465   2.437 -0.2168 -1.3552 -0.6121
 3642SOL     OW13242   6.891   9.692   4.109 -0.4523  0.5717 -0.0088
 3642SOL    HW113243   6.952   9.650   4.170 -1.8785 -0.5449  0.7131
 3642SOL    HW213244   6.859   9.621   4.053 -0.1742  1.3523 -1.1945
 3643SOL     OW13245   6.674   9.486   8.618 -0.4003 -0.3356  0.0302
 3643SOL    HW113246   6.709   9.535   8.543  1.1941 -0.9614  0.3306
 3643SOL    HW213247   6.594   9.532   8.641  0.0372  0.9610 -0.9194
 3644SOL     OW13248   1.742   6.475   1.784 -0.0147 -0.2873 -0.3389
 3644SOL    HW113249   1.812   6.435   1.835  0.6676  1.5184  0.1982
 3644SOL    HW213250   1.703   6.540   1.843 -0.1787  0.7998 -1.5958
 3645SOL     OW13251   2.049  10.242  10.513  0.4147  0.0050 -0.3033
 3645SOL    HW113252   2.089  10.157  10.534  1.6251  0.8013  0.7926
 3645SOL    HW213253   2.122  10.304  10.514 -0.4402  1.0716 -1.0987
 3646SOL     OW13254   4.803   9.274   6.299  0.1182 -0.3965 -0.1957
 3646SOL    HW113255   4.874   9.323   6.341 -0.6196  0.4556  0.0940
 3646SOL    HW213256   4.785   9.322   6.218 -1.0510  0.2311  0.4051
 3647SOL     OW13257   7.269   4.782   3.585  0.3491  0.0172 -0.4243
 3647SOL    HW113258   7.298   4.864   3.546 -3.5270  2.0360  0.3538
 3647SOL    HW213259   7.318   4.775   3.667  1.1508  1.2481 -0.7733
 3648SOL     OW13260   4.678   7.661   6.559  0.8373 -0.2931 -0.0716
 3648SOL    HW113261   4.588   7.696   6.562  1.1964  0.9772 -2.1557
 3648SOL    HW213262   4.682   7.610   6.478  1.6374 -1.5064  0.6989
 3649SOL     OW13263   0.563   4.727   1.073 -0.1456  0.2013 -0.2822
 3649SOL    HW113264   0.557   4.709   0.979  0.0219  2.6384 -0.8395
 3649SOL    HW213265   0.648   4.691   1.098  0.4893  0.8163 -1.4348
 3650SOL     OW13266   6.258   0.932   4.147 -0.0384 -0.4184  0.0619
 3650SOL    HW113267   6.223   1.002   4.091 -0.9969 -0.5549  0.4641
 3650SOL    HW213268   6.299   0.871   4.086  3.7981  2.0099 -0.1317
 3651SOL     OW13269   4.053   9.681   0.075  0.2349 -0.8153 -0.4611
 3651SOL    HW113270   4.138   9.637   0.067 -0.5036 -2.1715 -1.2337
 3651SOL    HW213271   3.996   9.633   0.014 -1.2926 -0.4469  0.6351
 3652SOL     OW13272   0.480   5.040   1.938 -0.0309 -0.5891 -0.2842
 3652SOL    HW113273   0.488   5.051   1.843  0.0089  0.6312 -0.1558
 3652SOL    HW213274   0.530   5.113   1.974  1.2329 -1.8832  0.7115
 3653SOL     OW13275   9.508   0.911   8.472 -0.5472 -0.0522  0.5926
 3653SOL    HW113276   9.587   0.882   8.518 -0.6093 -0.4074  0.4780
 3653SOL    HW213277   9.473   0.832   8.432  0.2443  0.4731 -1.1955
 3654SOL     OW13278   6.454   9.730   2.030 -0.2142  0.2775  0.5345
 3654SOL    HW113279   6.447   9.734   1.935 -1.0404  1.3885  0.6278
 3654SOL    HW213280   6.503   9.808   2.055  0.8175 -0.4856  0.9669
 3655SOL     OW13281   7.455   9.133   8.665  0.1002 -0.4729  0.8449
 3655SOL    HW113282   7.387   9.131   8.598 -1.6634 -0.4507  2.5471
 3655SOL    HW213283   7.485   9.043   8.672  0.2273 -0.4910  0.0953
 3656SOL     OW13284   4.056   6.385   2.504 -0.7625  0.5106  0.8290
 3656SOL    HW113285   4.071   6.292   2.522  1.9824  0.9237  1.1032
 3656SOL    HW213286   4.077   6.395   2.411 -0.5067  0.9412  0.9302
 3657SOL     OW13287   5.909   4.854   5.004 -0.0675 -0.8551  0.5241
 3657SOL    HW113288   5.997   4.893   4.998 -0.6051  0.3755  0.3354
 3657SOL    HW213289   5.879   4.850   4.913 -0.0935 -1.5660  0.5600
 3658SOL     OW13290  10.308   4.166   8.061 -0.2055  0.4915  0.1667
 3658SOL    HW113291  10.385   4.173   8.005 -1.1499 -0.2317 -1.3000
 3658SOL    HW213292  10.341   4.178   8.150  1.6738 -0.4105 -0.3652
 3659SOL     OW13293   8.512   3.660   6.356  0.0075  0.2597 -0.1735
 3659SOL    HW113294   8.504   3.754   6.375 -1.3863 -0.3388  2.6039
 3659SOL    HW213295   8.421   3.628   6.352  0.4421 -1.4305  1.8062
 3660SOL     OW13296   9.272   0.181   5.138  0.8682 -0.2253 -0.2203
 3660SOL    HW113297   9.344   0.236   5.108 -0.3943  1.2528 -0.6798
 3660SOL    HW213298   9.269   0.108   5.076 -0.0481  1.4040 -2.2108
 3661SOL     OW13299   8.004   6.706   4.341  0.4836  0.3494 -0.1729
 3661SOL    HW113300   8.009   6.781   4.400 -0.3733  0.1079  0.2187
 3661SOL    HW213301   7.912   6.681   4.342  0.9564 -1.4842  0.6685
 3662SOL     OW13302   9.074   1.934   9.747 -0.0013 -0.2397  0.3754
 3662SOL    HW113303   9.038   1.966   9.664  1.8151  2.4281  0.4743
 3662SOL    HW213304   8.999   1.932   9.806 -1.1726 -1.3930 -1.0799
 3663SOL     OW13305   1.387   1.244   8.741  0.3427 -0.0878 -0.1580
 3663SOL    HW113306   1.418   1.292   8.665  0.6314 -0.0379 -0.0087
 3663SOL    HW213307   1.325   1.180   8.706 -0.0388  0.3893 -0.3538
 3664SOL     OW13308   7.162   2.116  10.286 -0.1601  0.1044 -0.1707
 3664SOL    HW113309   7.201   2.053  10.347  0.2620  1.0199  0.5284
 3664SOL    HW213310   7.068   2.107  10.301 -0.0793  0.0448  0.3492
 3665SOL     OW13311   3.209   2.549   8.805 -0.0305 -0.1750 -0.3352
 3665SOL    HW113312   3.271   2.614   8.838  0.8064 -0.7544 -0.7332
 3665SOL    HW213313   3.232   2.469   8.853 -0.3371 -0.4426 -0.6357
 3666SOL     OW13314   7.997   7.295   5.945 -0.0785 -0.2203  0.2815
 3666SOL    HW113315   7.982   7.216   5.894  2.3102  0.3238 -1.4483
 3666SOL    HW213316   7.954   7.278   6.029 -1.1205 -2.6132 -0.6466
 3667SOL     OW13317   2.385   1.032   3.135 -0.4004 -0.5124  0.8673
 3667SOL    HW113318   2.370   0.949   3.089  1.0313  0.3906 -1.3794
 3667SOL    HW213319   2.480   1.035   3.149 -0.2820  1.2323 -0.1127
 3668SOL     OW13320   9.923   1.915   0.844 -0.0433  0.8428  0.1116
 3668SOL    HW113321   9.837   1.948   0.870 -0.4542 -0.6782  0.8060
 3668SOL    HW213322   9.929   1.934   0.750 -1.2930  0.6694 -0.0187
 3669SOL     OW13323   9.286   1.247   5.297  0.1536  0.3067 -0.4160
 3669SOL    HW113324   9.206   1.201   5.271  0.4329  0.4456 -1.5347
 3669SOL    HW213325   9.255   1.318   5.354 -0.3774 -0.5288  0.3753
 3670SOL     OW13326   2.057   9.562   9.753  0.4098  0.4195 -0.5625
 3670SOL    HW113327   2.117   9.546   9.825 -0.6266 -1.5323 -0.0431
 3670SOL    HW213328   1.991   9.493   9.762 -0.9814  1.4875 -2.0676
 3671SOL     OW13329   4.686   7.998   2.858 -0.0292 -0.1338 -0.1580
 3671SOL    HW113330   4.750   7.929   2.874 -0.6162 -0.7715 -0.5072
 3671SOL    HW213331   4.657   7.985   2.768 -1.6028 -0.6849  0.3891
 3672SOL     OW13332   6.077   8.859   4.022 -0.6426 -0.2736  0.1477
 3672SOL    HW113333   6.015   8.821   3.960 -0.3653 -1.3176  0.4954
 3672SOL    HW213334   6.092   8.790   4.087  1.1714 -0.1849 -0.1375
 3673SOL     OW13335   0.589   3.559   8.477  0.5186 -0.3064 -0.1124
 3673SOL    HW113336   0.636   3.521   8.551  1.6165  0.5473 -0.3413
 3673SOL    HW213337   0.656   3.607   8.428 -0.7880  2.1524  0.3146
 3674SOL     OW13338   9.941   8.633   2.775 -0.5987 -0.6274 -0.3702
 3674SOL    HW113339  10.000   8.682   2.717  0.2676 -0.0716  0.9425
 3674SOL    HW213340   9.970   8.655   2.863 -0.6299 -2.9733  0.2920
 3675SOL     OW13341  10.307   7.294   6.723  0.2740  0.5940 -0.3903
 3675SOL    HW113342  10.214   7.281   6.744  0.6813  1.1607  2.1708
 3675SOL    HW213343  10.313   7.387   6.701  0.5219  1.1865  1.8653
 3676SOL     OW13344   8.411   3.543   1.517  0.5184 -0.6364  0.0637
 3676SOL    HW113345   8.401   3.590   1.600  0.7168  0.7417 -0.6466
 3676SOL    HW213346   8.503   3.516   1.515  0.7882  0.2514 -0.1430
 3677SOL     OW13347   8.388   3.476   2.971 -0.1637  0.3471 -0.1873
 3677SOL    HW113348   8.293   3.471   2.983 -0.3810 -2.3479 -2.2008
 3677SOL    HW213349   8.399   3.524   2.889 -0.0771 -2.2337 -1.7953
 3678SOL     OW13350   8.573   2.284   6.706 -0.2857  0.5815  0.5357
 3678SOL    HW113351   8.537   2.258   6.621 -0.5461 -1.6087  1.2661
 3678SOL    HW213352   8.666   2.296   6.690 -0.0412 -1.4823  0.2666
 3679SOL     OW13353   0.187   1.737   9.066 -0.3865  0.2349  0.0895
 3679SOL    HW113354   0.136   1.805   9.109 -2.5590 -2.2742  1.8042
 3679SOL    HW213355   0.253   1.711   9.130 -0.5299 -0.2607  0.0444
 3680SOL     OW13356   5.165   9.544   4.717  0.2377  0.3886 -0.8324
 3680SOL    HW113357   5.090   9.602   4.705  0.0577  1.0397  2.3630
 3680SOL    HW213358   5.140   9.462   4.674 -2.1626  0.7495 -0.2653
 3681SOL     OW13359   4.259   3.691   8.181 -0.0599 -0.2016  0.3006
 3681SOL    HW113360   4.200   3.678   8.106  0.5106  0.0015 -0.1901
 3681SOL    HW213361   4.339   3.645   8.156  0.2731  0.1983  0.6182
 3682SOL     OW13362   0.280   5.730   0.878  0.2219 -0.3686 -0.2782
 3682SOL    HW113363   0.274   5.739   0.783  1.9951 -0.6760 -0.4557
 3682SOL    HW213364   0.203   5.680   0.903 -0.5496  0.1831 -1.4789
 3683SOL     OW13365   6.411   8.348   4.341 -0.0110  0.7298 -0.1626
 3683SOL    HW113366   6.400   8.405   4.417  0.5164  0.2366  0.2994
 3683SOL    HW213367   6.505   8.355   4.320  0.2248 -0.5407  0.3855
 3684SOL     OW13368   3.444   1.882   4.383 -0.0164 -0.1247  0.3695
 3684SOL    HW113369   3.515   1.831   4.422  0.5088 -0.1808 -0.6309
 3684SOL    HW213370   3.364   1.848   4.425  0.4036 -1.1489  0.3594
 3685SOL     OW13371   1.268   3.038   7.686  0.4333  0.3729  0.3155
 3685SOL    HW113372   1.336   2.996   7.738 -1.1372  0.6647  2.7460
 3685SOL    HW213373   1.213   2.966   7.655 -0.3482  0.3718  1.6575
 3686SOL     OW13374   5.618   3.236   3.109  0.5264 -0.1551  0.4046
 3686SOL    HW113375   5.681   3.174   3.071  0.6425 -0.6045  1.3027
 3686SOL    HW213376   5.669   3.289   3.169  0.6803  1.6807 -1.2350
 3687SOL     OW13377   4.725   5.821   4.607 -0.2393  0.7884 -0.1297
 3687SOL    HW113378   4.689   5.734   4.628 -2.7130  1.4770 -1.1559
 3687SOL    HW213379   4.650   5.880   4.611  1.8816  3.6368  3.9092
 3688SOL     OW13380  10.293   7.036   1.583 -0.0632 -0.3569 -0.4141
 3688SOL    HW113381  10.361   6.971   1.564 -1.9438 -2.5750 -0.0435
 3688SOL    HW213382  10.324   7.080   1.663  1.4194 -0.5393 -0.8619
 3689SOL     OW13383   0.377   5.430   0.625  0.0835  0.8358  0.1062
 3689SOL    HW113384   0.294   5.390   0.649  1.0204 -0.3276  1.6055
 3689SOL    HW213385   0.357   5.524   0.615 -1.4263  0.5429  0.1439
 3690SOL     OW13386   7.446   6.156   9.822  0.1685  0.3218 -0.0937
 3690SOL    HW113387   7.416   6.235   9.779 -0.3030 -0.2554 -0.8417
 3690SOL    HW213388   7.445   6.177   9.916  1.5037  1.6903 -0.3523
 3691SOL     OW13389   1.283   8.634   2.223 -0.0142 -0.0425  0.6269
 3691SOL    HW113390   1.326   8.623   2.308  2.0783  0.4947 -0.3045
 3691SOL    HW213391   1.234   8.716   2.232 -0.8279 -0.6289  1.6975
 3692SOL     OW13392  10.096   0.034   4.296  1.0092 -0.4815  0.0853
 3692SOL    HW113393  10.161   0.085   4.248  2.0002 -1.4663  0.3308
 3692SOL    HW213394  10.022   0.026   4.235  1.6693 -0.5061 -0.7349
 3693SOL     OW13395   9.426   1.328   6.064  0.7276  0.1247  0.2188
 3693SOL    HW113396   9.345   1.371   6.093  0.6157 -0.2156  0.4143
 3693SOL    HW213397   9.495   1.373   6.113  0.5140 -0.6493  1.2618
 3694SOL     OW13398   2.326   0.424   2.061 -0.3101  0.0086  0.4518
 3694SOL    HW113399   2.237   0.455   2.081 -0.3434 -0.0218  0.3512
 3694SOL    HW213400   2.313   0.358   1.993 -0.0304  1.7706 -1.4330
 3695SOL     OW13401   7.863   6.594   5.633  0.3551  0.3456  0.4619
 3695SOL    HW113402   7.839   6.538   5.560  0.9157  1.6938 -0.8220
 3695SOL    HW213403   7.884   6.679   5.592  0.1561  1.2994  2.2414
 3696SOL     OW13404   0.751   5.796   6.233  0.2752 -0.0432 -0.0673
 3696SOL    HW113405   0.821   5.759   6.179 -1.9936 -1.5020 -2.2244
 3696SOL    HW213406   0.731   5.880   6.193  0.8558  0.4365  0.6334
 3697SOL     OW13407   4.107   3.573   6.055  0.2118  0.1380 -0.6478
 3697SOL    HW113408   4.031   3.538   6.009 -0.0551  0.3502 -0.3672
 3697SOL    HW213409   4.073   3.644   6.109  0.2056 -1.2652  1.3001
 3698SOL     OW13410   6.740   4.387   5.983 -0.5254  0.5201  0.2852
 3698SOL    HW113411   6.664   4.398   5.925  0.2758  0.2300 -0.8399
 3698SOL    HW213412   6.779   4.475   5.988  0.7432  0.0880 -1.5170
 3699SOL     OW13413   8.400   1.933   5.933  0.0087  0.0347  0.2320
 3699SOL    HW113414   8.333   1.871   5.964  0.3149 -0.5684 -0.2917
 3699SOL    HW213415   8.477   1.913   5.985 -0.0111  0.2551  0.3468
 3700SOL     OW13416   4.447   6.575   5.691  0.4032  0.3775  0.3188
 3700SOL    HW113417   4.408   6.493   5.662  0.9689  0.2867 -0.2051
 3700SOL    HW213418   4.473   6.619   5.610 -0.3546  1.3126  0.5603
 3701SOL     OW13419   6.563   0.753   8.966  0.7062 -0.7832 -0.3572
 3701SOL    HW113420   6.655   0.769   8.943  1.3923 -0.4819  2.2801
 3701SOL    HW213421   6.540   0.826   9.023 -1.1335 -0.9902 -0.7812
 3702SOL     OW13422   0.430   5.257   3.010  0.0891 -0.5544 -0.6231
 3702SOL    HW113423   0.409   5.188   2.948 -2.1012  0.1770 -0.7752
 3702SOL    HW213424   0.414   5.339   2.963 -0.2747  0.0305  0.4615
 3703SOL     OW13425   0.754   0.038   4.131  0.6691  0.9845 -0.0735
 3703SOL    HW113426   0.659   0.051   4.122  0.8105  1.6484 -0.6855
 3703SOL    HW213427   0.772  -0.041   4.080  0.2308 -0.0168  1.2852
 3704SOL     OW13428   5.782   1.404   2.736  0.0961 -0.2808 -0.4434
 3704SOL    HW113429   5.761   1.348   2.662 -1.9952 -0.7577  0.4487
 3704SOL    HW213430   5.794   1.344   2.809  2.0094  0.1958 -0.3067
 3705SOL     OW13431   8.448  10.550   3.326 -0.4209  0.0224  0.5990
 3705SOL    HW113432   8.433  10.461   3.294  4.1795 -0.7008 -0.1174
 3705SOL    HW213433   8.439  10.606   3.249 -0.1682 -0.2582  0.3668
 3706SOL     OW13434   7.735   9.225   1.338  0.0112  0.0951  0.6131
 3706SOL    HW113435   7.772   9.153   1.287 -0.4993 -0.4826  1.0430
 3706SOL    HW213436   7.806   9.249   1.398 -0.3194 -1.1215  1.5491
 3707SOL     OW13437   0.788   1.927   1.388  0.3639 -0.4522 -0.0001
 3707SOL    HW113438   0.772   1.917   1.482 -1.4007  0.4424 -0.1477
 3707SOL    HW213439   0.827   1.844   1.361  1.2656 -0.5807  1.5810
 3708SOL     OW13440   8.026   6.858   7.412  0.1737 -0.0023  0.0339
 3708SOL    HW113441   8.050   6.896   7.496  2.4249 -0.9824 -0.1055
 3708SOL    HW213442   8.108   6.828   7.373 -0.9766 -1.0657 -1.7926
 3709SOL     OW13443   1.272   8.246   4.553 -0.4487 -0.2561 -0.0668
 3709SOL    HW113444   1.259   8.244   4.648 -2.1192 -2.3577 -0.2646
 3709SOL    HW213445   1.252   8.336   4.528 -0.2126  0.2720  1.5148
 3710SOL     OW13446   0.408   3.578   4.994 -0.8563  0.3007 -0.1883
 3710SOL    HW113447   0.338   3.616   5.048 -0.3861  0.5911  0.2271
 3710SOL    HW213448   0.402   3.483   5.010  0.5965  0.5100  2.0597
 3711SOL     OW13449   3.202   9.148   1.574  0.0328 -0.3148 -0.3439
 3711SOL    HW113450   3.239   9.061   1.591 -0.6550 -0.4066  0.7281
 3711SOL    HW213451   3.270   9.193   1.522  0.9043 -1.0646  0.1160
 3712SOL     OW13452   6.719   7.884   1.289 -0.4640 -0.2568  0.7878
 3712SOL    HW113453   6.667   7.959   1.318  2.2827  1.7246  1.0437
 3712SOL    HW213454   6.718   7.824   1.363 -0.7297  0.6774  1.5704
 3713SOL     OW13455   2.195   6.730  10.186  0.0423 -0.3825  0.4212
 3713SOL    HW113456   2.131   6.724  10.115 -1.1484 -0.0674  1.4288
 3713SOL    HW213457   2.263   6.789  10.152 -0.7835  0.2035 -0.2636
 3714SOL     OW13458   1.742   3.196   8.594 -0.7320 -0.1685 -0.0595
 3714SOL    HW113459   1.828   3.230   8.569 -0.9345  1.2154  1.0040
 3714SOL    HW213460   1.760   3.137   8.667 -0.4959 -1.5488 -1.1932
 3715SOL     OW13461   5.496   8.857  10.040 -0.2387 -0.0048  0.0764
 3715SOL    HW113462   5.511   8.764  10.054  0.6109 -0.1190 -1.4028
 3715SOL    HW213463   5.511   8.897  10.125  0.6847 -1.0717  0.4375
 3716SOL     OW13464   8.353   8.117   6.375 -0.6261  0.5487 -0.0985
 3716SOL    HW113465   8.362   8.096   6.468 -1.0859  0.2494 -0.1151
 3716SOL    HW213466   8.441   8.109   6.339 -0.8614 -2.2176 -0.2702
 3717SOL     OW13467   0.540   3.726   3.423  0.1453 -0.1798  0.1592
 3717SOL    HW113468   0.446   3.729   3.409  0.3529  1.1227 -1.1846
 3717SOL    HW213469   0.561   3.633   3.429 -1.1237 -0.5011 -0.2662
 3718SOL     OW13470   1.769   8.726   1.828 -0.6534  0.1617  0.1432
 3718SOL    HW113471   1.803   8.643   1.860  0.1587  0.4788  0.1098
 3718SOL    HW213472   1.704   8.701   1.763  0.5083 -0.4405 -0.8141
 3719SOL     OW13473   1.870   5.729   1.484 -0.6218  0.5469 -0.2093
 3719SOL    HW113474   1.950   5.689   1.448 -0.4973  1.3964 -0.9282
 3719SOL    HW213475   1.800   5.697   1.427 -1.1417 -1.7808  1.5876
 3720SOL     OW13476   5.522   6.197   6.018 -0.0811 -0.4960 -0.6045
 3720SOL    HW113477   5.564   6.119   5.981 -0.6240 -1.4793  0.7601
 3720SOL    HW213478   5.515   6.178   6.111  0.5101  1.5610 -0.1040
 3721SOL     OW13479   3.072   4.676   4.661  0.1702 -0.0689 -0.4606
 3721SOL    HW113480   2.989   4.653   4.620 -1.6095  0.8665  2.3355
 3721SOL    HW213481   3.123   4.596   4.659 -2.1989 -1.7456  0.7945
 3722SOL     OW13482   3.953   1.873   6.800 -0.3812 -0.4395  0.0222
 3722SOL    HW113483   3.887   1.807   6.821 -0.2018 -0.0127  2.1663
 3722SOL    HW213484   3.945   1.938   6.870  2.7571 -0.7276  0.8119
 3723SOL     OW13485  10.378   1.826   7.641  0.0628  0.4884 -0.6433
 3723SOL    HW113486  10.344   1.914   7.624 -0.2920  0.4040 -0.3762
 3723SOL    HW213487  10.398   1.826   7.735  0.6703  0.4912 -0.7703
 3724SOL     OW13488   9.190   8.436   9.628  0.1692  0.3517  0.2812
 3724SOL    HW113489   9.273   8.462   9.589  0.5588 -0.1143  0.7938
 3724SOL    HW213490   9.145   8.519   9.644  0.5371  0.6074  0.0155
 3725SOL     OW13491   9.040   9.103   6.665 -0.0594  0.0428 -0.1257
 3725SOL    HW113492   8.962   9.061   6.627  0.6478 -0.6947 -0.7921
 3725SOL    HW213493   9.080   9.149   6.591  1.2157 -1.2237 -0.2524
 3726SOL     OW13494   5.758   5.784   0.441 -0.2406 -0.2455  0.4959
 3726SOL    HW113495   5.765   5.781   0.537  0.7367  3.0290  0.6741
 3726SOL    HW213496   5.847   5.774   0.410 -0.1773  1.1345  0.1479
 3727SOL     OW13497   4.284   3.761   9.168  0.0364  0.1495  0.4244
 3727SOL    HW113498   4.222   3.834   9.160 -0.2140 -0.0844  0.2141
 3727SOL    HW213499   4.231   3.683   9.151  0.2059 -0.1160  1.0847
 3728SOL     OW13500   0.846   9.175   5.726 -0.2646 -0.0153 -0.6403
 3728SOL    HW113501   0.910   9.226   5.677  1.2242 -0.0434  1.1719
 3728SOL    HW213502   0.874   9.084   5.715 -1.0620 -0.1969 -1.2812
 3729SOL     OW13503   4.358   7.008   5.745 -0.2598  0.3395  0.0659
 3729SOL    HW113504   4.275   7.030   5.786 -0.3674  0.1304 -0.0351
 3729SOL    HW213505   4.420   7.000   5.817 -0.4373  0.0157  0.1881
 3730SOL     OW13506   7.810   3.895   0.180 -0.7474  0.4019 -0.7440
 3730SOL    HW113507   7.857   3.815   0.156 -0.2471  0.4071  0.1483
 3730SOL    HW213508   7.730   3.865   0.222 -1.1453  0.3852 -1.5063
 3731SOL     OW13509   2.349   1.323   5.669 -0.6678  0.0256 -0.3603
 3731SOL    HW113510   2.330   1.349   5.579 -1.2936  0.4681 -0.1067
 3731SOL    HW213511   2.304   1.388   5.723  1.2940  0.9325  0.2770
 3732SOL     OW13512   4.215   7.678   5.220 -0.1837  0.1789 -0.4992
 3732SOL    HW113513   4.169   7.664   5.137 -1.2196  0.9545 -0.0700
 3732SOL    HW213514   4.198   7.769   5.242 -1.4469 -0.4794  1.4662
 3733SOL     OW13515   5.010   9.566   5.996 -0.0153 -0.3812 -0.5899
 3733SOL    HW113516   4.977   9.514   5.923  3.5003  1.1351 -3.5746
 3733SOL    HW213517   4.969   9.652   5.984  1.7852  0.3434 -1.8840
 3734SOL     OW13518   2.428   2.923   7.797 -0.0922 -0.2714 -0.1704
 3734SOL    HW113519   2.483   2.848   7.778 -0.9650 -0.4907 -2.0842
 3734SOL    HW213520   2.446   2.985   7.726 -0.5978  0.6311  0.4604
 3735SOL     OW13521   8.013   8.557   3.709  0.2939  0.0450 -0.2491
 3735SOL    HW113522   8.046   8.545   3.620  0.2820  2.3157 -0.6287
 3735SOL    HW213523   8.061   8.632   3.743  0.0221 -0.5299  1.5543
 3736SOL     OW13524  10.324   5.916   9.081  0.8813  0.4060  0.3133
 3736SOL    HW113525  10.328   5.988   9.018  0.5036  1.1305  1.1050
 3736SOL    HW213526  10.269   5.850   9.038 -0.2948  1.3493  0.3123
 3737SOL     OW13527   9.445   9.821   0.924  0.0722  0.2694 -0.2121
 3737SOL    HW113528   9.390   9.762   0.974  1.6447 -1.4113 -0.3479
 3737SOL    HW213529   9.434   9.794   0.833 -1.1905  1.9548 -0.6051
 3738SOL     OW13530   5.147   6.181   1.727 -0.3978 -0.0024  0.3497
 3738SOL    HW113531   5.126   6.265   1.766 -1.0120 -0.4118  0.9238
 3738SOL    HW213532   5.235   6.161   1.759 -1.0221 -0.4966  1.8617
 3739SOL     OW13533  10.413   2.057   0.819  0.5929  0.0808  0.0194
 3739SOL    HW113534  10.371   2.030   0.901 -0.3133 -0.1089 -0.4965
 3739SOL    HW213535  10.490   2.001   0.811 -0.6932 -1.6834 -0.5163
 3740SOL     OW13536   9.529   8.821   1.300 -0.0901  0.0019 -0.0483
 3740SOL    HW113537   9.543   8.881   1.373  0.5288  0.1994 -0.3257
 3740SOL    HW213538   9.459   8.762   1.330  0.1384  0.1050  0.6856
 3741SOL     OW13539   6.331   1.083   0.464  0.5554  0.4292 -0.7560
 3741SOL    HW113540   6.304   1.014   0.525 -0.2782  1.5036  0.1086
 3741SOL    HW213541   6.335   1.039   0.379  3.0262 -1.4382  0.2012
 3742SOL     OW13542   5.426   9.651   6.516 -0.5894 -0.4870 -0.5241
 3742SOL    HW113543   5.400   9.735   6.553  0.9576 -1.4107  3.0442
 3742SOL    HW213544   5.521   9.654   6.514 -0.5491 -1.6090 -1.8517
 3743SOL     OW13545   4.246   7.243   9.607 -0.2036 -0.2335  0.0299
 3743SOL    HW113546   4.193   7.229   9.529 -1.2640  1.4701  0.4092
 3743SOL    HW213547   4.217   7.327   9.642  0.9152 -0.5024  1.7371
 3744SOL     OW13548   4.421   2.911   8.605 -0.0742  0.4564 -0.1627
 3744SOL    HW113549   4.345   2.940   8.554  1.4905  2.2768 -1.6048
 3744SOL    HW213550   4.425   2.816   8.590 -3.1235 -0.0705  1.5655
 3745SOL     OW13551   3.959   4.363   4.686 -0.0497  0.3439 -0.0141
 3745SOL    HW113552   3.980   4.285   4.737  1.7832  1.5330  1.1799
 3745SOL    HW213553   3.974   4.338   4.595 -1.3797 -1.2168  0.1537
 3746SOL     OW13554   3.840   7.001   1.208  0.4668  0.0716  0.4038
 3746SOL    HW113555   3.826   7.019   1.115  1.7918  2.8963  0.6524
 3746SOL    HW213556   3.848   6.905   1.213  0.7010 -0.1407 -2.4042
 3747SOL     OW13557   9.078   0.540   3.347  0.3605 -0.4684 -0.0003
 3747SOL    HW113558   9.158   0.512   3.391 -0.2651 -2.8087 -0.2605
 3747SOL    HW213559   9.019   0.565   3.418  0.4380 -1.2025  0.3245
 3748SOL     OW13560   8.698   7.135   4.190  0.1522 -0.1187 -0.4126
 3748SOL    HW113561   8.686   7.089   4.108 -0.4544  1.1798 -1.0869
 3748SOL    HW213562   8.768   7.198   4.172  1.3367 -1.0764  0.6434
 3749SOL     OW13563   6.645   2.831   3.244  0.2929  0.8213 -0.2294
 3749SOL    HW113564   6.639   2.872   3.157 -1.4460 -0.0473 -0.5498
 3749SOL    HW213565   6.587   2.756   3.239  1.5175 -0.2648  1.1611
 3750SOL     OW13566   6.658   7.559   5.327  0.1495  0.7112  0.0268
 3750SOL    HW113567   6.618   7.637   5.288 -0.9872 -0.3326 -0.9729
 3750SOL    HW213568   6.601   7.535   5.400  0.1891  0.5037 -0.0078
 3751SOL     OW13569   2.613   5.046   4.916  0.4512 -1.1547 -0.1220
 3751SOL    HW113570   2.552   5.075   4.983 -1.0725 -0.4073 -1.7523
 3751SOL    HW213571   2.603   4.951   4.913  1.0644 -1.2818  1.1431
 3752SOL     OW13572   0.475   2.498   9.447 -0.0068  0.3066  0.2539
 3752SOL    HW113573   0.529   2.482   9.369  2.9744 -1.8610  2.4937
 3752SOL    HW213574   0.497   2.588   9.472  2.7347 -0.4565  1.0213
 3753SOL     OW13575   5.132   2.590   0.481 -0.9197  0.4739  0.4499
 3753SOL    HW113576   5.087   2.671   0.460 -1.3398  0.0581 -0.2884
 3753SOL    HW213577   5.092   2.524   0.424 -0.1307 -0.1201  0.5569
 3754SOL     OW13578   9.929   6.640   1.400  0.3749 -0.6625 -0.6812
 3754SOL    HW113579   9.947   6.710   1.338  0.4204 -0.3392 -0.3075
 3754SOL    HW213580   9.942   6.680   1.486 -1.1415 -0.6907 -0.4190
 3755SOL     OW13581   5.256   9.387   8.469  0.0860 -0.7659 -0.6996
 3755SOL    HW113582   5.243   9.388   8.564 -3.1267  0.8889 -0.9943
 3755SOL    HW213583   5.241   9.296   8.443 -0.4351 -0.9618  0.2607
 3756SOL     OW13584   9.425   5.544   3.878 -0.0358 -0.6580 -0.0605
 3756SOL    HW113585   9.467   5.615   3.927 -1.6553 -0.5766  1.3284
 3756SOL    HW213586   9.386   5.489   3.946 -0.9302 -1.4896 -1.2129
 3757SOL     OW13587   0.346   4.669   0.056 -0.3527 -0.0873  0.4882
 3757SOL    HW113588   0.287   4.745   0.057 -3.8544 -2.4826 -1.7065
 3757SOL    HW213589   0.367   4.657  -0.037  1.3024 -1.0257  0.9439
 3758SOL     OW13590   5.813   0.716   2.594  0.0586 -0.0850 -0.6338
 3758SOL    HW113591   5.858   0.633   2.612  0.0572  0.2935  1.2586
 3758SOL    HW213592   5.881   0.772   2.556  1.0801  0.2440  1.5432
 3759SOL     OW13593   9.228   3.198   0.625 -0.0162 -0.1745 -0.0150
 3759SOL    HW113594   9.135   3.222   0.627  0.0805  0.1792  1.8251
 3759SOL    HW213595   9.228   3.103   0.625 -0.3933 -0.1857  0.8760
 3760SOL     OW13596   4.684   0.075   9.722 -0.5427 -0.2921 -0.0684
 3760SOL    HW113597   4.726   0.036   9.799 -1.1568 -1.5529 -0.3367
 3760SOL    HW213598   4.656   0.162   9.752 -0.4846 -0.6342  1.0379
 3761SOL     OW13599   6.998   0.207   7.928 -0.3616  0.3379 -0.4913
 3761SOL    HW113600   7.053   0.243   7.997 -0.2746  0.5151 -0.6508
 3761SOL    HW213601   6.959   0.284   7.886 -1.8160  0.1658  0.5018
 3762SOL     OW13602   3.502   3.553   8.999 -0.0069 -0.3390 -0.9726
 3762SOL    HW113603   3.526   3.485   9.062 -0.7130 -2.6529 -3.0561
 3762SOL    HW213604   3.586   3.583   8.963  0.2894 -3.1582 -2.9626
 3763SOL     OW13605   7.814   3.773   6.472  0.1116 -0.7030  0.1905
 3763SOL    HW113606   7.790   3.685   6.442  0.2240 -0.2617 -1.2523
 3763SOL    HW213607   7.742   3.829   6.443  1.9968  0.4023 -2.9164
 3764SOL     OW13608   9.203   4.454   5.045  0.0866 -0.1409  0.2456
 3764SOL    HW113609   9.221   4.548   5.048  0.5019 -0.2128  0.1290
 3764SOL    HW213610   9.214   4.430   4.953  1.8731 -0.6483  0.5463
 3765SOL     OW13611   3.248   2.023   8.532  0.1352 -0.2782  0.4479
 3765SOL    HW113612   3.286   1.972   8.603  1.1638  0.1539  0.2253
 3765SOL    HW213613   3.159   2.044   8.562  0.1925 -0.9859  1.1409
 3766SOL     OW13614   8.223   1.966   8.559  0.5365 -0.4669  0.1793
 3766SOL    HW113615   8.264   1.955   8.645  3.0668 -1.3029 -1.0521
 3766SOL    HW213616   8.202   2.059   8.554  0.4974 -0.3758  1.6208
 3767SOL     OW13617   1.366   3.096   3.112  0.4366 -0.2565  0.3874
 3767SOL    HW113618   1.359   3.145   3.194  0.7416 -0.8277  0.7642
 3767SOL    HW213619   1.437   3.139   3.065 -1.2459  1.5415 -0.6297
 3768SOL     OW13620   5.988   2.074   3.286  0.4123  0.2876  0.3927
 3768SOL    HW113621   5.986   1.982   3.261  1.3708  0.7545 -1.6504
 3768SOL    HW213622   5.906   2.088   3.334 -0.3043 -1.3485 -0.2743
 3769SOL     OW13623   3.031   5.109   9.799  0.5138  0.2665 -0.5373
 3769SOL    HW113624   3.023   5.204   9.788  2.1955  0.3567 -1.3265
 3769SOL    HW213625   2.971   5.072   9.734 -0.7802  0.7621  0.3413
 3770SOL     OW13626   4.461   4.518   4.908 -0.1453 -0.1465  0.0011
 3770SOL    HW113627   4.384   4.463   4.918 -0.6336  0.6186  0.6311
 3770SOL    HW213628   4.426   4.605   4.887  0.5463  0.1905  0.1893
 3771SOL     OW13629   5.205   9.454   7.123  0.6911 -0.5087  0.2274
 3771SOL    HW113630   5.234   9.386   7.062  1.8758  0.6907 -0.5865
 3771SOL    HW213631   5.281   9.510   7.135 -0.3917  0.9628  0.5055
 3772SOL     OW13632   0.769   5.763   8.851 -0.2317  0.1204  0.0827
 3772SOL    HW113633   0.724   5.746   8.768 -1.2320 -0.1149  0.6655
 3772SOL    HW213634   0.733   5.698   8.911  0.7230  0.0828  0.6295
 3773SOL     OW13635   1.702   7.391   2.533  0.0800 -0.3036 -0.1749
 3773SOL    HW113636   1.617   7.354   2.558 -0.6649  0.1343 -1.9060
 3773SOL    HW213637   1.766   7.338   2.582 -1.0770 -2.1093 -0.4955
 3774SOL     OW13638   3.294   6.430   5.295 -0.4657  0.3304  0.4900
 3774SOL    HW113639   3.364   6.375   5.331 -0.8436  0.6945  1.8305
 3774SOL    HW213640   3.290   6.406   5.202  1.2052  0.0616  0.4582
 3775SOL     OW13641   7.463   8.099   1.647  0.3681  0.2625  0.2685
 3775SOL    HW113642   7.418   8.055   1.718 -1.0883  0.4338 -0.5188
 3775SOL    HW213643   7.464   8.191   1.672 -1.1341  0.4884 -0.4033
 3776SOL     OW13644   6.025   4.454   2.465 -0.3784  0.4198 -0.6532
 3776SOL    HW113645   6.012   4.372   2.416 -1.1193  0.0151  0.1848
 3776SOL    HW213646   5.937   4.492   2.470 -0.4116  0.1923  0.7864
 3777SOL     OW13647   1.645   3.881   6.809  0.3575 -0.4217 -0.1527
 3777SOL    HW113648   1.632   3.803   6.864  2.6218  0.4490  1.7818
 3777SOL    HW213649   1.601   3.951   6.857  0.8600  0.0309 -0.3490
 3778SOL     OW13650   0.338   1.508   9.899 -0.1286  0.1638 -0.3998
 3778SOL    HW113651   0.276   1.517   9.971  0.6747  1.9079  0.1273
 3778SOL    HW213652   0.284   1.508   9.820 -0.9650 -1.0932  0.1266
 3779SOL     OW13653   7.550   6.264   3.039 -0.2985 -0.5887 -0.0271
 3779SOL    HW113654   7.596   6.244   2.957 -0.0360 -0.1826  0.0154
 3779SOL    HW213655   7.620   6.290   3.099 -0.5377 -0.4237  0.1815
 3780SOL     OW13656   7.113   0.933   9.638  0.0629 -0.3172 -0.1490
 3780SOL    HW113657   7.045   0.909   9.700 -0.2735  0.9782  0.0130
 3780SOL    HW213658   7.172   0.990   9.688  1.1680 -1.2481 -0.3416
 3781SOL     OW13659   4.856   1.099   4.959  0.0814  0.0882  0.1751
 3781SOL    HW113660   4.852   1.005   4.980  1.3858  0.4473  2.3082
 3781SOL    HW213661   4.906   1.102   4.877 -1.1243 -1.1225 -0.6626
 3782SOL     OW13662   4.103   9.759   9.121 -0.1931  0.0645 -0.1149
 3782SOL    HW113663   4.190   9.728   9.099 -0.9626 -1.9130 -0.6260
 3782SOL    HW213664   4.112   9.793   9.210  1.2723  0.7512 -0.5008
 3783SOL     OW13665   3.888   7.196   7.906 -0.7820 -0.4261 -0.2039
 3783SOL    HW113666   3.887   7.101   7.898 -2.3124 -0.4471 -0.1123
 3783SOL    HW213667   3.942   7.213   7.983  0.0856 -1.1680 -0.6318
 3784SOL     OW13668   8.653   2.748   4.435  1.1254  0.3441  0.1086
 3784SOL    HW113669   8.679   2.835   4.467 -1.0271  0.3850  1.9968
 3784SOL    HW213670   8.598   2.766   4.359  0.5988  0.6746  0.5559
 3785SOL     OW13671   3.647   2.833   0.400  0.7515  0.3031 -0.0715
 3785SOL    HW113672   3.676   2.828   0.491  1.9070  1.0671 -0.3797
 3785SOL    HW213673   3.712   2.781   0.352  0.8015  0.8544 -0.5974
 3786SOL     OW13674   1.626   5.356   1.336  0.8864  0.5492 -0.1089
 3786SOL    HW113675   1.654   5.443   1.309 -0.2615  1.0022  0.1478
 3786SOL    HW213676   1.632   5.303   1.256 -2.4072  1.8536 -1.3673
 3787SOL     OW13677   1.444   4.755   5.080 -0.1004 -0.0499 -0.3662
 3787SOL    HW113678   1.409   4.687   5.138  0.4787  0.9140  1.1958
 3787SOL    HW213679   1.377   4.823   5.081  0.3561  0.3986 -0.0158
 3788SOL     OW13680   1.481   1.453   5.566 -0.6719 -0.0082 -0.2435
 3788SOL    HW113681   1.576   1.441   5.560 -0.5480  0.7609  0.0078
 3788SOL    HW213682   1.463   1.529   5.511 -0.9215  0.7714  0.8662
 3789SOL     OW13683   8.757   4.398   8.657 -0.0495  0.5362  0.3279
 3789SOL    HW113684   8.745   4.342   8.734  1.0570  0.2282  0.2992
 3789SOL    HW213685   8.731   4.344   8.583  0.0356  0.4148  0.3864
 3790SOL     OW13686   4.937   0.825   1.224  0.3629  0.1712 -0.0760
 3790SOL    HW113687   4.937   0.784   1.311  0.4826  0.4940  0.0774
 3790SOL    HW213688   4.916   0.917   1.241 -0.3946  0.0777 -0.4684
 3791SOL     OW13689   0.327   4.739   0.617 -0.0790 -0.0695 -0.3154
 3791SOL    HW113690   0.363   4.712   0.533  0.9737 -1.6923  0.5995
 3791SOL    HW213691   0.238   4.703   0.617  0.3290 -1.1377 -0.2832
 3792SOL     OW13692   1.227   9.627   0.291 -0.5419  0.1287  0.2758
 3792SOL    HW113693   1.264   9.708   0.256 -0.4156 -0.4644 -0.9909
 3792SOL    HW213694   1.297   9.563   0.282 -0.6533 -0.1496  1.2523
 3793SOL     OW13695   6.360  10.570   2.547 -0.0604 -0.4194 -0.1102
 3793SOL    HW113696   6.451  10.598   2.558 -0.2264  1.1587 -2.0188
 3793SOL    HW213697   6.327  10.559   2.636  0.5297  4.1300  0.9196
 3794SOL     OW13698   4.640   7.987   1.393  0.2929 -0.1155  0.1425
 3794SOL    HW113699   4.712   8.040   1.427  0.0574 -0.1058  0.6285
 3794SOL    HW213700   4.578   7.981   1.465 -2.8032  4.2770 -1.6905
 3795SOL     OW13701   7.773   2.046   7.724  0.8807  0.5520  0.1037
 3795SOL    HW113702   7.754   1.966   7.675  1.4962  0.5865 -0.2023
 3795SOL    HW213703   7.746   2.117   7.666  1.6863  0.5947 -0.2288
 3796SOL     OW13704   7.000   0.044  10.231  0.1433 -0.0532 -0.0693
 3796SOL    HW113705   6.947  -0.029  10.262  0.0427 -0.2441 -0.6866
 3796SOL    HW213706   6.938   0.105  10.192  0.3107  0.0084 -0.2407
 3797SOL     OW13707   6.367   8.115   4.244  0.4252  0.8411  0.1196
 3797SOL    HW113708   6.341   8.081   4.330  0.0634 -0.3817 -0.4648
 3797SOL    HW213709   6.373   8.210   4.258  0.2732  0.6831  1.4683
 3798SOL     OW13710   0.014   6.305   4.662 -0.0986  0.2816  0.0160
 3798SOL    HW113711   0.092   6.346   4.625 -0.0005  0.0578 -0.0259
 3798SOL    HW213712  -0.024   6.371   4.719 -1.5383  1.5325 -2.2201
 3799SOL     OW13713   3.565   6.200   7.552 -0.0146 -0.5101  0.0868
 3799SOL    HW113714   3.603   6.201   7.640  0.9050 -0.0453 -0.3003
 3799SOL    HW213715   3.473   6.181   7.566  0.0364 -0.0257  1.1859
 3800SOL     OW13716   5.340   9.992   3.261 -0.2647 -0.1560  0.1637
 3800SOL    HW113717   5.254   9.992   3.220 -0.0532  0.7792 -0.3181
 3800SOL    HW213718   5.394  10.045   3.203  0.1608  0.8140  1.3946
 3801SOL     OW13719   0.641   7.381   9.848 -0.5297 -0.1855 -0.0095
 3801SOL    HW113720   0.677   7.293   9.841  0.3131  0.2653 -1.8759
 3801SOL    HW213721   0.707   7.438   9.808 -0.8249  1.3746  1.6282
 3802SOL     OW13722   6.937   6.392   4.131  0.5424 -0.1552  0.1369
 3802SOL    HW113723   6.947   6.306   4.092  1.2391  0.0019 -0.0429
 3802SOL    HW213724   6.868   6.434   4.080 -0.3184 -0.8719  0.6986
 3803SOL     OW13725   6.743   4.439   0.881 -0.2906  0.2848  0.9955
 3803SOL    HW113726   6.664   4.426   0.932 -1.6285 -0.4131 -1.1136
 3803SOL    HW213727   6.728   4.521   0.834  2.1581  2.5136  3.7521
 3804SOL     OW13728   7.425   1.754   2.944  0.0014  0.3103 -0.2852
 3804SOL    HW113729   7.518   1.774   2.936 -0.0662  0.1691 -1.8991
 3804SOL    HW213730   7.422   1.663   2.973  0.3886  0.0361 -1.0890
 3805SOL     OW13731   8.699   7.054   1.707  0.2235  0.0381 -0.0367
 3805SOL    HW113732   8.694   7.094   1.794  1.2257 -1.4523  0.7718
 3805SOL    HW213733   8.787   7.016   1.704 -0.1384 -0.7599 -1.3161
 3806SOL     OW13734   2.771   0.251   4.966  0.5469  0.3310 -0.0313
 3806SOL    HW113735   2.843   0.228   5.024  0.2890  0.2063  0.2464
 3806SOL    HW213736   2.808   0.313   4.904  0.2356  2.5578  1.8543
 3807SOL     OW13737   1.698   3.402   3.245 -0.1545  0.0778 -0.2489
 3807SOL    HW113738   1.689   3.488   3.287 -0.4791 -0.7259  1.4292
 3807SOL    HW213739   1.788   3.374   3.266  0.4539  0.5887 -2.0162
 3808SOL     OW13740   6.042   3.135   3.570  0.2364 -0.4125  0.0561
 3808SOL    HW113741   6.010   3.078   3.639  0.6426 -2.4888 -1.3767
 3808SOL    HW213742   5.964   3.177   3.535 -0.1880 -0.7641  0.5796
 3809SOL     OW13743   1.236   2.433   8.078 -0.1949  0.7952 -0.9608
 3809SOL    HW113744   1.182   2.485   8.137 -1.3323  0.3396 -1.5746
 3809SOL    HW213745   1.325   2.464   8.093 -0.5571  1.2100  0.4356
 3810SOL     OW13746   1.095   6.813   4.936 -0.1937 -0.4004 -0.2630
 3810SOL    HW113747   1.097   6.907   4.953  1.4580 -0.4415 -0.0417
 3810SOL    HW213748   1.109   6.772   5.022  0.1105 -0.8136 -0.5017
 3811SOL     OW13749   4.019   1.502   4.911  0.1133 -0.9367  0.0753
 3811SOL    HW113750   4.083   1.567   4.882  1.4930 -2.9873 -1.8282
 3811SOL    HW213751   3.951   1.504   4.843 -0.4788 -0.6454  0.6667
 3812SOL     OW13752   0.576   3.772   0.944  0.1150 -0.2486 -0.1657
 3812SOL    HW113753   0.593   3.725   0.863  2.3943 -0.3649  0.2942
 3812SOL    HW213754   0.535   3.854   0.917  0.6260 -0.3830 -1.4269
 3813SOL     OW13755   5.010   4.863   2.160 -0.2962 -0.3899 -0.1659
 3813SOL    HW113756   4.939   4.927   2.159  0.4817  0.4907 -0.7952
 3813SOL    HW213757   4.980   4.793   2.102 -1.1371 -0.5947  0.4977
 3814SOL     OW13758   9.514   0.480   1.997 -0.0222 -0.1383 -0.2301
 3814SOL    HW113759   9.473   0.398   1.969 -1.8848  0.3659  0.8431
 3814SOL    HW213760   9.449   0.547   1.980  1.4913  1.1826 -1.1376
 3815SOL     OW13761   6.546   4.135   9.964  0.3593  0.0876 -0.8669
 3815SOL    HW113762   6.521   4.119   9.873  1.5850  1.0875 -1.3964
 3815SOL    HW213763   6.472   4.101  10.015 -1.4303  1.5988 -2.3125
 3816SOL     OW13764   1.360   8.711   1.415 -0.3018  0.2361  0.2565
 3816SOL    HW113765   1.275   8.753   1.432  0.4402  0.9114  2.6106
 3816SOL    HW213766   1.337   8.621   1.389 -1.7969  1.2151 -2.2072
 3817SOL     OW13767   6.694   2.030   8.855  0.0923  0.4569  0.0687
 3817SOL    HW113768   6.602   2.054   8.849 -0.7861 -2.1565  1.5560
 3817SOL    HW213769   6.714   1.988   8.771 -0.0862  0.9114 -0.2040
 3818SOL     OW13770   2.847   9.175   8.834  0.3651 -0.0578 -0.0231
 3818SOL    HW113771   2.904   9.250   8.817  1.5183 -0.7328  0.7194
 3818SOL    HW213772   2.791   9.204   8.906 -0.6990  0.8251 -1.1568
 3819SOL     OW13773   2.457   5.878   8.845 -0.2669 -0.3037 -0.2531
 3819SOL    HW113774   2.540   5.870   8.798  0.7919  0.8566  1.3145
 3819SOL    HW213775   2.440   5.790   8.878  0.0765 -0.6618 -0.9998
 3820SOL     OW13776   4.309   1.021   6.343 -0.3753  0.6035 -0.3421
 3820SOL    HW113777   4.331   1.103   6.300  2.6886 -0.8397 -1.8571
 3820SOL    HW213778   4.295   0.959   6.271 -1.1260 -0.5543  0.7528
 3821SOL     OW13779   4.600   4.795   1.239 -0.0454 -0.3057 -0.4090
 3821SOL    HW113780   4.569   4.710   1.209 -0.6320  0.6032 -2.5799
 3821SOL    HW213781   4.683   4.777   1.283 -1.4136 -2.2664  1.5447
 3822SOL     OW13782   8.257   3.822  10.580 -0.2363  0.1796  0.3964
 3822SOL    HW113783   8.333   3.855  10.532  0.0017  0.3515  0.8887
 3822SOL    HW213784   8.181   3.864  10.538 -0.0330  0.3084  0.1570
 3823SOL     OW13785   8.463   3.302   6.415 -0.4363  0.4653  0.1148
 3823SOL    HW113786   8.461   3.372   6.480  1.2640 -0.0918  0.8375
 3823SOL    HW213787   8.519   3.335   6.345  0.5531 -0.2064  0.5579
 3824SOL     OW13788   2.251   1.443   6.285 -0.1789 -0.4147 -0.4251
 3824SOL    HW113789   2.324   1.429   6.346 -1.0233  1.8703  1.2718
 3824SOL    HW213790   2.240   1.359   6.241  3.9108 -0.6777 -1.3637
 3825SOL     OW13791   5.327   3.986   4.849  0.1372 -0.2474  0.3804
 3825SOL    HW113792   5.372   3.910   4.813  0.2104 -0.8171  1.6200
 3825SOL    HW213793   5.395   4.034   4.897 -0.2787 -0.3782  1.1127
 3826SOL     OW13794   0.208   6.760   4.282  0.3986  0.0192  0.2301
 3826SOL    HW113795   0.204   6.854   4.298  0.1108  0.0714 -0.1491
 3826SOL    HW213796   0.262   6.751   4.204  1.2607 -0.1989  0.8323
 3827SOL     OW13797   2.699   4.741   9.606  0.2959 -0.6809  0.1709
 3827SOL    HW113798   2.782   4.762   9.651  0.2446 -1.5234  0.6854
 3827SOL    HW213799   2.716   4.657   9.563  0.2490 -0.0258 -1.1888
 3828SOL     OW13800   9.483   5.183  10.133  0.3978  0.2884  0.4900
 3828SOL    HW113801   9.406   5.180  10.077  0.1362  0.2763  0.8447
 3828SOL    HW213802   9.483   5.273  10.168 -0.0274 -0.0001  1.2710
 3829SOL     OW13803  10.350   5.244   5.913 -0.1570 -0.0423 -0.0195
 3829SOL    HW113804  10.426   5.190   5.890 -1.1596 -0.7146 -2.0046
 3829SOL    HW213805  10.285   5.181   5.944 -1.3723 -0.0875 -2.4391
 3830SOL     OW13806   4.357   6.685   2.655  0.2079  0.3542  0.2867
 3830SOL    HW113807   4.368   6.601   2.698  1.4889  0.1744 -0.3688
 3830SOL    HW213808   4.382   6.670   2.564  0.5069  1.4466  0.1677
 3831SOL     OW13809   6.317   4.641   1.370  0.3193  0.0225 -0.3754
 3831SOL    HW113810   6.408   4.661   1.392  0.0978 -0.3345  0.9384
 3831SOL    HW213811   6.306   4.675   1.281  1.7737 -0.0688 -0.6162
 3832SOL     OW13812   2.109   2.269   0.217  0.1372  0.2829 -0.2271
 3832SOL    HW113813   2.055   2.204   0.173 -0.5692  2.2399 -2.4464
 3832SOL    HW213814   2.059   2.351   0.210  2.1908  1.6351  0.0137
 3833SOL     OW13815   9.122   8.915   3.359 -0.4236  0.1457 -0.0331
 3833SOL    HW113816   9.185   8.917   3.287  0.0855 -0.3011  0.3947
 3833SOL    HW213817   9.062   8.987   3.340  1.3484  1.8951  0.5940
 3834SOL     OW13818   0.728   5.152   9.177 -0.0641  0.4354  0.5443
 3834SOL    HW113819   0.781   5.226   9.147 -1.7954  1.5970  0.1938
 3834SOL    HW213820   0.638   5.179   9.159 -0.7806 -1.5106  1.0093
 3835SOL     OW13821   7.206   6.201   1.202 -0.7355 -0.0230  0.3036
 3835SOL    HW113822   7.133   6.257   1.227 -0.7967 -0.5639  1.3927
 3835SOL    HW213823   7.243   6.171   1.285 -0.4267 -1.2167 -0.2436
 3836SOL     OW13824   6.493   1.276   0.079 -0.3340 -0.6442 -0.3247
 3836SOL    HW113825   6.560   1.318   0.025  2.4026 -0.8052  2.6888
 3836SOL    HW213826   6.509   1.182   0.069 -1.4908 -0.7864 -1.1159
 3837SOL     OW13827   0.849   9.364   7.766 -0.3035 -0.1016 -0.3997
 3837SOL    HW113828   0.944   9.370   7.751  0.0091 -0.1900  1.3757
 3837SOL    HW213829   0.823   9.453   7.787 -0.3714 -0.3098  0.4096
 3838SOL     OW13830   8.710   9.701   2.663  0.2026 -0.1873  0.5245
 3838SOL    HW113831   8.657   9.774   2.629 -0.3128 -0.8663 -0.1541
 3838SOL    HW213832   8.659   9.623   2.642  0.0701 -0.6759  2.4758
 3839SOL     OW13833   4.626   4.556   7.263  0.3512  0.4142 -0.3613
 3839SOL    HW113834   4.569   4.632   7.280  0.5383  0.6245 -0.6587
 3839SOL    HW213835   4.602   4.528   7.174  0.7550  0.5439 -0.5131
 3840SOL     OW13836   3.317   0.897   7.147  0.3029 -0.5125 -0.1688
 3840SOL    HW113837   3.377   0.862   7.081  2.3336  0.9663  0.7734
 3840SOL    HW213838   3.246   0.937   7.097  0.8726 -0.9706 -1.3763
 3841SOL     OW13839   6.392   0.054   3.067  0.4391  0.4567 -0.2262
 3841SOL    HW113840   6.397  -0.036   3.099  1.7802  0.3910 -0.5721
 3841SOL    HW213841   6.316   0.091   3.111 -0.1070 -0.8282 -0.0404
 3842SOL     OW13842   2.214   8.503   0.949  0.7123 -0.0135  0.1095
 3842SOL    HW113843   2.296   8.471   0.911  3.2431  4.1035  1.4293
 3842SOL    HW213844   2.213   8.466   1.037  0.2788 -1.3254 -0.4283
 3843SOL     OW13845  10.248   5.045   6.795  0.2518  0.1698  0.0417
 3843SOL    HW113846  10.249   5.002   6.709 -0.5149  0.8294 -0.3046
 3843SOL    HW213847  10.224   4.975   6.856 -0.9751  0.0841 -0.5152
 3844SOL     OW13848   2.194   2.985   3.240  0.4138 -0.1377 -0.2003
 3844SOL    HW113849   2.127   2.970   3.173  0.7218 -0.1493 -0.5153
 3844SOL    HW213850   2.202   2.901   3.285 -0.6374  0.2052  0.6460
 3845SOL     OW13851   2.428   0.649   5.277 -0.0087 -0.0448  0.6432
 3845SOL    HW113852   2.427   0.745   5.278  0.3192 -0.0324  0.2002
 3845SOL    HW213853   2.408   0.626   5.187 -1.7509 -0.4345  1.0990
 3846SOL     OW13854  10.360   3.041   9.068  0.4847  0.3096  0.1611
 3846SOL    HW113855  10.391   3.049   8.978 -1.9572  0.5839 -0.7291
 3846SOL    HW213856  10.439   3.021   9.118  2.2336  1.8846 -1.7403
 3847SOL     OW13857   5.484   3.140   7.953  0.3703  0.2767 -0.1127
 3847SOL    HW113858   5.413   3.089   7.914  0.5230 -0.1844  0.2005
 3847SOL    HW213859   5.468   3.137   8.047  0.9091  0.0028 -0.0262
 3848SOL     OW13860   1.493   8.152   3.939 -0.0925  0.0825  0.8107
 3848SOL    HW113861   1.543   8.228   3.908  0.6375 -1.0794 -1.0316
 3848SOL    HW213862   1.559   8.093   3.974 -0.5476 -0.1097  1.3410
 3849SOL     OW13863   7.119   5.432   3.849  0.3270 -0.3840 -0.1241
 3849SOL    HW113864   7.087   5.342   3.850 -0.5456 -0.0886 -0.2529
 3849SOL    HW213865   7.054   5.481   3.900 -1.8331  0.9984 -3.8373
 3850SOL     OW13866   9.569   0.557   1.259  0.1711  0.1294  0.0979
 3850SOL    HW113867   9.605   0.610   1.188 -1.3032 -2.9696 -3.3272
 3850SOL    HW213868   9.637   0.491   1.275  0.4791  0.7924  1.6423
 3851SOL     OW13869   8.055   1.525   5.658  0.3557 -0.3807 -0.5247
 3851SOL    HW113870   8.118   1.474   5.607 -0.6177 -0.4115 -1.7440
 3851SOL    HW213871   8.066   1.495   5.748  2.2180 -0.2389 -0.6600
 3852SOL     OW13872   9.145   7.393  10.209  0.3175 -0.4870  0.6393
 3852SOL    HW113873   9.104   7.407  10.124  2.2551 -0.4421 -0.3400
 3852SOL    HW213874   9.079   7.422  10.272 -0.8555  0.2551 -0.8555
 3853SOL     OW13875   5.858   9.841   1.156  0.3813  0.1526 -0.4382
 3853SOL    HW113876   5.801   9.793   1.095  0.3869  0.6682 -0.8580
 3853SOL    HW213877   5.833   9.933   1.145  1.3135  0.3956 -0.6550
 3854SOL     OW13878  10.384   7.503   8.463 -0.7490  0.2080  0.1402
 3854SOL    HW113879  10.459   7.557   8.437 -2.0834  2.3822  0.5897
 3854SOL    HW213880  10.406   7.472   8.551  0.1658 -0.3047 -0.2474
 3855SOL     OW13881   9.132   0.021   7.084  0.0105 -0.1095 -0.0849
 3855SOL    HW113882   9.135   0.086   7.155 -1.0383 -0.5496  0.3866
 3855SOL    HW213883   9.080   0.063   7.015 -0.1163 -0.1947 -0.0421
 3856SOL     OW13884   4.999  10.068   7.169 -0.1815 -0.0851  0.4855
 3856SOL    HW113885   4.931  10.063   7.236 -0.4255  2.2558  0.4903
 3856SOL    HW213886   4.955  10.038   7.089 -0.5741 -0.6708  0.9132
 3857SOL     OW13887   3.502   3.639   9.705  0.0965 -0.1839  0.1613
 3857SOL    HW113888   3.513   3.655   9.799 -0.1464 -1.8209  0.4862
 3857SOL    HW213889   3.407   3.630   9.693  0.2375 -1.9058  0.1201
 3858SOL     OW13890   4.767   9.687  10.278  0.3505  0.3191  0.0810
 3858SOL    HW113891   4.705   9.755  10.305  0.9642  1.8752 -2.1077
 3858SOL    HW213892   4.730   9.653  10.197  1.4687  0.0460 -0.3326
 3859SOL     OW13893   4.887   5.134   4.397  0.0164  0.0704 -0.4602
 3859SOL    HW113894   4.839   5.151   4.316 -1.6182  2.7928  0.9398
 3859SOL    HW213895   4.865   5.044   4.420 -1.8571  0.2113 -1.5278
 3860SOL     OW13896   2.841   2.948   5.523 -0.0857  0.3814 -0.5242
 3860SOL    HW113897   2.869   2.868   5.480 -0.4115  0.3870 -0.7492
 3860SOL    HW213898   2.760   2.924   5.568 -0.7352  0.8433 -1.4327
 3861SOL     OW13899   7.278   4.978   5.865  0.7871 -0.4139  0.7496
 3861SOL    HW113900   7.258   4.890   5.833  0.7203 -0.1890  0.1625
 3861SOL    HW213901   7.372   4.976   5.882  0.9705 -0.3110 -0.1980
 3862SOL     OW13902   5.640   4.142   2.440 -0.4478  0.0886  0.2904
 3862SOL    HW113903   5.647   4.095   2.523 -1.8966 -0.9485 -0.1294
 3862SOL    HW213904   5.608   4.229   2.464 -0.1259  0.0516  0.8708
 3863SOL     OW13905   3.919   1.345   3.849  0.1808 -0.4620 -0.3839
 3863SOL    HW113906   3.968   1.406   3.904  0.1946 -1.6990  1.0389
 3863SOL    HW213907   3.974   1.266   3.846 -1.7329 -1.9872  1.4673
 3864SOL     OW13908   3.039   8.414   8.164 -0.5327 -0.0533  0.5133
 3864SOL    HW113909   3.059   8.391   8.255  0.4059  0.0586  0.3356
 3864SOL    HW213910   3.015   8.507   8.168 -0.8593 -0.1410  0.6924
 3865SOL     OW13911   9.367  10.451   3.752 -0.5202 -0.3604  0.1084
 3865SOL    HW113912   9.326  10.409   3.828 -0.6071 -0.4097  0.0334
 3865SOL    HW213913   9.311  10.526   3.734 -0.0546  0.1180  0.5966
 3866SOL     OW13914   8.392   1.640   3.925  0.1981 -0.1960 -0.0115
 3866SOL    HW113915   8.477   1.677   3.949 -0.8450  1.4703  1.3178
 3866SOL    HW213916   8.397   1.549   3.955  2.2545 -0.7993 -1.9405
 3867SOL     OW13917   1.952   4.447   1.453 -0.0676 -0.4395 -0.3705
 3867SOL    HW113918   1.872   4.453   1.401  0.0762 -0.1730 -0.5661
 3867SOL    HW213919   1.945   4.519   1.517 -1.0606 -1.8201  1.1539
 3868SOL     OW13920   3.159   3.021   3.144  0.3446  0.0108  0.5766
 3868SOL    HW113921   3.137   2.927   3.141  0.7074 -0.1508  2.1496
 3868SOL    HW213922   3.197   3.039   3.058 -2.3534 -0.5661 -0.8824
 3869SOL     OW13923   6.626   9.058   6.766 -0.3131 -0.8260  0.3065
 3869SOL    HW113924   6.580   9.092   6.690  2.0797  0.0843 -0.8330
 3869SOL    HW213925   6.649   8.968   6.742  2.7123  0.2380 -1.2949
 3870SOL     OW13926   6.949   3.417   3.452 -0.3411 -0.0718  0.2594
 3870SOL    HW113927   7.039   3.414   3.420 -0.2859 -0.4649  0.4541
 3870SOL    HW213928   6.896   3.388   3.378 -0.3553  0.6732 -0.0313
 3871SOL     OW13929   6.979  10.218   1.039  0.3535 -0.0717 -0.1503
 3871SOL    HW113930   7.018  10.293   1.084 -1.1712 -1.6060  4.2368
 3871SOL    HW213931   6.887  10.220   1.065 -0.2700 -2.1511 -1.9452
 3872SOL     OW13932   8.515   9.604   2.089 -0.0720  0.4515 -0.4228
 3872SOL    HW113933   8.513   9.671   2.158  1.3955 -0.3783  0.4625
 3872SOL    HW213934   8.512   9.654   2.008 -0.6279  1.5114  0.2221
 3873SOL     OW13935   2.673   6.057   5.781  0.0714  0.1343  0.0198
 3873SOL    HW113936   2.730   6.075   5.856 -1.1314  0.4633  0.8760
 3873SOL    HW213937   2.649   5.964   5.791 -1.5642  0.6345  1.1165
 3874SOL     OW13938   1.584   4.258   0.255  0.7058  0.9062  0.4171
 3874SOL    HW113939   1.669   4.291   0.282 -0.0220  2.6026  0.7608
 3874SOL    HW213940   1.536   4.246   0.337  0.7094 -0.3729  0.2513
 3875SOL     OW13941   4.872  10.549   7.416  0.2290 -0.4859  0.2673
 3875SOL    HW113942   4.786  10.583   7.393 -0.3354 -0.5331  2.1495
 3875SOL    HW213943   4.921  10.625   7.446  0.5136 -0.6262  0.1640
 3876SOL     OW13944   7.832   1.890   3.600  0.3445  0.7165  0.4405
 3876SOL    HW113945   7.774   1.882   3.524 -0.1190  2.5074  0.5678
 3876SOL    HW213946   7.910   1.934   3.566  1.3073 -0.9065  0.4612
 3877SOL     OW13947   8.391  10.411   6.939  0.6450 -0.5451 -0.4315
 3877SOL    HW113948   8.297  10.412   6.957  0.7067 -0.6017 -0.1092
 3877SOL    HW213949   8.401  10.470   6.864  0.5779  0.8318  0.6195
 3878SOL     OW13950   4.594   9.252   5.522 -0.0003 -0.7178 -0.2662
 3878SOL    HW113951   4.646   9.305   5.462 -1.5764 -0.0035 -1.0374
 3878SOL    HW213952   4.572   9.173   5.473 -0.2508 -0.6941 -0.1943
 3879SOL     OW13953   8.433   0.300   8.077 -0.4003 -0.3117 -0.6213
 3879SOL    HW113954   8.465   0.235   8.140 -1.8279 -0.5975 -0.1599
 3879SOL    HW213955   8.455   0.263   7.991 -0.4550 -1.0015 -0.3417
 3880SOL     OW13956   6.761   1.206   3.495 -0.0614  0.1750  0.2473
 3880SOL    HW113957   6.806   1.193   3.578 -1.1616 -0.3695  0.7724
 3880SOL    HW213958   6.791   1.135   3.439  1.2434  0.9596 -0.0897
 3881SOL     OW13959   4.637   3.314   9.241 -0.0405  0.1476  0.1459
 3881SOL    HW113960   4.659   3.292   9.150 -2.8819  0.0790 -0.6206
 3881SOL    HW213961   4.643   3.409   9.245  3.1306  0.0206  0.8525
 3882SOL     OW13962   2.275   3.325   7.272  0.2340 -0.2827  0.3905
 3882SOL    HW113963   2.213   3.380   7.224  0.7926  0.0870  0.0774
 3882SOL    HW213964   2.351   3.381   7.286  1.3222 -1.3229 -1.0115
 3883SOL     OW13965   6.362   1.157   8.661  0.4943 -0.4643 -0.2532
 3883SOL    HW113966   6.282   1.143   8.610  0.6425  0.0950 -0.6527
 3883SOL    HW213967   6.341   1.123   8.748 -1.3645  2.4715  0.6339
 3884SOL     OW13968   0.743  10.288   2.615  0.3081 -0.4143 -0.2225
 3884SOL    HW113969   0.756  10.194   2.602 -0.9296 -0.9668  1.9356
 3884SOL    HW213970   0.793  10.308   2.694  1.2563  0.9647 -1.1294
 3885SOL     OW13971   1.069   2.664   2.211  0.3249 -0.4602  0.3084
 3885SOL    HW113972   1.037   2.693   2.125 -1.9726 -0.5590  1.0677
 3885SOL    HW213973   1.137   2.728   2.234 -2.2733  2.4649  0.4459
 3886SOL     OW13974   0.486   1.623   6.452  0.3676 -0.1455 -0.1590
 3886SOL    HW113975   0.525   1.653   6.370  0.1582  0.4795 -0.0338
 3886SOL    HW213976   0.392   1.617   6.433  0.3854 -0.5205 -0.1233
 3887SOL     OW13977   0.497   4.544   6.146  0.1903  0.2781  0.6631
 3887SOL    HW113978   0.428   4.610   6.138  1.7552  2.4218  3.1976
 3887SOL    HW213979   0.451   4.463   6.170 -1.5150  1.5246  1.8143
 3888SOL     OW13980   7.566   3.324   4.222 -0.1269  0.0338 -0.4253
 3888SOL    HW113981   7.652   3.362   4.238 -0.3581  0.6559 -0.6283
 3888SOL    HW213982   7.537   3.294   4.308 -0.2205  0.9349 -0.1284
 3889SOL     OW13983   8.955   6.306   6.961  0.3343  0.2954  0.7061
 3889SOL    HW113984   8.910   6.371   7.015 -1.0619 -1.4015  1.6485
 3889SOL    HW213985   9.016   6.358   6.909  0.9798  2.1502  3.0918
 3890SOL     OW13986   1.103   9.761   8.577 -0.3267 -0.1065 -0.1823
 3890SOL    HW113987   1.127   9.671   8.553  0.0349 -0.4924  1.5468
 3890SOL    HW213988   1.008   9.764   8.564 -0.1648 -0.2687 -1.6438
 3891SOL     OW13989   8.454   3.968   6.502  1.0245  0.1160 -0.4466
 3891SOL    HW113990   8.367   3.956   6.462  1.2983 -0.0013 -1.0143
 3891SOL    HW213991   8.455   4.060   6.528  0.8385  0.1991 -0.7187
 3892SOL     OW13992   4.775   3.641   5.044  0.2899  0.4136 -0.0610
 3892SOL    HW113993   4.843   3.588   5.001  0.8257  0.3209  0.8701
 3892SOL    HW213994   4.811   3.729   5.046 -0.5653  0.8187 -1.5283
 3893SOL     OW13995   9.799   3.936   7.166  0.6528 -0.5458 -0.8230
 3893SOL    HW113996   9.823   3.977   7.249  0.0983 -2.2498  0.2317
 3893SOL    HW213997   9.881   3.930   7.117  0.9804  0.4780 -0.4199
 3894SOL     OW13998   6.910   4.066   3.192 -0.2639  0.4393  0.6057
 3894SOL    HW113999   6.965   3.988   3.192 -0.3638  0.3677  0.3155
 3894SOL    HW214000   6.843   4.048   3.257 -0.9011 -0.1556 -0.1989
 3895SOL     OW14001   4.950   8.870   1.411 -0.1142  0.3403 -0.2115
 3895SOL    HW114002   4.860   8.874   1.445 -0.9708 -1.0798 -2.1035
 3895SOL    HW214003   4.940   8.839   1.321  2.2357  1.0242 -0.7863
 3896SOL     OW14004   8.829   1.561  10.379  0.1736  0.0800 -0.1042
 3896SOL    HW114005   8.805   1.629  10.441 -2.0930 -1.3769  0.7383
 3896SOL    HW214006   8.921   1.578  10.359  0.5064  1.6107  2.3194
 3897SOL     OW14007   3.187   5.440   3.386  0.1396 -0.4673  0.3798
 3897SOL    HW114008   3.280   5.447   3.362  0.1474  1.5180  0.8412
 3897SOL    HW214009   3.147   5.399   3.309  1.3163 -0.9363 -0.0227
 3898SOL     OW14010   5.647   4.186   6.316 -0.4659  0.4261  0.2042
 3898SOL    HW114011   5.607   4.211   6.233 -0.7216  2.2404  0.8371
 3898SOL    HW214012   5.675   4.095   6.303 -0.8314  0.5594 -1.7222
 3899SOL     OW14013   4.983   9.358   2.839  0.2122  0.0532  0.6792
 3899SOL    HW114014   4.902   9.314   2.863  0.3732  0.1262  1.3756
 3899SOL    HW214015   5.035   9.290   2.796 -0.7900  0.3782 -1.1381
 3900SOL     OW14016   8.879   6.321   7.672  0.3360  0.2401 -0.5954
 3900SOL    HW114017   8.845   6.365   7.750 -0.6056  1.3468 -1.5821
 3900SOL    HW214018   8.962   6.283   7.700  0.1293  0.8029  0.8816
 3901SOL     OW14019   0.143   3.020   4.642  0.4886 -0.2538 -0.1036
 3901SOL    HW114020   0.198   2.943   4.657  1.5336  0.4758 -0.0706
 3901SOL    HW214021   0.163   3.047   4.553 -0.4904 -0.4836 -0.4072
 3902SOL     OW14022   9.340   5.315   2.385 -0.2465 -0.4979 -0.4482
 3902SOL    HW114023   9.266   5.372   2.404  0.9875  0.6211  1.4142
 3902SOL    HW214024   9.410   5.347   2.443  1.5242 -1.8383 -1.7225
 3903SOL     OW14025   9.123   8.018   1.556  0.0739  0.6385 -0.2199
 3903SOL    HW114026   9.174   7.939   1.574 -2.4591 -1.1408 -0.2802
 3903SOL    HW214027   9.183   8.091   1.576  3.5573 -1.1464 -2.9944
 3904SOL     OW14028   2.528   9.699   3.995 -0.2362  0.0358  0.2664
 3904SOL    HW114029   2.511   9.681   3.903  0.0595 -0.5069  0.3160
 3904SOL    HW214030   2.581   9.779   3.994  0.4113 -0.3866 -0.0797
 3905SOL     OW14031   3.744   2.367   8.139  0.6250  0.3208 -0.7491
 3905SOL    HW114032   3.670   2.312   8.114  0.6900  0.1722 -0.6153
 3905SOL    HW214033   3.722   2.454   8.106 -0.4877  0.7236  0.9036
 3906SOL     OW14034   5.462   0.781   8.180  0.0865  0.2501 -0.0672
 3906SOL    HW114035   5.373   0.813   8.164 -0.0788 -0.0417  0.2349
 3906SOL    HW214036   5.464   0.695   8.138 -0.1779 -0.2822  0.9819
 3907SOL     OW14037   5.422   7.053   4.283  0.0575 -0.1551  0.2267
 3907SOL    HW114038   5.414   7.103   4.202  3.5615  0.7983  0.3112
 3907SOL    HW214039   5.407   7.116   4.353  0.4032 -0.1685  0.3163
 3908SOL     OW14040   3.368   1.920   6.282 -0.0825 -0.1293  0.4747
 3908SOL    HW114041   3.394   1.848   6.224 -0.9035  0.4996 -0.7144
 3908SOL    HW214042   3.286   1.892   6.322 -2.2188  1.3701 -2.5040
 3909SOL     OW14043   3.402   1.382   5.529  0.1811 -0.2713 -0.2284
 3909SOL    HW114044   3.358   1.320   5.587 -0.0630  1.0528  1.0645
 3909SOL    HW214045   3.332   1.438   5.497  0.3762 -0.7365 -1.5117
 3910SOL     OW14046   9.771   5.191   6.191  0.2899  0.1521  0.3416
 3910SOL    HW114047   9.790   5.202   6.284  0.9069  4.1688 -0.0969
 3910SOL    HW214048   9.855   5.171   6.152 -0.2980 -3.9467  0.7099
 3911SOL     OW14049  10.254   3.867   2.177 -0.3615 -0.9139  0.1484
 3911SOL    HW114050  10.178   3.810   2.167  0.7420 -2.1848 -1.8177
 3911SOL    HW214051  10.256   3.918   2.096  0.2894 -0.1178  0.6527
 3912SOL     OW14052  10.479   7.351   7.706 -0.2266 -0.6060 -0.5836
 3912SOL    HW114053  10.557   7.405   7.717 -1.3965  0.8951  1.0527
 3912SOL    HW214054  10.418   7.407   7.657 -1.1768 -0.7085  0.4389
 3913SOL     OW14055   8.783   0.204   0.781  0.1821  0.4039 -0.3324
 3913SOL    HW114056   8.868   0.248   0.777  1.4562 -1.8882 -0.5324
 3913SOL    HW214057   8.745   0.218   0.695  0.9623  0.3959 -0.6900
 3914SOL     OW14058  10.326   1.243   3.468  0.0230  0.3267  0.1817
 3914SOL    HW114059  10.249   1.205   3.426 -0.6584  1.1829  0.6369
 3914SOL    HW214060  10.374   1.167   3.502 -1.2430 -0.1599  0.9432
 3915SOL     OW14061   7.072   3.547   1.073  0.0954 -0.4270 -0.1795
 3915SOL    HW114062   7.063   3.467   1.022 -0.0332  0.1806 -1.1233
 3915SOL    HW214063   6.994   3.550   1.127  1.6001 -2.6639  2.4103
 3916SOL     OW14064   4.985   6.968   2.880  0.3351 -0.1308  0.6888
 3916SOL    HW114065   4.930   6.952   2.804  1.6373  0.2346 -0.3609
 3916SOL    HW214066   4.985   6.884   2.927 -1.3312 -0.0469  0.8912
 3917SOL     OW14067   2.470   3.035  10.109 -0.1697  0.5725  0.7562
 3917SOL    HW114068   2.418   3.083  10.044 -0.9179 -1.6815 -0.4231
 3917SOL    HW214069   2.478   3.095  10.183 -0.3961  2.7604 -0.8980
 3918SOL     OW14070   8.526   1.820   0.870  0.4855 -0.0362 -0.7687
 3918SOL    HW114071   8.492   1.847   0.955  1.9196 -1.4510  0.3108
 3918SOL    HW214072   8.448   1.811   0.814 -0.4351  1.3513  0.2279
 3919SOL     OW14073   5.034  10.260   1.470 -0.2272 -0.0294  0.4629
 3919SOL    HW114074   5.101  10.325   1.493 -0.3569 -0.6200  2.7873
 3919SOL    HW214075   5.049  10.188   1.531 -1.2534 -1.4096 -0.8370
 3920SOL     OW14076   4.597   8.676   2.680 -0.2876  0.5684 -0.2139
 3920SOL    HW114077   4.659   8.605   2.694 -0.7482  0.1899 -0.0438
 3920SOL    HW214078   4.592   8.686   2.585  0.2259  0.7732 -0.2176
 3921SOL     OW14079   2.526   2.492   7.811 -0.6430  0.2284  0.2321
 3921SOL    HW114080   2.471   2.490   7.889  2.0570  0.2882  2.2741
 3921SOL    HW214081   2.590   2.422   7.824 -0.2483  0.0640 -2.0873
 3922SOL     OW14082   8.110   8.627   5.928 -0.8462 -0.2032  0.2390
 3922SOL    HW114083   8.088   8.697   5.989 -0.3859  1.5968 -1.5458
 3922SOL    HW214084   8.198   8.599   5.954 -0.6969  0.4657  0.4794
 3923SOL     OW14085   1.755   6.441   8.501  0.8542  0.2331  0.2919
 3923SOL    HW114086   1.795   6.356   8.517  0.1977 -0.3750 -1.1669
 3923SOL    HW214087   1.794   6.471   8.419  1.5420  1.6573  1.0881
 3924SOL     OW14088   5.872  10.175   8.407 -0.2321  0.2875 -0.8012
 3924SOL    HW114089   5.877  10.104   8.343  2.6996  0.3291 -0.7622
 3924SOL    HW214090   5.849  10.252   8.355 -1.8017 -0.3582 -1.1097
 3925SOL     OW14091   9.577   6.288   2.189  0.5826 -0.2978  0.1179
 3925SOL    HW114092   9.507   6.253   2.134  0.1801  1.3341 -0.4708
 3925SOL    HW214093   9.645   6.313   2.126  0.7808  0.1400  0.5075
 3926SOL     OW14094   5.222   1.686   2.975  0.1364  0.3938  0.2791
 3926SOL    HW114095   5.138   1.658   3.012  0.4478  0.7080  1.2641
 3926SOL    HW214096   5.277   1.703   3.052  2.1263 -2.7080 -0.2973
 3927SOL     OW14097   6.169   6.715  10.504  0.2927 -0.4818 -0.5536
 3927SOL    HW114098   6.115   6.677  10.574  0.9325  1.5248  1.1615
 3927SOL    HW214099   6.241   6.654  10.494 -0.0248 -1.0117  0.2781
 3928SOL     OW14100   3.892   1.950   2.902 -0.6804 -0.1720 -0.0793
 3928SOL    HW114101   3.842   1.902   2.835  0.3842  0.0939 -1.1003
 3928SOL    HW214102   3.982   1.921   2.889 -0.2884  0.7616  0.4899
 3929SOL     OW14103   3.266   5.161   1.826 -0.7987  1.1968 -0.2197
 3929SOL    HW114104   3.357   5.134   1.836 -1.1362 -0.2343 -0.7015
 3929SOL    HW214105   3.269   5.230   1.760 -0.2092 -0.0603 -1.5701
 3930SOL     OW14106   5.423   1.988   6.560  0.6247 -0.2295 -0.1781
 3930SOL    HW114107   5.415   1.913   6.618 -2.1935 -0.3298 -0.5388
 3930SOL    HW214108   5.422   2.064   6.618  0.2989 -0.3951  0.0305
 3931SOL     OW14109   2.530   4.933   2.102  0.3590 -0.6033 -0.1995
 3931SOL    HW114110   2.509   4.972   2.187 -0.1772  0.8313 -0.9552
 3931SOL    HW214111   2.454   4.953   2.047  0.8517 -1.2074 -1.1268
 3932SOL     OW14112   0.008   9.089   2.102 -0.6223  0.1448 -0.2901
 3932SOL    HW114113  -0.023   9.176   2.124 -1.6316 -0.2524 -0.0824
 3932SOL    HW214114   0.039   9.052   2.184 -0.9521  0.0199 -0.2178
 3933SOL     OW14115   9.869   9.184   0.098  0.3357 -0.0756  0.1718
 3933SOL    HW114116   9.788   9.163   0.145 -0.5197 -0.3000 -1.3661
 3933SOL    HW214117   9.935   9.193   0.168 -0.6602 -1.4142  1.3411
 3934SOL     OW14118   7.909   9.466   4.793  0.4009  0.3019 -0.7896
 3934SOL    HW114119   7.839   9.504   4.846  1.7229  0.8929  0.6076
 3934SOL    HW214120   7.868   9.450   4.708 -1.4670  0.4413  0.0282
 3935SOL     OW14121   4.972   9.638   2.185 -0.0319  0.2812 -0.4130
 3935SOL    HW114122   5.007   9.653   2.273 -0.4049  2.9359 -0.6208
 3935SOL    HW214123   4.879   9.622   2.199 -0.1828  1.1714 -0.3121
 3936SOL     OW14124   4.411   0.162   1.671  0.2856 -1.3495 -0.2148
 3936SOL    HW114125   4.484   0.122   1.623  1.2681 -0.0637  0.1473
 3936SOL    HW214126   4.390   0.241   1.621 -0.1298 -1.1402  0.2840
 3937SOL     OW14127   3.724   7.831   5.885 -0.0256 -0.0091  0.0576
 3937SOL    HW114128   3.806   7.813   5.840  1.0882  0.3075  1.8623
 3937SOL    HW214129   3.673   7.750   5.877 -0.0823  0.1836 -2.0902
 3938SOL     OW14130   9.952   5.722   8.601  0.3154 -0.1905 -0.6677
 3938SOL    HW114131   9.896   5.771   8.541  0.2642  1.6363  0.7966
 3938SOL    HW214132   9.926   5.751   8.688  0.1105 -3.0745  0.3258
 3939SOL     OW14133   4.495   1.947   9.677 -0.2277  0.1334  0.3059
 3939SOL    HW114134   4.560   2.015   9.693  0.4314 -0.8735  2.3023
 3939SOL    HW214135   4.533   1.891   9.610 -0.6407  1.5064 -1.1233
 3940SOL     OW14136  10.382   5.820   7.972 -0.1675 -0.7980 -0.4308
 3940SOL    HW114137  10.372   5.797   7.879 -0.0168 -0.1002 -0.6260
 3940SOL    HW214138  10.417   5.740   8.013  0.7903 -0.7753 -1.1695
 3941SOL     OW14139   6.738   3.583   7.723 -0.3284  0.0638  0.1257
 3941SOL    HW114140   6.741   3.667   7.676 -0.0752  0.9975  1.7383
 3941SOL    HW214141   6.645   3.568   7.737 -0.3154  1.0649  1.4701
 3942SOL     OW14142   0.994   2.663   0.929  0.1321 -0.2572  0.4519
 3942SOL    HW114143   1.025   2.610   1.002  2.1095 -0.0208 -0.1543
 3942SOL    HW214144   0.994   2.753   0.963 -4.0088 -0.5753  1.7434
 3943SOL     OW14145   2.789   5.241   0.321 -0.2174  1.1582  0.0869
 3943SOL    HW114146   2.763   5.258   0.412 -0.0015 -0.0813  0.3910
 3943SOL    HW214147   2.791   5.146   0.314 -0.4768  1.2356 -1.2985
 3944SOL     OW14148   0.252   7.758  10.203  0.0731  0.0289 -0.1570
 3944SOL    HW114149   0.236   7.849  10.179 -1.0976  0.1981  1.1571
 3944SOL    HW214150   0.341   7.757  10.239 -0.2924  0.8736  0.8040
 3945SOL     OW14151   9.006   4.720   5.263  0.2390 -0.4621 -0.2540
 3945SOL    HW114152   9.018   4.629   5.289 -0.9095 -0.6311 -0.2654
 3945SOL    HW214153   9.018   4.720   5.168 -3.9546 -1.4756 -0.9900
 3946SOL     OW14154   0.623   3.077   3.197  0.4422 -0.1134 -0.1901
 3946SOL    HW114155   0.716   3.061   3.184  0.3888  0.1809 -0.9651
 3946SOL    HW214156   0.579   3.017   3.137  0.1528  0.2180 -0.3149
 3947SOL     OW14157   7.179   5.706   9.093 -0.6324 -0.1195  0.2897
 3947SOL    HW114158   7.088   5.687   9.072 -0.8035  0.1774  0.7476
 3947SOL    HW214159   7.224   5.622   9.082 -1.2136 -0.6113  1.4202
 3948SOL     OW14160   5.780   7.498   8.028 -0.3030 -0.6741  0.2133
 3948SOL    HW114161   5.799   7.544   7.947  1.0282  0.6341  1.2195
 3948SOL    HW214162   5.705   7.442   8.007 -2.3230  2.2142 -1.0216
 3949SOL     OW14163   6.658   1.325   2.279  0.5356 -0.8846 -0.4486
 3949SOL    HW114164   6.719   1.316   2.205  1.0392  0.1312 -0.1727
 3949SOL    HW214165   6.714   1.323   2.356  0.3816  1.0563 -0.2226
 3950SOL     OW14166   3.613   9.248   5.391  0.0973  0.1749 -0.1862
 3950SOL    HW114167   3.551   9.293   5.448  1.3293 -0.6370  1.8784
 3950SOL    HW214168   3.563   9.233   5.310 -1.2628  2.5792  0.0966
 3951SOL     OW14169   0.194   6.346   2.833  0.2448  0.4937 -0.0619
 3951SOL    HW114170   0.123   6.408   2.852 -0.1722  0.0661 -0.1954
 3951SOL    HW214171   0.155   6.260   2.849  0.6816  0.2461 -0.3189
 3952SOL     OW14172   7.151   2.524   4.952 -0.5444  0.4140  0.0846
 3952SOL    HW114173   7.193   2.587   4.894  2.2210 -0.8088  0.5702
 3952SOL    HW214174   7.224   2.484   5.001 -2.5228 -0.2959  2.6845
 3953SOL     OW14175   9.425   1.502   2.249 -0.3778  0.1377 -0.0819
 3953SOL    HW114176   9.343   1.496   2.199 -1.0753 -0.1369  1.0629
 3953SOL    HW214177   9.401   1.478   2.338  1.0269 -0.2749  0.2141
 3954SOL     OW14178   5.268   0.146   7.311  0.2381 -0.2233  0.4515
 3954SOL    HW114179   5.243   0.182   7.396 -0.6473 -1.0737  0.5755
 3954SOL    HW214180   5.238   0.211   7.247  1.1585  0.5488  0.7958
 3955SOL     OW14181   9.226   8.234   0.564 -0.2997  0.0328  0.0177
 3955SOL    HW114182   9.321   8.242   0.560 -0.2200 -0.3932  0.9858
 3955SOL    HW214183   9.195   8.320   0.593 -0.1668 -0.0241  0.3270
 3956SOL     OW14184   1.645   6.502   7.690 -0.1748 -0.4591  0.3693
 3956SOL    HW114185   1.552   6.483   7.707 -0.7533  1.0414 -0.8930
 3956SOL    HW214186   1.647   6.595   7.668  1.5441 -0.6263 -0.3310
 3957SOL     OW14187   4.718   1.116   6.281 -0.1160 -0.2654  0.1872
 3957SOL    HW114188   4.654   1.171   6.236 -0.3108 -1.3857 -0.9586
 3957SOL    HW214189   4.676   1.091   6.363 -0.2557  0.7867  0.4454
 3958SOL     OW14190  10.425   7.970   1.532 -0.8339 -0.1498  0.2188
 3958SOL    HW114191  10.355   8.014   1.483 -0.0037 -0.2762 -1.1263
 3958SOL    HW214192  10.501   8.028   1.523 -0.1016 -1.1706 -0.4311
 3959SOL     OW14193   6.495   8.875   3.269 -0.3260 -0.4907  0.2964
 3959SOL    HW114194   6.582   8.834   3.270  0.2095  0.5448 -0.7966
 3959SOL    HW214195   6.459   8.851   3.183 -0.4007  0.4788  0.0414
 3960SOL     OW14196   2.248   4.340   0.781 -0.5317 -0.4913  0.1535
 3960SOL    HW114197   2.179   4.274   0.791  0.2241 -1.2416  0.5873
 3960SOL    HW214198   2.316   4.295   0.732  0.2809 -0.2581  1.0485
 3961SOL     OW14199   2.467   8.098   7.643  0.8975 -0.2279 -0.3161
 3961SOL    HW114200   2.523   8.035   7.598  0.9657  0.4348 -1.1845
 3961SOL    HW214201   2.386   8.100   7.591  0.5902 -0.1960  0.1625
 3962SOL     OW14202   5.011   8.034   3.091 -0.2322 -0.3564 -0.0416
 3962SOL    HW114203   4.963   8.115   3.105  3.3963  1.7593  1.7854
 3962SOL    HW214204   5.030   8.001   3.179  1.0654 -1.4150 -0.6723
 3963SOL     OW14205   0.187   0.972   3.083  0.6773 -0.0373  0.7270
 3963SOL    HW114206   0.096   0.985   3.058  1.0081 -0.3925 -0.7208
 3963SOL    HW214207   0.189   0.886   3.126  0.5495 -0.6194 -0.4171
 3964SOL     OW14208   2.085   7.091   3.059 -0.3139 -0.3356 -0.4084
 3964SOL    HW114209   2.101   6.997   3.055  1.0444 -0.1109 -0.5072
 3964SOL    HW214210   2.067   7.115   2.968  0.4452 -0.3227 -0.5616
 3965SOL     OW14211   9.117   0.008   8.908 -0.0833 -0.2697 -0.1583
 3965SOL    HW114212   9.125  -0.015   8.815 -1.2945  0.9873 -0.5964
 3965SOL    HW214213   9.192   0.065   8.925 -0.0136 -0.2733 -0.4459
 3966SOL     OW14214   8.608   6.085   2.826  0.0264 -0.2861 -0.8795
 3966SOL    HW114215   8.679   6.127   2.874 -1.1081 -0.8612  1.4343
 3966SOL    HW214216   8.541   6.153   2.817 -0.8789 -0.8835  0.8650
 3967SOL     OW14217   8.028   8.324   8.375 -0.5509 -0.2350  0.1981
 3967SOL    HW114218   8.041   8.411   8.339  1.2272 -1.0708 -1.3325
 3967SOL    HW214219   7.935   8.305   8.361 -0.9982  1.4347  0.7092
 3968SOL     OW14220  10.050   4.995   5.247  0.0264 -0.8012  0.0866
 3968SOL    HW114221  10.005   5.034   5.322  0.6161  0.3960 -0.1688
 3968SOL    HW214222  10.063   5.067   5.186 -0.3830 -1.7431 -1.1571
 3969SOL     OW14223   6.893   5.698   4.575  0.0355 -0.2299 -0.0731
 3969SOL    HW114224   6.853   5.672   4.658 -2.5969  0.6765 -0.9352
 3969SOL    HW214225   6.886   5.620   4.520 -3.2368  0.6078 -1.0620
 3970SOL     OW14226   7.387   8.278   0.705  0.1434 -0.4975  0.0417
 3970SOL    HW114227   7.464   8.239   0.665  0.4359  0.4489 -0.3374
 3970SOL    HW214228   7.419   8.321   0.784  0.1834  0.7064 -0.6094
 3971SOL     OW14229   4.695   6.968   7.146 -0.6251 -0.3445  0.8780
 3971SOL    HW114230   4.666   6.897   7.203 -2.1585 -0.0450  0.5185
 3971SOL    HW214231   4.646   6.954   7.065 -1.1261  1.2333  0.8747
 3972SOL     OW14232   6.892   0.419  10.183  0.3577  0.0211  0.1518
 3972SOL    HW114233   6.831   0.349  10.160 -0.3475  0.5357  0.4054
 3972SOL    HW214234   6.974   0.395  10.141 -1.0850  1.4924 -4.0312
 3973SOL     OW14235   4.295   6.513   0.109 -0.1591 -0.1323 -0.2741
 3973SOL    HW114236   4.285   6.420   0.091  1.4378 -1.0790  2.9472
 3973SOL    HW214237   4.388   6.530   0.096  0.1194  0.2525  1.8717
 3974SOL     OW14238   3.737   6.472   0.503 -0.3157 -0.4345  0.5002
 3974SOL    HW114239   3.739   6.453   0.597 -1.4981  2.2339  1.1822
 3974SOL    HW214240   3.828   6.486   0.479 -0.1468  1.1686  1.8707
 3975SOL     OW14241   5.182   9.090   0.803 -0.3359 -0.2716 -0.0933
 3975SOL    HW114242   5.182   9.147   0.880 -0.4795  1.1281 -1.0711
 3975SOL    HW214243   5.122   9.019   0.826 -2.2682  1.3507  0.2586
 3976SOL     OW14244   1.299   7.945   1.991 -0.4459  0.4030  0.1880
 3976SOL    HW114245   1.347   7.992   2.058 -0.3165  0.3532  0.1300
 3976SOL    HW214246   1.352   7.867   1.973  0.5431  1.4012 -1.3955
 3977SOL     OW14247   6.147   2.508   3.928 -0.2510  0.2863  0.2473
 3977SOL    HW114248   6.120   2.581   3.872 -0.6221  1.2639  1.6506
 3977SOL    HW214249   6.067   2.481   3.973  0.1596 -0.0569  0.7849
 3978SOL     OW14250   3.366   8.591   2.311  0.5237 -0.2918 -0.3361
 3978SOL    HW114251   3.346   8.685   2.312  2.6433  0.2227  1.6802
 3978SOL    HW214252   3.446   8.584   2.260  1.5264 -0.6812  1.2380
 3979SOL     OW14253   3.176   8.549   2.522  0.3796  0.1802  0.1946
 3979SOL    HW114254   3.093   8.547   2.569 -0.2097  0.8682 -0.7671
 3979SOL    HW214255   3.186   8.641   2.495  1.8874  0.2975  1.0193
 3980SOL     OW14256   8.273   2.203   5.410 -0.3155 -0.4658  0.1191
 3980SOL    HW114257   8.313   2.126   5.368  0.3411 -0.2469  0.3339
 3980SOL    HW214258   8.306   2.277   5.360  1.3517 -0.1100  1.6496
 3981SOL     OW14259   5.118   8.511   7.164 -0.1630 -0.3920 -0.1153
 3981SOL    HW114260   5.035   8.493   7.208 -0.6924  1.2381 -0.3794
 3981SOL    HW214261   5.172   8.551   7.231  0.2391 -0.9513 -0.0930
 3982SOL     OW14262   6.539  10.254   1.795 -0.6946  0.7053  0.1499
 3982SOL    HW114263   6.519  10.162   1.775 -1.7641  1.1702 -1.0680
 3982SOL    HW214264   6.504  10.268   1.883 -0.4062 -0.0670  0.4033
 3983SOL     OW14265   1.839   1.069   3.463  0.1225 -0.8300 -0.1838
 3983SOL    HW114266   1.857   1.038   3.374  0.1398 -0.5764 -0.2677
 3983SOL    HW214267   1.825   0.988   3.514  1.1355 -1.0205 -0.1921
 3984SOL     OW14268   9.112   2.514   7.613 -0.1480 -0.5041 -0.2290
 3984SOL    HW114269   9.107   2.577   7.685 -0.2139  1.3822 -1.7763
 3984SOL    HW214270   9.203   2.519   7.584 -0.2528 -0.8281 -0.6224
 3985SOL     OW14271   3.126   9.852   7.560  0.4057 -0.0514  0.0974
 3985SOL    HW114272   3.086   9.815   7.639 -1.2232  0.0189 -0.6579
 3985SOL    HW214273   3.137   9.778   7.501  1.4181 -0.0686  0.2916
 3986SOL     OW14274   5.172   3.144   6.468  0.3884 -0.0022 -0.1859
 3986SOL    HW114275   5.201   3.199   6.541 -0.7029  0.0025  0.2617
 3986SOL    HW214276   5.131   3.069   6.510 -2.1712  0.9991 -0.7257
 3987SOL     OW14277   8.545   5.763   3.060  0.8106  0.0872 -0.0511
 3987SOL    HW114278   8.479   5.826   3.028 -0.2755 -0.2285  1.4739
 3987SOL    HW214279   8.575   5.719   2.981 -2.1503 -1.0361 -0.7021
 3988SOL     OW14280   4.287   9.520   0.047 -0.2347 -0.4881  0.1569
 3988SOL    HW114281   4.362   9.574   0.022 -0.7822  2.1989  3.5933
 3988SOL    HW214282   4.324   9.455   0.108 -0.4050 -0.3934  0.3619
 3989SOL     OW14283   6.191   8.171   3.536  0.0131  0.3342  0.0009
 3989SOL    HW114284   6.134   8.102   3.503  0.1038  0.5593 -0.6300
 3989SOL    HW214285   6.145   8.253   3.516  0.7407  0.5369 -0.8927
 3990SOL     OW14286   9.168   2.801   8.846 -0.2055  0.1800  0.0323
 3990SOL    HW114287   9.210   2.812   8.761  1.2114  3.0230  0.9784
 3990SOL    HW214288   9.224   2.739   8.893 -0.1695 -0.2417 -0.5524
 3991SOL     OW14289   3.318   0.221   7.182 -0.1809 -0.0362  0.1717
 3991SOL    HW114290   3.249   0.211   7.117 -1.1325 -0.1817  1.1829
 3991SOL    HW214291   3.273   0.215   7.267  0.7650  1.9206  0.8629
 3992SOL     OW14292   7.867  10.178   3.740  0.1429 -0.1630  0.0880
 3992SOL    HW114293   7.873  10.268   3.773  1.3958 -0.3316  0.3856
 3992SOL    HW214294   7.924  10.177   3.663 -1.6676 -0.1373 -1.3200
 3993SOL     OW14295   6.460   0.137   4.734 -0.4493  0.0449  0.0088
 3993SOL    HW114296   6.368   0.120   4.750 -0.2365  0.1729  1.5603
 3993SOL    HW214297   6.498   0.052   4.714 -0.8678 -0.0238 -0.5111
 3994SOL     OW14298   4.475  10.020   7.208  0.0662 -0.0184  0.4364
 3994SOL    HW114299   4.473   9.924   7.198 -0.8318  0.1853 -1.9105
 3994SOL    HW214300   4.556  10.047   7.165 -0.5625  0.3918 -0.5212
 3995SOL     OW14301   2.583   1.600  10.465  1.1957 -0.3803 -0.4331
 3995SOL    HW114302   2.541   1.515  10.452 -0.1191  0.0901  0.5300
 3995SOL    HW214303   2.636   1.612  10.386  1.6705 -2.2182 -0.4512
 3996SOL     OW14304   7.691  10.244   7.563  0.0686 -0.1664  0.5434
 3996SOL    HW114305   7.615  10.189   7.543 -0.8789  0.6589  1.7949
 3996SOL    HW214306   7.678  10.322   7.510  0.6899 -0.5214 -0.1566
 3997SOL     OW14307   4.571  10.080   5.114 -0.4212 -0.5607 -0.0691
 3997SOL    HW114308   4.559  10.174   5.127 -1.4902 -0.5833 -0.7701
 3997SOL    HW214309   4.575  10.044   5.203 -2.9140 -0.1747  0.2700
 3998SOL     OW14310   8.081   1.542   5.214  0.0556  0.1753 -0.2145
 3998SOL    HW114311   7.996   1.549   5.259  0.4966 -0.1405  0.6798
 3998SOL    HW214312   8.107   1.451   5.225  0.4127  0.2137 -0.6921
 3999SOL     OW14313   8.184   7.865   2.747  0.4743 -0.6520  0.6536
 3999SOL    HW114314   8.220   7.941   2.792  0.1146 -0.6920  1.0154
 3999SOL    HW214315   8.250   7.842   2.682  0.1804  0.5339 -0.0998
 4000SOL     OW14316   4.431   1.750   3.765  0.1677  0.4677  0.2699
 4000SOL    HW114317   4.414   1.657   3.782  1.0956  0.6403  2.5614
 4000SOL    HW214318   4.442   1.756   3.670 -2.1780 -1.3331 -0.2018
 4001SOL     OW14319   7.319  10.134   7.829  0.2290 -0.2747  0.8341
 4001SOL    HW114320   7.273  10.178   7.758 -2.1638  0.4722  2.6745
 4001SOL    HW214321   7.358  10.206   7.880  0.4750 -0.6529  1.1829
 4002SOL     OW14322   5.160   3.897  10.418 -0.2741 -0.1153  0.3278
 4002SOL    HW114323   5.112   3.814  10.422 -0.1615 -0.2162 -0.3704
 4002SOL    HW214324   5.162   3.928  10.509  0.7112 -1.4562  0.7866
 4003SOL     OW14325   0.155   8.906   9.279 -0.0100 -0.7351 -0.0872
 4003SOL    HW114326   0.222   8.893   9.346  0.5734  0.1629 -0.4703
 4003SOL    HW214327   0.087   8.843   9.300  1.3144 -2.2450 -0.1544
 4004SOL     OW14328   6.636   1.765   1.878 -0.3679 -0.0828  0.1786
 4004SOL    HW114329   6.683   1.829   1.825 -0.6301  0.7620  0.9463
 4004SOL    HW214330   6.687   1.685   1.869  0.9255  0.6699  0.5723
 4005SOL     OW14331   2.994   1.592   1.808  0.3940  0.1042 -0.2519
 4005SOL    HW114332   2.933   1.554   1.872  1.6936  0.2660  1.1250
 4005SOL    HW214333   3.029   1.517   1.761 -0.8390  0.0071 -1.0826
 4006SOL     OW14334   2.323   9.486   0.584  0.3736 -0.0915 -0.2361
 4006SOL    HW114335   2.236   9.507   0.619  0.4147  1.8134 -1.1603
 4006SOL    HW214336   2.373   9.460   0.661 -0.1854  1.7815  0.8429
 4007SOL     OW14337   1.932   0.775   9.142 -0.5509  0.3295  0.2518
 4007SOL    HW114338   1.897   0.809   9.060 -0.9130  1.9792  1.0361
 4007SOL    HW214339   1.874   0.810   9.209 -0.6498 -1.5059  1.1987
 4008SOL     OW14340   2.829   0.889   8.461  0.1795  0.9783  0.3176
 4008SOL    HW114341   2.808   0.974   8.424 -0.7661  0.1636 -1.1212
 4008SOL    HW214342   2.869   0.840   8.389  1.3870  0.4147  1.3139
 4009SOL     OW14343   4.302   9.808   7.961 -0.1353  0.4856  0.2087
 4009SOL    HW114344   4.376   9.865   7.983  2.0560 -2.1234  0.1279
 4009SOL    HW214345   4.263   9.785   8.046  0.5978  0.0993  0.4480
 4010SOL     OW14346   0.280   9.358   2.150 -0.5119  0.3453 -0.0514
 4010SOL    HW114347   0.295   9.264   2.149 -1.4649  0.1443  1.6955
 4010SOL    HW214348   0.211   9.372   2.085  0.1241 -0.0483 -0.8253
 4011SOL     OW14349   9.262   6.678   9.196 -0.0903 -0.2226 -0.1198
 4011SOL    HW114350   9.323   6.749   9.176 -1.6141  0.8154 -1.3715
 4011SOL    HW214351   9.274   6.662   9.290  1.3643  0.6284 -0.1351
 4012SOL     OW14352   3.489   3.133   4.266  0.8367  0.0701  0.2291
 4012SOL    HW114353   3.427   3.133   4.193  0.9318  0.0837  0.1480
 4012SOL    HW214354   3.465   3.056   4.318 -0.2625  0.9513  1.0655
 4013SOL     OW14355   7.083   7.896   8.021  0.1888 -0.0384 -0.4826
 4013SOL    HW114356   7.104   7.943   7.940  0.6276 -1.8654 -1.4811
 4013SOL    HW214357   6.989   7.905   8.031  0.1521  0.3223 -1.1320
 4014SOL     OW14358   9.637   8.861   5.014  0.3367 -0.0577 -0.2622
 4014SOL    HW114359   9.703   8.797   5.042  1.4929  0.7513 -1.0768
 4014SOL    HW214360   9.556   8.829   5.054  1.3585 -0.5720  1.5424
 4015SOL     OW14361   5.649   7.753   1.536  0.2196  0.2668 -0.2499
 4015SOL    HW114362   5.602   7.671   1.523 -1.7874  1.3743 -0.3638
 4015SOL    HW214363   5.588   7.821   1.506  2.0403  1.7861 -0.7426
 4016SOL     OW14364   7.068   8.841   5.944 -0.0216 -0.2115 -0.1276
 4016SOL    HW114365   7.038   8.764   5.992 -1.7342 -0.0769 -0.8856
 4016SOL    HW214366   7.161   8.848   5.965 -0.0386 -1.9178  0.7157
 4017SOL     OW14367   7.499   2.950   5.034  0.0480 -0.0043 -0.4264
 4017SOL    HW114368   7.525   2.995   4.953  0.6919  0.9312  0.2799
 4017SOL    HW214369   7.483   3.020   5.096  0.4643 -0.7305  0.5340
 4018SOL     OW14370   1.695   0.733   2.230 -0.5478 -0.2470  0.2524
 4018SOL    HW114371   1.683   0.713   2.323  0.2820 -0.2387  0.3686
 4018SOL    HW214372   1.787   0.760   2.223 -0.0957 -1.9108 -0.8431
 4019SOL     OW14373   6.863  10.002   3.173  0.3532  0.2575 -0.2861
 4019SOL    HW114374   6.887   9.958   3.255  1.9294 -0.5357 -1.1263
 4019SOL    HW214375   6.792   9.949   3.137  1.5349 -1.0721 -0.7663
 4020SOL     OW14376   1.769   7.675   9.200  0.2756 -0.0112  0.3434
 4020SOL    HW114377   1.832   7.686   9.272  0.6916  1.6752 -0.2264
 4020SOL    HW214378   1.808   7.607   9.144  0.5444 -0.4646  1.0641
 4021SOL     OW14379   4.263  10.543   1.529 -0.1059 -0.1080  0.1026
 4021SOL    HW114380   4.209  10.469   1.557 -1.1993  1.6287  3.0322
 4021SOL    HW214381   4.205  10.595   1.473 -0.2748 -0.1022  0.2791
 4022SOL     OW14382  10.543   6.006   2.115 -1.0587  0.2615 -0.1481
 4022SOL    HW114383  10.635   5.986   2.099 -1.0005 -0.0361  0.5384
 4022SOL    HW214384  10.505   6.017   2.028 -0.3564  0.4706 -0.4329
 4023SOL     OW14385   5.057   5.153   8.032  0.4998  0.0557 -0.4616
 4023SOL    HW114386   5.000   5.089   7.988  0.4340 -0.3259  0.1678
 4023SOL    HW214387   5.103   5.197   7.961  0.5644 -0.7165 -0.9058
 4024SOL     OW14388   1.213   8.684   2.660  0.4815 -0.1771 -0.3752
 4024SOL    HW114389   1.231   8.765   2.611 -0.2694 -0.1924 -0.6968
 4024SOL    HW214390   1.129   8.654   2.626  0.5856 -0.9112 -0.0067
 4025SOL     OW14391   3.443   3.218   2.305  0.4986 -0.1055  0.2557
 4025SOL    HW114392   3.369   3.265   2.344 -1.3110 -3.2735  0.9213
 4025SOL    HW214393   3.496   3.192   2.380  0.8807 -0.1364 -0.0217
 4026SOL     OW14394   2.905   7.814   6.996  0.1351  0.0349 -0.1507
 4026SOL    HW114395   2.855   7.733   6.990  0.3961 -0.1501  0.1921
 4026SOL    HW214396   2.870   7.859   7.072  1.3099 -0.6625  0.8398
 4027SOL     OW14397   3.714   4.361   8.482 -0.2328 -0.0508  0.2996
 4027SOL    HW114398   3.686   4.387   8.395 -0.8563  0.1936  0.5710
 4027SOL    HW214399   3.786   4.299   8.466 -1.3581 -1.2187 -0.4275
 4028SOL     OW14400   0.641   9.516   6.069 -0.3440  0.1173 -0.3705
 4028SOL    HW114401   0.689   9.444   6.109  2.2297  1.0938 -1.4936
 4028SOL    HW214402   0.550   9.503   6.097  0.4220 -2.2120  1.3234
 4029SOL     OW14403   9.200   3.967   3.220  0.0981  0.0676  0.9628
 4029SOL    HW114404   9.285   4.010   3.223  0.9007 -1.2633 -0.8961
 4029SOL    HW214405   9.213   3.883   3.264  0.1104 -0.6394 -0.3326
 4030SOL     OW14406   3.748   1.211   7.396 -0.0894 -0.4545  0.2132
 4030SOL    HW114407   3.833   1.222   7.439 -0.5509 -0.1348  1.0552
 4030SOL    HW214408   3.730   1.298   7.358 -1.1717  0.2082  2.1492
 4031SOL     OW14409   2.706   6.454   5.361  0.3323 -0.4960 -0.1635
 4031SOL    HW114410   2.797   6.438   5.333  0.3551  0.9664 -1.0289
 4031SOL    HW214411   2.707   6.440   5.455  2.3527  2.9678  0.5048
 4032SOL     OW14412   9.037   7.632   5.463 -0.4400 -0.8632  0.3577
 4032SOL    HW114413   8.971   7.563   5.460  0.1070 -1.3659 -0.9480
 4032SOL    HW214414   9.070   7.631   5.553 -0.3272 -2.4300  0.3217
 4033SOL     OW14415   2.727   4.484   5.646 -0.3273 -1.1466  0.1903
 4033SOL    HW114416   2.802   4.500   5.703  0.1980 -0.7971 -0.5928
 4033SOL    HW214417   2.760   4.497   5.558 -1.6296  0.3667 -0.1300
 4034SOL     OW14418   8.206   7.631   9.261 -0.0968  0.1143  0.4415
 4034SOL    HW114419   8.183   7.715   9.300 -1.1923 -0.2766  0.6741
 4034SOL    HW214420   8.288   7.648   9.213 -1.1885  1.7353 -0.9547
 4035SOL     OW14421   1.347   6.986   6.682 -0.1358  0.0008  0.3374
 4035SOL    HW114422   1.355   7.022   6.593 -2.9355 -1.1969 -0.5287
 4035SOL    HW214423   1.261   7.017   6.712 -0.7114 -2.2863  1.2533
 4036SOL     OW14424   7.885   1.626   8.935  0.6187  0.4031  0.6524
 4036SOL    HW114425   7.946   1.558   8.905  1.4739  1.2795  0.3527
 4036SOL    HW214426   7.910   1.704   8.887 -0.2161  0.9935  1.1463
 4037SOL     OW14427   7.424   4.784   2.526 -0.0845  0.0265  0.1388
 4037SOL    HW114428   7.466   4.787   2.440 -0.3740 -1.0224 -0.0461
 4037SOL    HW214429   7.409   4.876   2.548  0.7630  0.3395 -0.5468
 4038SOL     OW14430   0.309  10.319   6.176  0.2841  0.0707  0.1215
 4038SOL    HW114431   0.391  10.355   6.142 -0.7744  1.1278 -1.4312
 4038SOL    HW214432   0.287  10.376   6.250 -0.6028  1.8242 -1.3944
 4039SOL     OW14433   3.611   0.381   5.891  0.6084 -0.4076 -0.1736
 4039SOL    HW114434   3.631   0.292   5.921 -1.2989 -1.3108 -1.3286
 4039SOL    HW214435   3.536   0.408   5.944 -0.0596 -0.2989 -1.1479
 4040SOL     OW14436   6.038   5.601   5.083  0.0436  0.2330 -0.0073
 4040SOL    HW114437   5.977   5.529   5.068 -0.1812 -0.1403  2.2892
 4040SOL    HW214438   6.073   5.622   4.996 -0.1874 -2.3663 -0.8123
 4041SOL     OW14439   1.004   4.141   6.320  0.2145 -0.3908 -0.3803
 4041SOL    HW114440   1.031   4.233   6.315 -0.2851 -0.0852  1.7240
 4041SOL    HW214441   0.921   4.138   6.272 -0.4637  0.5846  0.6826
 4042SOL     OW14442   5.074   9.583   9.971 -0.2266  0.6873 -0.3053
 4042SOL    HW114443   5.108   9.669   9.996 -0.6538  0.8599 -0.3114
 4042SOL    HW214444   5.150   9.538   9.933  0.5283  0.2948  1.5414
 4043SOL     OW14445  10.483   7.431   0.799  0.1747  0.1932 -0.0684
 4043SOL    HW114446  10.475   7.466   0.710  2.2051  0.3322 -0.2293
 4043SOL    HW214447  10.477   7.508   0.856 -2.3119 -0.0065  0.0616
 4044SOL     OW14448   7.050   1.978   0.228  0.0674  0.4984 -0.0185
 4044SOL    HW114449   7.123   1.921   0.203 -1.5184 -1.2633 -0.8959
 4044SOL    HW214450   7.076   2.015   0.312  3.0999  2.0784 -1.4889
 4045SOL     OW14451   0.901  10.567   9.133  0.4350 -0.3571 -0.3496
 4045SOL    HW114452   0.944  10.610   9.207  1.4704  0.2296 -1.2567
 4045SOL    HW214453   0.819  10.616   9.122 -0.6390 -1.5967  1.5049
 4046SOL     OW14454   4.448   9.929   4.021 -0.1709  0.4728  0.0388
 4046SOL    HW114455   4.357   9.955   4.034  0.1032  2.7551 -1.8629
 4046SOL    HW214456   4.461   9.933   3.926  1.7787 -0.3615  0.2097
 4047SOL     OW14457   1.192   2.109   0.174  0.1904  0.0361  0.3317
 4047SOL    HW114458   1.102   2.130   0.197 -0.6715 -2.3651 -0.4965
 4047SOL    HW214459   1.195   2.120   0.079  0.4866 -0.7323  0.2423
 4048SOL     OW14460   8.951   1.687   0.909  0.0515  0.3062  1.0809
 4048SOL    HW114461   9.006   1.762   0.883 -0.4786  0.9256  1.7181
 4048SOL    HW214462   9.013   1.624   0.946  0.7229 -0.2512 -0.8472
 4049SOL     OW14463   1.312   7.589   0.721 -0.5215 -0.2575  0.2167
 4049SOL    HW114464   1.269   7.633   0.794 -0.2051  1.8693 -0.7991
 4049SOL    HW214465   1.388   7.644   0.702 -0.6776 -0.6813 -1.7880
 4050SOL     OW14466   5.994   9.508   9.430  0.0850  0.0313  0.2905
 4050SOL    HW114467   5.980   9.562   9.507 -0.5612 -0.6342  0.6524
 4050SOL    HW214468   5.925   9.536   9.369  0.3910  0.3265  0.0739
 4051SOL     OW14469  10.318   4.289  10.321 -0.4895 -0.0760  0.1663
 4051SOL    HW114470  10.267   4.320  10.246 -0.1770  0.4538  0.1640
 4051SOL    HW214471  10.306   4.194  10.320  0.3548 -0.2047 -1.2072
 4052SOL     OW14472   1.549   0.570   3.044  0.0220  0.6338 -0.0967
 4052SOL    HW114473   1.624   0.578   2.985 -0.2343  3.0447 -0.1746
 4052SOL    HW214474   1.525   0.660   3.066 -2.0320 -0.1059  0.9946
 4053SOL     OW14475   3.351   5.242   9.931 -0.2868  0.7649  0.0471
 4053SOL    HW114476   3.383   5.297   9.859  2.4656 -0.6517  0.0590
 4053SOL    HW214477   3.382   5.286  10.010  0.5377  0.0513  0.1300
 4054SOL     OW14478   8.623   5.865   8.370  0.0544 -0.4237  0.0955
 4054SOL    HW114479   8.624   5.877   8.465  0.4932 -0.7336  0.1341
 4054SOL    HW214480   8.712   5.885   8.342 -0.2451  0.3461 -0.3476
 4055SOL     OW14481  10.287   7.605   2.521 -0.2156 -0.6740  0.6768
 4055SOL    HW114482  10.323   7.522   2.488  1.4541  0.3435 -0.2283
 4055SOL    HW214483  10.316   7.670   2.457 -2.3875  0.4897  0.7917
 4056SOL     OW14484   6.887   9.731   0.784 -0.0270  0.0497  0.3087
 4056SOL    HW114485   6.961   9.764   0.835  0.2091 -0.5561  0.3713
 4056SOL    HW214486   6.861   9.804   0.729 -0.6423  0.9053  1.6737
 4057SOL     OW14487   8.513   1.346   3.114  0.3476 -0.3063 -0.3597
 4057SOL    HW114488   8.515   1.336   3.018  3.0861 -0.8887 -0.3282
 4057SOL    HW214489   8.508   1.441   3.127 -1.7097 -0.2677 -0.9946
 4058SOL     OW14490   8.595   3.134   4.101 -0.2746  0.5223 -0.7719
 4058SOL    HW114491   8.675   3.134   4.154 -1.0563 -0.6591  0.4917
 4058SOL    HW214492   8.524   3.128   4.165 -1.2241 -2.1031 -1.9215
 4059SOL     OW14493   9.825   2.211   6.933 -0.0009  0.6671 -0.3401
 4059SOL    HW114494   9.742   2.199   6.888  0.3792  0.2174 -0.9386
 4059SOL    HW214495   9.860   2.293   6.900  0.1168  0.5080 -0.6127
 4060SOL     OW14496   6.479   9.219   4.640 -0.5299  0.5599  0.1939
 4060SOL    HW114497   6.558   9.196   4.590 -0.6578  0.4743  0.0307
 4060SOL    HW214498   6.512   9.243   4.727 -0.4649 -1.4097  0.7605
 4061SOL     OW14499   8.657   8.013   0.752  0.2821 -0.6904 -0.5946
 4061SOL    HW114500   8.608   7.936   0.781  0.5374  0.0394  2.0881
 4061SOL    HW214501   8.618   8.037   0.668 -3.1071 -0.9276  0.7654
 4062SOL     OW14502   7.752  10.576   4.769 -0.3375  0.2356  0.0842
 4062SOL    HW114503   7.835  10.558   4.726  0.5437  0.2530  1.7084
 4062SOL    HW214504   7.698  10.500   4.749  0.7300 -0.6761  0.5629
 4063SOL     OW14505   9.292   3.407   8.612  0.3913 -0.1958 -0.2865
 4063SOL    HW114506   9.337   3.463   8.675 -0.3009 -0.2728  0.2920
 4063SOL    HW214507   9.326   3.434   8.527 -0.4607  1.6286 -0.0987
 4064SOL     OW14508   5.022   5.313   7.628  0.2903  0.3196 -0.0578
 4064SOL    HW114509   4.968   5.324   7.550 -0.1253 -0.7315  0.0470
 4064SOL    HW214510   4.985   5.374   7.692 -2.0854 -1.6414  0.6279
 4065SOL     OW14511   2.122   9.747   1.775 -0.3376  0.5003 -0.3732
 4065SOL    HW114512   2.050   9.687   1.796 -0.0289  0.1823 -0.2112
 4065SOL    HW214513   2.125   9.807   1.850  0.4909 -0.3753  0.3254
 4066SOL     OW14514   6.364   8.065   5.119  0.3676 -0.1512 -0.3549
 4066SOL    HW114515   6.299   8.009   5.076  0.6978  0.2143 -1.3719
 4066SOL    HW214516   6.339   8.154   5.093  0.5790  0.0821  0.2242
 4067SOL     OW14517   2.221   6.229   2.447  0.3228  0.4038  0.2699
 4067SOL    HW114518   2.268   6.302   2.488  0.4593  0.8163 -0.5983
 4067SOL    HW214519   2.221   6.250   2.353 -1.0657  0.0983  0.1910
 4068SOL     OW14520   9.619   0.413   9.745 -0.0312  0.5527  0.2597
 4068SOL    HW114521   9.626   0.328   9.789  0.2078 -0.0055 -0.8125
 4068SOL    HW214522   9.551   0.460   9.794 -0.9022 -0.6567  0.2574
 4069SOL     OW14523   6.943   8.519  10.597 -0.7371 -0.0418  0.0155
 4069SOL    HW114524   7.031   8.508  10.632 -0.9521  0.0085  0.5682
 4069SOL    HW214525   6.887   8.470  10.656 -0.7721 -2.5828 -1.9514
 4070SOL     OW14526   8.685   3.088   7.050 -0.1486 -0.4166  0.6533
 4070SOL    HW114527   8.750   3.120   7.112  0.6391 -0.3272 -0.2041
 4070SOL    HW214528   8.727   3.096   6.965 -0.4197 -2.4376  0.2675
 4071SOL     OW14529   9.732   0.857   7.761 -0.2523 -0.7190  0.2603
 4071SOL    HW114530   9.811   0.867   7.707  0.2757 -0.4055  1.0678
 4071SOL    HW214531   9.744   0.920   7.832  0.1268 -2.5821  1.9493
 4072SOL     OW14532   8.274   9.722   8.250 -0.2028  0.0318 -0.7406
 4072SOL    HW114533   8.229   9.652   8.203 -0.2007  2.2087 -4.3301
 4072SOL    HW214534   8.204   9.781   8.277  0.0754  1.0432 -2.1270
 4073SOL     OW14535   3.688   4.637   3.210  0.6055 -0.0504 -0.1583
 4073SOL    HW114536   3.617   4.585   3.246  2.8064 -2.0108  1.6661
 4073SOL    HW214537   3.664   4.728   3.231 -0.8744 -0.7204  1.2351
 4074SOL     OW14538   5.657  10.559   5.746  0.5467 -0.1089  0.0894
 4074SOL    HW114539   5.563  10.575   5.747  0.6541  0.5425 -0.1889
 4074SOL    HW214540   5.673  10.512   5.664  0.8981  2.5782 -1.4984
 4075SOL     OW14541   6.948   4.497   3.441 -0.3710 -0.0348  0.0440
 4075SOL    HW114542   6.941   4.420   3.498  1.0527  0.3382  0.7511
 4075SOL    HW214543   6.929   4.571   3.497 -0.1037  0.2544 -0.2438
 4076SOL     OW14544   0.739   3.661   2.444 -0.1519  0.0574  0.0372
 4076SOL    HW114545   0.710   3.608   2.370  0.3088 -1.3025  0.8028
 4076SOL    HW214546   0.822   3.698   2.416  0.7161 -1.5657  0.3342
 4077SOL     OW14547   7.411   5.708   2.287  0.1945 -0.2984  0.0391
 4077SOL    HW114548   7.478   5.725   2.221  0.7751  1.5093  1.0170
 4077SOL    HW214549   7.446   5.635   2.338  0.1680 -1.0994 -1.0523
 4078SOL     OW14550   7.311   0.673   1.956  0.4058 -0.1484 -0.1006
 4078SOL    HW114551   7.302   0.634   1.869  0.8233  1.4038 -0.8735
 4078SOL    HW214552   7.396   0.642   1.988  0.5343 -0.2357 -0.5218
 4079SOL     OW14553   0.156   0.106   1.206 -0.3735 -0.2611  0.5559
 4079SOL    HW114554   0.216   0.170   1.246  1.8337  0.2681 -3.1932
 4079SOL    HW214555   0.076   0.156   1.189  0.3250  0.7672  0.1858
 4080SOL     OW14556   3.850   7.845   3.883  0.1758  0.0311 -0.2306
 4080SOL    HW114557   3.912   7.875   3.950  1.3347 -0.1836 -1.1775
 4080SOL    HW214558   3.903   7.837   3.803 -1.2077  0.4367 -1.2162
 4081SOL     OW14559   5.934   3.564   6.272  0.7045  0.3168 -0.6080
 4081SOL    HW114560   5.916   3.524   6.357  0.3114  1.3857 -0.1724
 4081SOL    HW214561   6.030   3.567   6.267  0.7358  0.8379  0.1005
 4082SOL     OW14562   9.192   4.543   8.824  0.1174  0.1954 -0.2480
 4082SOL    HW114563   9.149   4.522   8.741  2.2119  0.0602 -1.3517
 4082SOL    HW214564   9.240   4.464   8.847 -0.9956 -0.0336  1.5311
 4083SOL     OW14565   5.939   5.158   4.739 -0.0852 -0.5040 -0.5090
 4083SOL    HW114566   6.006   5.088   4.736 -1.5122 -1.8962 -1.8586
 4083SOL    HW214567   5.987   5.235   4.770  2.5074 -1.0738 -2.6290
 4084SOL     OW14568   1.456   9.279   9.520 -0.0084  0.1741  0.0862
 4084SOL    HW114569   1.365   9.261   9.498  0.3012 -2.1503  0.4720
 4084SOL    HW214570   1.500   9.288   9.436 -0.2636 -0.6031 -0.1355
 4085SOL     OW14571   8.825   6.645   8.120  0.3217  0.4551 -0.2340
 4085SOL    HW114572   8.805   6.735   8.095 -2.8444 -0.1048 -0.1072
 4085SOL    HW214573   8.880   6.655   8.199  1.0180  2.2173 -0.8729
 4086SOL     OW14574   9.041   8.440   1.092  0.1398 -0.3816 -0.0409
 4086SOL    HW114575   8.968   8.407   1.145 -0.4482  1.0438  0.0739
 4086SOL    HW214576   9.036   8.389   1.010 -1.9461  0.6927 -0.6575
 4087SOL     OW14577   1.075   0.568   2.944 -0.0987  0.2676 -0.0178
 4087SOL    HW114578   1.046   0.647   2.988  2.5750  0.8034  1.0222
 4087SOL    HW214579   1.163   0.589   2.912 -0.8043 -1.0351 -3.2752
 4088SOL     OW14580   1.646   6.321   0.794 -0.6818 -0.0530  0.0859
 4088SOL    HW114581   1.682   6.407   0.815 -0.8940  0.3477 -1.0878
 4088SOL    HW214582   1.551   6.335   0.789 -0.9676 -0.8823  2.1605
 4089SOL     OW14583   5.115   7.221   1.067 -0.2260  0.3438  0.2999
 4089SOL    HW114584   5.049   7.229   1.136 -1.0326 -0.8792 -0.2959
 4089SOL    HW214585   5.193   7.188   1.113 -0.2153  1.1816  0.8988
 4090SOL     OW14586   6.267   6.563   9.176  0.6680 -0.0266  0.2117
 4090SOL    HW114587   6.291   6.504   9.247  1.1246 -1.3648 -1.0018
 4090SOL    HW214588   6.178   6.537   9.152  0.8177 -0.1445 -0.2321
 4091SOL     OW14589   9.241   6.427   7.441  0.0214  0.1011 -0.5224
 4091SOL    HW114590   9.263   6.362   7.508  2.2969 -1.1171 -2.3074
 4091SOL    HW214591   9.317   6.485   7.438 -1.2091  1.7771 -0.2334
 4092SOL     OW14592   5.807   6.802  10.570  0.0551  0.1671  0.2481
 4092SOL    HW114593   5.765   6.855  10.503  2.1801  1.1377 -0.3985
 4092SOL    HW214594   5.753   6.815  10.648 -1.2951  0.6555 -0.7165
 4093SOL     OW14595   5.853   6.408   6.172 -0.3681  0.0852  0.2460
 4093SOL    HW114596   5.875   6.359   6.251  0.5025 -0.7716 -0.4971
 4093SOL    HW214597   5.780   6.359   6.134 -0.1833 -0.0326  0.0431
 4094SOL     OW14598   7.933   2.348  10.538 -1.1477  0.1370  0.1092
 4094SOL    HW114599   7.936   2.432  10.491  2.7340  0.2271  0.1948
 4094SOL    HW214600   7.894   2.370  10.622  2.7780  2.8828  1.5190
 4095SOL     OW14601   0.038   1.431   6.471  0.2457  0.8202  0.1446
 4095SOL    HW114602  -0.029   1.392   6.416  0.7134  0.4845 -0.1888
 4095SOL    HW214603  -0.007   1.447   6.555 -0.7858  2.3850 -0.6605
 4096SOL     OW14604   9.895   4.202   2.159 -0.1279 -0.1832 -0.4074
 4096SOL    HW114605   9.846   4.159   2.228  0.7573 -0.1701  0.2484
 4096SOL    HW214606   9.831   4.258   2.115 -1.4089 -2.3716 -1.5103
 4097SOL     OW14607   5.266   3.730   6.350  0.3369  0.3921  0.4948
 4097SOL    HW114608   5.304   3.818   6.344 -0.7251  0.7762 -2.9404
 4097SOL    HW214609   5.296   3.686   6.270  0.7351 -2.4003  2.0526
 4098SOL     OW14610   1.830   9.936  10.359 -0.0705 -0.5903 -0.1083
 4098SOL    HW114611   1.751   9.970  10.317  0.6628 -0.4913 -1.4933
 4098SOL    HW214612   1.807   9.926  10.451 -0.9268  1.8066  0.0134
 4099SOL     OW14613   2.977   5.246   0.641 -0.2574  0.1400  0.3371
 4099SOL    HW114614   2.883   5.231   0.628 -0.8300  2.7137  0.8638
 4099SOL    HW214615   2.981   5.305   0.716  1.6736  1.4010 -0.6739
 4100SOL     OW14616   9.154   8.094   5.256 -0.3309 -0.1144  0.3442
 4100SOL    HW114617   9.106   8.046   5.323 -1.3206 -1.2893 -1.1282
 4100SOL    HW214618   9.210   8.028   5.215 -0.7277  0.2714 -0.8574
 4101SOL     OW14619   7.969   1.232   9.542  0.3421 -0.6023  0.0106
 4101SOL    HW114620   8.049   1.181   9.529  1.8026  1.7210 -0.7983
 4101SOL    HW214621   7.975   1.266   9.631  0.1532 -0.6162  0.0291
 4102SOL     OW14622   7.498   8.472   7.246  0.3691  0.8072 -0.2042
 4102SOL    HW114623   7.462   8.463   7.335 -0.6652 -1.8100 -0.7901
 4102SOL    HW214624   7.428   8.513   7.196 -0.0911 -0.1001 -0.3352
 4103SOL     OW14625   3.292   6.722   7.048 -0.7515 -0.0362 -0.0123
 4103SOL    HW114626   3.375   6.727   7.094 -1.0943  0.3127  0.5845
 4103SOL    HW214627   3.286   6.805   7.000 -1.3375  0.5282  0.9892
 4104SOL     OW14628   8.198   2.236   6.172 -0.3578  0.0665 -0.0341
 4104SOL    HW114629   8.121   2.209   6.122 -0.2140  0.0499 -0.2462
 4104SOL    HW214630   8.162   2.282   6.248 -0.6674 -1.5233  0.8383
 4105SOL     OW14631   0.321   0.701   9.022 -0.4566  0.8860  0.2417
 4105SOL    HW114632   0.411   0.733   9.018 -1.2707  3.2929 -0.9983
 4105SOL    HW214633   0.328   0.612   9.056  2.3512  1.0831  0.3725
 4106SOL     OW14634   3.074   6.322   5.432  0.3230  0.1403 -0.1508
 4106SOL    HW114635   3.148   6.375   5.403 -0.2369  1.0585  0.0574
 4106SOL    HW214636   3.030   6.296   5.351  1.5558 -1.4727 -0.3531
 4107SOL     OW14637   6.321   7.338   7.898 -0.1694 -0.0976 -0.4984
 4107SOL    HW114638   6.233   7.359   7.928  0.0692 -0.5579  0.5583
 4107SOL    HW214639   6.318   7.245   7.877  0.3233 -0.3539  0.5255
 4108SOL     OW14640   2.290   3.457   0.049 -0.6008  0.5875  0.2163
 4108SOL    HW114641   2.324   3.541   0.079  0.8548  0.3505 -0.6895
 4108SOL    HW214642   2.284   3.466  -0.046 -2.2646  0.3026  0.2742
 4109SOL     OW14643   8.534   1.693   4.610  0.3513  0.2809  0.2644
 4109SOL    HW114644   8.474   1.641   4.556  0.4359  1.3344 -0.8709
 4109SOL    HW214645   8.613   1.701   4.557  0.7139  0.7027  0.8590
 4110SOL     OW14646   1.885   3.257   4.278 -0.5845  0.4012 -0.4610
 4110SOL    HW114647   1.846   3.340   4.253  1.3286  1.6163  0.3189
 4110SOL    HW214648   1.973   3.259   4.240  0.3461 -0.1746  1.4862
 4111SOL     OW14649   6.421   9.361   3.900  0.2429  0.6315 -0.7269
 4111SOL    HW114650   6.365   9.397   3.831  2.7683  0.9265 -2.7459
 4111SOL    HW214651   6.428   9.268   3.879 -0.5539  0.3019  0.3498
 4112SOL     OW14652   5.254   7.760   5.420 -0.2296 -0.1316  0.1518
 4112SOL    HW114653   5.322   7.730   5.480 -0.8994 -3.0167 -0.3767
 4112SOL    HW214654   5.240   7.852   5.444  2.7506  0.1518  1.2439
 4113SOL     OW14655  10.301   8.827   8.823  0.0102  0.5216 -0.0668
 4113SOL    HW114656  10.368   8.806   8.888 -0.2567 -0.0473  0.0351
 4113SOL    HW214657  10.330   8.782   8.744  0.8318  1.9848 -0.6338
 4114SOL     OW14658   1.447   9.888   5.933  0.4831 -0.0071  0.0059
 4114SOL    HW114659   1.503   9.888   6.011  1.4682 -1.2310 -0.6587
 4114SOL    HW214660   1.479   9.962   5.881 -0.0492  0.6964  0.6635
 4115SOL     OW14661   2.290   7.149   3.781 -0.1909  0.2421 -0.5773
 4115SOL    HW114662   2.364   7.202   3.750  0.3428  0.0611  0.3505
 4115SOL    HW214663   2.220   7.212   3.795  0.6283  0.8336  1.1121
 4116SOL     OW14664   0.326   1.339   5.399  0.1476 -0.1335  0.7573
 4116SOL    HW114665   0.391   1.340   5.469  1.1861 -0.2471 -0.1786
 4116SOL    HW214666   0.378   1.338   5.318 -1.0180 -0.5851 -0.0075
 4117SOL     OW14667   9.756   9.665   6.647  0.0010  0.1429 -0.4984
 4117SOL    HW114668   9.760   9.685   6.554 -0.4400  1.6860 -0.2286
 4117SOL    HW214669   9.664   9.676   6.671  0.2578  0.7608  0.2897
 4118SOL     OW14670   6.962   0.267   9.251 -0.1443  0.9338  0.1524
 4118SOL    HW114671   6.887   0.325   9.239  0.8316  2.1780 -0.2016
 4118SOL    HW214672   7.038   0.321   9.229  0.7729 -0.7015 -0.9529
 4119SOL     OW14673   7.421   9.999   1.607  0.3050  0.7240  0.8595
 4119SOL    HW114674   7.356   9.946   1.651  1.5491  0.6992  2.7964
 4119SOL    HW214675   7.386  10.012   1.519  0.0834 -3.5785  0.0944
 4120SOL     OW14676   4.543   4.170   7.138 -0.1896  0.0398 -0.4619
 4120SOL    HW114677   4.453   4.202   7.150 -1.3781 -3.2804  0.5636
 4120SOL    HW214678   4.542   4.126   7.054  1.0933  1.5651 -1.3331
 4121SOL     OW14679   8.311   0.776   5.298  0.3662 -0.0622  0.3422
 4121SOL    HW114680   8.236   0.819   5.340 -0.4801 -0.9537 -0.2077
 4121SOL    HW214681   8.384   0.792   5.357 -0.2230  0.9734  0.8108
 4122SOL     OW14682   8.982   1.338   9.208 -0.1550 -0.0193  0.2057
 4122SOL    HW114683   8.937   1.311   9.128 -0.7755 -0.8003  0.8003
 4122SOL    HW214684   8.935   1.417   9.236 -0.0143  0.1863 -0.1261
 4123SOL     OW14685   4.870   8.772  10.078  0.2170  0.5556  0.0883
 4123SOL    HW114686   4.787   8.725  10.065  0.8221 -0.1978 -1.2340
 4123SOL    HW214687   4.903   8.788   9.990  1.8886  0.1237  0.5988
 4124SOL     OW14688   1.710   1.689   0.107  0.0620 -0.0959  0.3882
 4124SOL    HW114689   1.722   1.655   0.018  3.8918  2.4258 -0.3278
 4124SOL    HW214690   1.629   1.740   0.102 -0.8072 -1.5319 -1.0833
 4125SOL     OW14691   5.804   1.961   6.950  0.7618  0.0936 -0.1413
 4125SOL    HW114692   5.742   1.977   6.879 -0.2319  1.7669  1.0288
 4125SOL    HW214693   5.866   1.897   6.914  0.3180  0.8872 -2.4975
 4126SOL     OW14694   7.044   6.191   2.785 -0.6112 -0.3749 -0.9588
 4126SOL    HW114695   7.034   6.235   2.869  0.5416  0.6767 -1.3289
 4126SOL    HW214696   6.958   6.195   2.744 -0.9687 -0.1336 -0.1827
 4127SOL     OW14697  10.505  10.117   0.259 -0.0087  0.1638 -0.5142
 4127SOL    HW114698  10.521  10.069   0.178 -0.6127  0.5323 -0.8644
 4127SOL    HW214699  10.499  10.208   0.232 -0.9270  0.2217 -0.1720
 4128SOL     OW14700   8.654   6.506   1.800  0.8187  1.2601 -0.9587
 4128SOL    HW114701   8.687   6.537   1.716  0.9360  0.9906 -1.0141
 4128SOL    HW214702   8.670   6.578   1.861  1.8614  0.9906 -0.9047
 4129SOL     OW14703   1.536   7.153   0.729  0.2413 -0.2707 -0.1135
 4129SOL    HW114704   1.471   7.188   0.668 -1.3192 -2.1213  0.3769
 4129SOL    HW214705   1.551   7.224   0.791 -1.0655  0.3363 -0.4548
 4130SOL     OW14706   3.284   7.734   9.898  1.0159  0.6052  0.3849
 4130SOL    HW114707   3.275   7.651   9.946 -0.7892 -0.3922 -1.5295
 4130SOL    HW214708   3.377   7.737   9.873  0.9428 -1.2732 -0.2429
 4131SOL     OW14709   8.695   5.038   5.340 -0.4038 -0.1727  0.0269
 4131SOL    HW114710   8.617   5.010   5.292 -0.8563 -0.6831  1.0094
 4131SOL    HW214711   8.727   4.958   5.382  1.7573 -0.3603 -1.8292
 4132SOL     OW14712   4.737   4.250   2.795 -0.1272  0.1516  0.4339
 4132SOL    HW114713   4.779   4.324   2.839  0.9324  0.5874 -1.2169
 4132SOL    HW214714   4.778   4.248   2.708 -1.4542 -1.2510 -0.1929
 4133SOL     OW14715   6.428   9.959   2.639 -0.4051 -0.3476 -0.3317
 4133SOL    HW114716   6.507   9.967   2.585  0.3148 -0.6674  0.6404
 4133SOL    HW214717   6.382   9.883   2.602 -0.1655 -0.2757 -0.7861
 4134SOL     OW14718   6.566   5.365   9.670 -0.0713 -0.9317 -0.1152
 4134SOL    HW114719   6.655   5.335   9.689  0.1348 -0.6162 -0.5476
 4134SOL    HW214720   6.544   5.423   9.743  0.2898 -0.5863 -0.2737
 4135SOL     OW14721   1.998   3.637   0.789  0.2763 -0.5530 -0.0196
 4135SOL    HW114722   2.060   3.629   0.716  1.3637 -0.4338  0.8563
 4135SOL    HW214723   2.054   3.639   0.867 -0.8504 -0.4976  0.8050
 4136SOL     OW14724   4.637   0.769   3.932 -0.1999 -0.6726  0.4895
 4136SOL    HW114725   4.716   0.753   3.881 -0.8684 -0.6661 -0.6018
 4136SOL    HW214726   4.629   0.865   3.933 -0.0181 -0.6631  0.8729
 4137SOL     OW14727   5.493   8.622   5.802  0.1687  0.0374 -0.2218
 4137SOL    HW114728   5.532   8.703   5.834 -2.2036  1.6005 -1.0374
 4137SOL    HW214729   5.479   8.637   5.708 -0.8299 -1.0815 -0.2772
 4138SOL     OW14730   5.910   7.555   7.465 -0.6289 -0.2861  0.3317
 4138SOL    HW114731   5.977   7.553   7.396 -0.5653 -0.2191  0.3918
 4138SOL    HW214732   5.828   7.536   7.419 -0.3539 -2.0225  0.5124
 4139SOL     OW14733   1.783   2.785   4.762  0.3964 -0.4266 -0.0859
 4139SOL    HW114734   1.787   2.806   4.669  0.6783  3.0837  0.6040
 4139SOL    HW214735   1.872   2.757   4.784  1.2652  1.9537 -0.2993
 4140SOL     OW14736  10.106   5.321   2.148  0.0076  0.2797 -0.3142
 4140SOL    HW114737  10.033   5.364   2.103 -1.7165 -1.9038  0.2317
 4140SOL    HW214738  10.173   5.312   2.080  0.3052  3.2703 -0.5641
 4141SOL     OW14739   5.541   5.399   0.117 -0.7196  0.0014 -0.0028
 4141SOL    HW114740   5.570   5.478   0.162 -0.1920 -0.0704 -0.2159
 4141SOL    HW214741   5.445   5.405   0.117 -0.6749  0.7841 -0.2769
 4142SOL     OW14742   1.969   6.530   7.240 -0.0450 -0.0742 -0.1446
 4142SOL    HW114743   1.981   6.617   7.277 -1.3053  1.2808 -2.6622
 4142SOL    HW214744   1.901   6.490   7.293  1.4768 -0.1241  1.8834
 4143SOL     OW14745   1.255   1.110   7.540 -0.5258  0.4907 -0.3757
 4143SOL    HW114746   1.344   1.084   7.517  0.2827  2.1180  0.6968
 4143SOL    HW214747   1.200   1.067   7.475  1.0768 -0.2198 -1.3278
 4144SOL     OW14748   0.897  10.393   7.193  0.0658 -0.0567 -0.1098
 4144SOL    HW114749   0.965  10.422   7.133  0.0052 -1.9966 -1.1773
 4144SOL    HW214750   0.941  10.387   7.278  0.8176  0.2376 -0.4706
 4145SOL     OW14751   5.577   8.427   3.316 -0.7310 -0.1862 -0.0803
 4145SOL    HW114752   5.558   8.364   3.246  0.0194 -0.9924  0.4185
 4145SOL    HW214753   5.591   8.510   3.270 -1.8201 -0.3427 -0.7458
 4146SOL     OW14754   1.290   7.322   5.550  0.1222  0.6181 -0.5357
 4146SOL    HW114755   1.251   7.323   5.637 -0.0992  1.5136 -0.6245
 4146SOL    HW214756   1.217   7.304   5.491 -0.5144  3.4946 -0.8095
 4147SOL     OW14757   6.790   7.158  10.337 -0.0202 -0.1345  0.0903
 4147SOL    HW114758   6.849   7.127  10.406  0.7900 -0.0596 -0.5581
 4147SOL    HW214759   6.707   7.174  10.382 -0.2106 -2.3325  0.6350
 4148SOL     OW14760   9.788   5.430   5.703 -0.2495 -0.2728 -0.3323
 4148SOL    HW114761   9.779   5.485   5.780 -1.6826 -0.9159 -0.0165
 4148SOL    HW214762   9.866   5.377   5.720 -1.0351 -1.0360  1.0972
 4149SOL     OW14763   3.478   3.013   9.041  0.5862  0.5156 -0.3803
 4149SOL    HW114764   3.548   2.964   8.997  0.5234  0.4354 -0.3907
 4149SOL    HW214765   3.523   3.066   9.106  0.6757  0.5991 -0.5101
 4150SOL     OW14766   5.188   8.040   7.481  0.5158  0.1464  0.0638
 4150SOL    HW114767   5.152   7.986   7.410  1.0816  0.5539 -0.5396
 4150SOL    HW214768   5.144   8.124   7.472  1.0475  0.3961 -0.1864
 4151SOL     OW14769   4.069   5.963   1.794  0.6923 -0.2140  0.1240
 4151SOL    HW114770   4.143   5.976   1.854  1.1690 -0.2497 -0.4408
 4151SOL    HW214771   4.075   6.037   1.733  1.7524 -1.4936 -1.4195
 4152SOL     OW14772   3.054   7.180   0.733  0.2067  0.4694  0.7295
 4152SOL    HW114773   2.987   7.228   0.684 -0.8311 -1.1650  0.4560
 4152SOL    HW214774   3.107   7.248   0.775 -0.7269  1.8424 -0.2261
 4153SOL     OW14775   8.337   6.003   3.937  0.2106 -0.0259  0.3352
 4153SOL    HW114776   8.288   6.060   3.996 -0.7208  0.4553 -0.8750
 4153SOL    HW214777   8.304   6.023   3.850  0.5015 -1.7642 -0.2259
 4154SOL     OW14778  10.370   7.840   9.012  0.5820  0.1868  0.2474
 4154SOL    HW114779  10.369   7.915   8.953  0.0251 -0.2196 -0.2602
 4154SOL    HW214780  10.392   7.766   8.956  0.3570 -0.1510  0.6037
 4155SOL     OW14781   9.797   8.686  10.490  0.2166 -0.6155  0.8405
 4155SOL    HW114782   9.876   8.658  10.537  1.4982  0.8147 -0.3550
 4155SOL    HW214783   9.804   8.643  10.404 -0.4471 -0.6766  0.8129
 4156SOL     OW14784   6.713   3.205   2.035 -0.0569 -0.5352  0.4889
 4156SOL    HW114785   6.732   3.278   2.094 -1.2715 -0.3576  0.6801
 4156SOL    HW214786   6.631   3.169   2.068 -0.5688 -0.6690 -0.8809
 4157SOL     OW14787  10.297   9.971   3.579 -0.3877 -0.1158  0.1691
 4157SOL    HW114788  10.380   9.935   3.609 -0.6245 -0.9806 -0.1776
 4157SOL    HW214789  10.264  10.021   3.653 -0.7024 -1.7407  1.1750
 4158SOL     OW14790   5.609   0.332   1.797 -0.0601  0.0478 -0.1019
 4158SOL    HW114791   5.578   0.423   1.800 -0.0139  0.0487  0.5169
 4158SOL    HW214792   5.627   0.310   1.888 -2.2157 -1.3253  0.0597
 4159SOL     OW14793   2.744   2.822   3.161 -0.7672 -0.0929  0.4839
 4159SOL    HW114794   2.749   2.910   3.198 -0.8693 -0.6152  1.8167
 4159SOL    HW214795   2.738   2.764   3.238  1.7378 -1.4567 -0.2320
 4160SOL     OW14796   1.732   5.410   4.534 -0.3234  0.3558 -0.3715
 4160SOL    HW114797   1.790   5.357   4.479 -0.3402 -1.0128  0.8927
 4160SOL    HW214798   1.790   5.474   4.575  0.0465 -0.0128 -0.3126
 4161SOL     OW14799  10.156   7.852   6.823  0.6520  0.2603 -0.1750
 4161SOL    HW114800  10.081   7.796   6.805  1.0637 -0.4604  0.3302
 4161SOL    HW214801  10.117   7.932   6.860 -0.0815  1.1007 -2.5876
 4162SOL     OW14802   3.819   3.838   8.128 -0.6344 -0.0152  0.6722
 4162SOL    HW114803   3.883   3.900   8.095  0.2790 -0.2102  1.9669
 4162SOL    HW214804   3.748   3.892   8.163 -0.5788  0.2423  0.3853
 4163SOL     OW14805   3.688   7.083  10.415 -0.0734  0.0707 -0.4354
 4163SOL    HW114806   3.702   7.049  10.327  3.8405 -1.1103  0.4359
 4163SOL    HW214807   3.703   7.177  10.407  0.0523  0.0020 -1.0392
 4164SOL     OW14808   2.728   4.809   6.321 -0.1826 -0.0766  0.2167
 4164SOL    HW114809   2.815   4.772   6.336 -0.4510 -1.6304 -1.6434
 4164SOL    HW214810   2.692   4.822   6.409  1.2985 -0.9033  0.9915
 4165SOL     OW14811   3.414  10.441   2.553  0.0848  0.2880  0.3504
 4165SOL    HW114812   3.459  10.376   2.607 -0.7716 -0.6630 -0.0503
 4165SOL    HW214813   3.484  10.480   2.501  0.6103 -0.4010  0.5153
 4166SOL     OW14814   8.203   4.789   4.490 -0.5188  0.7868  0.6552
 4166SOL    HW114815   8.110   4.779   4.474 -0.4807 -0.1324  0.9699
 4166SOL    HW214816   8.213   4.881   4.515 -0.8770  1.7433 -2.3831
 4167SOL     OW14817   7.551   5.811   0.118 -0.1174 -0.0464 -0.1952
 4167SOL    HW114818   7.491   5.763   0.061  0.0241 -0.1099 -0.2898
 4167SOL    HW214819   7.602   5.743   0.162 -0.0013  0.0135 -0.2371
 4168SOL     OW14820   4.234   4.871   8.667  0.1814 -0.1464  0.4592
 4168SOL    HW114821   4.328   4.876   8.649  0.1067  0.7124  0.2741
 4168SOL    HW214822   4.222   4.785   8.707  0.9300 -0.5712 -0.1873
 4169SOL     OW14823   5.332   0.524   4.963 -0.0065  0.2502 -0.2898
 4169SOL    HW114824   5.331   0.431   4.937 -0.1480 -0.0364  0.7097
 4169SOL    HW214825   5.398   0.563   4.906 -1.1694 -0.0863 -1.9451
 4170SOL     OW14826   5.108   2.257   0.503 -0.1235 -0.0889 -0.6716
 4170SOL    HW114827   5.078   2.292   0.587 -0.2498  1.9385 -1.4933
 4170SOL    HW214828   5.084   2.165   0.505 -1.4621  0.2497  0.9237
 4171SOL     OW14829   2.558   6.348   0.285  0.4123 -0.1449  0.1446
 4171SOL    HW114830   2.596   6.358   0.197  0.9671 -0.6564  0.3143
 4171SOL    HW214831   2.633   6.327   0.341  0.2302  1.2553  0.9496
 4172SOL     OW14832   3.479   6.130   4.639 -0.0295  0.1152 -0.5385
 4172SOL    HW114833   3.544   6.160   4.576 -0.5911  1.6425 -0.4461
 4172SOL    HW214834   3.443   6.051   4.601 -0.2069  0.8873 -2.0458
 4173SOL     OW14835   5.373   0.701   7.211 -0.1598  0.0376  0.2651
 4173SOL    HW114836   5.341   0.697   7.301 -0.5294  1.4108  0.2264
 4173SOL    HW214837   5.304   0.660   7.159 -1.4388  1.9516  0.3102
 4174SOL     OW14838   4.599   2.017   7.894 -0.1795  0.2345 -0.2795
 4174SOL    HW114839   4.654   1.991   7.820  0.0210 -1.3691  0.3915
 4174SOL    HW214840   4.515   2.037   7.855  0.1088  0.0371 -1.0252
 4175SOL     OW14841   8.962   2.245   2.847  0.5260  0.2969 -0.7709
 4175SOL    HW114842   9.026   2.295   2.899 -1.1229  1.6168  0.0817
 4175SOL    HW214843   8.967   2.156   2.882  0.8884  0.7155  0.2755
 4176SOL     OW14844   4.928   7.596   5.705 -0.0305 -0.0127 -0.3215
 4176SOL    HW114845   4.998   7.653   5.739  0.1588  0.2231 -1.0919
 4176SOL    HW214846   4.862   7.596   5.774  0.2349  0.6624 -0.0604
 4177SOL     OW14847   3.637   8.585   2.162 -0.0694  0.0457 -0.1188
 4177SOL    HW114848   3.618   8.590   2.068  0.2837  0.6515 -0.1623
 4177SOL    HW214849   3.719   8.635   2.173  0.4509 -0.8851  0.3540
 4178SOL     OW14850   2.696   9.855   9.814 -0.0259  0.0634  0.2488
 4178SOL    HW114851   2.648   9.781   9.851  0.6944  0.8543  2.9611
 4178SOL    HW214852   2.639   9.931   9.829 -0.3861  0.2454 -1.7526
 4179SOL     OW14853   4.287  10.044  10.026  0.2188 -0.3776  0.0701
 4179SOL    HW114854   4.300  10.000  10.110 -0.7689 -1.4943 -0.3247
 4179SOL    HW214855   4.376  10.053   9.990  0.5663 -0.7498  0.8032
 4180SOL     OW14856   2.963   1.882   8.093  0.2020 -0.5823 -0.5703
 4180SOL    HW114857   2.884   1.832   8.114  0.0402  0.1592  0.6800
 4180SOL    HW214858   3.024   1.816   8.059 -0.1382 -1.5863  0.6640
 4181SOL     OW14859   5.447   8.718   4.487 -0.2963 -0.6297 -0.2445
 4181SOL    HW114860   5.355   8.699   4.508 -0.3660  1.6341  1.9726
 4181SOL    HW214861   5.494   8.701   4.568  1.0898 -0.6750 -1.0353
 4182SOL     OW14862   0.305   5.883   3.595  0.1080  0.0040  0.1026
 4182SOL    HW114863   0.371   5.843   3.539 -1.1043 -0.0156 -1.3874
 4182SOL    HW214864   0.251   5.810   3.625 -0.3280  0.1952 -0.2020
 4183SOL     OW14865   0.700   1.066   1.570 -0.5990 -0.0705 -0.1286
 4183SOL    HW114866   0.748   1.039   1.491  0.1704  1.4391 -0.2181
 4183SOL    HW214867   0.764   1.054   1.641 -1.0162 -0.6299  0.1614
 4184SOL     OW14868   0.808  10.336   3.125  0.6988 -0.0830 -0.3063
 4184SOL    HW114869   0.892  10.297   3.098  0.1894 -2.3033  1.0379
 4184SOL    HW214870   0.832  10.399   3.194  1.2330 -1.7149  1.0821
 4185SOL     OW14871   9.328   8.794   9.551  0.1923  0.2940 -0.0451
 4185SOL    HW114872   9.365   8.766   9.467 -0.5451  1.6515 -0.8673
 4185SOL    HW214873   9.290   8.880   9.532  1.9768  1.6734  2.2465
 4186SOL     OW14874   3.643   0.099   4.389 -0.6242  0.4877  0.2194
 4186SOL    HW114875   3.630   0.019   4.337  0.5972  1.1872 -1.2169
 4186SOL    HW214876   3.554   0.128   4.410 -1.1022 -0.8270  0.1387
 4187SOL     OW14877   4.559   0.983   3.612  0.5414 -0.5287 -0.4996
 4187SOL    HW114878   4.635   0.926   3.599  1.1781 -0.0361  0.9206
 4187SOL    HW214879   4.509   0.941   3.682  1.0888  0.6838  0.6627
 4188SOL     OW14880   1.165   6.453   5.199 -0.0636 -0.0881  0.0544
 4188SOL    HW114881   1.168   6.401   5.279 -1.3868 -1.3437 -0.6496
 4188SOL    HW214882   1.232   6.415   5.142  1.1616  1.0641  0.6574
 4189SOL     OW14883   7.666   2.204   1.256 -0.4056 -0.2375  0.0096
 4189SOL    HW114884   7.717   2.282   1.235  0.2095 -0.3716  0.9710
 4189SOL    HW214885   7.709   2.133   1.208  1.3159 -0.6387  2.0359
 4190SOL     OW14886   8.748   7.359  10.569 -0.1830  0.6590  0.0406
 4190SOL    HW114887   8.675   7.299  10.576  0.5102 -0.3011 -0.6769
 4190SOL    HW214888   8.734   7.424  10.638 -1.6920  0.4970 -0.0972
 4191SOL     OW14889   2.110   4.107   3.761  0.5766 -0.0346 -0.5322
 4191SOL    HW114890   2.109   4.092   3.855 -2.5381  2.0977 -0.0599
 4191SOL    HW214891   2.150   4.194   3.751  0.1787  0.0931 -1.0756
 4192SOL     OW14892   0.552   6.224   2.616 -0.0916 -0.2703 -0.0663
 4192SOL    HW114893   0.515   6.175   2.690 -0.3980  0.7111  0.4474
 4192SOL    HW214894   0.637   6.183   2.601  0.3435  0.0274  1.3832
 4193SOL     OW14895   8.626   1.770   9.160  0.3313  0.0287 -0.0242
 4193SOL    HW114896   8.635   1.833   9.089  1.7181 -1.5711 -1.3320
 4193SOL    HW214897   8.532   1.768   9.179  0.2449  2.3756  0.0129
 4194SOL     OW14898   8.484   5.073   9.804  0.0484  0.5134 -0.1571
 4194SOL    HW114899   8.559   5.024   9.769 -0.3285 -0.0032 -0.2493
 4194SOL    HW214900   8.487   5.158   9.759  0.6815  0.5640 -0.0264
 4195SOL     OW14901   2.633   4.420   3.470  0.4040 -0.0233 -0.2395
 4195SOL    HW114902   2.550   4.465   3.487 -1.6629 -3.0184 -1.6351
 4195SOL    HW214903   2.655   4.379   3.554 -0.7379 -0.9734 -0.3753
 4196SOL     OW14904   0.426   5.687   2.009 -0.4177 -0.0866  0.9867
 4196SOL    HW114905   0.445   5.642   2.091 -1.7324  0.2337  1.4891
 4196SOL    HW214906   0.425   5.780   2.033  0.9869  0.1584  0.2210
 4197SOL     OW14907   7.012   6.903  10.349 -0.3456 -0.3002 -0.5375
 4197SOL    HW114908   7.106   6.922  10.357 -0.1120 -1.0953 -1.3117
 4197SOL    HW214909   7.002   6.816  10.387 -1.0482  0.3827  0.9449
 4198SOL     OW14910   1.579   3.278   9.561  0.0586  0.4553 -0.3500
 4198SOL    HW114911   1.623   3.194   9.558 -1.9370 -0.6387 -1.0840
 4198SOL    HW214912   1.529   3.276   9.643 -0.1990  0.8027 -0.4911
 4199SOL     OW14913   0.392   9.272   9.619  0.3831  0.0018 -0.2399
 4199SOL    HW114914   0.336   9.202   9.653  0.0528 -0.0957 -0.9700
 4199SOL    HW214915   0.433   9.309   9.697 -0.1822 -0.3650  0.2455
 4200SOL     OW14916   2.642   8.254   7.804  0.1599 -0.2720  0.4100
 4200SOL    HW114917   2.681   8.258   7.717 -2.2501  0.5331 -0.7123
 4200SOL    HW214918   2.563   8.201   7.794 -0.6032  0.4936  1.8948
 4201SOL     OW14919   2.728   8.521   4.484 -0.4219  0.5297  0.3609
 4201SOL    HW114920   2.733   8.519   4.579 -1.2021 -2.3463  0.4342
 4201SOL    HW214921   2.644   8.561   4.464 -0.9025 -0.1448  0.9709
 4202SOL     OW14922   3.905   6.440   2.751 -0.6367  0.4372  0.1948
 4202SOL    HW114923   3.833   6.500   2.730 -2.1286 -1.2047  0.3251
 4202SOL    HW214924   3.945   6.421   2.666 -2.0873 -0.6609 -0.2927
 4203SOL     OW14925  10.217   3.220   7.707  0.2340 -0.2639  0.0402
 4203SOL    HW114926  10.303   3.206   7.667 -0.6429 -2.0112 -1.3610
 4203SOL    HW214927  10.168   3.269   7.641  0.0266  0.4741  0.7225
 4204SOL     OW14928   3.203   4.741   9.863 -0.2626  0.5506  0.4709
 4204SOL    HW114929   3.242   4.824   9.838  1.2195 -0.3173 -0.2651
 4204SOL    HW214930   3.254   4.712   9.939  0.7574 -0.7162 -0.6440
 4205SOL     OW14931   8.728   4.294   0.293  0.2949 -0.5266 -0.0536
 4205SOL    HW114932   8.672   4.221   0.319 -2.1603  1.2689  0.1394
 4205SOL    HW214933   8.817   4.264   0.310 -0.6808 -2.9436  1.2862
 4206SOL     OW14934   9.153   8.177   7.478  0.2444  0.1095 -0.1460
 4206SOL    HW114935   9.076   8.230   7.455  0.7749  0.0635 -2.2358
 4206SOL    HW214936   9.217   8.198   7.410  1.2555 -1.5573  0.2462
 4207SOL     OW14937   5.355   4.246   7.892 -0.4971 -0.7264  0.1970
 4207SOL    HW114938   5.382   4.336   7.911  1.2659 -1.1805  0.0421
 4207SOL    HW214939   5.379   4.196   7.970 -1.1726 -1.1172  0.1579
 4208SOL     OW14940   3.561   7.130   7.621  0.0474 -0.7324 -0.3436
 4208SOL    HW114941   3.561   7.225   7.626  0.6192 -0.5879 -2.3832
 4208SOL    HW214942   3.623   7.102   7.688  2.5598  0.5405 -1.9848
 4209SOL     OW14943   6.409   5.903   3.934 -0.2205  0.4846  0.3756
 4209SOL    HW114944   6.477   5.835   3.929 -1.0975 -0.3384 -0.8415
 4209SOL    HW214945   6.458   5.985   3.938  0.8621 -0.1008 -0.3068
 4210SOL     OW14946   1.748   1.158   1.415  0.1793  0.6299 -0.2699
 4210SOL    HW114947   1.692   1.083   1.435  2.1485 -0.2584  2.6509
 4210SOL    HW214948   1.698   1.234   1.445  0.0950 -0.0771  1.5546
 4211SOL     OW14949   9.655   3.114   4.074 -0.8767 -0.1922 -0.1070
 4211SOL    HW114950   9.633   3.146   4.161 -1.2863  0.0630 -0.3007
 4211SOL    HW214951   9.651   3.191   4.018  0.5447 -0.1210 -0.1608
 4212SOL     OW14952   4.614   1.672   9.148 -0.2661  0.2274  0.2222
 4212SOL    HW114953   4.650   1.666   9.236 -0.0718 -0.6732  0.0919
 4212SOL    HW214954   4.689   1.653   9.090 -0.7572 -0.8857 -0.0738
 4213SOL     OW14955   3.684   4.034   5.572  0.0357  0.3013  0.4282
 4213SOL    HW114956   3.746   4.057   5.503 -0.2174 -2.1890 -0.7195
 4213SOL    HW214957   3.649   3.949   5.546 -1.6482  0.2533  2.5779
 4214SOL     OW14958   2.730   8.678   5.895 -0.2585  0.5875  0.0344
 4214SOL    HW114959   2.639   8.702   5.914 -0.3820  3.3845 -3.1830
 4214SOL    HW214960   2.780   8.756   5.918  1.2266 -0.5085  0.6560
 4215SOL     OW14961   7.075   6.159   8.929  0.6059 -0.5476 -0.4220
 4215SOL    HW114962   6.983   6.143   8.907  0.4901 -0.5077  0.0249
 4215SOL    HW214963   7.078   6.156   9.024  0.4634  2.7013 -0.2269
 4216SOL     OW14964   9.239   6.378   5.832 -0.0960 -0.1922 -0.0053
 4216SOL    HW114965   9.297   6.453   5.818 -0.0039 -0.7108 -3.2476
 4216SOL    HW214966   9.290   6.319   5.887  0.7063  1.1394  0.7525
 4217SOL     OW14967   8.545   8.515   2.053 -0.2127 -0.2230  0.3679
 4217SOL    HW114968   8.517   8.532   2.142 -3.2495 -1.2393 -0.2762
 4217SOL    HW214969   8.478   8.456   2.017  1.0004 -0.0275 -2.5143
 4218SOL     OW14970   9.946   6.977   8.507  0.6915  0.5426  0.2814
 4218SOL    HW114971   9.880   7.032   8.549  1.5340  1.7643  0.0777
 4218SOL    HW214972  10.025   7.031   8.507  1.0905  0.0434 -1.5638
 4219SOL     OW14973   4.848   7.211   8.670 -0.5940  0.1229  0.0082
 4219SOL    HW114974   4.780   7.154   8.707  1.8039 -1.2300  2.7217
 4219SOL    HW214975   4.817   7.299   8.688 -1.4050 -0.4695  1.8176
 4220SOL     OW14976   1.848   2.203   8.149  0.6221  0.2689  0.0696
 4220SOL    HW114977   1.892   2.166   8.226  1.0516 -1.1703 -0.8272
 4220SOL    HW214978   1.757   2.211   8.175  0.3872 -2.0027  0.1583
 4221SOL     OW14979   3.346   3.395   0.915  0.5361 -0.0203  0.6644
 4221SOL    HW114980   3.398   3.442   0.980 -0.3030  0.0340  1.2991
 4221SOL    HW214981   3.342   3.305   0.947  1.7070 -0.4527 -0.2903
 4222SOL     OW14982   7.561   1.375   6.215 -0.3799 -0.9393 -0.1873
 4222SOL    HW114983   7.543   1.383   6.309  0.5327 -0.7567 -0.0137
 4222SOL    HW214984   7.645   1.329   6.212  1.1506  1.6647 -0.7980
 4223SOL     OW14985   0.342  10.173   3.299  0.2034 -0.2597  0.5206
 4223SOL    HW114986   0.367  10.149   3.389  1.2625 -0.1800  0.2555
 4223SOL    HW214987   0.390  10.254   3.282 -0.3060 -0.0580  0.0070
 4224SOL     OW14988   3.485   0.591   8.905 -0.1357 -0.5695  0.6224
 4224SOL    HW114989   3.460   0.568   8.816 -0.9120  0.2258  0.6132
 4224SOL    HW214990   3.460   0.683   8.914 -0.1904 -0.6702  1.7022
 4225SOL     OW14991   8.010   9.267   8.452 -0.4922 -0.3827 -0.3178
 4225SOL    HW114992   8.005   9.361   8.435 -0.0423 -0.3660 -0.3780
 4225SOL    HW214993   8.073   9.234   8.388  0.8587 -0.3912  0.9483
 4226SOL     OW14994   1.864   4.338   5.254  0.0680  0.0621 -0.4597
 4226SOL    HW114995   1.846   4.294   5.171  0.5306  0.5215 -0.8084
 4226SOL    HW214996   1.845   4.430   5.237 -1.0939 -0.0191  0.3268
 4227SOL     OW14997  10.511   1.129   9.307  0.1787 -0.0089 -0.0319
 4227SOL    HW114998  10.535   1.043   9.343  1.9624  0.8014  0.8341
 4227SOL    HW214999  10.532   1.122   9.214 -0.9748 -0.9325 -0.2398
 4228SOL     OW15000   1.965   3.719   6.455  0.4802 -0.2910 -0.4640
 4228SOL    HW115001   1.938   3.784   6.520  1.3472  0.1998 -0.5848
 4228SOL    HW215002   2.032   3.762   6.404  0.2865 -0.9124 -1.2634
 4229SOL     OW15003  10.344   4.447   4.306 -0.6052  0.0830 -0.0059
 4229SOL    HW115004  10.412   4.465   4.240  0.7099 -1.2039  0.9122
 4229SOL    HW215005  10.331   4.530   4.351  0.1949  0.4108 -0.3574
 4230SOL     OW15006   8.843   8.760   5.246 -0.5710 -0.2087  0.3659
 4230SOL    HW115007   8.868   8.836   5.193 -2.9664  0.4170 -0.0122
 4230SOL    HW215008   8.840   8.687   5.184  2.7300 -0.9453  0.9161
 4231SOL     OW15009   7.761   1.437   7.251  0.2208  0.3192 -0.0973
 4231SOL    HW115010   7.835   1.429   7.190 -1.2414 -1.2174 -1.7808
 4231SOL    HW215011   7.693   1.383   7.213 -0.4162 -1.7844  3.5689
 4232SOL     OW15012   5.921   3.241  10.202  0.7645 -0.1788 -0.3547
 4232SOL    HW115013   5.986   3.190  10.155  0.4121 -1.3750  0.4041
 4232SOL    HW215014   5.912   3.197  10.287 -1.9581 -0.8866 -0.8895
 4233SOL     OW15015   3.602   6.984   4.092  0.3117  0.5289  0.7417
 4233SOL    HW115016   3.524   6.944   4.130  0.1500 -0.1207 -0.2501
 4233SOL    HW215017   3.672   6.920   4.109  0.3171  0.4135  0.2945
 4234SOL     OW15018   8.892   8.927   4.106  0.5963  0.0171 -0.0276
 4234SOL    HW115019   8.818   8.965   4.060  0.0279  0.1045  0.9262
 4234SOL    HW215020   8.886   8.833   4.088  0.9645  0.1565 -0.9283
 4235SOL     OW15021   2.570   9.812   2.505 -0.1123  0.4394  0.0493
 4235SOL    HW115022   2.488   9.859   2.489 -0.1811  0.3036  0.0031
 4235SOL    HW215023   2.568   9.738   2.444 -0.1516  0.1968  0.3399
 4236SOL     OW15024   2.509   5.610   5.551  0.3995 -0.4091 -0.0805
 4236SOL    HW115025   2.580   5.632   5.490  0.6603  0.0341  0.3802
 4236SOL    HW215026   2.552   5.569   5.625  0.0916 -0.8401 -0.1349
 4237SOL     OW15027   1.865  10.473   3.789  0.3732  0.5756 -0.3215
 4237SOL    HW115028   1.812  10.514   3.858 -0.7299  3.8357 -2.8146
 4237SOL    HW215029   1.941  10.531   3.780  1.4931 -0.8832 -0.6310
 4238SOL     OW15030   2.390   8.446   6.635  0.1320 -0.2461  0.6612
 4238SOL    HW115031   2.454   8.441   6.564 -0.3688 -1.0886  0.2517
 4238SOL    HW215032   2.442   8.460   6.714  0.7056  0.5581  0.1546
 4239SOL     OW15033  10.395   6.024   5.006  0.0584 -0.0036 -0.2118
 4239SOL    HW115034  10.405   5.994   4.916 -1.1475  1.5635 -0.9234
 4239SOL    HW215035  10.463   6.089   5.018 -0.9344  1.1577 -0.6621
 4240SOL     OW15036   3.144   9.647   3.762  0.3642 -0.2094  0.3500
 4240SOL    HW115037   3.230   9.626   3.725 -0.1594 -2.7790  0.3770
 4240SOL    HW215038   3.096   9.687   3.689  1.2500  0.2762  0.0220
 4241SOL     OW15039   9.407   2.222   7.948 -0.0879  0.5238  0.2292
 4241SOL    HW115040   9.335   2.169   7.915  0.3685 -0.7433  1.1823
 4241SOL    HW215041   9.364   2.292   7.997 -0.7057 -0.5386  1.2691
 4242SOL     OW15042  10.191   3.205   2.369 -0.3150  0.2481  0.4259
 4242SOL    HW115043  10.105   3.175   2.339  0.1574 -0.1142 -0.6028
 4242SOL    HW215044  10.211   3.149   2.444 -0.3939 -0.5752 -0.1568
 4243SOL     OW15045   3.862   3.166   1.571  0.0542 -0.2445 -0.6691
 4243SOL    HW115046   3.943   3.133   1.608 -0.3279  0.4804  0.9098
 4243SOL    HW215047   3.856   3.256   1.603 -0.8108  0.0780 -1.6873
 4244SOL     OW15048   4.880   0.828   1.991  0.3662 -0.1225  0.3814
 4244SOL    HW115049   4.912   0.762   2.052 -1.1832  0.0332  1.4046
 4244SOL    HW215050   4.790   0.846   2.019 -0.1959  0.3869 -1.5846
 4245SOL     OW15051   9.810  10.268   6.255 -0.5239 -0.0593 -0.0109
 4245SOL    HW115052   9.882  10.247   6.195 -0.5357 -1.7353  0.5101
 4245SOL    HW215053   9.842  10.341   6.306  0.8783 -0.8415  0.2812
 4246SOL     OW15054   8.846   9.693   6.918  0.5203  0.0285  0.1023
 4246SOL    HW115055   8.874   9.708   7.008  1.2228  0.6340 -0.2053
 4246SOL    HW215056   8.801   9.773   6.893 -0.5174 -0.5083  0.2206
 4247SOL     OW15057   6.755   4.402   1.522  0.5152  0.2434  0.3132
 4247SOL    HW115058   6.791   4.414   1.610  1.0862  0.0192  0.1143
 4247SOL    HW215059   6.810   4.334   1.483  1.5180  1.6976 -0.9059
 4248SOL     OW15060   2.860   9.569   7.035 -0.5167 -0.3001  0.1299
 4248SOL    HW115061   2.897   9.615   7.110  0.0823  1.6331 -1.2532
 4248SOL    HW215062   2.926   9.579   6.966 -1.9870 -0.0259 -1.3152
 4249SOL     OW15063   7.476   0.719   9.229 -0.5486 -0.3075  0.5649
 4249SOL    HW115064   7.537   0.718   9.302 -0.5150  2.5913  0.7082
 4249SOL    HW215065   7.397   0.677   9.263 -0.0185 -0.3819  1.7501
 4250SOL     OW15066   7.335   1.277   6.776 -0.1903 -0.2891  0.7885
 4250SOL    HW115067   7.327   1.206   6.840 -1.4889 -0.7656  0.1312
 4250SOL    HW215068   7.430   1.286   6.763  0.1433  0.0560  2.9860
 4251SOL     OW15069   9.131   4.544   1.335  0.4933 -0.2053 -0.2987
 4251SOL    HW115070   9.090   4.510   1.255  0.8850 -1.5717  0.0597
 4251SOL    HW215071   9.071   4.518   1.405  0.3314  0.6805 -0.0900
 4252SOL     OW15072   7.433   4.127   3.994 -0.1692  0.0869  0.1100
 4252SOL    HW115073   7.342   4.096   3.998 -0.9798  2.0538 -1.4488
 4252SOL    HW215074   7.456   4.142   4.086 -1.5593 -0.0380  0.5164
 4253SOL     OW15075   2.620   5.982   0.127  0.0877 -0.0049 -0.4568
 4253SOL    HW115076   2.541   6.004   0.078  0.3478 -0.3530 -1.0370
 4253SOL    HW215077   2.591   5.917   0.192 -0.5233  1.3949  0.7426
 4254SOL     OW15078   9.608   4.105   1.028 -0.8477 -0.4478 -0.2198
 4254SOL    HW115079   9.572   4.170   1.088  0.2654  0.6445 -0.6910
 4254SOL    HW215080   9.702   4.105   1.047 -0.8357 -2.0967 -0.0812
 4255SOL     OW15081   0.892   0.156  10.011  0.2746 -0.2796  0.0784
 4255SOL    HW115082   0.911   0.135  10.103  1.4076 -1.4798 -0.3993
 4255SOL    HW215083   0.974   0.189   9.977 -0.5617  1.7285 -0.1280
 4256SOL     OW15084   6.199   4.500   6.030 -0.0219 -0.0454  0.5170
 4256SOL    HW115085   6.157   4.576   5.989  0.0304 -0.7540 -0.9148
 4256SOL    HW215086   6.255   4.464   5.962  2.2758  0.3293  2.0965
 4257SOL     OW15087   9.926   2.852   5.354  0.3056  0.6847  0.3963
 4257SOL    HW115088   9.969   2.795   5.418 -0.6827 -0.8196 -0.2070
 4257SOL    HW215089   9.996   2.879   5.295  0.8436  0.2597  0.8317
 4258SOL     OW15090  10.592   0.132   6.589  0.0744  0.3462  0.0087
 4258SOL    HW115091  10.625   0.057   6.639  0.6183  0.6258  0.0737
 4258SOL    HW215092  10.503   0.145   6.621  0.7282  1.1115  1.5896
 4259SOL     OW15093   0.518   0.430   2.772  0.0710 -0.0455 -0.5610
 4259SOL    HW115094   0.566   0.512   2.786  1.0015 -0.7968  0.9985
 4259SOL    HW215095   0.502   0.427   2.678  1.2628  1.2464 -0.8376
 4260SOL     OW15096   6.329   5.961   3.542  0.1326 -0.5243  0.3044
 4260SOL    HW115097   6.315   5.972   3.448 -1.7759  1.6910  0.7701
 4260SOL    HW215098   6.368   6.043   3.571 -0.6627 -0.5958  1.6726
 4261SOL     OW15099   9.215   9.888   8.176 -0.1157  0.5425 -0.0658
 4261SOL    HW115100   9.268   9.809   8.168 -1.8556 -0.8611  1.3198
 4261SOL    HW215101   9.269   9.949   8.226  1.3901  0.4085 -1.4610
 4262SOL     OW15102   5.134   1.629   2.630 -0.0862  0.3415  0.5355
 4262SOL    HW115103   5.178   1.596   2.709 -0.3007  2.4378  1.5990
 4262SOL    HW215104   5.094   1.551   2.591  2.2748 -1.1958  0.9772
 4263SOL     OW15105   2.545   8.101   7.166 -0.2068  0.6541 -0.3169
 4263SOL    HW115106   2.552   8.026   7.226 -0.7012  0.2617 -0.7419
 4263SOL    HW215107   2.585   8.070   7.085  3.6567  2.2743  0.7283
 4264SOL     OW15108   8.640   9.183   2.815  0.3667 -0.4717 -0.0581
 4264SOL    HW115109   8.557   9.224   2.792  0.5916 -0.0487 -0.1334
 4264SOL    HW215110   8.697   9.256   2.837  0.3300 -0.8373  1.2874
 4265SOL     OW15111   2.516   3.924   2.264 -0.5830  0.2102 -0.5853
 4265SOL    HW115112   2.430   3.964   2.278 -0.8254 -0.2548 -0.7143
 4265SOL    HW215113   2.530   3.929   2.169 -0.6809 -0.1366 -0.6203
 4266SOL     OW15114   4.436   2.657   1.452  0.0670 -0.0458  0.0339
 4266SOL    HW115115   4.435   2.707   1.534  1.0941 -2.1401  1.3911
 4266SOL    HW215116   4.348   2.620   1.446 -0.8623  2.1189 -1.2190
 4267SOL     OW15117   6.951   0.098   1.446  0.0245  0.6656  0.6891
 4267SOL    HW115118   6.942   0.041   1.369  2.2408  1.7555 -0.4737
 4267SOL    HW215119   6.926   0.043   1.520 -2.1213 -0.4414 -0.7691
 4268SOL     OW15120   1.593   6.136   6.907 -0.0983  0.3353  0.1403
 4268SOL    HW115121   1.654   6.184   6.851 -1.1803  1.3948 -0.1782
 4268SOL    HW215122   1.648   6.094   6.973  1.1132 -0.0973 -1.0988
 4269SOL     OW15123   8.702   9.992   5.325  0.1336  0.2833  0.4350
 4269SOL    HW115124   8.765  10.052   5.364  0.8042  1.0343 -1.6714
 4269SOL    HW215125   8.624   9.999   5.380  0.6380  2.1257  0.9722
 4270SOL     OW15126   2.525   9.008   2.999 -0.4884  0.2320  0.0954
 4270SOL    HW115127   2.619   8.997   3.015 -0.3848  1.7793  0.7623
 4270SOL    HW215128   2.489   9.030   3.085 -1.2436  0.8921 -0.3773
 4271SOL     OW15129   5.677   0.698   5.973 -0.3375  0.5488  0.3342
 4271SOL    HW115130   5.640   0.757   5.907  1.3174  0.6412 -0.5755
 4271SOL    HW215131   5.675   0.611   5.931 -0.0843  0.4607  0.5013
 4272SOL     OW15132   4.311   6.867   7.427 -0.0591  0.4765 -0.6247
 4272SOL    HW115133   4.236   6.828   7.472 -0.2394 -1.4064 -2.4055
 4272SOL    HW215134   4.317   6.818   7.345  2.9679  0.7278 -0.6617
 4273SOL     OW15135   9.194   3.084   8.307 -0.3414 -0.1402  0.3219
 4273SOL    HW115136   9.287   3.089   8.330 -1.0738  1.2639  3.4983
 4273SOL    HW215137   9.175   3.170   8.269 -0.2660 -0.6685 -0.9791
 4274SOL     OW15138   9.416   2.972  10.577 -0.3179  0.5123  0.4443
 4274SOL    HW115139   9.454   3.027  10.509 -1.5250  0.1731 -0.5345
 4274SOL    HW215140   9.356   3.030  10.623  0.1480  0.6138  0.9406
 4275SOL     OW15141  10.324   5.948   7.321 -0.0876  0.3735 -0.5833
 4275SOL    HW115142  10.411   5.928   7.356 -0.9444 -0.6327  1.1221
 4275SOL    HW215143  10.279   5.992   7.394 -1.9123 -1.6699 -0.3652
 4276SOL     OW15144   4.468   3.461   5.275  0.4060  0.5557  0.0417
 4276SOL    HW115145   4.388   3.455   5.328  0.5929  0.4146  0.3112
 4276SOL    HW215146   4.458   3.394   5.208  1.3331 -1.1160  1.4809
 4277SOL     OW15147   0.432   8.816   5.868  0.2529 -0.5612 -0.5977
 4277SOL    HW115148   0.502   8.845   5.926  0.2746  0.6578 -1.2059
 4277SOL    HW215149   0.475   8.804   5.783 -0.3247  0.6521 -1.0924
 4278SOL     OW15150  10.364   4.839   7.955 -0.0187 -0.5886  0.0531
 4278SOL    HW115151  10.434   4.787   7.914  0.5185  0.4654 -0.4032
 4278SOL    HW215152  10.380   4.831   8.049  1.0064  0.0041 -0.0562
 4279SOL     OW15153   6.744   4.725   6.729  0.2557 -0.1412 -1.0184
 4279SOL    HW115154   6.796   4.650   6.702 -0.6115 -1.2223  0.1970
 4279SOL    HW215155   6.807   4.797   6.737  1.0885 -0.7163 -2.2392
 4280SOL     OW15156   9.563   3.664   1.839  0.8261  0.0222 -0.3581
 4280SOL    HW115157   9.543   3.583   1.792 -0.5857  0.1422 -0.0195
 4280SOL    HW215158   9.620   3.713   1.780 -1.4719  0.5123 -2.3200
 4281SOL     OW15159   4.886   1.150   4.441  0.4646  0.0736 -0.6653
 4281SOL    HW115160   4.969   1.120   4.405  0.7535 -1.0665  0.8399
 4281SOL    HW215161   4.845   1.071   4.477 -0.6350  0.8441 -0.1642
 4282SOL     OW15162   5.330   4.806   4.613  0.3137 -0.0501 -0.2777
 4282SOL    HW115163   5.315   4.734   4.551  0.2195  2.4458 -3.4636
 4282SOL    HW215164   5.414   4.786   4.653 -0.4636 -2.6940  0.2120
 4283SOL     OW15165   0.902   0.092   2.418 -0.0779  0.2508 -0.1951
 4283SOL    HW115166   0.940   0.178   2.435  0.5167 -0.0267 -0.1062
 4283SOL    HW215167   0.947   0.061   2.340  0.1880 -0.2634  0.1574
 4284SOL     OW15168   4.450   4.541   2.696 -0.0020 -0.1754 -0.3333
 4284SOL    HW115169   4.541   4.567   2.687  0.2220 -0.9944 -0.4919
 4284SOL    HW215170   4.437   4.474   2.629 -0.7712  0.0695 -0.4376
 4285SOL     OW15171   3.330   6.330   8.537 -0.1858 -0.4251  0.3873
 4285SOL    HW115172   3.333   6.408   8.593  0.5824 -1.1636  1.4202
 4285SOL    HW215173   3.365   6.260   8.592  0.3582 -1.2445 -0.9501
 4286SOL     OW15174   0.360   1.261   6.648 -0.0957 -0.3951 -0.7124
 4286SOL    HW115175   0.350   1.337   6.706  0.8052 -0.5094 -0.3832
 4286SOL    HW215176   0.281   1.210   6.662  0.0809 -0.3956  0.4059
 4287SOL     OW15177   7.632   2.941   2.933  0.1538  0.2025 -0.0533
 4287SOL    HW115178   7.660   3.010   2.994 -1.3530  1.1527 -0.3596
 4287SOL    HW215179   7.695   2.946   2.861  1.0283  0.1369  0.6913
 4288SOL     OW15180   9.466   8.053   8.209  0.2770  0.2043  0.1761
 4288SOL    HW115181   9.500   8.134   8.246  0.6957 -0.1392  0.5498
 4288SOL    HW215182   9.373   8.051   8.234 -0.1455  1.3284 -1.1594
 4289SOL     OW15183   1.100   0.401   3.992  0.0502 -0.4388  0.7421
 4289SOL    HW115184   1.037   0.363   4.054 -0.1552 -0.8634  0.2849
 4289SOL    HW215185   1.053   0.474   3.953  0.1598 -0.2055  1.0426
 4290SOL     OW15186  10.517   0.915   3.032  0.2705  0.1778  0.2695
 4290SOL    HW115187  10.538   0.830   2.993  1.7696  0.7810 -0.3477
 4290SOL    HW215188  10.433   0.940   2.994 -0.2019 -1.0303  0.4887
 4291SOL     OW15189   7.164   2.523   0.257 -0.1502  0.5311 -0.7014
 4291SOL    HW115190   7.221   2.579   0.309  0.0554  0.0709 -0.4247
 4291SOL    HW215191   7.149   2.572   0.176  0.3489  0.8097 -0.6287
 4292SOL     OW15192   8.296   1.149  10.059  0.1217 -0.2110  0.0286
 4292SOL    HW115193   8.234   1.190  10.118 -0.2718 -1.0065  0.1754
 4292SOL    HW215194   8.268   1.176   9.971  0.5309  0.7232  0.1707
 4293SOL     OW15195   3.305   0.958   5.079 -0.5767 -0.5451 -0.3651
 4293SOL    HW115196   3.216   0.991   5.091 -1.1281 -1.1803 -2.3630
 4293SOL    HW215197   3.356   1.002   5.146 -2.0800  1.1216 -0.2526
 4294SOL     OW15198   9.788   6.528  10.135  0.5429 -0.5128 -0.5323
 4294SOL    HW115199   9.710   6.583  10.125  2.3652  2.6102  0.8315
 4294SOL    HW215200   9.826   6.524  10.048 -0.3007 -0.7055 -0.8991
 4295SOL     OW15201   8.142  10.426   5.119 -0.0211 -0.4938  0.3209
 4295SOL    HW115202   8.184  10.439   5.034  1.4702  2.9798  1.4362
 4295SOL    HW215203   8.088  10.348   5.107  1.5871 -1.2499 -3.2108
 4296SOL     OW15204   5.685   9.565   6.391  0.3899  0.2336 -0.4480
 4296SOL    HW115205   5.680   9.555   6.296  0.3898  0.0193 -0.4260
 4296SOL    HW215206   5.630   9.494   6.426  2.3593 -1.2806 -0.2430
 4297SOL     OW15207   9.452   3.290   9.757 -0.7679 -0.3317  0.2416
 4297SOL    HW115208   9.380   3.250   9.807 -0.4912  0.2224  1.1065
 4297SOL    HW215209   9.504   3.337   9.823 -1.6175  2.2912 -0.8100
 4298SOL     OW15210  10.586   0.236   4.148 -0.6997  0.5321 -0.0249
 4298SOL    HW115211  10.604   0.281   4.231  0.9791  0.4056 -0.2878
 4298SOL    HW215212  10.499   0.265   4.124 -1.5736 -0.0257  2.1787
 4299SOL     OW15213   2.895   0.355   6.018  0.0725  0.6732  0.1884
 4299SOL    HW115214   2.901   0.284   6.082  2.1376  1.0295  0.4761
 4299SOL    HW215215   2.808   0.392   6.031 -0.2871 -0.5115  1.4257
 4300SOL     OW15216   9.149   1.683   9.721 -0.4489 -0.4800  0.4339
 4300SOL    HW115217   9.057   1.661   9.705 -0.3254 -1.3525  0.9038
 4300SOL    HW215218   9.146   1.771   9.758 -0.9949  0.0631 -0.8299
 4301SOL     OW15219   9.650   1.146   4.879 -0.2628  0.2293 -0.2914
 4301SOL    HW115220   9.713   1.130   4.950 -0.0332  2.1638 -0.0062
 4301SOL    HW215221   9.609   1.061   4.865 -0.0339 -0.3190  1.9024
 4302SOL     OW15222   9.017   1.912  10.350 -0.1107 -0.3952  0.3922
 4302SOL    HW115223   8.939   1.939  10.399  0.1263  1.8561 -0.3377
 4302SOL    HW215224   9.016   1.969  10.272  0.2323 -2.9050 -1.5864
 4303SOL     OW15225   4.239   8.919   1.213  0.3297  0.0548 -0.2846
 4303SOL    HW115226   4.262   9.000   1.167 -1.3624 -0.2421 -1.7407
 4303SOL    HW215227   4.143   8.916   1.211  0.3443 -1.8075  0.0753
 4304SOL     OW15228   7.619   3.279   7.211  0.0823  0.2023  0.2807
 4304SOL    HW115229   7.693   3.225   7.184  0.2991  0.0428  1.1619
 4304SOL    HW215230   7.574   3.301   7.129 -0.1865 -1.5740 -0.1043
 4305SOL     OW15231   9.859   9.241   9.707  0.2897  0.3552 -0.6384
 4305SOL    HW115232   9.835   9.282   9.790 -3.2460  0.6561 -1.6280
 4305SOL    HW215233   9.954   9.229   9.712  0.4654  2.0374  2.6372
 4306SOL     OW15234   0.676   1.966   5.837 -0.1916 -0.2816 -0.3616
 4306SOL    HW115235   0.676   2.055   5.800  1.2012  0.3116  0.9260
 4306SOL    HW215236   0.594   1.960   5.886  0.0344  0.6079  0.1631
 4307SOL     OW15237   4.849   2.444   6.327  0.0342 -0.0623 -0.1487
 4307SOL    HW115238   4.769   2.396   6.307  0.0525  0.4477 -1.5377
 4307SOL    HW215239   4.818   2.527   6.364 -0.0522 -0.2706  0.2474
 4308SOL     OW15240   0.691   4.709   7.772  0.3308  0.2304 -0.0741
 4308SOL    HW115241   0.669   4.789   7.821  0.9045  0.5959 -0.3990
 4308SOL    HW215242   0.614   4.691   7.719  0.3642  0.8221 -0.3276
 4309SOL     OW15243  10.438   1.295   7.320 -0.9152 -0.7390  0.1561
 4309SOL    HW115244  10.474   1.316   7.406  1.5176  2.7331 -1.4550
 4309SOL    HW215245  10.485   1.217   7.292 -1.4527 -1.6721  1.7230
 4310SOL     OW15246   8.578   7.512   3.735 -0.3149  0.1169  0.6172
 4310SOL    HW115247   8.564   7.599   3.697 -0.8288  0.0352  0.6020
 4310SOL    HW215248   8.670   7.493   3.719 -0.3755  0.3391 -0.0677
 4311SOL     OW15249   5.085   5.281   2.275  0.1527 -0.3199  0.4562
 4311SOL    HW115250   5.120   5.368   2.257 -0.3677 -0.1991  0.0041
 4311SOL    HW215251   4.990   5.290   2.263 -0.3490 -0.0928  3.7822
 4312SOL     OW15252   9.869   4.838   4.348  0.1696 -0.0900  0.2478
 4312SOL    HW115253   9.881   4.750   4.314 -1.3179 -0.8295  1.4996
 4312SOL    HW215254   9.933   4.891   4.300  0.8269 -1.7506 -0.8184
 4313SOL     OW15255   8.471   7.233   6.662 -0.1536 -0.2949 -0.0272
 4313SOL    HW115256   8.460   7.328   6.662  0.1837 -0.2417  1.2165
 4313SOL    HW215257   8.561   7.219   6.631 -0.1344 -0.1936 -0.0197
 4314SOL     OW15258   6.976   1.251   6.752 -0.7510  0.2755 -0.2364
 4314SOL    HW115259   6.986   1.343   6.725  1.9326 -0.1218 -0.8259
 4314SOL    HW215260   6.973   1.255   6.847 -1.4496  1.0175 -0.2734
 4315SOL     OW15261   4.159   5.978   7.501  0.1255  0.3104 -0.1177
 4315SOL    HW115262   4.102   5.982   7.424 -0.1891 -2.7072 -0.1517
 4315SOL    HW215263   4.244   5.951   7.466  0.2759  0.0009  0.4741
 4316SOL     OW15264   4.151  10.021   3.744 -0.0226  0.2279  0.4705
 4316SOL    HW115265   4.177   9.929   3.740  1.5860  0.5776  2.1688
 4316SOL    HW215266   4.221  10.068   3.699  0.0396  0.7945  1.1562
 4317SOL     OW15267  10.399   7.289   9.865  0.6557  0.1318 -0.6624
 4317SOL    HW115268  10.449   7.370   9.875  2.1282 -0.7300 -0.7939
 4317SOL    HW215269  10.365   7.271   9.953  2.3707 -0.3688 -0.0712
 4318SOL     OW15270   8.680   2.604   4.653  0.9358  0.9238 -0.3870
 4318SOL    HW115271   8.587   2.590   4.672  0.4511  2.6031 -1.2649
 4318SOL    HW215272   8.682   2.629   4.561  2.2580  1.0062 -0.3541
 4319SOL     OW15273   9.917   7.528   8.998 -0.3246  0.3509  0.5583
 4319SOL    HW115274  10.004   7.488   8.998 -0.0826  0.8642  0.1670
 4319SOL    HW215275   9.915   7.579   9.079 -0.5540 -0.2717  0.9500
 4320SOL     OW15276   6.106   2.379   0.838 -0.2589 -0.0692  0.1573
 4320SOL    HW115277   6.077   2.322   0.767 -0.9933 -0.3428  0.6656
 4320SOL    HW215278   6.192   2.346   0.862  0.1024  0.1745 -0.7518
 4321SOL     OW15279   5.185   8.606   3.835  0.2884 -0.2070  0.3778
 4321SOL    HW115280   5.265   8.657   3.819 -0.0093  0.1784  0.0860
 4321SOL    HW215281   5.150   8.643   3.916  0.4216 -0.3968  0.5222
 4322SOL     OW15282   9.346   7.091   8.463  0.1284  0.4071 -0.2125
 4322SOL    HW115283   9.282   7.099   8.392  0.2337 -0.4246 -0.4163
 4322SOL    HW215284   9.377   7.000   8.457  0.6910  0.5482  0.4275
 4323SOL     OW15285   9.982   9.999   2.742  0.1478 -0.2181  0.1709
 4323SOL    HW115286   9.938   9.996   2.828  1.8353 -1.3185  1.0649
 4323SOL    HW215287  10.045  10.069   2.750  0.7007 -0.6956  0.0437
 4324SOL     OW15288   6.327   0.730   6.220 -0.2066 -0.6466 -0.6656
 4324SOL    HW115289   6.254   0.780   6.257 -0.3012 -2.0147  1.1744
 4324SOL    HW215290   6.327   0.752   6.127 -3.0697 -0.6900 -0.7677
 4325SOL     OW15291   3.373   6.423   1.074  0.5853 -0.3391  0.5371
 4325SOL    HW115292   3.396   6.333   1.051 -0.5788 -0.8681  1.3159
 4325SOL    HW215293   3.452   6.473   1.059  1.3265 -1.5412  0.3037
 4326SOL     OW15294   6.479   7.583   6.456 -0.8451  0.3796 -0.5335
 4326SOL    HW115295   6.467   7.619   6.369 -2.5355  2.0724  0.3310
 4326SOL    HW215296   6.562   7.620   6.486 -0.1960 -0.3026 -1.4134
 4327SOL     OW15297   4.136   0.577   8.757  0.2047 -0.0580  0.0972
 4327SOL    HW115298   4.187   0.600   8.835  1.8108  2.2361 -1.4783
 4327SOL    HW215299   4.045   0.584   8.786  0.6334  3.9001  1.1359
 4328SOL     OW15300   8.017   2.016   9.792 -0.1426  0.3875  0.3977
 4328SOL    HW115301   8.043   2.089   9.848  1.5702 -0.1011  0.3131
 4328SOL    HW215302   8.036   2.045   9.703  1.2523 -0.3782  0.4099
 4329SOL     OW15303   2.682   9.381  10.163  0.1386  0.0677  0.7641
 4329SOL    HW115304   2.637   9.345  10.239  0.2245  0.0140  0.7882
 4329SOL    HW215305   2.625   9.452  10.133  2.0298  2.9050  3.3174
 4330SOL     OW15306   2.408   0.161   4.871  0.0699  0.0455  0.6032
 4330SOL    HW115307   2.375   0.125   4.954  1.4637 -1.7026  0.4475
 4330SOL    HW215308   2.390   0.093   4.807  0.0385  0.9107 -0.3306
 4331SOL     OW15309   3.524   3.696   8.467 -0.2676  0.7020 -0.3734
 4331SOL    HW115310   3.592   3.747   8.510 -1.9314  1.8796  1.0258
 4331SOL    HW215311   3.457   3.761   8.444 -1.9650 -0.6562  0.4520
 4332SOL     OW15312   4.809   8.647   4.671  0.2494 -0.3387  0.6063
 4332SOL    HW115313   4.844   8.735   4.656 -1.0142 -0.0790 -1.0987
 4332SOL    HW215314   4.880   8.601   4.715  2.1966  0.5970 -1.3302
 4333SOL     OW15315   8.563  10.542   5.101 -0.4511 -0.5733  0.1882
 4333SOL    HW115316   8.633  10.502   5.051  1.5697 -0.5463  2.7905
 4333SOL    HW215317   8.502  10.471   5.119 -0.3009 -0.9553 -0.8024
 4334SOL     OW15318   5.278   9.824   4.082 -0.1208 -0.1018  0.4004
 4334SOL    HW115319   5.220   9.830   4.006  0.2726 -0.6260  0.0486
 4334SOL    HW215320   5.220   9.805   4.156 -0.3344 -1.3526 -0.0618
 4335SOL     OW15321   4.986   8.406   6.269 -0.3675 -0.3791  0.3042
 4335SOL    HW115322   5.075   8.429   6.245 -0.4421 -0.4118  0.0007
 4335SOL    HW215323   4.931   8.456   6.209 -0.5503 -0.5106  0.3621
 4336SOL     OW15324   8.413   2.251   8.370 -0.2644  0.0420 -0.4896
 4336SOL    HW115325   8.395   2.312   8.442 -2.2370 -0.3055 -0.6347
 4336SOL    HW215326   8.493   2.205   8.397 -0.8358  0.0721  1.3859
 4337SOL     OW15327   6.919   2.995   9.343  0.8247  0.1459 -0.1004
 4337SOL    HW115328   7.001   3.041   9.324 -0.5044  2.3589 -0.8250
 4337SOL    HW215329   6.897   3.021   9.432  0.4684  0.3148 -0.2335
 4338SOL     OW15330   7.303   1.536   6.815  0.8895 -0.1288 -0.4948
 4338SOL    HW115331   7.297   1.447   6.779  0.4756 -0.2214 -0.2053
 4338SOL    HW215332   7.393   1.543   6.846  1.5518  0.2888 -2.3831
 4339SOL     OW15333   2.941   6.308   8.340  0.3291 -0.2732 -0.5193
 4339SOL    HW115334   2.937   6.291   8.434 -0.9405  1.0456 -0.3008
 4339SOL    HW215335   3.035   6.304   8.319  0.5222 -2.0118  0.4904
 4340SOL     OW15336   8.511   7.004   4.893  0.1797 -0.2814 -0.1245
 4340SOL    HW115337   8.493   6.947   4.817 -1.0042 -0.0344 -0.0515
 4340SOL    HW215338   8.457   7.081   4.878  1.4100  0.6250  0.0262
 4341SOL     OW15339   8.323   9.355   4.532  0.1210 -0.1536 -0.6137
 4341SOL    HW115340   8.265   9.280   4.539 -0.3284  0.1874 -0.6226
 4341SOL    HW215341   8.399   9.332   4.585 -0.2253 -0.4136 -0.2290
 4342SOL     OW15342   4.074   1.745   7.214  0.2229 -0.3293  0.1489
 4342SOL    HW115343   4.101   1.663   7.174 -0.3258 -0.9192  0.9438
 4342SOL    HW215344   4.047   1.721   7.303  0.1358  0.7221  0.4282
 4343SOL     OW15345   6.853   1.020   5.063 -0.0088  0.1432 -0.5050
 4343SOL    HW115346   6.895   0.947   5.019 -1.8347 -0.3514 -1.5374
 4343SOL    HW215347   6.856   0.998   5.156 -0.2157 -1.0687 -0.7802
 4344SOL     OW15348   9.781   7.735   4.292  0.1602 -0.0293 -0.0755
 4344SOL    HW115349   9.715   7.790   4.249 -0.7433 -0.0487  1.2029
 4344SOL    HW215350   9.769   7.753   4.386  0.7549 -1.4031  0.2860
 4345SOL     OW15351   1.222   4.240   9.266 -0.5137  0.1036  0.2213
 4345SOL    HW115352   1.279   4.163   9.271 -0.0150  0.4224 -0.4091
 4345SOL    HW215353   1.250   4.294   9.341 -0.1594  0.1416  0.0642
 4346SOL     OW15354   6.271   9.020   8.860  0.0784  0.0482  0.1804
 4346SOL    HW115355   6.238   8.930   8.851 -1.4008  0.6078 -0.3775
 4346SOL    HW215356   6.299   9.045   8.772 -0.5839  0.5080  0.0931
 4347SOL     OW15357   6.647   8.524   5.681  0.0677 -0.3003 -0.6261
 4347SOL    HW115358   6.705   8.502   5.608  1.4627  0.4086  0.2099
 4347SOL    HW215359   6.703   8.575   5.741 -1.5134  0.6723  0.0849
 4348SOL     OW15360   0.964   9.862   7.531 -0.7124  0.6213  0.3910
 4348SOL    HW115361   0.872   9.850   7.505 -0.0141 -1.0419 -1.6322
 4348SOL    HW215362   1.013   9.805   7.472  1.7189  2.0758  0.8515
 4349SOL     OW15363   0.809   1.732   8.661  0.1867  0.4286 -0.2399
 4349SOL    HW115364   0.866   1.780   8.601 -1.0011  1.7384 -0.3857
 4349SOL    HW215365   0.772   1.661   8.610 -0.4586  1.2604 -0.9639
 4350SOL     OW15366   1.155   5.348   6.695  0.6291 -0.0723  0.1310
 4350SOL    HW115367   1.152   5.441   6.719 -0.8431  0.1923 -0.9134
 4350SOL    HW215368   1.086   5.338   6.630  2.1870 -1.4625 -1.4183
 4351SOL     OW15369   0.177   1.197   4.945  0.2250 -0.3401 -0.0059
 4351SOL    HW115370   0.135   1.255   5.009  1.0280  0.9384 -0.5933
 4351SOL    HW215371   0.171   1.110   4.984 -1.1342  0.0995  0.8475
 4352SOL     OW15372   8.545   8.140   2.109 -0.4406  0.7537 -0.2091
 4352SOL    HW115373   8.546   8.208   2.042  1.2448  1.1857  0.2200
 4352SOL    HW215374   8.475   8.166   2.169 -0.3709  1.6492 -0.5078
 4353SOL     OW15375   9.838   7.668   8.316 -0.6264  0.0848 -0.6103
 4353SOL    HW115376   9.805   7.598   8.259 -2.1265  1.0525 -0.9751
 4353SOL    HW215377   9.772   7.737   8.310  1.3141  1.9978 -1.0993
 4354SOL     OW15378   2.286   0.964   6.355  0.3347  0.0887 -0.1232
 4354SOL    HW115379   2.311   0.996   6.268  2.5520 -0.7508  0.1438
 4354SOL    HW215380   2.295   1.040   6.412  0.7050  0.1891 -0.3130
 4355SOL     OW15381   7.077   1.975   5.762 -0.3396  0.1894 -0.6385
 4355SOL    HW115382   7.091   1.977   5.857 -0.4386 -1.3351 -0.5705
 4355SOL    HW215383   7.042   1.888   5.745 -1.3712  0.8227 -1.9476
 4356SOL     OW15384   9.124   7.537   4.323 -0.2030 -0.3498 -0.2352
 4356SOL    HW115385   9.191   7.512   4.386 -2.0707  1.7794  2.8455
 4356SOL    HW215386   9.174   7.570   4.248  2.1156 -3.1109 -0.1017
 4357SOL     OW15387   7.710   7.017   6.150 -0.3404 -0.4531 -0.0827
 4357SOL    HW115388   7.745   6.929   6.167 -1.1167 -0.7736 -0.0772
 4357SOL    HW215389   7.672   7.011   6.062  0.5276  0.1862 -0.5140
 4358SOL     OW15390   1.781   3.676   1.244  0.2328  0.1531  0.3995
 4358SOL    HW115391   1.750   3.718   1.325 -1.2636 -1.4806  0.7325
 4358SOL    HW215392   1.755   3.738   1.175 -0.8082  0.3880  0.9704
 4359SOL     OW15393   1.262   4.877   7.768  0.2062 -0.9327 -0.4838
 4359SOL    HW115394   1.342   4.830   7.747 -0.0417 -2.0250  0.8717
 4359SOL    HW215395   1.292   4.956   7.814  0.5938  0.0233 -2.2998
 4360SOL     OW15396   5.157   8.915   3.082 -0.7363 -0.4960  0.1518
 4360SOL    HW115397   5.073   8.888   3.120  0.6210 -2.8384  1.6928
 4360SOL    HW215398   5.143   8.908   2.987 -2.5859  0.2998  0.3160
 4361SOL     OW15399   0.764   3.871   1.145  0.5945  0.4769 -0.2447
 4361SOL    HW115400   0.684   3.867   1.094 -0.9337  0.2365  2.0113
 4361SOL    HW215401   0.815   3.941   1.106 -0.5702  0.4315 -1.9206
 4362SOL     OW15402   0.768   8.857   2.887 -0.1044 -0.4158 -0.1453
 4362SOL    HW115403   0.829   8.812   2.944  1.3621 -1.2125 -2.2159
 4362SOL    HW215404   0.808   8.852   2.800 -2.9871 -0.7699 -1.5828
 4363SOL     OW15405  10.587   0.765   2.220  0.2668 -0.0635  0.0364
 4363SOL    HW115406  10.575   0.851   2.260  0.4581  0.4695 -1.0259
 4363SOL    HW215407  10.675   0.739   2.247 -0.6018 -0.9690  2.2325
 4364SOL     OW15408   8.818   9.441   1.698  0.5045  0.5815  0.3160
 4364SOL    HW115409   8.766   9.389   1.759  2.5191  0.2091  1.8231
 4364SOL    HW215410   8.845   9.378   1.631 -0.5104  0.6656 -0.1907
 4365SOL     OW15411  10.403   2.933   3.483 -0.1954 -0.1310 -0.2785
 4365SOL    HW115412  10.314   2.896   3.483  0.4192 -1.7110  0.5610
 4365SOL    HW215413  10.425   2.941   3.390 -1.1147  0.0398 -0.4984
 4366SOL     OW15414   9.352   9.742   6.292 -0.2353 -0.0982  0.1701
 4366SOL    HW115415   9.377   9.744   6.200 -1.3892  0.3117 -0.1632
 4366SOL    HW215416   9.431   9.768   6.340  0.6221 -1.1673 -0.6308
 4367SOL     OW15417   0.405   2.536   4.586  0.0205 -0.0647 -0.0846
 4367SOL    HW115418   0.475   2.473   4.566  1.5984  1.3639  0.7084
 4367SOL    HW215419   0.324   2.487   4.571  1.1549 -2.5691  1.2730
 4368SOL     OW15420   1.487   2.884   2.598  0.0877 -0.1789  0.3696
 4368SOL    HW115421   1.484   2.805   2.653  1.8354  0.4768  1.4935
 4368SOL    HW215422   1.417   2.940   2.634 -0.5772 -0.8356  0.1314
 4369SOL     OW15423   1.120   9.708   4.429 -0.0629 -0.1910  0.4454
 4369SOL    HW115424   1.203   9.755   4.419 -0.2876 -0.0739 -1.2747
 4369SOL    HW215425   1.093   9.725   4.519  0.4846  1.9650  0.2498
 4370SOL     OW15426   7.973   6.067   5.926  0.3941  0.7533  0.2543
 4370SOL    HW115427   7.943   5.995   5.981  0.1819  0.9838  0.4411
 4370SOL    HW215428   7.926   6.144   5.959 -1.2938  0.5681 -1.5466
 4371SOL     OW15429   8.706   5.394   2.594 -0.4524 -0.1967  0.1095
 4371SOL    HW115430   8.700   5.441   2.511 -3.5446 -0.0916  0.2816
 4371SOL    HW215431   8.642   5.323   2.586  1.1460 -1.8865  1.4261
 4372SOL     OW15432   2.020   8.236   6.287  0.6582 -0.8240  0.2538
 4372SOL    HW115433   2.077   8.275   6.353  0.0662 -0.5488  0.6076
 4372SOL    HW215434   2.012   8.144   6.313 -1.0048 -0.3267  1.5966
 4373SOL     OW15435   0.884   8.512   2.881  0.3920 -0.3909  0.7101
 4373SOL    HW115436   0.897   8.563   2.961 -1.0363 -0.3375  0.9286
 4373SOL    HW215437   0.790   8.498   2.876  0.4021 -0.0808 -1.1741
 4374SOL     OW15438   9.319   6.390   4.821  0.4707  0.3402  0.3065
 4374SOL    HW115439   9.230   6.359   4.807  0.4405  0.8739 -0.8117
 4374SOL    HW215440   9.361   6.380   4.736  0.8547  2.0550  0.2552
 4375SOL     OW15441   7.875   2.184   8.455  0.0839  0.0707 -0.0213
 4375SOL    HW115442   7.793   2.230   8.473  0.2417  0.6592 -0.7159
 4375SOL    HW215443   7.848   2.095   8.433 -0.2460 -0.1359  1.1555
 4376SOL     OW15444   2.940   8.753   2.521  0.1015 -0.1129  0.2642
 4376SOL    HW115445   2.866   8.809   2.497 -1.1532 -1.6023  0.4544
 4376SOL    HW215446   2.987   8.803   2.588 -0.7241  0.8783  0.1306
 4377SOL     OW15447   8.893   5.573   4.857 -0.2697  0.4702 -0.2178
 4377SOL    HW115448   8.955   5.638   4.822  1.1095 -0.0622  1.1435
 4377SOL    HW215449   8.932   5.489   4.834 -1.0663  0.1101 -0.2853
 4378SOL     OW15450   5.393   5.371   7.938 -0.1886 -0.1306 -0.0513
 4378SOL    HW115451   5.324   5.315   7.903 -1.3587  1.5208 -0.5457
 4378SOL    HW215452   5.349   5.425   8.004  0.5574  1.1549 -0.5680
 4379SOL     OW15453   6.582   3.185   7.695  0.0665 -0.8839  0.0746
 4379SOL    HW115454   6.499   3.160   7.654 -0.2835  0.4321 -0.0450
 4379SOL    HW215455   6.642   3.113   7.672 -0.7783 -1.3789 -0.6457
 4380SOL     OW15456   0.488   6.898   2.412 -0.0602 -0.2067  0.0805
 4380SOL    HW115457   0.401   6.871   2.440  0.5286 -1.3274  0.9126
 4380SOL    HW215458   0.521   6.952   2.483 -1.0902  2.5824 -1.4210
 4381SOL     OW15459   2.411   3.218   9.612 -0.5207 -0.1814  0.0207
 4381SOL    HW115460   2.495   3.172   9.610 -0.1781  0.3969  0.8662
 4381SOL    HW215461   2.395   3.236   9.704 -1.5350 -0.1901 -0.1362
 4382SOL     OW15462   2.624   0.680   8.726  0.1329  0.2625 -0.0392
 4382SOL    HW115463   2.627   0.767   8.765  2.2233  1.1894 -2.0593
 4382SOL    HW215464   2.571   0.691   8.647 -0.0841 -0.4828 -0.0137
 4383SOL     OW15465   8.488   7.508   2.384  0.2805  0.0432  0.4248
 4383SOL    HW115466   8.398   7.479   2.394  0.0663  0.5103 -0.1120
 4383SOL    HW215467   8.481   7.598   2.352  0.9354 -0.0301  0.0590
 4384SOL     OW15468   1.764   4.593   5.232  0.2466 -0.5266 -0.2103
 4384SOL    HW115469   1.816   4.656   5.181 -2.0756  0.5629 -1.4213
 4384SOL    HW215470   1.749   4.636   5.315  0.2257 -0.3046 -0.3283
 4385SOL     OW15471   5.226  10.504   8.087 -0.8889 -0.4840 -0.0305
 4385SOL    HW115472   5.212  10.417   8.049 -1.6691 -0.6054  0.5221
 4385SOL    HW215473   5.257  10.487   8.176  1.0024 -0.1969 -0.5848
 4386SOL     OW15474   9.401   1.631   1.617 -0.2260  0.0338 -0.0475
 4386SOL    HW115475   9.308   1.642   1.595 -0.1105  1.8360  0.1816
 4386SOL    HW215476   9.446   1.693   1.560  0.8901 -1.0646 -0.3924
 4387SOL     OW15477   4.397   6.271   9.053  0.0326 -0.0827  0.7683
 4387SOL    HW115478   4.442   6.332   8.995  0.7959 -1.0106  0.3703
 4387SOL    HW215479   4.305   6.297   9.047  0.2781  0.7150  0.2280
 4388SOL     OW15480   9.007   0.943   7.856 -0.5563 -0.0230  0.6520
 4388SOL    HW115481   8.912   0.947   7.860 -0.6520  1.4189 -1.2441
 4388SOL    HW215482   9.025   0.891   7.778  0.2587 -1.2393  1.6237
 4389SOL     OW15483   5.673   2.228   3.088  0.0634 -0.0739 -0.3846
 4389SOL    HW115484   5.678   2.133   3.078  0.4019 -0.1724  0.6190
 4389SOL    HW215485   5.744   2.262   3.034  0.8055 -0.4822  0.3060
 4390SOL     OW15486   3.682   7.395   3.617 -0.4162 -0.3605 -0.0014
 4390SOL    HW115487   3.675   7.300   3.621  0.3742 -0.4080  0.6712
 4390SOL    HW215488   3.776   7.412   3.609 -0.7021  0.3196 -3.2275
 4391SOL     OW15489   9.472   3.081   8.259 -0.5140  0.0681  0.4408
 4391SOL    HW115490   9.519   3.014   8.308 -1.8801 -1.1999  0.0798
 4391SOL    HW215491   9.536   3.151   8.246  0.0611  0.2473  3.5762
 4392SOL     OW15492   5.086   8.834   3.474  0.5256 -0.2238  0.2074
 4392SOL    HW115493   5.165   8.781   3.485  0.7554  0.2623  0.9321
 4392SOL    HW215494   5.074   8.877   3.559  0.0486  0.4855 -0.2129
 4393SOL     OW15495   1.744   1.933   4.700  0.0499 -0.2674  0.0140
 4393SOL    HW115496   1.691   2.013   4.702  1.0580  0.4460 -0.4791
 4393SOL    HW215497   1.758   1.917   4.606 -0.4265 -1.2316  0.0985
 4394SOL     OW15498   4.328   2.979   6.799 -0.5345 -0.8015 -0.2386
 4394SOL    HW115499   4.372   2.982   6.884 -0.1492  0.6673 -0.4606
 4394SOL    HW215500   4.296   3.068   6.786  0.6291 -0.6155 -2.2390
 4395SOL     OW15501   6.880   7.544   2.027  0.4150  0.0152 -0.2653
 4395SOL    HW115502   6.787   7.535   2.002  1.2263 -1.9076 -3.0794
 4395SOL    HW215503   6.910   7.454   2.038  2.1172  0.5892 -0.0466
 4396SOL     OW15504   7.671   9.400   0.982 -0.7817 -0.2316  0.2629
 4396SOL    HW115505   7.615   9.443   0.917 -1.3204 -0.5423  0.5045
 4396SOL    HW215506   7.680   9.310   0.949  0.8613  0.2142 -0.5705
 4397SOL     OW15507   1.836  10.199   6.093  0.4200 -0.3693  0.2653
 4397SOL    HW115508   1.860  10.290   6.111  0.3001 -0.3468  0.3105
 4397SOL    HW215509   1.914  10.149   6.114  0.0568 -0.4312  1.5812
 4398SOL     OW15510   2.045   2.715   5.211  0.2927 -0.0352 -0.3155
 4398SOL    HW115511   2.018   2.733   5.121 -2.2576  0.2775  0.4278
 4398SOL    HW215512   2.072   2.623   5.210  2.0623  0.4489 -1.7215
 4399SOL     OW15513   0.470   7.745   8.558 -0.6711  0.5005 -0.0636
 4399SOL    HW115514   0.543   7.753   8.619 -0.9244 -0.5524  0.3949
 4399SOL    HW215515   0.495   7.672   8.501 -1.6199 -0.2625  0.4754
 4400SOL     OW15516  10.495   5.871  10.301  0.7274  0.0435  0.7504
 4400SOL    HW115517  10.447   5.865  10.218  2.0497 -0.9313 -0.0057
 4400SOL    HW215518  10.538   5.956  10.298  2.1386 -0.6465 -0.4292
 4401SOL     OW15519   1.757   9.737   7.634 -0.0771  0.0481  0.6902
 4401SOL    HW115520   1.739   9.671   7.567  0.1851  0.2318  0.4384
 4401SOL    HW215521   1.801   9.689   7.703 -0.4589 -0.1673  0.7888
 4402SOL     OW15522   4.435   4.951   5.992  0.2463  0.3538 -0.2275
 4402SOL    HW115523   4.417   5.008   6.066 -0.4766  0.8432 -0.7630
 4402SOL    HW215524   4.512   4.901   6.018 -0.3847  0.0494  1.1067
 4403SOL     OW15525   5.261  10.567   4.619 -0.2160  0.3058  0.2801
 4403SOL    HW115526   5.229  10.591   4.706 -0.4383  0.8721  0.0411
 4403SOL    HW215527   5.356  10.575   4.626 -0.2004 -0.0783  0.5943
 4404SOL     OW15528   4.236   1.058   8.336  0.4359  0.3676 -0.0055
 4404SOL    HW115529   4.316   1.110   8.341 -0.2504  1.3718  1.1232
 4404SOL    HW215530   4.193   1.072   8.421 -1.2749  0.4210 -0.8450
 4405SOL     OW15531   7.738   6.126   9.801 -0.2989 -0.3733 -0.2733
 4405SOL    HW115532   7.644   6.137   9.787  0.2624  4.0560 -2.4024
 4405SOL    HW215533   7.755   6.176   9.882  0.3991  0.4753 -0.9288
 4406SOL     OW15534   4.548   5.792   0.956 -0.4159 -0.0986 -0.2312
 4406SOL    HW115535   4.498   5.856   1.006  0.6733  0.1675  0.5530
 4406SOL    HW215536   4.512   5.707   0.982 -2.0899  0.1541 -1.5219
 4407SOL     OW15537   0.739   4.283   2.071 -0.5802 -0.1204 -0.0369
 4407SOL    HW115538   0.735   4.342   2.146 -0.3367 -0.5674  0.3291
 4407SOL    HW215539   0.727   4.341   1.995  2.1497  0.8265  0.1364
 4408SOL     OW15540   9.729   9.908   6.003  0.4029  0.6926 -0.5698
 4408SOL    HW115541   9.708   9.815   5.992  0.0451  0.8065 -0.8522
 4408SOL    HW215542   9.787   9.928   5.930  0.0904  0.8142 -0.7820
 4409SOL     OW15543  10.062   2.933   6.039  1.1868  0.3425  0.5031
 4409SOL    HW115544   9.990   2.879   6.073  2.2081 -0.5758  1.3048
 4409SOL    HW215545  10.138   2.904   6.089  1.9471  1.9198  0.2973
 4410SOL     OW15546   1.076   3.545   1.934 -0.1541  0.6155 -0.1012
 4410SOL    HW115547   1.166   3.573   1.918  0.3343 -0.5888  0.4173
 4410SOL    HW215548   1.043   3.519   1.849  0.3514  0.0821 -0.1421
 4411SOL     OW15549   6.913   5.584   5.645  0.4573 -0.8895  0.7234
 4411SOL    HW115550   6.866   5.650   5.594 -0.2863 -0.6098  1.7393
 4411SOL    HW215551   6.844   5.532   5.686  1.0407 -1.7163  0.6972
 4412SOL     OW15552   0.367   7.733   3.389 -0.7311  0.0651 -0.5014
 4412SOL    HW115553   0.288   7.785   3.381 -0.3767  0.3798 -2.4528
 4412SOL    HW215554   0.429   7.773   3.328 -0.1114 -2.0055 -1.3327
 4413SOL     OW15555   2.128   7.729   5.571  0.4703  0.2075 -0.1145
 4413SOL    HW115556   2.192   7.745   5.502  1.4291  0.6126  0.8442
 4413SOL    HW215557   2.166   7.658   5.623 -0.1891 -0.0184  0.0707
 4414SOL     OW15558   9.153   6.045   5.240  0.0943  0.1258 -0.0161
 4414SOL    HW115559   9.235   6.039   5.289  0.1266 -3.2515 -0.2352
 4414SOL    HW215560   9.172   6.104   5.167  1.7892  0.7155  0.8653
 4415SOL     OW15561   9.961  10.389   2.708  0.2105 -0.3485  0.3635
 4415SOL    HW115562  10.004  10.384   2.794 -1.0577  0.4288  1.0784
 4415SOL    HW215563   9.870  10.410   2.728 -0.2753 -0.8770 -1.1560
 4416SOL     OW15564  10.499   3.985   6.275  0.1625  0.7399 -0.0508
 4416SOL    HW115565  10.407   3.974   6.253  0.8230  0.7495 -3.3793
 4416SOL    HW215566  10.523   3.905   6.322 -0.4573 -1.7469 -3.6000
 4417SOL     OW15567   5.905   9.809   7.232 -0.4131 -0.2716  0.0418
 4417SOL    HW115568   5.865   9.892   7.257 -0.0884 -0.0597 -0.1470
 4417SOL    HW215569   5.948   9.826   7.149 -0.4851 -0.6720 -0.0795
 4418SOL     OW15570   4.799   0.406   0.787 -0.4091  0.2098 -0.2525
 4418SOL    HW115571   4.810   0.314   0.766 -1.0767  0.0863 -0.0767
 4418SOL    HW215572   4.888   0.440   0.795 -0.1526 -0.6072  0.5062
 4419SOL     OW15573   5.304   3.667   7.200  0.4313 -0.6003 -0.2101
 4419SOL    HW115574   5.389   3.707   7.218  0.2483  0.1254 -0.9134
 4419SOL    HW215575   5.318   3.573   7.214  1.5779 -0.5945 -1.1917
 4420SOL     OW15576   7.772   0.475   9.965 -0.2113 -0.2420  0.3957
 4420SOL    HW115577   7.693   0.452   9.916 -0.8621 -0.6113  1.5963
 4420SOL    HW215578   7.740   0.521  10.043  0.8176  0.4900  0.4102
 4421SOL     OW15579   3.710   5.320   2.284 -0.4253  0.4868  0.3529
 4421SOL    HW115580   3.670   5.285   2.205  0.8772  0.5880 -0.3749
 4421SOL    HW215581   3.683   5.259   2.353 -1.0250  0.0170 -0.2823
 4422SOL     OW15582   3.499   6.448   0.343  0.7406  0.0933  0.4395
 4422SOL    HW115583   3.545   6.510   0.287  0.8111  1.1644  1.6296
 4422SOL    HW215584   3.565   6.418   0.405  0.7412 -1.3146 -0.2014
 4423SOL     OW15585   0.700   4.220   4.989  0.0151  0.0472  0.3871
 4423SOL    HW115586   0.664   4.262   5.068  1.1556  0.1844  0.8430
 4423SOL    HW215587   0.697   4.288   4.922  0.5904  0.4476  0.7617
 4424SOL     OW15588   0.686   1.398   0.653  0.6656  0.1396 -0.2145
 4424SOL    HW115589   0.647   1.376   0.569 -1.0198  1.4205  0.1768
 4424SOL    HW215590   0.676   1.493   0.660 -0.7770 -0.0951  2.1376
 4425SOL     OW15591   3.007   7.863   7.952 -0.4285  0.4243  0.2567
 4425SOL    HW115592   2.994   7.800   7.881 -0.6297 -0.7638  1.3083
 4425SOL    HW215593   3.033   7.944   7.908 -0.0309 -0.4234 -1.1271
 4426SOL     OW15594   9.775   1.529   0.884  0.3113  0.3831  0.5136
 4426SOL    HW115595   9.764   1.470   0.809  0.2101  0.4357  0.4874
 4426SOL    HW215596   9.870   1.533   0.897  0.2713 -0.9742  1.4599
 4427SOL     OW15597   2.411   4.072   4.812 -0.4006 -0.0029  0.2468
 4427SOL    HW115598   2.459   4.134   4.757 -0.7799  1.5754  1.6294
 4427SOL    HW215599   2.359   4.020   4.750  0.2412  0.7810 -0.9772
 4428SOL     OW15600   8.729   6.737   1.653  0.0179 -0.1215 -0.1160
 4428SOL    HW115601   8.793   6.808   1.641  2.3785 -1.8758  1.1785
 4428SOL    HW215602   8.651   6.781   1.688  1.9042  1.7289  2.1550
 4429SOL     OW15603   9.299   5.509   9.522 -0.8087  0.3645  0.5807
 4429SOL    HW115604   9.254   5.428   9.496 -0.7571  0.5196 -0.0233
 4429SOL    HW215605   9.312   5.556   9.439 -0.0670  0.5880  0.8182
 4430SOL     OW15606   0.450   3.193   5.786  0.2275  0.0142 -0.0070
 4430SOL    HW115607   0.358   3.171   5.804 -0.5194  2.4152 -0.4736
 4430SOL    HW215608   0.493   3.109   5.776 -2.1414 -1.1989 -0.8239
 4431SOL     OW15609   3.617   4.642  10.480 -0.4205  0.1313 -0.1124
 4431SOL    HW115610   3.709   4.664  10.463 -0.3098 -0.2235  0.0278
 4431SOL    HW215611   3.595   4.580  10.411 -0.1109 -0.9493  0.7465
 4432SOL     OW15612   1.201   5.034   3.114  0.5515  0.0646 -0.3005
 4432SOL    HW115613   1.195   5.097   3.042 -1.4236 -1.6195 -1.7389
 4432SOL    HW215614   1.291   5.003   3.110  1.0328  1.4358 -0.7449
 4433SOL     OW15615   6.965   7.444   5.539 -0.5006  0.4094 -0.6643
 4433SOL    HW115616   7.052   7.407   5.524  0.4110  2.3341 -0.4238
 4433SOL    HW215617   6.910   7.369   5.559  1.3632 -0.7622  0.3676
 4434SOL     OW15618   3.400   5.177  10.479 -0.6318  0.1294 -0.4320
 4434SOL    HW115619   3.331   5.168  10.414 -0.7024 -1.5159 -0.1788
 4434SOL    HW215620   3.374   5.118  10.550 -1.8028  3.5244  2.2720
 4435SOL     OW15621   4.715  10.431   6.826  0.6812  0.1292 -0.1392
 4435SOL    HW115622   4.811  10.428   6.833  0.7919  1.5067 -0.7242
 4435SOL    HW215623   4.690  10.507   6.879 -0.2318 -0.9818  1.0774
 4436SOL     OW15624   7.202   6.075   3.376  0.1051  0.1586  0.5958
 4436SOL    HW115625   7.243   6.052   3.459 -0.6884 -0.4571  0.8310
 4436SOL    HW215626   7.254   6.147   3.342 -0.2002  1.1457  2.1505
 4437SOL     OW15627   1.528   7.011   0.136 -0.1677 -0.0620  0.2571
 4437SOL    HW115628   1.618   6.984   0.114 -0.2396 -0.7420  0.7796
 4437SOL    HW215629   1.486   6.931   0.167 -0.6489  0.4706  1.0026
 4438SOL     OW15630   4.424   9.271   9.088  0.3916  0.1222 -0.0994
 4438SOL    HW115631   4.342   9.290   9.134  0.3847  1.7126 -0.7148
 4438SOL    HW215632   4.429   9.336   9.018  2.3271  0.2686  0.1078
 4439SOL     OW15633   6.737   9.375   3.744  0.1521  0.4347 -0.3960
 4439SOL    HW115634   6.748   9.346   3.654  0.9628 -1.5158  0.2648
 4439SOL    HW215635   6.706   9.297   3.791  1.9730  0.7093  1.4225
 4440SOL     OW15636   5.721   7.841   7.291  0.4366 -0.4435  0.1266
 4440SOL    HW115637   5.626   7.848   7.288  0.2235 -0.6024  3.2554
 4440SOL    HW215638   5.738   7.747   7.291  0.6304 -0.4136 -0.7102
 4441SOL     OW15639  10.230   3.345   4.257  0.0673  0.4651 -0.3443
 4441SOL    HW115640  10.215   3.304   4.343 -2.6760 -0.2885 -1.0840
 4441SOL    HW215641  10.222   3.439   4.273  0.3636  0.3823  0.3378
 4442SOL     OW15642   5.531   1.533   1.552 -0.1472 -0.3927  0.5434
 4442SOL    HW115643   5.444   1.569   1.570 -0.0520 -0.1551  0.5300
 4442SOL    HW215644   5.580   1.605   1.511 -0.2654 -0.8281 -0.4098
 4443SOL     OW15645   1.978   6.800   8.173  0.1324 -0.1847 -0.0058
 4443SOL    HW115646   2.044   6.787   8.242  0.4532  0.9929 -0.0663
 4443SOL    HW215647   1.925   6.874   8.205 -1.3949 -1.3282  0.2010
 4444SOL     OW15648   4.392   0.037   7.977 -0.3460  0.1760  0.2288
 4444SOL    HW115649   4.448   0.039   7.899 -2.5880 -1.0555 -1.5633
 4444SOL    HW215650   4.376   0.129   7.997  1.9426  0.5529  0.5830
 4445SOL     OW15651   3.749   3.229   2.191 -0.1729 -0.2805 -0.0613
 4445SOL    HW115652   3.679   3.172   2.159  0.8467 -0.9090 -1.2894
 4445SOL    HW215653   3.710   3.277   2.264 -1.9108 -0.5104 -0.7909
 4446SOL     OW15654   1.747   3.909   2.148  0.0924 -0.1559 -0.1761
 4446SOL    HW115655   1.802   3.986   2.165 -0.6865  0.5745 -0.8791
 4446SOL    HW215656   1.797   3.836   2.185  1.2172  0.5748 -0.1813
 4447SOL     OW15657   0.156   2.808   1.925 -0.1185  0.0441  0.2340
 4447SOL    HW115658   0.235   2.797   1.978 -0.4496 -0.8522  0.5641
 4447SOL    HW215659   0.133   2.900   1.935  0.0159 -0.0311  1.3714
 4448SOL     OW15660   3.441   7.246   6.215  1.0601  0.4005 -0.0930
 4448SOL    HW115661   3.375   7.301   6.257  1.3986  1.8259 -1.3750
 4448SOL    HW215662   3.525   7.285   6.240  1.2731  1.1868 -1.9263
 4449SOL     OW15663  10.107  10.362   0.986  0.0542 -0.1764 -0.7974
 4449SOL    HW115664  10.057  10.413   1.049 -1.7436 -2.7728  0.0375
 4449SOL    HW215665  10.130  10.282   1.034  2.3850 -0.3909 -2.1563
 4450SOL     OW15666  10.597   0.420   0.517  0.3141  0.3275  0.4107
 4450SOL    HW115667  10.626   0.473   0.443  0.9960 -0.2844  0.2291
 4450SOL    HW215668  10.676   0.377   0.548 -0.3274 -1.1678  0.0792
 4451SOL     OW15669   0.148   9.007   9.967  0.0192  0.3143 -0.1041
 4451SOL    HW115670   0.113   9.090   9.936 -0.9412 -1.3544 -4.1339
 4451SOL    HW215671   0.237   9.004   9.932  0.9473  0.5395  2.0575
 4452SOL     OW15672   6.465  10.194   8.294  0.1370 -0.3108  0.2848
 4452SOL    HW115673   6.475  10.159   8.206  3.5699 -0.2452  0.4940
 4452SOL    HW215674   6.472  10.289   8.283  0.6252 -0.3041  0.6196
 4453SOL     OW15675   5.898   2.611   5.630  0.0004  0.0867 -0.6924
 4453SOL    HW115676   5.817   2.561   5.642  0.8833 -1.0569  0.8925
 4453SOL    HW215677   5.967   2.551   5.659  1.2968  1.5012 -0.7707
 4454SOL     OW15678   0.556   3.098   8.091  0.1788 -0.4021  0.5177
 4454SOL    HW115679   0.474   3.048   8.098  0.0325 -0.2695 -0.1750
 4454SOL    HW215680   0.553   3.158   8.166 -0.8386  0.2923 -0.0517
 4455SOL     OW15681   8.744   2.473   7.779  0.2530  0.0662 -0.0106
 4455SOL    HW115682   8.651   2.460   7.760  0.3090  0.4155 -0.5560
 4455SOL    HW215683   8.768   2.550   7.728  1.2216 -0.9594 -1.1732
 4456SOL     OW15684  10.421   0.589   2.401 -0.0248  0.3895 -0.2996
 4456SOL    HW115685  10.504   0.542   2.397  0.6684  1.5157  0.2824
 4456SOL    HW215686  10.435   0.666   2.345 -1.2909 -0.2728 -1.6170
 4457SOL     OW15687   5.063   6.769   7.223  0.0975  0.3369 -0.2360
 4457SOL    HW115688   5.072   6.864   7.232  0.9036  0.2371  0.1494
 4457SOL    HW215689   5.149   6.740   7.193 -0.1755 -0.2628 -0.4449
 4458SOL     OW15690   0.296   0.878   6.728  0.4375 -0.2219  0.2954
 4458SOL    HW115691   0.263   0.830   6.652 -1.1996  0.3371  0.6024
 4458SOL    HW215692   0.245   0.844   6.802  2.0284 -0.7858  1.1849
 4459SOL     OW15693   2.338   2.571   7.056  0.4232  0.8015 -0.4158
 4459SOL    HW115694   2.333   2.655   7.011  0.5852  1.2447  0.3752
 4459SOL    HW215695   2.307   2.507   6.992 -0.8434  1.6067 -0.6447
 4460SOL     OW15696   0.887  10.320   8.995  0.0499 -0.1300  0.5586
 4460SOL    HW115697   0.921  10.370   9.069 -0.4485  0.1107  0.6302
 4460SOL    HW215698   0.815  10.373   8.961  1.2248  0.4923 -1.0563
 4461SOL     OW15699   1.011   7.960   3.708 -0.2840  0.4155 -0.6574
 4461SOL    HW115700   0.949   7.928   3.642 -1.0386 -1.9674  1.0648
 4461SOL    HW215701   1.076   7.890   3.715  1.0845  1.6618 -0.4745
 4462SOL     OW15702   2.815   0.773   6.177  0.2282  0.4474  0.0956
 4462SOL    HW115703   2.799   0.727   6.094  1.2980 -1.2306  0.7897
 4462SOL    HW215704   2.861   0.710   6.232  0.6767  1.9541  1.5377
 4463SOL     OW15705   7.744   4.532   6.973 -0.1816  0.7007 -0.0142
 4463SOL    HW115706   7.704   4.556   6.889  1.6533  0.0317 -1.1390
 4463SOL    HW215707   7.684   4.467   7.010 -2.9549  3.5753  1.0465
 4464SOL     OW15708   9.505   1.128   6.573 -0.2578 -0.1080 -0.0903
 4464SOL    HW115709   9.559   1.092   6.644  1.0467  0.2590 -0.8653
 4464SOL    HW215710   9.416   1.127   6.608 -0.2438 -3.5070  0.1784
 4465SOL     OW15711   6.136   8.986   1.460  0.4250  0.0877 -0.1827
 4465SOL    HW115712   6.157   8.930   1.385 -0.9304 -0.6454 -0.0348
 4465SOL    HW215713   6.125   8.926   1.533  0.6583  0.7070  0.3685
 4466SOL     OW15714   9.573   6.678   4.783  0.1835 -0.4946 -0.5735
 4466SOL    HW115715   9.488   6.688   4.826  0.1288 -1.1847 -0.4998
 4466SOL    HW215716   9.616   6.606   4.830  0.8538 -0.0833 -0.5431
 4467SOL     OW15717   7.200   1.987   0.465 -0.4545 -1.0247 -0.3387
 4467SOL    HW115718   7.186   2.082   0.474  0.6671 -0.8737 -0.1327
 4467SOL    HW215719   7.197   1.954   0.555  0.6876 -0.9494 -0.2560
 4468SOL     OW15720   2.804   9.708  10.549  0.8314 -0.4615  0.0304
 4468SOL    HW115721   2.877   9.765  10.575 -1.0474  1.7658  0.7448
 4468SOL    HW215722   2.781   9.737  10.461 -0.8968  0.8295  0.8394
 4469SOL     OW15723  10.234   0.162   0.079  0.5121 -0.0912 -0.2753
 4469SOL    HW115724  10.171   0.099   0.114 -0.2094 -0.1044 -1.5054
 4469SOL    HW215725  10.258   0.216   0.154 -0.1887 -0.7311  0.4374
 4470SOL     OW15726  10.048   4.088   7.755 -0.4495 -0.4919 -0.1777
 4470SOL    HW115727   9.984   4.092   7.826 -0.1511 -1.2159  0.1484
 4470SOL    HW215728  10.016   4.017   7.699  0.2642 -1.1350  0.2037
 4471SOL     OW15729   6.370   2.251   3.615  0.2773  0.0440  0.3698
 4471SOL    HW115730   6.312   2.229   3.542  1.3392  0.9043 -0.7657
 4471SOL    HW215731   6.398   2.341   3.597  3.0745 -0.7993  0.0763
 4472SOL     OW15732   0.043   1.083   0.342 -0.5988 -0.7123  0.2345
 4472SOL    HW115733  -0.002   1.165   0.363  0.4515  0.2097 -0.8995
 4472SOL    HW215734   0.136   1.106   0.346 -0.2869 -1.9398  0.2013
 4473SOL     OW15735   1.888   4.360   3.783 -0.3344  0.7803  0.2402
 4473SOL    HW115736   1.880   4.336   3.691 -0.3474 -0.2614  0.5000
 4473SOL    HW215737   1.817   4.314   3.827  0.4495  0.2146  0.9543
 4474SOL     OW15738   9.852   9.311   6.501  0.1866  0.0397  0.4685
 4474SOL    HW115739   9.842   9.397   6.541  1.3792  0.3776  0.0773
 4474SOL    HW215740   9.820   9.321   6.412 -0.1223 -0.0472  0.5697
 4475SOL     OW15741   9.875   8.373   0.980  0.0584  0.3521 -0.2266
 4475SOL    HW115742   9.894   8.286   0.945  1.0802 -0.7675  2.7623
 4475SOL    HW215743   9.926   8.378   1.061 -1.2928  3.0855  0.5874
 4476SOL     OW15744   9.390   7.397   3.985 -0.2181 -0.0819 -0.4532
 4476SOL    HW115745   9.425   7.470   4.036  1.5149 -1.1664  0.0068
 4476SOL    HW215746   9.415   7.416   3.895  1.2189 -0.6063 -0.1902
 4477SOL     OW15747   3.933   6.381   7.835  0.2957 -0.0417 -0.2299
 4477SOL    HW115748   3.846   6.342   7.845  0.4455 -0.1258  0.8711
 4477SOL    HW215749   3.918   6.475   7.840  0.2010 -0.0310 -0.6608
 4478SOL     OW15750   3.828   4.221  10.147  0.4470  0.0241 -0.4030
 4478SOL    HW115751   3.857   4.252  10.061  1.1938  1.5742  0.3408
 4478SOL    HW215752   3.910   4.208  10.196  0.1456  3.7567  1.5132
 4479SOL     OW15753   7.414   1.035   7.471  0.0117 -0.2831 -0.2874
 4479SOL    HW115754   7.408   1.126   7.442  0.6611  0.1095  0.7463
 4479SOL    HW215755   7.466   1.039   7.551 -1.6179 -1.3171  0.8790
 4480SOL     OW15756   6.689   0.227   9.599  0.1035 -0.5298  0.1353
 4480SOL    HW115757   6.771   0.183   9.577  0.1595 -0.4630  0.2109
 4480SOL    HW215758   6.675   0.289   9.528  1.2381  1.0112  1.1980
 4481SOL     OW15759   9.853   6.491   9.238  0.4031 -0.0265 -0.2767
 4481SOL    HW115760   9.916   6.461   9.304  1.3812  0.7282 -0.8421
 4481SOL    HW215761   9.874   6.440   9.160  1.0921  1.0347 -0.8045
 4482SOL     OW15762   9.106   6.525   0.843  0.4745 -0.9721  0.1658
 4482SOL    HW115763   9.097   6.432   0.862 -0.6740 -1.0116 -0.4594
 4482SOL    HW215764   9.193   6.548   0.875  0.2320 -1.9322  1.6359
 4483SOL     OW15765   9.587   1.380   4.769  0.5850 -0.3655 -0.1387
 4483SOL    HW115766   9.631   1.301   4.801  1.2727  0.0641  0.0124
 4483SOL    HW215767   9.494   1.359   4.772  0.6930 -0.7705  1.0009
 4484SOL     OW15768   7.566   1.604   3.216 -0.6381  0.0540  0.0171
 4484SOL    HW115769   7.523   1.560   3.143 -1.6410  0.8400  0.1154
 4484SOL    HW215770   7.650   1.558   3.226 -1.3993 -1.4444 -0.2395
 4485SOL     OW15771   5.644   8.601   3.871  0.1728 -0.9080  0.2372
 4485SOL    HW115772   5.620   8.510   3.855  0.1327 -0.9116  0.3148
 4485SOL    HW215773   5.647   8.608   3.967 -1.9044 -0.2779  0.2910
 4486SOL     OW15774   2.174   2.170   4.920  0.4267 -0.4184  0.7436
 4486SOL    HW115775   2.205   2.177   5.010 -2.4627 -1.0180  1.8894
 4486SOL    HW215776   2.242   2.118   4.876  0.5393 -2.7137  3.3539
 4487SOL     OW15777   6.967   3.788  10.515  0.1061 -0.3259  0.1033
 4487SOL    HW115778   6.884   3.819  10.552  0.6123  0.6082  0.4802
 4487SOL    HW215779   7.024   3.777  10.591  1.2022  1.7349 -0.3397
 4488SOL     OW15780   4.831   5.700   3.720  0.4519  0.2420  0.1000
 4488SOL    HW115781   4.849   5.782   3.673  0.4534 -1.3532 -2.9699
 4488SOL    HW215782   4.801   5.640   3.652 -1.3480 -1.8222  2.5097
 4489SOL     OW15783   4.989   4.629   9.565  0.1523 -0.3577 -0.4708
 4489SOL    HW115784   4.979   4.708   9.619  1.3277 -1.4870  1.5766
 4489SOL    HW215785   5.062   4.649   9.507  0.6459 -0.0132  0.2488
 4490SOL     OW15786   9.021   2.032   4.857  0.8556  0.1869 -0.5968
 4490SOL    HW115787   8.976   2.000   4.936  0.6044 -1.9897 -1.5503
 4490SOL    HW215788   9.108   2.057   4.888  0.5647 -0.0437  0.4701
 4491SOL     OW15789   7.205   7.036  10.574 -0.1086 -0.2633  0.5845
 4491SOL    HW115790   7.222   7.040  10.668 -0.6785  1.6274  0.6514
 4491SOL    HW215791   7.136   7.101  10.560  0.4918  0.0302 -1.2378
 4492SOL     OW15792   1.486   6.230   2.000 -0.0047 -0.5456  0.1011
 4492SOL    HW115793   1.512   6.154   2.052 -0.7124 -1.3556 -0.6857
 4492SOL    HW215794   1.554   6.238   1.933  0.1450 -0.3991  0.2711
 4493SOL     OW15795   8.346   8.726   3.233  0.0756  0.3673  0.2277
 4493SOL    HW115796   8.382   8.787   3.298  0.5904  1.0365 -0.6536
 4493SOL    HW215797   8.417   8.714   3.170 -0.7504  0.5675 -0.7759
 4494SOL     OW15798   6.443   7.147   4.934  0.2777  0.1486  0.5946
 4494SOL    HW115799   6.462   7.215   4.999  1.2094 -1.2946  1.8967
 4494SOL    HW215800   6.348   7.151   4.923  0.3113  1.6721  0.5917
 4495SOL     OW15801   0.818   8.681   3.325  0.0302  0.7175 -0.7000
 4495SOL    HW115802   0.855   8.595   3.345  1.7674  1.4908 -0.4303
 4495SOL    HW215803   0.728   8.663   3.297  0.5149 -1.2155 -1.1155
 4496SOL     OW15804   0.605   1.640   9.056  0.4394 -0.1818  0.3349
 4496SOL    HW115805   0.672   1.685   9.108  1.9739 -1.0272 -0.8206
 4496SOL    HW215806   0.653   1.572   9.009 -1.3685 -1.2687 -0.0312
 4497SOL     OW15807  10.348   3.548   2.245  0.1081 -0.2388 -0.4036
 4497SOL    HW115808  10.384   3.621   2.196  0.2851 -0.9879 -1.4152
 4497SOL    HW215809  10.298   3.497   2.181 -0.5983 -0.6296  0.4270
 4498SOL     OW15810   8.073   1.814   1.511 -0.7968  0.4545 -0.1893
 4498SOL    HW115811   8.030   1.878   1.568 -0.1521  1.4977 -0.8201
 4498SOL    HW215812   8.017   1.810   1.433  0.9888  3.2152 -1.8389
 4499SOL     OW15813   2.618   2.050   7.158 -0.2021  0.2259 -0.5457
 4499SOL    HW115814   2.602   2.057   7.252  1.7712 -0.6282 -0.1080
 4499SOL    HW215815   2.563   1.977   7.129  1.8533 -1.9613  0.7045
 4500SOL     OW15816   6.618   5.237   0.166  0.1342 -0.7705  0.0182
 4500SOL    HW115817   6.694   5.264   0.114 -1.5848  1.2498 -1.6573
 4500SOL    HW215818   6.624   5.288   0.246 -0.2115  0.5590 -0.7765
 4501SOL     OW15819   4.015   5.784   4.219 -0.1260 -0.4083  0.2410
 4501SOL    HW115820   4.054   5.776   4.132 -1.6700 -0.8614 -0.4473
 4501SOL    HW215821   3.921   5.788   4.202 -0.5627 -2.2437  1.9956
 4502SOL     OW15822   7.470   5.760   0.563  0.3081  0.0652 -0.0203
 4502SOL    HW115823   7.537   5.692   0.573 -0.0705 -0.0870  1.8058
 4502SOL    HW215824   7.410   5.746   0.636 -0.9158  1.1242 -0.7668
 4503SOL     OW15825   3.127   4.747   0.775  0.0673 -0.5196 -0.4493
 4503SOL    HW115826   3.162   4.812   0.837 -1.0997  1.2848 -1.6067
 4503SOL    HW215827   3.055   4.706   0.823 -1.0288  1.0793 -0.6337
 4504SOL     OW15828   5.756   7.357   5.422  0.3903 -0.1899  0.5526
 4504SOL    HW115829   5.810   7.390   5.350  1.6166 -0.6697  1.2207
 4504SOL    HW215830   5.696   7.294   5.381  0.8921 -0.2541 -0.0901
 4505SOL     OW15831   7.935   7.587   2.179  0.4796 -0.6220 -0.1232
 4505SOL    HW115832   7.957   7.505   2.222  1.0424 -1.2892 -1.6309
 4505SOL    HW215833   8.010   7.644   2.195 -0.5410  0.1710  2.2066
 4506SOL     OW15834   7.873   1.129   2.224 -0.2531  0.0354 -0.2434
 4506SOL    HW115835   7.916   1.147   2.308  2.0461  2.6797 -1.8269
 4506SOL    HW215836   7.881   1.034   2.214  2.5798  0.0289  1.0090
 4507SOL     OW15837   2.064   2.802   8.280  0.2453 -0.3874 -1.0729
 4507SOL    HW115838   2.081   2.874   8.221 -0.5810  0.6506 -0.0824
 4507SOL    HW215839   1.976   2.773   8.259  0.3616 -0.7433 -1.0822
 4508SOL     OW15840   5.424   3.392   9.775 -0.0794 -0.1673 -0.4458
 4508SOL    HW115841   5.512   3.428   9.763  0.6113 -1.3899  0.7525
 4508SOL    HW215842   5.412   3.388   9.870 -1.0222 -0.9754 -0.5818
 4509SOL     OW15843   2.010   2.238   2.485 -0.6385 -0.8770 -0.8982
 4509SOL    HW115844   1.936   2.280   2.442 -3.6535 -3.1450  1.6547
 4509SOL    HW215845   1.997   2.144   2.469 -0.2860 -1.5884  2.3779
 4510SOL     OW15846   2.477   4.582   5.701 -0.2987  0.3517 -0.4166
 4510SOL    HW115847   2.563   4.540   5.693 -0.5939 -0.7573  1.4315
 4510SOL    HW215848   2.497   4.674   5.716  0.5607  0.2036 -0.5856
 4511SOL     OW15849   8.467   7.381   2.735 -0.0400  0.2768 -0.0494
 4511SOL    HW115850   8.488   7.437   2.660 -0.1989 -0.9319 -1.0144
 4511SOL    HW215851   8.526   7.412   2.804  1.8157 -0.1378 -1.3779
 4512SOL     OW15852   0.890   5.726   8.362  1.0785 -0.4530  0.7203
 4512SOL    HW115853   0.951   5.799   8.346  0.3292 -0.0532 -0.4141
 4512SOL    HW215854   0.912   5.661   8.296  2.0868 -1.5082  2.0587
 4513SOL     OW15855   1.186   4.898  10.554 -0.7220  0.0364  0.2021
 4513SOL    HW115856   1.196   4.991  10.576 -0.1718 -0.1209  0.6399
 4513SOL    HW215857   1.103   4.872  10.595 -1.2839  0.5204 -0.5950
 4514SOL     OW15858   5.700   3.761   2.499  0.2015  0.0570  0.0250
 4514SOL    HW115859   5.703   3.756   2.403  1.4941  0.1116  0.0507
 4514SOL    HW215860   5.635   3.696   2.524 -0.4575  0.3267 -0.9041
 4515SOL     OW15861   2.027   4.915   3.359  0.4607 -0.5636 -0.3503
 4515SOL    HW115862   1.961   4.853   3.390  0.0493 -1.1306 -2.2151
 4515SOL    HW215863   1.982   4.999   3.357  0.0525 -0.7864 -0.7457
 4516SOL     OW15864   9.061   8.393   2.973 -0.3439 -0.0423 -0.0336
 4516SOL    HW115865   9.133   8.429   2.921 -0.0392  0.5804  0.8053
 4516SOL    HW215866   9.040   8.310   2.929  0.7210 -0.1225 -0.4380
 4517SOL     OW15867   1.244   0.277   0.551 -0.2913 -0.5370  0.0536
 4517SOL    HW115868   1.238   0.340   0.480  0.8939 -0.3433  0.0996
 4517SOL    HW215869   1.209   0.196   0.514 -0.1777 -0.3031 -0.5847
 4518SOL     OW15870   3.455   6.219   8.767 -0.0662 -0.0777 -0.0262
 4518SOL    HW115871   3.504   6.138   8.761 -0.2809 -0.1522 -0.8737
 4518SOL    HW215872   3.377   6.197   8.818 -0.7471 -0.7277 -1.2979
 4519SOL     OW15873   6.894   8.324   8.885  0.5463  0.3628  0.0225
 4519SOL    HW115874   6.961   8.257   8.872  0.1782 -0.1348  0.6985
 4519SOL    HW215875   6.812   8.281   8.863  0.0950  0.0257  2.2090
 4520SOL     OW15876   9.182   8.509   2.438  0.2423 -0.3328 -0.1915
 4520SOL    HW115877   9.221   8.422   2.432  0.2597 -0.4269  0.9570
 4520SOL    HW215878   9.139   8.523   2.354  1.8319 -0.6636 -1.0928
 4521SOL     OW15879   7.909   3.664   7.016  0.6808 -0.6164 -0.4071
 4521SOL    HW115880   7.957   3.631   6.940  1.2593  1.0451 -0.8164
 4521SOL    HW215881   7.975   3.668   7.085  0.8531  0.5179 -0.6248
 4522SOL     OW15882   1.597   9.643   7.903  0.0442 -0.4000  0.3763
 4522SOL    HW115883   1.542   9.691   7.841 -1.4868 -0.5895  1.5338
 4522SOL    HW215884   1.681   9.690   7.902 -1.5175  2.7294  1.8511
 4523SOL     OW15885   5.329   6.347   0.612  0.2133 -0.4328  0.3834
 4523SOL    HW115886   5.338   6.435   0.577 -0.4589 -0.2687  0.6040
 4523SOL    HW215887   5.256   6.309   0.563 -0.1579 -0.5100  0.9885
 4524SOL     OW15888  10.596   0.998   2.405 -0.1252  0.1463  0.6414
 4524SOL    HW115889  10.646   0.944   2.466 -1.2598  0.5058  1.9134
 4524SOL    HW215890  10.507   0.963   2.408  0.0872 -0.8284 -2.0063
 4525SOL     OW15891   8.661   4.906   0.293  0.3680  0.5067 -0.0153
 4525SOL    HW115892   8.725   4.977   0.295  1.0515 -0.1063  0.1250
 4525SOL    HW215893   8.642   4.889   0.385  0.2991  0.4154 -0.0464
 4526SOL     OW15894   6.101   2.412   2.368 -0.0314  0.1252  0.6282
 4526SOL    HW115895   6.164   2.346   2.396 -0.8378 -0.6540  0.6580
 4526SOL    HW215896   6.046   2.426   2.445 -0.4533  0.1272  0.3277
 4527SOL     OW15897   2.706   6.468   3.077  0.0648 -0.4094 -0.0083
 4527SOL    HW115898   2.646   6.481   3.151 -1.2329  0.9694 -1.2452
 4527SOL    HW215899   2.719   6.373   3.073  0.3987 -0.5001  2.1414
 4528SOL     OW15900   3.602   5.836   6.138  0.0560 -0.3263 -0.0261
 4528SOL    HW115901   3.534   5.893   6.104 -0.8180  0.2887  2.4893
 4528SOL    HW215902   3.584   5.750   6.100 -0.7564  0.3039 -1.1088
 4529SOL     OW15903   4.535   7.155   6.298 -0.3004 -0.6508  0.1365
 4529SOL    HW115904   4.546   7.060   6.300 -0.7126 -0.6995  0.5798
 4529SOL    HW215905   4.599   7.187   6.234 -1.2655 -1.3725 -1.2287
 4530SOL     OW15906   2.543   4.345   0.235 -0.1124 -0.4057 -0.0310
 4530SOL    HW115907   2.458   4.388   0.249  0.1275 -0.3577  1.5162
 4530SOL    HW215908   2.541   4.269   0.293  1.1039 -0.0927  0.4524
 4531SOL     OW15909   1.559   9.281   1.234  0.2537 -0.2879  0.0408
 4531SOL    HW115910   1.494   9.213   1.216  0.0629 -0.3336  0.8515
 4531SOL    HW215911   1.642   9.243   1.207  0.0618 -0.5869 -0.1362
 4532SOL     OW15912   3.930   2.293   6.770  0.2392 -0.0807 -0.1105
 4532SOL    HW115913   3.843   2.331   6.783  0.4137 -0.0989  1.2412
 4532SOL    HW215914   3.915   2.199   6.771  0.3120 -0.0903  0.4993
 4533SOL     OW15915  10.303   4.556   6.681  0.4803  0.0931  0.7280
 4533SOL    HW115916  10.256   4.545   6.599 -0.9736 -0.0234  1.5395
 4533SOL    HW215917  10.335   4.646   6.679 -1.7128  0.9539  1.0753
 4534SOL     OW15918   0.262   9.270   4.525  0.6275  0.0399 -0.0826
 4534SOL    HW115919   0.307   9.186   4.530  1.2068  0.3964  3.8257
 4534SOL    HW215920   0.180   9.257   4.573  0.5667  1.5898  0.3008
 4535SOL     OW15921   4.380   9.879   6.801  0.1884 -0.0648 -0.4313
 4535SOL    HW115922   4.307   9.878   6.863 -1.9616 -1.0874 -2.7677
 4535SOL    HW215923   4.412   9.969   6.802 -2.3036  0.9017 -0.5268
 4536SOL     OW15924   6.213   4.664   6.694 -0.1481 -0.0209  0.3243
 4536SOL    HW115925   6.225   4.675   6.600 -1.1287 -4.5409 -0.5347
 4536SOL    HW215926   6.302   4.657   6.729  0.2162  1.5457 -0.2217
 4537SOL     OW15927   3.349   4.267   9.103  0.0471 -0.3322 -0.0273
 4537SOL    HW115928   3.307   4.337   9.154 -2.0635 -1.4984 -0.0337
 4537SOL    HW215929   3.336   4.294   9.012 -0.5765 -0.5961 -0.0248
 4538SOL     OW15930   1.011   8.438   9.841 -0.2761  0.1092 -0.8608
 4538SOL    HW115931   1.006   8.409   9.749  1.2244  2.5180 -1.8040
 4538SOL    HW215932   0.920   8.447   9.868 -0.8018 -2.7258 -1.3084
 4539SOL     OW15933   4.943   0.948   9.784  0.4758 -0.0570 -0.4174
 4539SOL    HW115934   4.954   1.000   9.864 -2.2770  0.4779 -0.2666
 4539SOL    HW215935   4.918   0.861   9.815 -2.6053  0.6561 -0.5353
 4540SOL     OW15936   2.313   8.416   0.543 -0.1117  0.5636 -0.2221
 4540SOL    HW115937   2.383   8.472   0.511 -0.9669  1.1416 -1.1627
 4540SOL    HW215938   2.269   8.385   0.463 -0.0926 -0.8961  0.2972
 4541SOL     OW15939   8.101   9.436   8.980  0.3208  0.0652  0.0632
 4541SOL    HW115940   8.140   9.349   8.990 -1.4140 -0.6306  1.3224
 4541SOL    HW215941   8.025   9.422   8.924  1.4481  1.2786 -1.8312
 4542SOL     OW15942   7.954   3.584   1.342  0.2385 -0.1138  0.3069
 4542SOL    HW115943   8.019   3.615   1.405  0.3913  1.8056 -0.7305
 4542SOL    HW215944   7.889   3.654   1.338  0.9065  0.4614 -2.5820
 4543SOL     OW15945   7.618   8.169   9.111 -0.5272  0.3803  0.8672
 4543SOL    HW115946   7.602   8.151   9.204  0.8688  0.2175  1.0966
 4543SOL    HW215947   7.708   8.204   9.109 -1.4396  2.8720 -0.1278
 4544SOL     OW15948  10.118   6.086   4.938 -0.6767  0.4727 -0.2240
 4544SOL    HW115949  10.207   6.059   4.963 -0.1062  1.8161 -0.7107
 4544SOL    HW215950  10.131   6.167   4.889 -2.2175  0.8703  0.0005
 4545SOL     OW15951   3.269   0.718   2.192 -0.0716  0.2288  0.8390
 4545SOL    HW115952   3.221   0.647   2.233 -0.5901  1.0480  1.6973
 4545SOL    HW215953   3.202   0.770   2.147  0.4447 -0.4630 -0.8149
 4546SOL     OW15954   3.466   2.488   0.197 -0.4513  0.7663 -0.9826
 4546SOL    HW115955   3.541   2.492   0.138 -0.7116 -1.6646 -1.5783
 4546SOL    HW215956   3.419   2.408   0.172 -1.4026  0.4239  1.5351
 4547SOL     OW15957   9.947   9.620  10.564 -0.3257 -0.5009  0.0000
 4547SOL    HW115958  10.024   9.658  10.606 -1.2204  0.4160  0.8761
 4547SOL    HW215959   9.914   9.557  10.628 -0.3730 -0.8043 -0.3236
 4548SOL     OW15960   8.935   7.299   1.918  0.3865  0.0399 -0.0813
 4548SOL    HW115961   9.000   7.281   1.849  0.7552 -2.1476  0.7409
 4548SOL    HW215962   8.985   7.298   1.999 -0.3747  0.3477  0.4017
 4549SOL     OW15963   2.295   6.216   2.814 -0.6092 -0.9071 -0.2766
 4549SOL    HW115964   2.270   6.180   2.729  1.0464 -2.0429 -0.3253
 4549SOL    HW215965   2.308   6.309   2.798 -0.0409 -1.1548 -1.3567
 4550SOL     OW15966   2.322  10.478   1.168 -0.1641 -0.2298  0.1001
 4550SOL    HW115967   2.390  10.481   1.236 -1.3094 -0.1118  1.2784
 4550SOL    HW215968   2.289  10.567   1.163  0.4695 -0.0370 -1.2520
 4551SOL     OW15969   3.286   7.706   0.652  0.1872  0.1600  0.1534
 4551SOL    HW115970   3.380   7.688   0.644  0.3153 -0.9443  2.9908
 4551SOL    HW215971   3.259   7.656   0.729 -2.5291  1.3321  0.0561
 4552SOL     OW15972   1.638   9.403   0.628 -0.1474 -0.1865 -0.0737
 4552SOL    HW115973   1.681   9.470   0.574 -0.7529  1.5618  1.5008
 4552SOL    HW215974   1.704   9.334   0.636  0.2676 -0.1265 -2.2965
 4553SOL     OW15975   2.040   7.701   8.804  0.2694  0.2476  0.2051
 4553SOL    HW115976   2.131   7.688   8.776  1.8503  3.3568  3.1184
 4553SOL    HW215977   2.022   7.629   8.864  0.9834 -0.0809  0.0329
 4554SOL     OW15978   8.008   3.052   8.768 -0.1740  0.0310  0.2768
 4554SOL    HW115979   7.925   3.099   8.764  0.4966  1.2015 -0.4754
 4554SOL    HW215980   7.983   2.959   8.770 -1.4947  0.3725  0.4278
 4555SOL     OW15981   6.217   1.008   1.075 -0.3177  0.0401 -0.7729
 4555SOL    HW115982   6.289   0.973   1.127 -0.7021  0.8088  0.2977
 4555SOL    HW215983   6.242   1.099   1.058  1.6253 -1.0422 -5.1567
 4556SOL     OW15984   0.691   5.257   9.985 -0.6154 -0.6009  0.4249
 4556SOL    HW115985   0.740   5.331   9.949 -1.3011  0.5356  1.7488
 4556SOL    HW215986   0.712   5.257  10.078 -0.2905 -2.3688  0.3841
 4557SOL     OW15987   1.085   5.397  10.098  0.3875  0.1774  0.4422
 4557SOL    HW115988   1.039   5.471  10.138 -0.5959  0.2401 -0.7579
 4557SOL    HW215989   1.055   5.321  10.148  1.3054  0.5437  1.5962
 4558SOL     OW15990   6.717   8.500   3.910  0.1119 -0.3308 -0.3283
 4558SOL    HW115991   6.699   8.407   3.905  0.3374 -0.3454 -0.9809
 4558SOL    HW215992   6.721   8.529   3.818  0.1520  0.2926 -0.1356
 4559SOL     OW15993  10.336   3.786   5.587 -0.3475  0.2210 -0.8868
 4559SOL    HW115994  10.397   3.748   5.650 -1.6502  0.2043  0.4028
 4559SOL    HW215995  10.324   3.718   5.521 -0.3673 -0.4646 -0.1842
 4560SOL     OW15996  10.490   9.418   6.972 -0.5628  0.2087  0.2122
 4560SOL    HW115997  10.560   9.361   6.937 -1.9687  0.2759 -3.1387
 4560SOL    HW215998  10.428   9.357   7.012 -0.7039 -0.3888 -0.8571
 4561SOL     OW15999   0.661   6.937   5.173  0.2841  0.2069 -0.5388
 4561SOL    HW116000   0.612   6.867   5.217  2.1242 -0.0793  1.2413
 4561SOL    HW216001   0.648   7.014   5.229  0.8491  0.4378 -0.7214
 4562SOL     OW16002   5.789   7.842   1.280 -0.0040 -0.3483 -0.5264
 4562SOL    HW116003   5.742   7.809   1.356  1.3720 -0.3602  0.3625
 4562SOL    HW216004   5.728   7.904   1.239 -0.7073 -0.2014  0.6921
 4563SOL     OW16005   6.694   4.463   4.814 -0.2051  0.1519 -0.1323
 4563SOL    HW116006   6.710   4.558   4.816  0.3180  0.0779  1.9673
 4563SOL    HW216007   6.752   4.430   4.745 -0.3947  1.3425 -0.8916
 4564SOL     OW16008   5.023  10.101   9.113  0.6500  0.1077 -0.8410
 4564SOL    HW116009   5.096  10.094   9.174 -0.3000 -0.0585  0.3098
 4564SOL    HW216010   5.025  10.019   9.063  0.3114 -0.6097  0.2897
 4565SOL     OW16011   1.307   4.329   5.532 -0.3148 -0.5892 -0.8512
 4565SOL    HW116012   1.367   4.297   5.599 -0.0986 -0.6619 -1.0819
 4565SOL    HW216013   1.361   4.344   5.455  0.0343  2.5043 -0.1210
 4566SOL     OW16014   1.684   6.111   5.709  0.2828 -0.0447  0.2190
 4566SOL    HW116015   1.719   6.031   5.670 -0.2677 -0.0562 -0.2671
 4566SOL    HW216016   1.733   6.181   5.667 -0.4261 -0.0471 -0.6601
 4567SOL     OW16017   1.968  10.259   3.985 -0.3112  0.4988  0.5929
 4567SOL    HW116018   1.889  10.298   4.023  0.6277  1.8922  1.2117
 4567SOL    HW216019   1.970  10.292   3.895 -1.8439 -1.7555 -0.3459
 4568SOL     OW16020   2.075   5.007   1.691  0.1162 -0.1313 -0.1982
 4568SOL    HW116021   2.094   5.097   1.720 -0.7016  0.2925 -0.9311
 4568SOL    HW216022   1.994   4.984   1.736 -1.6272  0.8340 -2.5925
 4569SOL     OW16023   0.475   2.074   3.178  0.9205 -0.1827  0.0160
 4569SOL    HW116024   0.402   2.029   3.221  0.6851  1.1242  1.0471
 4569SOL    HW216025   0.454   2.068   3.084 -0.1707 -0.3865  0.2579
 4570SOL     OW16026   3.457   9.393   8.629  0.2358  0.5141  0.8699
 4570SOL    HW116027   3.431   9.460   8.565  0.0589 -0.2723  0.1017
 4570SOL    HW216028   3.551   9.385   8.619  0.0899 -0.2942  0.0030
 4571SOL     OW16029   2.608   9.910   6.933  0.1527 -0.4247  0.9346
 4571SOL    HW116030   2.659   9.957   7.000  1.3930 -0.4397  0.0301
 4571SOL    HW216031   2.651   9.931   6.851 -0.9526 -0.9522  0.2035
 4572SOL     OW16032   2.166   7.576   1.822 -0.1856  0.0626  0.0786
 4572SOL    HW116033   2.176   7.542   1.911 -0.9032  0.0189  0.1473
 4572SOL    HW216034   2.245   7.546   1.776  0.6714  0.8940  0.9388
 4573SOL     OW16035   0.764  10.552   0.410 -0.2668 -0.3258  0.0329
 4573SOL    HW116036   0.809  10.630   0.442 -2.1039  0.8818 -0.1336
 4573SOL    HW216037   0.733  10.508   0.489  1.3784 -1.3242  0.1620
 4574SOL     OW16038   2.664   1.075   1.371  0.2607 -0.0356  0.2378
 4574SOL    HW116039   2.622   0.990   1.353  1.2516 -0.3949 -0.4392
 4574SOL    HW216040   2.752   1.067   1.334  0.8351  0.8181  1.3703
 4575SOL     OW16041   7.873   9.523   1.866 -0.6641 -0.4485 -0.3094
 4575SOL    HW116042   7.788   9.551   1.833 -0.5149  0.7858  0.3116
 4575SOL    HW216043   7.855   9.497   1.957 -0.1227  1.3200  0.3356
 4576SOL     OW16044   6.129   1.621  10.198  0.2504  0.2384 -0.0788
 4576SOL    HW116045   6.157   1.684  10.265 -0.9079  0.4205  0.2624
 4576SOL    HW216046   6.048   1.658  10.162 -0.5007 -1.0643  0.1813
 4577SOL     OW16047   0.306   4.899   4.136  0.3313 -0.0789  0.4276
 4577SOL    HW116048   0.293   4.970   4.074  1.2530  0.9525  1.3666
 4577SOL    HW216049   0.399   4.876   4.127  0.5221  0.1995  1.5116
 4578SOL     OW16050   8.717   6.096   8.739  0.2041 -0.0326  0.5874
 4578SOL    HW116051   8.723   6.159   8.810  2.6236 -0.8304  1.1824
 4578SOL    HW216052   8.801   6.050   8.739 -0.3966 -1.3412 -1.6152
 4579SOL     OW16053   6.238   6.293   1.827  0.1526 -0.3258 -0.4822
 4579SOL    HW116054   6.263   6.380   1.793  1.9953  0.2008  1.9557
 4579SOL    HW216055   6.143   6.292   1.821  0.0389  2.0312 -0.2926
 4580SOL     OW16056   2.077   6.756   9.955 -0.0166 -0.1438  0.2017
 4580SOL    HW116057   2.108   6.714   9.875  2.6411  2.3593 -0.2428
 4580SOL    HW216058   2.004   6.811   9.927 -0.8854 -1.3446  0.0544
 4581SOL     OW16059   7.873   5.304   6.127  0.3214 -0.2332  0.1736
 4581SOL    HW116060   7.911   5.268   6.207 -0.8864 -1.8229  0.0740
 4581SOL    HW216061   7.787   5.263   6.120  0.4819 -0.3134 -2.0663
 4582SOL     OW16062   4.205   7.678   4.748 -0.0607 -0.0890  0.1314
 4582SOL    HW116063   4.151   7.644   4.677 -2.5076  0.1062  1.7853
 4582SOL    HW216064   4.256   7.602   4.776  0.5752 -0.2907 -1.4509
 4583SOL     OW16065   0.876   7.648   3.462  0.2724 -0.4026  0.3253
 4583SOL    HW116066   0.936   7.705   3.414 -1.0567  0.5738 -0.2328
 4583SOL    HW216067   0.934   7.596   3.519  1.6352  0.5506 -0.1182
 4584SOL     OW16068   8.925   9.945   2.047 -0.5691 -0.2181 -0.3897
 4584SOL    HW116069   8.880   9.936   1.964 -1.9898  2.4988 -0.0161
 4584SOL    HW216070   8.897  10.030   2.081  2.7333  0.4260  1.1865
 4585SOL     OW16071   5.049   8.405   7.916  0.3260  0.2499  0.3669
 4585SOL    HW116072   5.063   8.329   7.859  1.0603  0.9446 -0.4132
 4585SOL    HW216073   5.130   8.413   7.966  0.5313  0.9325 -0.0640
 4586SOL     OW16074   0.727   0.384   6.183 -0.4425  0.2289  0.6515
 4586SOL    HW116075   0.743   0.347   6.096  0.5752  2.8428 -0.3811
 4586SOL    HW216076   0.637   0.416   6.179 -1.3814 -2.0704  1.6010
 4587SOL     OW16077  10.236   3.789   3.663  0.0219  0.6790 -0.0616
 4587SOL    HW116078  10.240   3.835   3.746 -0.7037 -2.5859  1.9869
 4587SOL    HW216079  10.328   3.771   3.641  0.1723 -0.6248  1.4589
 4588SOL     OW16080   6.091   3.288   4.934 -0.3658 -0.0105  0.3461
 4588SOL    HW116081   6.059   3.228   5.002 -0.8032  1.5486  1.5847
 4588SOL    HW216082   6.016   3.344   4.914 -0.2369 -0.4307 -1.4619
 4589SOL     OW16083   5.376   2.856   9.421 -0.3406 -0.4771 -0.0541
 4589SOL    HW116084   5.404   2.764   9.425  0.2249 -0.3282 -0.4999
 4589SOL    HW216085   5.453   2.903   9.391 -0.3685  0.2644  0.9787
 4590SOL     OW16086   9.978   5.351   5.016 -0.1995 -0.1314  0.5193
 4590SOL    HW116087  10.056   5.402   4.995 -0.7265 -0.0370 -1.5164
 4590SOL    HW216088  10.002   5.261   4.993 -0.8762  0.0029 -0.8154
 4591SOL     OW16089   6.679   5.454   6.017 -0.3349 -1.1331 -0.6509
 4591SOL    HW116090   6.594   5.464   6.058  0.3871  0.9628  0.4568
 4591SOL    HW216091   6.718   5.378   6.061  0.0235  0.4605  1.9765
 4592SOL     OW16092   3.901   8.601   6.999  0.4804  0.1016  0.4634
 4592SOL    HW116093   3.985   8.565   7.026  1.5645 -0.0799 -2.6725
 4592SOL    HW216094   3.903   8.692   7.026  1.9773  0.2458 -0.0312
 4593SOL     OW16095   9.866   6.772   1.647  0.4032  0.1039 -0.3693
 4593SOL    HW116096   9.807   6.755   1.721  0.3805  1.6354  0.0005
 4593SOL    HW216097   9.944   6.810   1.687 -0.2325  2.4400 -1.2233
 4594SOL     OW16098   3.401   8.707   7.830 -0.2027  0.4089 -0.1484
 4594SOL    HW116099   3.430   8.633   7.884 -0.6767  0.8298  0.7114
 4594SOL    HW216100   3.446   8.783   7.866 -0.0481  0.6102 -0.7522
 4595SOL     OW16101   5.991   7.559   8.172  0.7127 -0.4341  0.0857
 4595SOL    HW116102   5.920   7.521   8.121  1.5811 -1.7030 -0.2372
 4595SOL    HW216103   6.068   7.549   8.116  1.1939  0.7018  0.5197
 4596SOL     OW16104   7.626   5.265   4.107  0.0680  0.2075  0.2122
 4596SOL    HW116105   7.604   5.278   4.014 -0.2683 -1.8428 -0.0529
 4596SOL    HW216106   7.712   5.306   4.117  0.1164  0.4536 -1.0099
 4597SOL     OW16107   8.602   2.887   7.951  0.2768 -0.4144  0.0987
 4597SOL    HW116108   8.585   2.794   7.961  3.1710 -1.0058  0.3287
 4597SOL    HW216109   8.629   2.897   7.860  0.8124  0.0594  0.3045
 4598SOL     OW16110   0.664   8.660   0.141 -0.4026 -0.1372 -0.1350
 4598SOL    HW116111   0.599   8.710   0.191  0.0439 -0.2054  0.5195
 4598SOL    HW216112   0.731   8.725   0.118 -1.0133  0.0809 -1.3861
 4599SOL     OW16113   1.769   1.785   3.979  0.1185 -0.2313 -0.4163
 4599SOL    HW116114   1.701   1.774   3.912  1.1830 -1.9211 -1.2969
 4599SOL    HW216115   1.752   1.715   4.042  0.3015  0.1346  0.0445
 4600SOL     OW16116   4.971   2.910   5.086  0.0768  0.6367 -0.0753
 4600SOL    HW116117   4.890   2.960   5.080 -0.7051 -0.5208  0.3043
 4600SOL    HW216118   4.985   2.898   5.180  0.8747  1.0995 -0.1262
 4601SOL     OW16119   6.132   4.642   8.123  0.0862 -0.5639  1.0768
 4601SOL    HW116120   6.160   4.560   8.166 -0.7387 -0.5326  1.7053
 4601SOL    HW216121   6.199   4.705   8.148 -0.1016 -0.6739  1.9217
 4602SOL     OW16122   0.332  10.416   4.824 -0.7764 -0.1019  0.0153
 4602SOL    HW116123   0.377  10.491   4.784  0.5307  0.4698  2.4070
 4602SOL    HW216124   0.402  10.355   4.846 -1.4636 -0.4507  1.2986
 4603SOL     OW16125   2.897   6.295   4.039  0.7519 -0.1868  0.1914
 4603SOL    HW116126   2.885   6.282   4.133 -0.0975  0.8943  0.2520
 4603SOL    HW216127   2.978   6.248   4.018  1.1770 -0.0930  1.5362
 4604SOL     OW16128   0.157   6.229   4.229 -0.1278  0.1515 -0.3735
 4604SOL    HW116129   0.154   6.136   4.253  1.0150  0.1257 -0.2857
 4604SOL    HW216130   0.232   6.264   4.276 -0.8811  1.2655  0.0372
 4605SOL     OW16131   3.536   8.700   3.634  0.0145 -0.7842 -0.1571
 4605SOL    HW116132   3.550   8.732   3.545  0.6693  1.9197  0.8286
 4605SOL    HW216133   3.622   8.670   3.662  0.5670  1.3408  0.5885
 4606SOL     OW16134  10.320   6.506   6.648 -0.1392 -0.0975  0.1601
 4606SOL    HW116135  10.323   6.568   6.721  0.0702  1.9656 -1.5104
 4606SOL    HW216136  10.346   6.422   6.686  1.8650  1.2919  2.0445
 4607SOL     OW16137   9.625   9.129   4.908 -0.0702  0.3109 -0.0991
 4607SOL    HW116138   9.542   9.138   4.862  0.1124  1.1001 -0.2885
 4607SOL    HW216139   9.630   9.036   4.932 -0.8224  0.1868 -0.4221
 4608SOL     OW16140   0.193   3.816   7.417  0.2455 -0.1628 -0.2789
 4608SOL    HW116141   0.121   3.831   7.354  0.5141  0.5179 -0.4268
 4608SOL    HW216142   0.183   3.724   7.442 -0.8825  0.0083 -0.0460
 4609SOL     OW16143   1.968   1.557   7.699 -0.9070 -0.8193 -0.2699
 4609SOL    HW116144   2.048   1.504   7.694 -0.6892 -0.5361  0.2133
 4609SOL    HW216145   1.910   1.508   7.757 -0.4866 -0.2449  0.6409
 4610SOL     OW16146   8.173   5.211   7.563 -0.1243 -0.2785 -0.6866
 4610SOL    HW116147   8.202   5.168   7.644 -0.7736 -0.0750 -0.3405
 4610SOL    HW216148   8.239   5.278   7.547 -0.1733 -0.0867 -0.1236
 4611SOL     OW16149   5.244   0.131   8.562  0.0066  0.1391  0.7574
 4611SOL    HW116150   5.197   0.210   8.586 -0.2665  0.2107  0.0193
 4611SOL    HW216151   5.307   0.160   8.496  0.8557 -0.0174  1.4769
 4612SOL     OW16152   5.659   2.698   5.464 -0.3960 -0.6547  0.1541
 4612SOL    HW116153   5.750   2.727   5.463 -0.7567  0.5721  0.4438
 4612SOL    HW216154   5.647   2.650   5.383  0.8948 -2.1359  0.7910
 4613SOL     OW16155   7.432   3.785   0.149 -0.4375 -0.3229  0.1201
 4613SOL    HW116156   7.436   3.778   0.054  1.2095 -0.4318  0.1773
 4613SOL    HW216157   7.438   3.695   0.180 -1.7935 -0.3628  0.3352
 4614SOL     OW16158   7.242   1.998   8.985  0.3206  0.4319 -0.2794
 4614SOL    HW116159   7.226   2.052   8.907  1.1471  1.8028  0.4555
 4614SOL    HW216160   7.193   2.042   9.054 -0.3022 -0.7006  0.0257
 4615SOL     OW16161   7.528   1.999   5.538  0.1656 -0.4057 -0.0297
 4615SOL    HW116162   7.538   2.044   5.622  0.5972 -0.4237 -0.0704
 4615SOL    HW216163   7.544   1.906   5.559 -0.7172 -0.5505  0.0535
 4616SOL     OW16164   5.702   8.888   6.495  0.1713 -0.1509 -0.4942
 4616SOL    HW116165   5.713   8.793   6.496  0.0383 -0.2037  2.0718
 4616SOL    HW216166   5.628   8.903   6.435 -2.1476 -2.0295  1.6794
 4617SOL     OW16167   6.916   2.769   2.374 -0.7613  0.1451  0.0790
 4617SOL    HW116168   6.960   2.687   2.352  0.2821  0.4198  1.0279
 4617SOL    HW216169   6.905   2.765   2.469 -0.0466  1.4010  0.2388
 4618SOL     OW16170  10.194   6.315   2.653  0.3240  0.1038 -0.2851
 4618SOL    HW116171  10.167   6.299   2.743 -0.0839 -2.8320 -0.8436
 4618SOL    HW216172  10.116   6.297   2.600  1.0061  0.1377 -1.3393
 4619SOL     OW16173   5.706   2.243   8.924 -0.3740  0.3285  0.4895
 4619SOL    HW116174   5.688   2.324   8.877  1.3914  1.7934  2.1140
 4619SOL    HW216175   5.648   2.245   9.000 -1.0330 -0.4565  0.0189
 4620SOL     OW16176   1.050   0.965   3.699  0.3047  0.2717 -0.6270
 4620SOL    HW116177   0.988   0.892   3.706  2.5867 -1.7106  0.1988
 4620SOL    HW216178   1.017   1.018   3.627 -1.8385 -1.1776 -0.7958
 4621SOL     OW16179   0.958   4.660   6.549  0.2714  0.1107 -1.1025
 4621SOL    HW116180   0.884   4.713   6.577  0.9548  0.1726  0.6887
 4621SOL    HW216181   0.919   4.589   6.498 -0.9680  0.4168 -0.6041
 4622SOL     OW16182   0.127   0.206   3.919  0.0258  0.2028  0.2703
 4622SOL    HW116183   0.187   0.278   3.937 -0.5412  0.3265  1.8162
 4622SOL    HW216184   0.077   0.195   4.000  0.2826 -2.1134  0.2030
 4623SOL     OW16185   4.867   4.742   1.286 -0.1448  0.4256  0.0585
 4623SOL    HW116186   4.874   4.809   1.217 -1.1713  1.5634  1.0084
 4623SOL    HW216187   4.941   4.761   1.344  0.7243 -0.5379 -0.7008
 4624SOL     OW16188   9.496   8.415   4.153 -0.2871 -0.9316 -0.3443
 4624SOL    HW116189   9.531   8.416   4.064  3.5411  2.0204  0.9327
 4624SOL    HW216190   9.529   8.333   4.190 -1.0445 -1.6837 -1.2768
 4625SOL     OW16191   5.593   1.713   5.984  0.1648  0.0412 -0.2965
 4625SOL    HW116192   5.510   1.743   5.946 -0.7416  1.1674  2.3293
 4625SOL    HW216193   5.649   1.791   5.984  0.0599  0.1411  0.7632
 4626SOL     OW16194   4.274   5.257   4.307 -0.4718 -0.3162 -0.3216
 4626SOL    HW116195   4.221   5.303   4.371 -1.2626 -0.9794 -0.4812
 4626SOL    HW216196   4.212   5.232   4.238  0.3784  0.5031 -1.4244
 4627SOL     OW16197   4.076   1.985   1.684  0.3809 -0.1154 -0.2702
 4627SOL    HW116198   4.169   2.001   1.698  0.1788  0.1929  0.8485
 4627SOL    HW216199   4.073   1.915   1.619  1.3983 -0.2394 -0.2018
 4628SOL     OW16200   7.330   9.472   4.906  0.2023 -0.2496 -0.3321
 4628SOL    HW116201   7.355   9.400   4.965 -0.5572 -1.2816 -1.2289
 4628SOL    HW216202   7.237   9.459   4.892  0.0400  0.9797 -0.4530
 4629SOL     OW16203   7.841   4.905   1.299  0.1867 -0.4553  0.4123
 4629SOL    HW116204   7.774   4.965   1.334 -0.6481 -1.4195  0.5252
 4629SOL    HW216205   7.792   4.846   1.242  1.3647  0.4222 -1.6001
 4630SOL     OW16206   5.396   7.454   7.675  0.6250 -0.3889 -0.2147
 4630SOL    HW116207   5.329   7.518   7.701 -0.0440 -0.7687 -0.9544
 4630SOL    HW216208   5.347   7.388   7.626  1.3379 -1.3713  0.3671
 4631SOL     OW16209   1.376   4.271   1.987 -0.3539 -0.4471 -0.5604
 4631SOL    HW116210   1.366   4.208   1.915  0.6032 -1.1889 -0.0642
 4631SOL    HW216211   1.442   4.232   2.044  0.7367  1.2804 -0.5500
 4632SOL     OW16212   9.442   8.380   0.674 -0.2732  0.2016 -0.3176
 4632SOL    HW116213   9.407   8.398   0.762  0.7580  0.0448  0.1361
 4632SOL    HW216214   9.492   8.459   0.652 -1.6787  0.8382 -1.3789
 4633SOL     OW16215   3.580   5.649   6.681  0.3246 -0.6672  0.1078
 4633SOL    HW116216   3.487   5.658   6.704  0.5592 -0.1934  0.8879
 4633SOL    HW216217   3.581   5.578   6.616 -0.7296  0.1889 -0.8870
 4634SOL     OW16218   3.732  10.142   9.421 -0.7713  0.7378 -0.0968
 4634SOL    HW116219   3.814  10.112   9.382  0.1198  0.5566  1.8137
 4634SOL    HW216220   3.664  10.094   9.372  0.3927 -1.0336 -0.0914
 4635SOL     OW16221   6.236   8.081   6.176 -0.4779  0.0932  0.6404
 4635SOL    HW116222   6.290   8.158   6.160 -0.7800  0.8034  2.7179
 4635SOL    HW216223   6.173   8.080   6.103  1.3881  0.0363 -1.0390
 4636SOL     OW16224   0.597   0.899   9.418 -0.0302 -0.0717 -0.5096
 4636SOL    HW116225   0.540   0.826   9.443  0.4293 -0.4819 -0.6476
 4636SOL    HW216226   0.572   0.970   9.476 -0.6617 -0.2595 -0.5458
 4637SOL     OW16227   3.116   5.727   1.348 -0.0070 -0.2444  0.9689
 4637SOL    HW116228   3.093   5.668   1.420 -0.6039  0.5509  1.4381
 4637SOL    HW216229   3.202   5.762   1.372 -0.9533  1.3810  2.2179
 4638SOL     OW16230   6.935  10.083   7.381 -0.0352  0.2949 -0.3897
 4638SOL    HW116231   6.924  10.153   7.317 -1.6468  1.6716  1.2875
 4638SOL    HW216232   6.946  10.004   7.328 -1.2324  1.3567 -2.3455
 4639SOL     OW16233   0.015   3.013   0.487  0.0635 -0.0196 -0.4819
 4639SOL    HW116234   0.019   2.928   0.533  1.1282  0.4245  0.3097
 4639SOL    HW216235   0.001   3.077   0.557 -2.4470  0.3559 -1.2469
 4640SOL     OW16236   6.674   3.049   5.847  0.5377 -0.4439 -0.0225
 4640SOL    HW116237   6.764   3.041   5.814  0.5284 -0.3779 -0.0645
 4640SOL    HW216238   6.630   3.104   5.783 -0.2164 -2.4753 -1.3595
 4641SOL     OW16239   1.361  10.086   3.532  0.1588 -0.1016  0.1961
 4641SOL    HW116240   1.327  10.006   3.572  0.8931 -0.1393  0.7618
 4641SOL    HW216241   1.333  10.156   3.590  0.4695 -0.0638  0.3017
 4642SOL     OW16242   4.245   0.428   3.197  0.4559  0.3149  0.0548
 4642SOL    HW116243   4.279   0.357   3.252 -0.2514 -0.0822 -0.0038
 4642SOL    HW216244   4.174   0.467   3.249 -1.7332 -1.4842 -1.3831
 4643SOL     OW16245   3.815   7.810   9.248  0.0061  0.3017  0.1278
 4643SOL    HW116246   3.789   7.847   9.333 -1.4937  0.0794 -0.2178
 4643SOL    HW216247   3.791   7.877   9.184 -1.7281 -0.7707 -0.3982
 4644SOL     OW16248   8.152   5.267   1.866 -0.0738 -0.0443  0.2975
 4644SOL    HW116249   8.244   5.239   1.862 -0.2809 -0.9875  1.4470
 4644SOL    HW216250   8.140   5.298   1.955 -0.6474  0.9570 -0.1139
 4645SOL     OW16251   1.447   9.787   3.920  0.3510 -0.0716 -0.0661
 4645SOL    HW116252   1.370   9.742   3.955 -0.6473  0.2363 -1.7645
 4645SOL    HW216253   1.509   9.788   3.993 -1.6598  0.6692  1.7301
 4646SOL     OW16254   9.033   8.631   3.609  0.0201 -0.4723 -0.3675
 4646SOL    HW116255   9.061   8.635   3.517 -0.6594  1.2081 -0.5334
 4646SOL    HW216256   8.941   8.658   3.607  0.2046  0.3366  0.8795
 4647SOL     OW16257   1.705   4.074   3.179  0.8367 -0.7255  0.0951
 4647SOL    HW116258   1.768   4.145   3.168  1.2089 -1.3631 -2.3143
 4647SOL    HW216259   1.758   3.999   3.207  0.9263 -0.8805 -0.4893
 4648SOL     OW16260   6.744   2.185   2.023 -0.1143 -0.6036 -0.3838
 4648SOL    HW116261   6.687   2.231   2.085  1.6428  1.3102 -0.0672
 4648SOL    HW216262   6.755   2.098   2.061 -1.2658 -0.3803  0.5375
 4649SOL     OW16263   5.428   9.242   4.425 -0.1556 -0.5074 -0.7765
 4649SOL    HW116264   5.461   9.320   4.379 -1.9572 -1.1328 -3.3835
 4649SOL    HW216265   5.384   9.191   4.357 -1.8622 -2.2424  1.4623
 4650SOL     OW16266   0.297   5.633  10.586  0.1755  0.3696 -0.5074
 4650SOL    HW116267   0.265   5.577  10.657 -1.0972  0.9086 -0.6283
 4650SOL    HW216268   0.342   5.573  10.527  2.6231  0.0994  1.4524
 4651SOL     OW16269   4.658   1.347   3.095 -0.1744  0.4878  0.3339
 4651SOL    HW116270   4.713   1.411   3.049  1.3498  0.1872  1.6513
 4651SOL    HW216271   4.693   1.345   3.184 -2.8029  0.7938  1.4668
 4652SOL     OW16272   5.125   4.175   5.791  0.5834  0.0867  0.1577
 4652SOL    HW116273   5.048   4.118   5.788  1.1873 -0.7205 -0.4307
 4652SOL    HW216274   5.098   4.255   5.744  0.6077 -0.8494 -1.5433
 4653SOL     OW16275   1.827   0.436  10.183  0.1159 -0.6115 -0.3408
 4653SOL    HW116276   1.887   0.510  10.177  0.9643 -1.2790 -0.3972
 4653SOL    HW216277   1.829   0.396  10.096 -1.4883  0.1499 -0.7527
 4654SOL     OW16278   5.060   3.844   3.336  0.6449 -0.6756  0.7992
 4654SOL    HW116279   4.998   3.914   3.353  2.6130  1.2017  0.6770
 4654SOL    HW216280   5.042   3.817   3.246  0.3149  0.2057  0.5931
 4655SOL     OW16281   2.950   2.378   9.076 -0.1606  0.2467  0.5393
 4655SOL    HW116282   2.962   2.367   9.171  1.5388  0.6206  0.3990
 4655SOL    HW216283   2.932   2.289   9.045  1.5576 -0.2876  0.9498
 4656SOL     OW16284   3.860   4.469   4.924 -0.0037  0.2192 -0.0902
 4656SOL    HW116285   3.860   4.473   4.828  0.9607 -2.2071 -0.2779
 4656SOL    HW216286   3.824   4.383   4.944  1.3665  0.0008  1.6502
 4657SOL     OW16287   6.746  10.340   0.334  0.6023  0.4339 -0.0486
 4657SOL    HW116288   6.731  10.410   0.272  2.1955  0.7127 -0.1668
 4657SOL    HW216289   6.807  10.377   0.398 -0.1167 -0.2065  1.0413
 4658SOL     OW16290   3.311   8.882   3.364 -0.9239 -0.0523  0.0106
 4658SOL    HW116291   3.393   8.851   3.326 -0.7487 -0.4387  0.6860
 4658SOL    HW216292   3.280   8.949   3.303 -0.8348 -0.9042 -0.9974
 4659SOL     OW16293   9.629   2.618   7.777 -0.1056  0.2878  0.4597
 4659SOL    HW116294   9.591   2.552   7.835  0.4564 -0.5756 -0.1352
 4659SOL    HW216295   9.557   2.677   7.757 -0.2781  0.6945  2.1526
 4660SOL     OW16296   3.802   6.585   7.181  0.1739  0.0869 -0.4686
 4660SOL    HW116297   3.847   6.662   7.145  2.6828 -1.1405 -0.1664
 4660SOL    HW216298   3.832   6.580   7.272 -1.3788 -0.2621  0.0526
 4661SOL     OW16299   0.724   9.349   3.007 -0.2184 -0.5044 -0.3545
 4661SOL    HW116300   0.774   9.414   3.056  0.1631  1.3590 -3.0369
 4661SOL    HW216301   0.634   9.383   3.007 -0.8125 -1.9234  1.2726
 4662SOL     OW16302  10.432   2.818   0.384 -0.0427  0.8634  0.4167
 4662SOL    HW116303  10.496   2.889   0.394  0.8834  0.2795 -1.0548
 4662SOL    HW216304  10.377   2.846   0.311 -2.6629  2.1579  2.7076
 4663SOL     OW16305   2.907   5.854   5.756  0.2496  0.6243  0.0470
 4663SOL    HW116306   2.910   5.862   5.661  2.1925  1.9825  0.1793
 4663SOL    HW216307   2.967   5.922   5.788 -0.4241  0.2536  2.2483
 4664SOL     OW16308   0.218   1.051   7.392  0.2418 -0.7757  0.5525
 4664SOL    HW116309   0.251   1.133   7.356  0.5092 -1.5562 -1.1060
 4664SOL    HW216310   0.240   0.985   7.325 -0.2900 -2.1334  1.6588
 4665SOL     OW16311   3.544   0.493   9.434  0.2113  0.0864  0.0091
 4665SOL    HW116312   3.558   0.456   9.522 -1.6400  0.1065  0.3419
 4665SOL    HW216313   3.631   0.525   9.409  1.4688 -2.5641  0.5589
 4666SOL     OW16314   4.340   3.426  10.004 -0.4798  0.7143  0.1807
 4666SOL    HW116315   4.312   3.391   9.919  0.8998 -3.0503  1.0739
 4666SOL    HW216316   4.260   3.428  10.057 -0.6249 -1.6470  0.1551
 4667SOL     OW16317   0.068   6.970   1.252  0.3736 -0.4058 -0.1102
 4667SOL    HW116318   0.040   7.045   1.304  2.0490 -0.5430  1.0910
 4667SOL    HW216319   0.008   6.899   1.277 -2.0552  0.7528 -2.2189
 4668SOL     OW16320   2.226   1.493  10.483 -0.3961 -0.0853 -0.0387
 4668SOL    HW116321   2.195   1.540  10.406  0.1515 -0.9835 -0.8234
 4668SOL    HW216322   2.176   1.411  10.483 -0.8203  0.1581  0.9095
 4669SOL     OW16323   1.778   4.543   0.364 -0.3046 -0.5346  0.6759
 4669SOL    HW116324   1.718   4.588   0.424 -0.8148 -0.6134  0.2391
 4669SOL    HW216325   1.785   4.455   0.399  0.0886 -0.3366  1.1039
 4670SOL     OW16326   2.724   5.695  10.536 -0.3980  0.0167  0.3328
 4670SOL    HW116327   2.761   5.639  10.604 -0.6937  0.1134  0.5727
 4670SOL    HW216328   2.760   5.781  10.553  0.6985 -0.2509 -0.5178
 4671SOL     OW16329   2.949   9.670   4.379  0.2071  0.5104 -0.1935
 4671SOL    HW116330   2.932   9.637   4.467 -0.1675 -0.0772 -0.4767
 4671SOL    HW216331   3.043   9.658   4.365  0.8228  3.1081  1.1230
 4672SOL     OW16332   6.043   8.052   6.550 -0.0812 -0.1706  0.3572
 4672SOL    HW116333   6.133   8.072   6.522 -0.9190  3.8610 -0.0203
 4672SOL    HW216334   5.993   8.051   6.469 -0.7706  0.1443  0.7770
 4673SOL     OW16335   3.530   2.473   5.895  0.8750 -0.5051  0.1722
 4673SOL    HW116336   3.448   2.505   5.857  0.4217  0.2734  1.7591
 4673SOL    HW216337   3.566   2.416   5.827 -0.1266  0.4710 -1.2413
 4674SOL     OW16338   8.543   3.097   9.511 -0.8445  0.3461 -0.2430
 4674SOL    HW116339   8.561   3.191   9.506  0.8523  0.0038 -1.6068
 4674SOL    HW216340   8.528   3.080   9.604 -1.0556  1.9293  0.0433
 4675SOL     OW16341   8.841   5.748   7.964  0.2745  0.0465  0.2694
 4675SOL    HW116342   8.886   5.667   7.940 -0.7031 -0.4607  0.1332
 4675SOL    HW216343   8.803   5.780   7.883  1.2745  1.0678  0.1617
 4676SOL     OW16344   4.269   1.503   5.427 -0.2018 -0.1957  0.2316
 4676SOL    HW116345   4.178   1.514   5.397 -0.8157 -1.6305  1.4103
 4676SOL    HW216346   4.314   1.464   5.352 -0.6800  0.0878 -0.2078
 4677SOL     OW16347   1.571   5.914   1.699  0.3152  0.0730  0.2017
 4677SOL    HW116348   1.491   5.864   1.713  0.3327 -0.0854 -0.2776
 4677SOL    HW216349   1.630   5.854   1.653  0.7932  0.1132  0.7409
 4678SOL     OW16350   0.721   8.778   5.341 -0.0912  0.1469 -0.4675
 4678SOL    HW116351   0.647   8.771   5.281  0.5100  0.1202 -1.2123
 4678SOL    HW216352   0.723   8.693   5.387 -0.0720 -0.1315 -0.9756
 4679SOL     OW16353   5.590   1.980   9.877 -0.2550 -0.4699 -0.0360
 4679SOL    HW116354   5.503   1.953   9.908 -0.1034 -0.5198  0.3598
 4679SOL    HW216355   5.573   2.032   9.799 -0.6878  0.1157  0.4339
 4680SOL     OW16356   3.470   4.056   9.887 -0.2989  0.2558  0.2613
 4680SOL    HW116357   3.538   4.030   9.825 -1.3170 -2.4895  0.1767
 4680SOL    HW216358   3.389   4.021   9.851 -1.2935  0.6792  1.9470
 4681SOL     OW16359   1.302   8.690   0.788 -0.5760  0.0799  0.8063
 4681SOL    HW116360   1.395   8.676   0.808 -0.7900 -1.1688  1.0344
 4681SOL    HW216361   1.257   8.677   0.871 -0.9053  1.4019  0.8469
 4682SOL     OW16362   2.661   9.642   5.295 -0.7764  0.5326  0.6434
 4682SOL    HW116363   2.609   9.715   5.329 -0.5612  0.3091  1.4716
 4682SOL    HW216364   2.633   9.567   5.346 -0.5163  0.1663  0.2528
 4683SOL     OW16365   3.084   1.198   2.536 -0.1985  0.0243 -0.4513
 4683SOL    HW116366   3.001   1.161   2.565  0.2079 -0.6105 -0.0766
 4683SOL    HW216367   3.061   1.252   2.460 -1.1074  0.7927  0.3464
 4684SOL     OW16368   2.888   5.551   2.415 -0.2456 -0.1588 -0.1732
 4684SOL    HW116369   2.944   5.548   2.492 -0.7106  1.4517  0.2773
 4684SOL    HW216370   2.866   5.460   2.397  1.1012 -0.6875  0.6694
 4685SOL     OW16371   8.311   1.380   1.999 -0.1805 -0.0804 -0.1047
 4685SOL    HW116372   8.287   1.419   1.915 -0.6880  0.5706  0.3343
 4685SOL    HW216373   8.244   1.314   2.016  0.2218 -0.5877 -0.4573
 4686SOL     OW16374   7.906   5.148   7.575 -0.0860 -0.5065 -0.6988
 4686SOL    HW116375   7.995   5.182   7.581  0.3547 -1.4437 -1.7782
 4686SOL    HW216376   7.879   5.136   7.667 -0.3748  2.9148 -0.2051
 4687SOL     OW16377   4.614   9.216  10.024  0.2762 -0.0598 -0.2552
 4687SOL    HW116378   4.705   9.230  10.052  0.3138 -0.6574 -0.0588
 4687SOL    HW216379   4.620   9.206   9.929  0.6214 -1.5714 -0.0975
 4688SOL     OW16380   7.896   4.932  10.077  0.2049  0.0364  0.4359
 4688SOL    HW116381   7.853   4.887  10.149 -0.7939  1.2671  0.6492
 4688SOL    HW216382   7.981   4.958  10.113  0.1311 -0.2522  0.8291
 4689SOL     OW16383   1.954   8.213   4.359 -0.0591 -0.0613 -0.0699
 4689SOL    HW116384   1.936   8.301   4.392 -0.3196  0.2786 -1.0835
 4689SOL    HW216385   1.876   8.190   4.308  0.4277 -0.4660 -0.6471
 4690SOL     OW16386   6.772   1.681   2.242 -0.1868  0.1778 -0.6840
 4690SOL    HW116387   6.700   1.624   2.270  0.4849 -0.3156  0.0593
 4690SOL    HW216388   6.784   1.742   2.314 -0.7923  1.1892 -1.4070
 4691SOL     OW16389   1.158   8.226   3.318 -0.2443 -0.9705  0.0627
 4691SOL    HW116390   1.159   8.184   3.232  1.6354  0.2250 -0.5699
 4691SOL    HW216391   1.199   8.161   3.376 -1.7169 -1.8692  0.1607
 4692SOL     OW16392   9.895   3.906   9.367 -0.3878  0.3302 -0.0151
 4692SOL    HW116393   9.830   3.871   9.306 -1.4265  0.1781  1.1435
 4692SOL    HW216394   9.938   3.829   9.403  0.0588  0.4115 -0.3626
 4693SOL     OW16395   0.969   0.673   2.092 -0.1468 -0.2470  0.3019
 4693SOL    HW116396   0.915   0.697   2.017 -2.8377  2.8262  2.8976
 4693SOL    HW216397   0.962   0.578   2.098 -1.2405 -0.3944 -2.3137
 4694SOL     OW16398   8.741   2.464   9.077  0.2206 -0.1667 -0.3343
 4694SOL    HW116399   8.660   2.511   9.058 -0.5592 -1.5636 -0.6356
 4694SOL    HW216400   8.789   2.464   8.994 -0.1094 -0.4899 -0.5314
 4695SOL     OW16401   1.885   3.393   3.575  0.1382  0.1810 -0.0371
 4695SOL    HW116402   1.941   3.409   3.651 -0.2140 -0.0551  0.2776
 4695SOL    HW216403   1.925   3.444   3.504  1.1223 -0.4896  0.0135
 4696SOL     OW16404   2.042   7.788   1.973 -0.6419 -0.3362  0.1878
 4696SOL    HW116405   2.118   7.756   1.924 -0.7069  0.4231 -0.4397
 4696SOL    HW216406   2.078   7.815   2.058 -0.2790 -0.3496  0.0397
 4697SOL     OW16407   2.426   7.820   4.321  0.0732 -0.1214 -0.0639
 4697SOL    HW116408   2.506   7.808   4.374  0.1742 -0.7061 -0.3477
 4697SOL    HW216409   2.363   7.759   4.359 -0.7448  1.4173  1.1412
 4698SOL     OW16410   8.891   3.235   7.135 -0.1284  0.4594 -0.1355
 4698SOL    HW116411   8.814   3.291   7.148  0.1923  1.1256 -1.0093
 4698SOL    HW216412   8.957   3.271   7.193 -0.3015  0.2275  0.2082
 4699SOL     OW16413   1.233   3.287   4.259 -0.4005  0.4183 -0.1302
 4699SOL    HW116414   1.168   3.354   4.238 -0.5408  1.0786  2.1139
 4699SOL    HW216415   1.185   3.223   4.313  0.6324  0.5675  1.0010
 4700SOL     OW16416   3.532   2.039   5.295 -0.1047  0.0440  0.7970
 4700SOL    HW116417   3.594   1.978   5.256 -0.9074 -0.6026  0.5095
 4700SOL    HW216418   3.454   2.034   5.240  0.1317  2.0431  0.1952
 4701SOL     OW16419   7.435  10.421   4.449  0.6338  0.2864  0.1185
 4701SOL    HW116420   7.459  10.514   4.452  0.1596  0.4018  0.4403
 4701SOL    HW216421   7.489  10.385   4.379  1.3026  0.6661  0.4237
 4702SOL     OW16422   9.549   7.220   8.011  0.1195 -0.2968  0.3419
 4702SOL    HW116423   9.570   7.142   8.063 -0.3628 -0.1590  0.7542
 4702SOL    HW216424   9.624   7.231   7.953  0.3621 -0.8517  0.5403
 4703SOL     OW16425   2.221   2.737   2.516  0.0609 -0.8342 -0.0157
 4703SOL    HW116426   2.223   2.786   2.434  1.8084 -1.4440 -0.3864
 4703SOL    HW216427   2.187   2.651   2.491  0.4967 -0.9862 -0.1126
 4704SOL     OW16428   3.227   1.929   2.909 -0.3511  0.3995 -0.3867
 4704SOL    HW116429   3.212   1.834   2.909 -0.4211  0.4032 -1.5312
 4704SOL    HW216430   3.290   1.943   2.979  0.9856 -0.7241 -1.3178
 4705SOL     OW16431   2.166   2.276   9.699  0.2773 -0.0096 -0.0604
 4705SOL    HW116432   2.199   2.334   9.768  1.7008 -0.3070 -0.4702
 4705SOL    HW216433   2.126   2.335   9.635  0.0844  0.3682  0.3990
 4706SOL     OW16434   0.454   5.109   0.082 -0.2028 -0.3093 -0.0903
 4706SOL    HW116435   0.416   5.105   0.170  1.3058  1.7060  0.7220
 4706SOL    HW216436   0.407   5.181   0.040  0.1017 -0.3111 -0.4315
 4707SOL     OW16437   5.964   1.261   6.124 -0.4693  0.2183 -0.0436
 4707SOL    HW116438   6.053   1.267   6.158  0.1353 -0.0729 -1.4786
 4707SOL    HW216439   5.908   1.276   6.200  0.7994  1.4373  0.6955
 4708SOL     OW16440   6.583   4.299   1.324  0.1222 -0.5243  0.2943
 4708SOL    HW116441   6.608   4.303   1.416 -1.0231  2.2338  0.5671
 4708SOL    HW216442   6.642   4.234   1.286  0.6332 -1.7364  2.9390
 4709SOL     OW16443   6.279   8.493   6.798 -0.1687  0.3590 -0.8648
 4709SOL    HW116444   6.333   8.501   6.720  2.1708  1.0022  0.7292
 4709SOL    HW216445   6.291   8.402   6.827  0.2924  0.5738 -0.3653
 4710SOL     OW16446   4.390   8.018   3.904  0.2057  0.0978  0.1901
 4710SOL    HW116447   4.361   8.029   3.994 -0.6038 -0.2217 -0.0202
 4710SOL    HW216448   4.327   8.070   3.852  2.4991  2.9628  0.0160
 4711SOL     OW16449   7.366  10.562   9.173 -0.1666 -0.8148  0.4156
 4711SOL    HW116450   7.411  10.560   9.257 -0.5383  1.7868  0.7831
 4711SOL    HW216451   7.434  10.582   9.109 -0.1649 -0.9255  0.3834
 4712SOL     OW16452   8.544   2.347   3.197 -0.1233  0.1112 -0.5055
 4712SOL    HW116453   8.498   2.403   3.259  0.7202  1.3045 -0.9001
 4712SOL    HW216454   8.535   2.258   3.231 -2.0471  0.4003 -0.1926
 4713SOL     OW16455   2.447   9.641   7.373  0.3924 -0.1423 -0.6946
 4713SOL    HW116456   2.465   9.735   7.375  1.3113 -0.2792  1.8626
 4713SOL    HW216457   2.506   9.606   7.306  1.0380  0.9385 -0.7078
 4714SOL     OW16458   7.574   0.779   2.391 -0.0751  0.3095  0.0460
 4714SOL    HW116459   7.485   0.780   2.358  0.5416  0.7947 -1.7513
 4714SOL    HW216460   7.580   0.698   2.442 -1.0125 -0.7336 -1.4079
 4715SOL     OW16461   4.834   1.131   7.814 -0.5706 -0.7059 -0.0584
 4715SOL    HW116462   4.743   1.159   7.806 -0.5829 -0.6164  0.3560
 4715SOL    HW216463   4.828   1.037   7.830 -0.5967 -0.6748  0.1159
 4716SOL     OW16464   1.998   2.878   5.434  0.0840  0.5786 -0.1832
 4716SOL    HW116465   2.053   2.844   5.504 -1.0537  0.4891  0.6962
 4716SOL    HW216466   2.014   2.820   5.360  0.6696  0.1604  0.2612
 4717SOL     OW16467   4.104   4.973   8.228  0.6368  0.1236  0.1695
 4717SOL    HW116468   4.057   4.944   8.306  1.6723 -0.8942  0.4597
 4717SOL    HW216469   4.043   5.030   8.182 -0.1611  0.3717  1.4880
 4718SOL     OW16470   3.325   1.146   6.036 -0.3678 -0.2016 -0.3605
 4718SOL    HW116471   3.242   1.169   5.994 -1.2421  0.1833  1.4641
 4718SOL    HW216472   3.326   1.050   6.036 -1.0510 -0.2140  0.0209
 4719SOL     OW16473   5.243   1.190   4.794  0.0358 -0.2925  0.3033
 4719SOL    HW116474   5.246   1.111   4.740 -0.1822 -0.0051 -0.1464
 4719SOL    HW216475   5.329   1.195   4.835  1.0060  0.6072 -1.6827
 4720SOL     OW16476   6.399   5.757  10.020  0.5116 -0.4597  0.6035
 4720SOL    HW116477   6.391   5.766  10.115  1.1568 -1.3206  0.7488
 4720SOL    HW216478   6.411   5.847   9.988 -0.2262 -0.1088  1.2760
 4721SOL     OW16479   0.450   9.391   3.023 -0.3365  0.4223  0.0039
 4721SOL    HW116480   0.472   9.364   3.112 -1.1527  1.3513  0.5030
 4721SOL    HW216481   0.359   9.364   3.012  0.1589 -0.9119 -1.0511
 4722SOL     OW16482   7.983   3.166   9.210  0.0977 -0.0266  0.2839
 4722SOL    HW116483   7.991   3.092   9.271 -0.0023 -0.3702 -0.1202
 4722SOL    HW216484   8.073   3.191   9.190  0.1339 -0.5072 -0.1502
 4723SOL     OW16485   9.488   9.985   8.488 -0.5485 -0.1176 -0.3813
 4723SOL    HW116486   9.493  10.081   8.498  0.6058 -0.2773  0.9491
 4723SOL    HW216487   9.550   9.966   8.418  1.1423 -0.0561  1.0135
 4724SOL     OW16488   0.024   1.009   4.682  0.7802 -0.4175  0.1855
 4724SOL    HW116489   0.013   1.099   4.715  0.9108 -0.4808  0.4037
 4724SOL    HW216490   0.097   1.015   4.621 -0.1690 -0.0763 -0.9599
 4725SOL     OW16491   9.168   6.544  10.293  0.2942  0.2675 -0.0395
 4725SOL    HW116492   9.251   6.497  10.294  0.2325  0.1641  0.1985
 4725SOL    HW216493   9.104   6.481  10.328  0.5237  1.1285  2.0440
 4726SOL     OW16494   7.313   8.129   5.547 -0.4356  0.0721  0.3355
 4726SOL    HW116495   7.327   8.206   5.603  1.2627 -0.3002  0.4751
 4726SOL    HW216496   7.219   8.130   5.529 -0.6948  1.3515  1.5300
 4727SOL     OW16497   7.649   9.431   9.545 -0.6729  0.3440 -0.3202
 4727SOL    HW116498   7.586   9.459   9.479  0.7305  2.0242 -1.0261
 4727SOL    HW216499   7.722   9.493   9.538  2.0083 -2.5716 -0.9172
 4728SOL     OW16500   1.296   3.273   5.463  0.2187 -0.0105  0.3761
 4728SOL    HW116501   1.272   3.212   5.393 -0.8102 -0.2547  0.9100
 4728SOL    HW216502   1.289   3.360   5.422 -0.9794 -0.1171  0.3207
 4729SOL     OW16503   5.747   4.588   2.380 -0.0646  0.0378 -0.2050
 4729SOL    HW116504   5.762   4.637   2.461 -0.1010 -2.1856  1.2374
 4729SOL    HW216505   5.801   4.632   2.315 -1.2834  2.8936  0.5588
 4730SOL     OW16506   5.817   9.731   8.613 -0.7336  0.2047  0.0787
 4730SOL    HW116507   5.785   9.816   8.585 -0.2424  0.2498 -0.3636
 4730SOL    HW216508   5.864   9.749   8.694 -1.4251  0.2048  0.4899
 4731SOL     OW16509   6.815   2.138   2.607  0.1292  0.1943 -0.0597
 4731SOL    HW116510   6.797   2.098   2.692  1.9183 -0.3137  0.1152
 4731SOL    HW216511   6.750   2.208   2.599 -1.3178 -0.9863  0.8466
 4732SOL     OW16512   6.956   7.880   1.589 -0.1138 -0.7408 -0.4907
 4732SOL    HW116513   6.933   7.968   1.558  2.8837  0.3667  0.1094
 4732SOL    HW216514   6.913   7.873   1.674  0.6918  0.7374  0.0777
 4733SOL     OW16515   2.594   4.751   4.952  0.4984 -0.2028  0.1206
 4733SOL    HW116516   2.525   4.737   4.887 -0.2630 -1.3219  1.1258
 4733SOL    HW216517   2.653   4.676   4.941 -0.5553 -1.3506  1.7958
 4734SOL     OW16518   4.196   8.132   1.691 -0.3150  0.4123 -0.3111
 4734SOL    HW116519   4.139   8.179   1.630 -0.5761  0.0345 -0.3649
 4734SOL    HW216520   4.211   8.193   1.763 -1.4915  0.2224  0.1229
 4735SOL     OW16521   5.437   3.793   2.047 -0.3529 -0.3657  0.5815
 4735SOL    HW116522   5.458   3.886   2.049 -0.5439 -0.2860 -0.4792
 4735SOL    HW216523   5.500   3.752   2.107 -1.1419  0.5890  2.1405
 4736SOL     OW16524   4.131   1.975   9.108 -0.2183  0.0576 -0.1113
 4736SOL    HW116525   4.131   2.027   9.028 -0.1306  0.8392  0.3870
 4736SOL    HW216526   4.178   1.895   9.085  0.1290  0.4361 -0.7403
 4737SOL     OW16527   6.473   2.878   9.512  0.2391  0.0254 -0.5404
 4737SOL    HW116528   6.526   2.957   9.505 -1.0010  0.8358 -1.2846
 4737SOL    HW216529   6.423   2.875   9.430 -2.0529  0.2268  0.7472
 4738SOL     OW16530   8.735   7.728   0.918  0.2820 -0.1676 -0.2945
 4738SOL    HW116531   8.797   7.750   0.849 -1.0452  1.7097 -0.9715
 4738SOL    HW216532   8.650   7.724   0.874 -0.6733  1.5665  1.2469
 4739SOL     OW16533   0.104  10.379   4.003  0.2196  0.5538 -0.6652
 4739SOL    HW116534   0.087  10.292   4.039 -0.8101  0.7952 -0.5327
 4739SOL    HW216535   0.049  10.384   3.925 -0.8039  1.5834  0.0861
 4740SOL     OW16536  10.583   3.669   2.889 -0.4754 -0.7712 -0.0846
 4740SOL    HW116537  10.532   3.657   2.810 -1.3615 -1.6936  0.6020
 4740SOL    HW216538  10.531   3.627   2.958  0.4447 -0.3146  0.9181
 4741SOL     OW16539   4.209   1.599   8.893  0.3021  0.3401 -0.1744
 4741SOL    HW116540   4.255   1.637   8.968 -0.1362 -1.8749  1.3068
 4741SOL    HW216541   4.253   1.515   8.878  0.0411  0.4992 -2.1201
 4742SOL     OW16542   2.347   2.530   3.349 -0.5150 -0.0175 -0.2411
 4742SOL    HW116543   2.358   2.436   3.339  2.8201  0.1565  0.8931
 4742SOL    HW216544   2.341   2.545   3.443  0.8891  1.0110 -0.2796
 4743SOL     OW16545   0.777   0.106   0.881 -0.3001  0.6216  0.6220
 4743SOL    HW116546   0.698   0.064   0.915 -1.0132  2.0776  0.8699
 4743SOL    HW216547   0.744   0.172   0.820  0.8188  0.2272 -0.4373
 4744SOL     OW16548   2.759   3.080   6.298 -0.8121  0.4843  0.0498
 4744SOL    HW116549   2.797   3.000   6.334  1.2082  1.3490 -0.0259
 4744SOL    HW216550   2.835   3.135   6.277 -2.0255  1.3836 -2.3477
 4745SOL     OW16551   8.931   6.757   5.025  0.2230 -0.3321  0.0282
 4745SOL    HW116552   8.894   6.690   4.967 -0.2595  1.8854 -2.4078
 4745SOL    HW216553   8.858   6.816   5.042  1.3259  1.1988 -0.4161
 4746SOL     OW16554   1.658   2.427   5.998  0.4215  0.0719  0.5791
 4746SOL    HW116555   1.655   2.338   6.032  1.1264  0.2106  1.0216
 4746SOL    HW216556   1.701   2.420   5.913  0.9179  0.0436  0.8266
 4747SOL     OW16557   7.603   3.350  10.196 -0.4176  0.3815  0.4828
 4747SOL    HW116558   7.536   3.291  10.229 -1.4640  0.8902 -0.6600
 4747SOL    HW216559   7.675   3.293  10.168  0.4893 -0.0818  3.4053
 4748SOL     OW16560   6.176   9.350   4.899  0.2065  0.1771 -0.1500
 4748SOL    HW116561   6.235   9.311   4.963 -1.0221 -0.6592  0.5229
 4748SOL    HW216562   6.190   9.299   4.819  0.3706 -0.0476  0.0201
 4749SOL     OW16563   9.107   3.170   2.013  0.0189 -0.0855 -0.3314
 4749SOL    HW116564   9.026   3.210   2.045  0.1575 -1.0942  1.4119
 4749SOL    HW216565   9.079   3.103   1.952 -0.4914 -0.5508  0.4029
 4750SOL     OW16566   4.394   3.383   4.128  0.4684 -0.0398 -0.0443
 4750SOL    HW116567   4.356   3.441   4.194  0.4207  0.7383 -0.7552
 4750SOL    HW216568   4.485   3.412   4.121  0.5883 -0.4045 -0.0127
 4751SOL     OW16569   5.799   2.147   2.418  0.0064 -0.4871 -0.3620
 4751SOL    HW116570   5.813   2.064   2.372 -0.2988 -0.3666 -0.6752
 4751SOL    HW216571   5.789   2.212   2.348  1.0828 -0.0421 -0.1195
 4752SOL     OW16572   3.141   4.926   8.176  0.4066  0.3402  0.1666
 4752SOL    HW116573   3.164   4.861   8.109  0.0828 -0.1925  0.5578
 4752SOL    HW216574   3.046   4.919   8.183  0.4057  0.6402  0.4358
 4753SOL     OW16575   8.019   3.919   5.395  0.3385  0.0605  0.2246
 4753SOL    HW116576   7.953   3.988   5.393  0.7139  0.4750  1.1941
 4753SOL    HW216577   8.082   3.944   5.327 -0.3402 -0.1773 -0.4977
 4754SOL     OW16578   6.710   1.998   9.139  0.2324  1.2669 -0.3471
 4754SOL    HW116579   6.704   2.035   9.051 -0.8867  0.2119 -0.7380
 4754SOL    HW216580   6.636   2.035   9.186 -2.1057 -1.8166 -1.3154
 4755SOL     OW16581   8.927   3.300   9.189 -0.1215  0.0745 -0.0489
 4755SOL    HW116582   8.864   3.228   9.196  0.4422 -0.3570  0.7164
 4755SOL    HW216583   8.989   3.270   9.122  1.2787 -1.0960  1.6768
 4756SOL     OW16584   1.394   6.853   5.328 -0.5015  0.6495  0.0578
 4756SOL    HW116585   1.442   6.825   5.250  0.0399  0.7590  0.3459
 4756SOL    HW216586   1.426   6.796   5.398 -1.5362  0.0536  0.0540
 4757SOL     OW16587   3.339   8.759   3.809  0.0886 -0.3937  0.6913
 4757SOL    HW116588   3.395   8.715   3.746  0.6343 -0.9500  1.5440
 4757SOL    HW216589   3.276   8.692   3.836  0.3148 -0.3800  1.2744
 4758SOL     OW16590   4.616   6.007   6.438  0.0353 -0.2315  0.4821
 4758SOL    HW116591   4.692   6.011   6.379 -1.0391  1.0778 -0.9140
 4758SOL    HW216592   4.559   5.940   6.399 -0.5554  0.4509  0.1238
 4759SOL     OW16593   8.611   3.075   6.052 -0.2830  0.2015  0.2432
 4759SOL    HW116594   8.690   3.086   5.999 -1.1331 -0.0764 -1.1336
 4759SOL    HW216595   8.583   3.165   6.071  0.3825  0.3005  0.7841
 4760SOL     OW16596   6.852   2.263   9.901  0.0005  0.0617 -0.1347
 4760SOL    HW116597   6.849   2.353   9.870  1.6503  0.7342  1.5112
 4760SOL    HW216598   6.944   2.237   9.892 -0.2275 -1.0352  0.5242
 4761SOL     OW16599   7.653  10.411   3.795 -0.7117 -0.9751 -0.2115
 4761SOL    HW116600   7.609  10.490   3.827 -0.0893 -0.4515 -0.6245
 4761SOL    HW216601   7.737  10.409   3.841 -0.3687 -0.9291 -0.8205
 4762SOL     OW16602   1.405   3.460   1.021  0.1145 -0.2298 -0.1567
 4762SOL    HW116603   1.489   3.454   1.066  0.1293 -0.2580 -0.1879
 4762SOL    HW216604   1.401   3.549   0.987  1.0390 -0.8363 -1.9398
 4763SOL     OW16605   5.505   7.943   0.160  0.2257  0.4967 -0.1900
 4763SOL    HW116606   5.438   8.012   0.161 -0.5723 -0.1266  3.3086
 4763SOL    HW216607   5.582   7.984   0.200 -0.1230 -0.4113  1.5287
 4764SOL     OW16608   5.873   1.741   0.618  0.1981 -0.1616 -0.4470
 4764SOL    HW116609   5.853   1.649   0.599  0.0415 -0.0439 -0.8925
 4764SOL    HW216610   5.812   1.789   0.562  0.2323  0.2119 -0.1619
 4765SOL     OW16611   8.420   7.490   4.617  0.1694 -0.1004 -0.1409
 4765SOL    HW116612   8.381   7.477   4.531  0.3107 -0.7392 -0.1095
 4765SOL    HW216613   8.508   7.454   4.610  1.9575  3.8813 -1.0897
 4766SOL     OW16614   4.050   8.382   8.438 -0.4172 -0.2516 -0.8399
 4766SOL    HW116615   4.057   8.289   8.415  0.5816 -0.8673  1.6238
 4766SOL    HW216616   3.958   8.394   8.462 -0.7102 -0.3830 -1.8233
 4767SOL     OW16617   9.872   7.123   4.441  0.0137 -0.4330 -0.3265
 4767SOL    HW116618   9.842   7.163   4.360  0.1906  2.1567  0.7617
 4767SOL    HW216619   9.959   7.089   4.421 -0.5709 -1.2441 -1.5822
 4768SOL     OW16620   1.078   7.829   4.999  0.1260  0.4596 -0.2801
 4768SOL    HW116621   1.122   7.790   5.074  1.0294  0.5152 -0.7644
 4768SOL    HW216622   1.129   7.907   4.979 -1.6580  1.9562  0.6825
 4769SOL     OW16623   5.446   6.049   1.622 -0.5170 -0.4788 -0.3177
 4769SOL    HW116624   5.540   6.038   1.637 -0.8506 -4.1360 -0.0032
 4769SOL    HW216625   5.409   6.065   1.708 -0.4509 -2.2594  0.0741
 4770SOL     OW16626   8.007   0.477   1.991 -0.1463 -0.0135 -0.0015
 4770SOL    HW116627   7.931   0.534   1.983  0.9483  1.2322 -2.2004
 4770SOL    HW216628   8.006   0.423   1.912  0.2486 -1.3531  0.8578
 4771SOL     OW16629   8.139   5.719   5.621  0.1999 -0.1361  1.2629
 4771SOL    HW116630   8.197   5.752   5.554  0.2415  2.0594  2.2945
 4771SOL    HW216631   8.063   5.777   5.619 -1.0995 -1.7314  1.2790
 4772SOL     OW16632   6.894   0.432   3.529 -0.1380  0.7449  0.0812
 4772SOL    HW116633   6.964   0.488   3.493  0.0013  1.2464  1.1130
 4772SOL    HW216634   6.824   0.493   3.552 -1.2608  0.1770 -1.6329
 4773SOL     OW16635   8.145   9.767  10.208 -0.1397  0.4315  0.2424
 4773SOL    HW116636   8.109   9.847  10.170 -0.9636 -0.6105 -1.2895
 4773SOL    HW216637   8.239   9.773  10.194  0.0409  1.9308  1.7987
 4774SOL     OW16638   1.198   2.249   0.592  0.0005 -0.1261 -0.1055
 4774SOL    HW116639   1.148   2.169   0.610 -1.0562 -0.2709 -3.1153
 4774SOL    HW216640   1.272   2.245   0.652  0.8343 -4.1906 -1.1335
 4775SOL     OW16641   2.266   1.509   0.495  0.3844  0.0992  0.3255
 4775SOL    HW116642   2.326   1.507   0.420 -0.9592  2.1774 -0.9341
 4775SOL    HW216643   2.212   1.431   0.485 -0.6963  1.0156 -1.8062
 4776SOL     OW16644   7.452   8.637  10.396 -0.2530  0.4376 -1.1162
 4776SOL    HW116645   7.525   8.699  10.390  0.1344  0.3324  1.3700
 4776SOL    HW216646   7.376   8.692  10.415 -0.7207  0.4668 -2.8940
 4777SOL     OW16647   0.867   4.358   0.989 -0.2818  0.7774  0.0632
 4777SOL    HW116648   0.875   4.347   0.894 -0.2590 -0.4576  0.1942
 4777SOL    HW216649   0.853   4.452   1.001  0.1340  1.0060 -1.1310
 4778SOL     OW16650   0.928   5.402   0.795 -0.4597  0.1358 -0.2351
 4778SOL    HW116651   0.996   5.452   0.749 -0.6597  0.8305  0.2191
 4778SOL    HW216652   0.859   5.390   0.730 -1.9699  3.4599  0.5320
 4779SOL     OW16653   8.005   8.895   3.184  0.3044  0.3888  0.4354
 4779SOL    HW116654   7.920   8.852   3.187  0.5036 -0.2259 -1.3780
 4779SOL    HW216655   8.016   8.933   3.272 -1.7817  0.4361  0.7312
 4780SOL     OW16656   3.638   1.030   7.568 -0.2616  0.1314 -0.2156
 4780SOL    HW116657   3.660   1.096   7.502 -2.4612  0.4399 -0.7112
 4780SOL    HW216658   3.618   0.951   7.518 -0.2792 -0.1337  0.2023
 4781SOL     OW16659   1.196   8.057   5.116  0.7939  0.1739 -0.5301
 4781SOL    HW116660   1.176   8.150   5.129 -0.4564 -0.0548 -0.7082
 4781SOL    HW216661   1.275   8.057   5.061  1.2275  1.1192  0.0656
 4782SOL     OW16662   7.826   1.602   6.829 -0.1082 -0.4358  0.2413
 4782SOL    HW116663   7.868   1.667   6.773  0.4036  0.4290  1.5635
 4782SOL    HW216664   7.880   1.523   6.820  1.2866  0.3643  1.1613
 4783SOL     OW16665   3.542   6.796   8.501 -0.2765 -0.1980  0.2361
 4783SOL    HW116666   3.595   6.717   8.509 -0.0934 -0.1535 -0.5113
 4783SOL    HW216667   3.455   6.769   8.530 -0.1812 -0.6389  0.1156
 4784SOL     OW16668   7.979   9.555   8.562  0.2502  0.4665 -0.0542
 4784SOL    HW116669   7.951   9.553   8.654  1.2379 -1.3169  0.2499
 4784SOL    HW216670   8.063   9.509   8.561 -0.5333 -1.0817 -2.0979
 4785SOL     OW16671   9.558   1.759   0.774 -0.0886 -0.6420 -0.0905
 4785SOL    HW116672   9.585   1.792   0.860 -1.6984 -0.8354  0.5351
 4785SOL    HW216673   9.473   1.800   0.759 -0.5185 -1.7863 -0.9134
 4786SOL     OW16674   1.367   1.979  10.154 -0.0679 -0.6820 -0.2226
 4786SOL    HW116675   1.362   2.074  10.159  1.3964 -0.4995 -1.4858
 4786SOL    HW216676   1.449   1.956  10.198  0.2117 -1.2184 -0.9884
 4787SOL     OW16677  10.197   5.625   8.073  0.0395  0.1869 -0.2245
 4787SOL    HW116678  10.174   5.657   8.160 -1.0345 -1.6991  0.2313
 4787SOL    HW216679  10.269   5.682   8.045  0.5638  0.6841  1.9675
 4788SOL     OW16680   0.326   8.755   4.003  0.3291 -0.3752  0.0810
 4788SOL    HW116681   0.383   8.774   4.077 -0.2013 -0.4028  0.5074
 4788SOL    HW216682   0.279   8.675   4.029  2.5486 -2.3846 -1.7012
 4789SOL     OW16683   5.406   6.427   6.431  0.5179  0.5738 -0.3270
 4789SOL    HW116684   5.314   6.445   6.416  0.1465  2.3283  2.9845
 4789SOL    HW216685   5.407   6.342   6.475  0.0152  1.7421  2.1784
 4790SOL     OW16686   8.289   3.833   4.634 -0.0757 -0.0199 -0.2624
 4790SOL    HW116687   8.232   3.756   4.637 -1.3737  0.9200  0.8297
 4790SOL    HW216688   8.314   3.848   4.725  0.0860  0.8893 -0.4433
 4791SOL     OW16689   7.001   8.243   3.800  0.0096  0.1952 -0.0065
 4791SOL    HW116690   6.986   8.169   3.741  2.2704  0.6500 -1.2608
 4791SOL    HW216691   6.993   8.206   3.888  0.4687 -1.4200 -0.6102
 4792SOL     OW16692   1.239   8.650   1.055 -0.3071 -0.2353 -0.0918
 4792SOL    HW116693   1.237   8.606   1.139 -1.3961 -0.6952 -0.3441
 4792SOL    HW216694   1.161   8.705   1.054  0.1056  0.3663 -0.4913
 4793SOL     OW16695   2.266   6.634   5.997 -0.5291  0.0781  0.2901
 4793SOL    HW116696   2.293   6.720   6.031  0.7377 -1.6753  4.2744
 4793SOL    HW216697   2.335   6.609   5.936 -0.5958  1.5427 -0.4428
 4794SOL     OW16698   3.597   4.822   2.527  0.1802 -0.5081  0.1111
 4794SOL    HW116699   3.513   4.785   2.554  0.0329 -0.6140 -0.4785
 4794SOL    HW216700   3.661   4.780   2.585 -0.3170  0.8053  1.7176
 4795SOL     OW16701   0.065   8.486   8.056  0.6150 -0.0459  0.3790
 4795SOL    HW116702  -0.027   8.508   8.070 -0.6205  0.4662 -5.7394
 4795SOL    HW216703   0.065   8.391   8.042  0.4433  0.2165 -1.7718
 4796SOL     OW16704   7.138   1.314  10.023  0.4791 -0.1227 -0.2662
 4796SOL    HW116705   7.053   1.316  10.067  1.2803 -0.0698  1.3384
 4796SOL    HW216706   7.126   1.368   9.945 -1.0987 -0.5437 -0.3541
 4797SOL     OW16707   8.645   2.259   9.278  0.1933 -0.4544 -0.0850
 4797SOL    HW116708   8.618   2.334   9.225  0.6441 -0.3186 -0.1357
 4797SOL    HW216709   8.583   2.190   9.256  0.9387 -0.7200 -1.5604
 4798SOL     OW16710   9.187   6.366   6.155 -0.2953  0.4671 -0.1839
 4798SOL    HW116711   9.112   6.318   6.119 -1.6480  1.5523  1.0941
 4798SOL    HW216712   9.162   6.458   6.149  1.6030  0.9774 -1.1324
 4799SOL     OW16713   7.997   2.352   4.964 -0.0042 -0.1344 -0.2077
 4799SOL    HW116714   8.049   2.330   5.041 -1.9058  1.2484  1.5856
 4799SOL    HW216715   7.967   2.267   4.931  1.5079 -0.7968  0.0536
 4800SOL     OW16716   3.979   6.070   7.698 -0.7025  0.5306  0.5874
 4800SOL    HW116717   4.037   6.043   7.627  1.5483  0.8664  2.1823
 4800SOL    HW216718   4.008   6.018   7.773  0.5071  3.7108  2.5299
 4801SOL     OW16719   0.696   5.531   6.733 -0.3001  0.9950 -0.2576
 4801SOL    HW116720   0.615   5.491   6.764  0.9928 -2.5173 -0.9309
 4801SOL    HW216721   0.752   5.536   6.810  0.7196 -1.9252 -0.6854
 4802SOL     OW16722   7.982   5.023   0.974  0.0207 -0.6160 -0.0761
 4802SOL    HW116723   7.928   4.949   0.947 -0.4002 -0.1018 -0.6779
 4802SOL    HW216724   7.922   5.097   0.978  0.4493 -0.2855  0.4523
 4803SOL     OW16725   2.839   8.458   0.453  0.1076  0.2457 -0.0462
 4803SOL    HW116726   2.877   8.439   0.367  2.5679  1.3147  0.6996
 4803SOL    HW216727   2.900   8.416   0.515 -0.7167  0.8650  1.2262
 4804SOL     OW16728   3.233   2.028   9.213 -0.1007  0.3328 -0.6975
 4804SOL    HW116729   3.228   2.089   9.287 -2.1517  0.8920 -1.2304
 4804SOL    HW216730   3.281   1.952   9.247 -1.0004  0.5801  1.2034
 4805SOL     OW16731   6.499   5.648   4.403  0.8633 -0.3089  0.5422
 4805SOL    HW116732   6.422   5.616   4.449  1.3001 -1.6519  0.3941
 4805SOL    HW216733   6.506   5.592   4.326  1.0069  0.9300 -0.3784
 4806SOL     OW16734   0.207   1.756   0.946 -0.0313  0.5429  0.3212
 4806SOL    HW116735   0.237   1.793   1.029 -0.6602  0.3037  0.6694
 4806SOL    HW216736   0.222   1.662   0.955 -2.0010  0.2355  1.0399
 4807SOL     OW16737   3.471   8.066   9.758  0.4997 -0.3055 -0.1272
 4807SOL    HW116738   3.445   8.033   9.672 -1.0068  1.4749 -0.4474
 4807SOL    HW216739   3.480   8.161   9.744 -1.1446  0.2236  1.9263
 4808SOL     OW16740   7.900   4.341   7.246 -0.5203 -0.1809  0.2391
 4808SOL    HW116741   7.959   4.277   7.287  1.7577 -0.0598 -2.5025
 4808SOL    HW216742   7.835   4.288   7.200 -0.4561 -0.4316  0.4346
 4809SOL     OW16743   6.966   0.300   3.760  0.3668  0.1229 -0.0654
 4809SOL    HW116744   6.889   0.278   3.812 -0.7028  1.5385 -0.9529
 4809SOL    HW216745   6.929   0.335   3.678  1.8587  3.2774  0.4758
 4810SOL     OW16746   4.864   4.101  10.519 -0.4009 -0.6669  0.0348
 4810SOL    HW116747   4.867   4.179  10.464 -0.6966  0.2444  1.2755
 4810SOL    HW216748   4.787   4.113  10.575  0.4839 -1.0184  1.4012
 4811SOL     OW16749   6.738   0.875   1.067  0.4638 -0.5689  0.0731
 4811SOL    HW116750   6.832   0.858   1.070  0.5734 -0.1168 -0.6140
 4811SOL    HW216751   6.727   0.936   0.994 -0.3503 -0.5371  0.2154
 4812SOL     OW16752   4.248  10.587   3.250 -0.1091  0.0922 -0.3509
 4812SOL    HW116753   4.170  10.532   3.246 -0.7995  1.0623 -0.6503
 4812SOL    HW216754   4.238  10.649   3.177  0.0609  1.3488  0.6475
 4813SOL     OW16755   5.413   2.877   3.956  0.1436 -0.6043 -0.4512
 4813SOL    HW116756   5.417   2.968   3.987  2.3206 -0.0348 -2.1529
 4813SOL    HW216757   5.430   2.824   4.033  3.5728  0.6902 -0.1378
 4814SOL     OW16758   5.395   4.701   2.315  0.4080 -0.0231 -0.4374
 4814SOL    HW116759   5.431   4.788   2.299  1.0257 -0.3575 -0.9371
 4814SOL    HW216760   5.428   4.676   2.401 -1.2144  0.9359  0.5170
 4815SOL     OW16761   9.190   8.003   7.230  0.0175 -0.5910 -0.1543
 4815SOL    HW116762   9.264   8.000   7.290 -0.1561  0.0335  0.1003
 4815SOL    HW216763   9.196   7.922   7.180  1.9172  0.2551 -1.4027
 4816SOL     OW16764  10.422   3.153   4.213 -0.0163  0.3023 -0.0483
 4816SOL    HW116765  10.342   3.205   4.226  0.7428  1.5602 -0.2746
 4816SOL    HW216766  10.480   3.211   4.163  0.7979 -0.8400 -0.4618
 4817SOL     OW16767   6.685   4.165   3.773  0.2508 -0.0687 -0.6346
 4817SOL    HW116768   6.694   4.133   3.863 -1.7857 -1.3417 -0.8350
 4817SOL    HW216769   6.680   4.260   3.782 -2.0884 -0.2621  0.8732
 4818SOL     OW16770   1.454   4.755   0.892  0.4450 -0.6394 -0.0431
 4818SOL    HW116771   1.504   4.675   0.911  0.3071 -0.5083  0.9590
 4818SOL    HW216772   1.516   4.826   0.907  0.2255 -0.5142  0.2738
 4819SOL     OW16773   7.138   7.710   8.414  0.0099  0.5542 -0.1117
 4819SOL    HW116774   7.126   7.749   8.328  0.6027  0.2686 -0.3231
 4819SOL    HW216775   7.058   7.733   8.462 -0.8343 -0.2449 -1.1057
 4820SOL     OW16776   3.089   1.413   1.635  0.4771  0.2269  0.0774
 4820SOL    HW116777   3.040   1.387   1.557 -0.3179  0.6065  0.4394
 4820SOL    HW216778   3.179   1.388   1.616  0.1168 -0.6719 -0.5268
 4821SOL     OW16779   5.833   3.270   1.690  0.0810  0.5964  0.5129
 4821SOL    HW116780   5.784   3.352   1.681  0.1087  0.9488  2.9018
 4821SOL    HW216781   5.865   3.251   1.602 -0.5552  2.7542 -0.2402
 4822SOL     OW16782   4.215   1.127   1.949 -0.1041  0.2857  0.1028
 4822SOL    HW116783   4.282   1.071   1.989 -0.9865 -0.6478  0.3081
 4822SOL    HW216784   4.180   1.178   2.022 -0.1783  0.1884  0.1353
 4823SOL     OW16785   9.266   3.930   9.666 -0.1699  0.1391 -0.4220
 4823SOL    HW116786   9.196   3.881   9.709  0.3138 -0.2274 -0.0303
 4823SOL    HW216787   9.250   4.021   9.690 -0.3882  0.0298 -0.1461
 4824SOL     OW16788   7.071   4.521   1.657  0.6660  0.4527 -0.6980
 4824SOL    HW116789   7.019   4.531   1.578  0.6536 -0.4823 -0.8264
 4824SOL    HW216790   7.114   4.436   1.647  1.5544  0.8262 -0.2089
 4825SOL     OW16791   3.805   6.583   4.854  0.0999  0.4971 -0.3228
 4825SOL    HW116792   3.776   6.649   4.918  0.3848  0.9559 -0.6591
 4825SOL    HW216793   3.737   6.583   4.787 -1.3481 -1.5481  1.0132
 4826SOL     OW16794  10.168   7.279   0.225  0.5364  0.6780 -0.0526
 4826SOL    HW116795  10.155   7.240   0.311  1.8849 -2.1761 -1.0080
 4826SOL    HW216796  10.096   7.245   0.172  1.1993  0.1926 -0.6745
 4827SOL     OW16797   0.336   2.251   7.171 -1.1151 -0.1606 -0.5546
 4827SOL    HW116798   0.269   2.309   7.135 -2.4826 -2.1900 -1.4846
 4827SOL    HW216799   0.362   2.196   7.097  0.1076 -0.7422  0.2762
 4828SOL     OW16800   2.162   1.376   3.596  0.1028  0.3145  0.0739
 4828SOL    HW116801   2.230   1.308   3.600  0.3204  0.5196 -0.0904
 4828SOL    HW216802   2.203   1.447   3.546 -0.6939 -0.1000 -1.2078
 4829SOL     OW16803   1.275   6.543   1.056 -0.5244 -0.1096 -0.0074
 4829SOL    HW116804   1.240   6.463   1.017 -2.2174  0.6149 -0.0663
 4829SOL    HW216805   1.294   6.519   1.147  2.3365 -1.4860 -0.8460
 4830SOL     OW16806   3.026  10.515   4.704  0.3016  0.8806 -0.0002
 4830SOL    HW116807   2.945  10.469   4.728  0.4924 -1.1015 -2.7336
 4830SOL    HW216808   3.069  10.532   4.787 -1.1533 -1.3911  1.3286
 4831SOL     OW16809   5.817   6.906   8.887  0.7046 -0.1683  0.0187
 4831SOL    HW116810   5.844   6.952   8.808 -0.3258  0.8604  0.2266
 4831SOL    HW216811   5.788   6.975   8.946 -0.0886 -1.0331  0.6760
 4832SOL     OW16812   9.894   3.758   1.389 -0.1592  0.3385 -0.0270
 4832SOL    HW116813   9.814   3.711   1.365 -0.5906  0.7268  0.6377
 4832SOL    HW216814   9.916   3.726   1.476  0.7159 -0.1532 -0.4114
 4833SOL     OW16815   2.130   8.113   3.556  0.2089  0.1118 -0.1410
 4833SOL    HW116816   2.088   8.199   3.554 -2.3021 -0.9498  1.7923
 4833SOL    HW216817   2.080   8.060   3.494  0.9408 -0.3049 -0.3886
 4834SOL     OW16818   1.194   8.112   3.009 -0.5279  0.0134  0.8962
 4834SOL    HW116819   1.168   8.195   2.967  0.9505  0.2975  0.4989
 4834SOL    HW216820   1.158   8.044   2.951 -1.6896  0.3553  1.1852
 4835SOL     OW16821   5.352   0.930   3.402 -0.1359 -0.1348 -0.1451
 4835SOL    HW116822   5.273   0.880   3.421 -2.4027  2.7108 -1.2947
 4835SOL    HW216823   5.361   0.989   3.476 -0.4722  1.0898 -1.0476
 4836SOL     OW16824   8.131   3.508   4.124  0.1394 -0.0922 -0.2937
 4836SOL    HW116825   8.060   3.461   4.167  0.3341 -0.1445 -0.0295
 4836SOL    HW216826   8.102   3.600   4.123  0.3247 -0.0241  0.3385
 4837SOL     OW16827   7.483   4.920   4.868  0.1034 -0.5638 -0.4258
 4837SOL    HW116828   7.403   4.895   4.822 -0.9216  0.3370  0.7829
 4837SOL    HW216829   7.490   4.858   4.941 -0.9463  0.8587  0.9676
 4838SOL     OW16830   0.179   0.043   4.429  0.0144  0.3130 -0.1709
 4838SOL    HW116831   0.120   0.105   4.473 -1.7474 -2.9866  2.6289
 4838SOL    HW216832   0.131   0.017   4.350 -0.7829  0.1402  0.3533
 4839SOL     OW16833   2.304   7.932   4.628  0.2496 -0.8008  0.3090
 4839SOL    HW116834   2.316   7.842   4.596  2.8920 -0.1446 -0.8086
 4839SOL    HW216835   2.255   7.976   4.558 -1.2647 -1.3742  0.9658
 4840SOL     OW16836   3.266   0.198   2.284 -0.0547 -0.2208 -0.3393
 4840SOL    HW116837   3.221   0.119   2.252 -0.1646 -0.1406 -0.3817
 4840SOL    HW216838   3.338   0.164   2.337 -0.5880 -0.3520  0.3229
 4841SOL     OW16839   4.366   5.117   0.438 -0.8125  0.3240 -0.5615
 4841SOL    HW116840   4.339   5.194   0.490 -0.7679 -0.0675  0.0565
 4841SOL    HW216841   4.374   5.150   0.349  0.9332  1.4660 -0.0191
 4842SOL     OW16842   0.088   3.051   7.518 -0.5741 -0.2171  0.1821
 4842SOL    HW116843   0.159   3.002   7.560 -0.4230 -0.0107  0.1687
 4842SOL    HW216844   0.129   3.089   7.440 -0.4541  0.6866  0.6744
 4843SOL     OW16845   5.429   2.978   8.579  0.3525  0.4113  0.1790
 4843SOL    HW116846   5.442   2.984   8.674 -1.0100 -0.9079  0.4856
 4843SOL    HW216847   5.504   2.926   8.548  0.3655  0.1385  0.6595
 4844SOL     OW16848   9.264   8.242   4.361  0.3434 -0.0565 -0.2575
 4844SOL    HW116849   9.213   8.303   4.308  0.1847  0.3997  0.4025
 4844SOL    HW216850   9.299   8.179   4.299 -1.7630 -0.9291 -0.6314
 4845SOL     OW16851   7.682   8.623   0.543  0.5299  0.0894 -0.1741
 4845SOL    HW116852   7.728   8.590   0.620 -0.7744 -0.9951  0.1726
 4845SOL    HW216853   7.732   8.701   0.517  1.4654  0.0111  1.2723
 4846SOL     OW16854   5.083   8.855   5.772 -0.2208  0.1868 -0.1300
 4846SOL    HW116855   5.045   8.767   5.775 -1.6477  0.8021  0.1345
 4846SOL    HW216856   5.051   8.892   5.690 -0.1986  0.7175  0.0996
 4847SOL     OW16857   6.491   8.279   1.802  0.0439  0.0957  0.0157
 4847SOL    HW116858   6.560   8.288   1.868  1.4382 -1.1565 -1.1977
 4847SOL    HW216859   6.430   8.216   1.839  0.6505 -0.3550  0.2596
 4848SOL     OW16860   3.468  10.432  10.224 -0.1831 -0.5016 -0.3943
 4848SOL    HW116861   3.390  10.379  10.243  0.8182 -1.6541  0.7374
 4848SOL    HW216862   3.437  10.522  10.230 -1.3303 -0.9183  0.5929
 4849SOL     OW16863   3.810   2.772  10.408  0.0146 -0.6054  0.0186
 4849SOL    HW116864   3.735   2.740  10.459  0.1387 -2.1960 -0.7178
 4849SOL    HW216865   3.783   2.857  10.374 -1.5532 -1.2629 -0.4237
 4850SOL     OW16866   1.570   0.590   1.971  0.0310 -0.5938 -0.2437
 4850SOL    HW116867   1.486   0.555   2.000 -0.4036 -0.4968 -1.3370
 4850SOL    HW216868   1.558   0.684   1.970 -0.2575 -0.6218 -1.5318
 4851SOL     OW16869   2.709   3.128   7.830 -0.4882  0.3857  0.3094
 4851SOL    HW116870   2.698   3.059   7.896 -1.9974  0.0294 -0.2770
 4851SOL    HW216871   2.718   3.208   7.880 -1.8547  0.1528  0.9754
 4852SOL     OW16872   3.203   1.128   8.437 -0.1444 -0.2867 -0.0595
 4852SOL    HW116873   3.196   1.200   8.374 -1.4017  0.7107  1.1547
 4852SOL    HW216874   3.284   1.146   8.484 -0.7878  0.7461  0.6902
 4853SOL     OW16875   1.356   5.503   1.918  0.0377 -0.1970 -0.3321
 4853SOL    HW116876   1.326   5.554   1.993  2.5749  0.2404  0.4946
 4853SOL    HW216877   1.387   5.568   1.856  0.6314 -0.6260 -0.4973
 4854SOL     OW16878  10.473   6.830   6.338 -0.1153 -0.1231  0.3054
 4854SOL    HW116879  10.488   6.736   6.334 -0.1251 -0.1270  0.3654
 4854SOL    HW216880  10.560   6.869   6.331 -0.1794 -0.1137 -0.5232
 4855SOL     OW16881   2.359   5.508   4.957  0.0287 -0.4164  0.5551
 4855SOL    HW116882   2.403   5.496   5.041  0.5183  0.4724  0.4453
 4855SOL    HW216883   2.311   5.427   4.942  2.8760 -2.1259 -0.0723
 4856SOL     OW16884   2.458   1.099   4.502  0.2141  0.1807  0.2222
 4856SOL    HW116885   2.465   1.036   4.574 -1.6353  0.0427  0.3544
 4856SOL    HW216886   2.472   1.184   4.543 -2.7147  0.2883  1.2495
 4857SOL     OW16887   6.257   8.883   7.348 -0.2225  0.2259 -0.2284
 4857SOL    HW116888   6.324   8.819   7.373 -1.5472  0.0135  3.3733
 4857SOL    HW216889   6.176   8.833   7.349 -0.8976  1.2910 -0.5947
 4858SOL     OW16890   5.738   8.755   4.976  0.5892  0.4244  0.6262
 4858SOL    HW116891   5.818   8.800   5.003  0.6974  2.5515 -2.6686
 4858SOL    HW216892   5.766   8.699   4.904 -0.6947  0.2247  0.2671
 4859SOL     OW16893   7.893   0.811   6.471  0.2139  0.0259 -0.2734
 4859SOL    HW116894   7.976   0.808   6.518  0.5366 -0.0685 -0.8390
 4859SOL    HW216895   7.884   0.724   6.433  0.2499  0.2856 -0.8827
 4860SOL     OW16896   5.541   4.028   2.177  0.0679 -0.3291 -0.4480
 4860SOL    HW116897   5.517   4.048   2.268  0.3519  1.7542 -0.7601
 4860SOL    HW216898   5.607   3.959   2.184 -0.6814 -0.9580  0.8459
 4861SOL     OW16899   1.416   2.102   2.054  0.0291  0.3215 -0.4777
 4861SOL    HW116900   1.328   2.092   2.019 -0.1216 -1.1472  0.2502
 4861SOL    HW216901   1.474   2.085   1.979 -0.3040 -1.1661 -0.4310
 4862SOL     OW16902   6.435   5.031   3.152 -0.4623  0.0178 -0.1820
 4862SOL    HW116903   6.346   5.015   3.180  0.1037 -0.9014  1.1505
 4862SOL    HW216904   6.435   5.010   3.058 -1.2140 -1.8024  0.1912
 4863SOL     OW16905   1.911   5.156   6.688 -0.1697  0.2839 -0.0704
 4863SOL    HW116906   1.952   5.099   6.623  0.6181  0.3581  0.3517
 4863SOL    HW216907   1.818   5.150   6.668 -0.2498 -2.0788  0.6913
 4864SOL     OW16908   5.536  10.193   3.478  0.0761  0.4221  0.2929
 4864SOL    HW116909   5.450  10.232   3.460  0.7117  2.5545  1.5702
 4864SOL    HW216910   5.573  10.175   3.391 -1.2631  0.3309 -0.2815
 4865SOL     OW16911   4.765   5.662   8.742  0.1693 -0.3953 -0.3031
 4865SOL    HW116912   4.690   5.628   8.791  0.3018  0.3886  0.4668
 4865SOL    HW216913   4.745   5.755   8.728  0.8350 -0.2583 -0.3879
 4866SOL     OW16914   8.474   1.343   1.241  0.3660 -0.4101 -0.3914
 4866SOL    HW116915   8.415   1.417   1.228  0.3677 -0.8769 -5.0898
 4866SOL    HW216916   8.557   1.382   1.269  0.0220  1.2739 -1.5823
 4867SOL     OW16917   8.926   1.507   5.204  0.0973 -0.3673  0.5520
 4867SOL    HW116918   9.006   1.544   5.166  0.6382 -2.9277 -1.0726
 4867SOL    HW216919   8.857   1.532   5.143  0.6643 -2.8344 -1.2920
 4868SOL     OW16920   2.839   1.573   5.729  0.0646 -0.1165  0.3252
 4868SOL    HW116921   2.757   1.571   5.678 -1.0257 -1.9535  2.0083
 4868SOL    HW216922   2.840   1.661   5.768 -0.4748  0.3420 -0.6298
 4869SOL     OW16923   8.500   9.643   5.623 -0.6379  0.5647  0.5004
 4869SOL    HW116924   8.439   9.671   5.692 -0.5007  2.7863 -0.1857
 4869SOL    HW216925   8.444   9.606   5.555 -0.7755 -1.6559  1.7275
 4870SOL     OW16926   9.439   2.989   3.543 -0.4400  0.3084 -0.1280
 4870SOL    HW116927   9.421   2.915   3.484 -1.6740  0.4137  0.0817
 4870SOL    HW216928   9.418   2.955   3.630 -0.3110  0.6940  0.0533
 4871SOL     OW16929   0.651   9.134   0.867 -0.0717 -0.0672 -0.0979
 4871SOL    HW116930   0.746   9.134   0.875 -0.0603  0.8372 -0.0999
 4871SOL    HW216931   0.618   9.133   0.957 -0.1178 -2.5572 -0.0630
 4872SOL     OW16932   1.720   7.880   1.671 -0.1731 -0.6177  0.8766
 4872SOL    HW116933   1.798   7.843   1.630  0.8283  1.4036  0.8674
 4872SOL    HW216934   1.753   7.928   1.747 -1.5750 -0.8119  1.6531
 4873SOL     OW16935  10.428   0.118   7.683 -0.5657 -0.6840  0.2097
 4873SOL    HW116936  10.382   0.140   7.602 -2.5993 -1.7986  0.9840
 4873SOL    HW216937  10.415   0.194   7.740  0.6039 -0.0285 -0.3650
 4874SOL     OW16938   1.417   5.894   3.771 -0.0517 -0.4112  0.1537
 4874SOL    HW116939   1.513   5.893   3.766 -0.0632  1.0021 -0.7420
 4874SOL    HW216940   1.391   5.968   3.716 -1.5949  0.1029  1.5153
 4875SOL     OW16941   4.052  10.480   7.187  0.0498  0.6369 -0.5440
 4875SOL    HW116942   4.125  10.483   7.249  0.8834 -2.0344 -1.2775
 4875SOL    HW216943   4.084  10.528   7.110  1.4819 -1.2369 -1.2000
 4876SOL     OW16944   0.092   8.833   4.293  0.3491 -0.0405 -0.4110
 4876SOL    HW116945   0.030   8.855   4.363 -0.8533 -2.2098 -0.7329
 4876SOL    HW216946   0.118   8.918   4.258 -0.7880  1.0206  1.1451
 4877SOL     OW16947   8.935   9.576   3.373 -0.1753 -0.4940  0.0322
 4877SOL    HW116948   9.021   9.541   3.351 -0.3226 -0.1833 -1.1737
 4877SOL    HW216949   8.874   9.523   3.322 -0.8150 -1.3591  1.6320
 4878SOL     OW16950   1.545   4.026   4.919 -0.2195 -0.6542  0.4909
 4878SOL    HW116951   1.540   3.932   4.903 -1.2208 -0.4618 -0.4285
 4878SOL    HW216952   1.524   4.066   4.834 -0.1354  0.3963  0.9510
 4879SOL     OW16953   8.666  10.280   0.289  0.1893  0.0773  0.4001
 4879SOL    HW116954   8.749  10.251   0.327  0.7237 -0.0812 -0.8565
 4879SOL    HW216955   8.691  10.351   0.230 -0.2248 -1.6010 -1.8965
 4880SOL     OW16956   3.257   3.480  10.560  0.3435 -0.4765 -0.4578
 4880SOL    HW116957   3.216   3.504  10.644 -0.5632  0.1275 -1.0577
 4880SOL    HW216958   3.350   3.473  10.581  0.3841  1.5176  0.2274
 4881SOL     OW16959   5.579   0.717   5.585  0.3961 -0.1769  0.1536
 4881SOL    HW116960   5.543   0.738   5.500  1.4397 -0.4847 -0.3840
 4881SOL    HW216961   5.661   0.767   5.590 -0.1017  0.5594  1.3626
 4882SOL     OW16962   4.009   8.591  10.524  0.3401 -0.7226 -0.0892
 4882SOL    HW116963   3.914   8.592  10.511  0.1837  1.7095  0.7355
 4882SOL    HW216964   4.042   8.661  10.468  1.6506 -1.4401 -0.2521
 4883SOL     OW16965  10.219   1.219   6.238  0.8971  0.0590  0.3992
 4883SOL    HW116966  10.165   1.286   6.279  1.0889  0.2855  0.2857
 4883SOL    HW216967  10.307   1.256   6.238  1.2237 -0.6550  1.3724
 4884SOL     OW16968   9.864   1.396   8.333  0.1459  0.0451 -0.2049
 4884SOL    HW116969   9.784   1.388   8.383 -0.9141 -1.0241 -1.9471
 4884SOL    HW216970   9.855   1.478   8.284  0.7633  0.6270  0.6353
 4885SOL     OW16971   4.447   6.135   5.181 -0.1455 -0.2842  0.2423
 4885SOL    HW116972   4.500   6.212   5.162  0.9921 -0.6940  1.5488
 4885SOL    HW216973   4.416   6.106   5.096  0.6321  0.7670 -0.4260
 4886SOL     OW16974   3.720  10.407   6.630 -0.3128  0.5996 -0.3418
 4886SOL    HW116975   3.793  10.444   6.680 -0.9373 -0.8316  1.7591
 4886SOL    HW216976   3.643  10.420   6.685 -1.0171 -1.2056 -0.8210
 4887SOL     OW16977   5.904   7.246   4.857  0.1924 -0.7223 -0.2567
 4887SOL    HW116978   5.899   7.279   4.767  1.3643 -0.8895 -0.4026
 4887SOL    HW216979   5.847   7.169   4.859  1.4105 -1.6766 -1.3074
 4888SOL     OW16980   8.510   2.845   6.162 -0.0387 -0.1232 -0.2784
 4888SOL    HW116981   8.574   2.820   6.229 -0.9358 -0.9303  0.2976
 4888SOL    HW216982   8.547   2.924   6.122 -0.8205  2.2167  3.1386
 4889SOL     OW16983   4.916   9.025   8.582  0.9720 -0.1363 -0.3176
 4889SOL    HW116984   4.993   9.028   8.639 -0.3589 -0.0537  1.5682
 4889SOL    HW216985   4.880   9.113   8.585  1.4415  0.1696 -2.1956
 4890SOL     OW16986  10.364   7.396   1.363  0.0430  0.0334 -0.1163
 4890SOL    HW116987  10.362   7.438   1.278 -1.1596 -1.6186 -0.9702
 4890SOL    HW216988  10.311   7.453   1.419  1.1195  1.3074 -0.3375
 4891SOL     OW16989   6.411   2.699   2.561 -0.2350  0.4856  0.4797
 4891SOL    HW116990   6.449   2.695   2.474  0.0930 -0.4547  0.6526
 4891SOL    HW216991   6.484   2.725   2.618  0.4983 -2.3292  0.9660
 4892SOL     OW16992   3.217   3.652  10.121 -0.6404  0.1078  0.2009
 4892SOL    HW116993   3.267   3.734  10.122 -0.8643  0.3314 -2.1812
 4892SOL    HW216994   3.161   3.658  10.044 -2.5119 -1.2552  1.3604
 4893SOL     OW16995   8.266   8.964   5.165 -0.0287  0.2389 -0.2616
 4893SOL    HW116996   8.345   8.936   5.212 -0.8238 -0.1349  0.8951
 4893SOL    HW216997   8.223   8.882   5.139  1.4678  0.3545 -3.6633
 4894SOL     OW16998   5.569   7.541   5.280 -0.9698 -0.0478  0.2417
 4894SOL    HW116999   5.574   7.482   5.205  0.8682 -1.0347  1.0546
 4894SOL    HW217000   5.603   7.489   5.353 -0.7088  1.5474  1.3119
 4895SOL     OW17001   1.449   3.954   6.590  0.3879 -0.3085  0.2524
 4895SOL    HW117002   1.441   4.044   6.559 -1.2598 -0.4954  0.0752
 4895SOL    HW217003   1.506   3.961   6.667 -1.8255  1.3068  1.8667
 4896SOL     OW17004   1.358   7.686   3.361  0.4198  0.6602 -0.1231
 4896SOL    HW117005   1.417   7.671   3.287  1.2976  1.2840  0.4370
 4896SOL    HW217006   1.336   7.779   3.357 -0.5197  0.4444 -0.3029
 4897SOL     OW17007   4.331   5.689   5.755 -0.3106 -0.4899  0.7304
 4897SOL    HW117008   4.388   5.718   5.826  0.2685 -1.0381  0.4952
 4897SOL    HW217009   4.271   5.762   5.742  0.4467  0.1744  0.8643
 4898SOL     OW17010   9.786   5.388   2.956  0.5429  0.3340  0.3889
 4898SOL    HW117011   9.827   5.357   3.037  1.8805 -0.6241 -0.6087
 4898SOL    HW217012   9.835   5.467   2.934  1.3394 -0.3493 -0.3626
 4899SOL     OW17013   7.525  10.317   5.647 -0.4537  0.1562  0.7243
 4899SOL    HW117014   7.452  10.274   5.692 -1.4535 -1.0028 -1.7633
 4899SOL    HW217015   7.483  10.385   5.594  0.0849 -0.9691 -1.2769
 4900SOL     OW17016   9.525   4.141   9.551 -0.1000 -0.2492 -0.4716
 4900SOL    HW117017   9.490   4.226   9.525 -0.4962 -0.6127 -1.1581
 4900SOL    HW217018   9.554   4.154   9.641 -1.0142  0.3624 -0.2466
 4901SOL     OW17019   1.188   5.414   2.235 -0.2552 -0.2241 -0.1334
 4901SOL    HW117020   1.266   5.457   2.270  0.4920 -1.0614 -0.7401
 4901SOL    HW217021   1.128   5.486   2.215  0.4494  0.4434  0.1170
 4902SOL     OW17022   3.893   9.294   9.494  0.4656  0.2220 -0.1282
 4902SOL    HW117023   3.872   9.284   9.402  1.1071 -0.6943 -0.1942
 4902SOL    HW217024   3.867   9.384   9.516  3.6953  1.8357 -2.1523
 4903SOL     OW17025   4.420   8.757  10.303 -0.4397 -0.1601  0.2781
 4903SOL    HW117026   4.382   8.749  10.390 -2.6449  0.5243 -0.5665
 4903SOL    HW217027   4.481   8.830  10.310  0.2810 -0.8343  1.4892
 4904SOL     OW17028   3.962   3.512   7.225 -1.1737 -0.3321  0.4920
 4904SOL    HW117029   3.949   3.578   7.293  0.1898  0.6304 -0.1399
 4904SOL    HW217030   3.899   3.443   7.247 -0.7926 -0.0528  2.6859
 4905SOL     OW17031   0.194   7.386   4.039 -0.3088 -0.4102 -0.3513
 4905SOL    HW117032   0.204   7.403   4.133 -1.9253  0.6514 -0.3319
 4905SOL    HW217033   0.281   7.404   4.002 -0.0427  0.6902  0.7379
 4906SOL     OW17034   4.151   0.963   7.186  0.3598  1.1421  0.6219
 4906SOL    HW117035   4.068   0.981   7.231 -0.8648 -1.4639 -0.3924
 4906SOL    HW217036   4.184   0.884   7.228  1.2140  0.9088 -0.4462
 4907SOL     OW17037   1.360   9.394   3.496 -0.1113 -0.1688 -0.7461
 4907SOL    HW117038   1.279   9.442   3.513  0.5853  0.9230 -0.4143
 4907SOL    HW217039   1.371   9.398   3.401 -1.4094 -1.9774 -1.0346
 4908SOL     OW17040   5.837   5.490   1.082  0.3682 -0.5743  0.0690
 4908SOL    HW117041   5.870   5.411   1.125  0.6204 -1.0064 -0.9157
 4908SOL    HW217042   5.751   5.465   1.050 -0.4048  0.1529  1.4578
 4909SOL     OW17043   8.785   6.502   2.113 -0.3176  0.4274 -0.5144
 4909SOL    HW117044   8.716   6.548   2.065  1.2282  1.0026 -2.3039
 4909SOL    HW217045   8.839   6.572   2.149 -0.2665 -0.0194  0.2942
 4910SOL     OW17046   4.104   6.821   5.144  0.3050 -0.2214 -0.1696
 4910SOL    HW117047   4.093   6.878   5.068 -0.9595  0.6760  0.6489
 4910SOL    HW217048   4.016   6.807   5.177  0.7567 -1.3073  0.6331
 4911SOL     OW17049   5.453   6.918   7.043  0.4134  0.0703  0.1086
 4911SOL    HW117050   5.510   6.853   7.085  1.2070 -0.2238 -1.3351
 4911SOL    HW217051   5.394   6.867   6.989  0.3373  0.4990 -0.2171
 4912SOL     OW17052   0.925   4.918  10.119  0.0457 -0.4822  0.2490
 4912SOL    HW117053   0.918   4.854  10.189  0.1696  0.1372  0.8329
 4912SOL    HW217054   0.839   4.918  10.078 -0.6366  0.5092  1.6067
 4913SOL     OW17055   3.737   2.139   9.142 -0.4201  0.1458 -0.0248
 4913SOL    HW117056   3.810   2.094   9.184  0.3597  1.6378  0.2817
 4913SOL    HW217057   3.674   2.154   9.212 -0.1171  0.6251  0.1550
 4914SOL     OW17058   4.490   7.649   9.307 -0.2807  0.2451 -0.1659
 4914SOL    HW117059   4.444   7.571   9.276 -2.5587  1.1850  0.6447
 4914SOL    HW217060   4.428   7.693   9.364  1.0390  2.5202 -0.3462
 4915SOL     OW17061   9.424  10.162   0.778 -0.4813  0.3691  0.2202
 4915SOL    HW117062   9.419  10.118   0.693  1.2930  1.2383 -0.3854
 4915SOL    HW217063   9.500  10.123   0.821 -0.6182  0.8225  0.8942
 4916SOL     OW17064   8.046   2.728   3.854  0.0463  0.1002 -0.3931
 4916SOL    HW117065   8.006   2.663   3.911  0.5106 -0.1300 -0.3204
 4916SOL    HW217066   7.998   2.722   3.772  1.6481 -2.1110 -1.2537
 4917SOL     OW17067   3.342  10.479   7.972  0.0323  0.5832  0.1277
 4917SOL    HW117068   3.426  10.439   7.947 -0.7406 -0.7557 -0.4367
 4917SOL    HW217069   3.329  10.451   8.063 -0.9430 -1.3264 -0.5456
 4918SOL     OW17070   0.392   7.460   2.548 -0.4107 -0.3193 -0.2532
 4918SOL    HW117071   0.440   7.438   2.468 -2.1656 -1.1494 -1.1129
 4918SOL    HW217072   0.408   7.386   2.607  3.1994  1.4812  1.4097
 4919SOL     OW17073   0.897   0.292   7.970  0.4548 -0.0601 -0.5694
 4919SOL    HW117074   0.874   0.217   8.025 -1.0701  0.2995 -0.6687
 4919SOL    HW217075   0.855   0.367   8.014 -1.9496  0.0603 -2.8750
 4920SOL     OW17076   5.870   7.786   3.694 -1.0951 -0.3463 -0.2102
 4920SOL    HW117077   5.870   7.879   3.718 -3.1331 -0.3502  0.0149
 4920SOL    HW217078   5.913   7.742   3.766 -0.6897  0.3615 -0.0105
 4921SOL     OW17079   2.129   7.158  10.066 -0.0483  0.1742  0.1789
 4921SOL    HW117080   2.045   7.194  10.094  0.3298 -0.1532  1.8430
 4921SOL    HW217081   2.133   7.072  10.108  1.2980  0.3635  0.4707
 4922SOL     OW17082   1.618   8.493   9.385  0.7862 -0.0802 -0.2675
 4922SOL    HW117083   1.634   8.587   9.387  0.0642  0.0611 -0.9249
 4922SOL    HW217084   1.706   8.454   9.380  1.1725  0.4916  1.4601
 4923SOL     OW17085   9.359   4.612  10.151  0.6519 -0.2538 -0.3550
 4923SOL    HW117086   9.285   4.596  10.210  0.8944  0.6052  0.2030
 4923SOL    HW217087   9.369   4.707  10.151  2.6384 -0.4286  0.6938
 4924SOL     OW17088   0.418   1.539   8.489 -0.2545 -0.0968 -0.7926
 4924SOL    HW117089   0.451   1.588   8.563  1.0372  2.6930 -3.0290
 4924SOL    HW217090   0.324   1.534   8.503  0.0731 -0.9248  1.6375
 4925SOL     OW17091   8.839   2.322   1.552 -0.2479 -0.3433 -0.0245
 4925SOL    HW117092   8.869   2.410   1.576 -1.3709 -0.3612  1.6202
 4925SOL    HW217093   8.886   2.263   1.611  0.7333 -0.9148 -1.3253
 4926SOL     OW17094   7.291   5.414   2.133  0.1485  0.7208  0.5503
 4926SOL    HW117095   7.261   5.370   2.054  0.2448  0.2730  0.7653
 4926SOL    HW217096   7.341   5.489   2.101 -0.0065  0.6692  0.1889
 4927SOL     OW17097   1.881   5.790   2.103 -0.0352  0.3167 -0.3970
 4927SOL    HW117098   1.926   5.710   2.131 -0.4147 -0.0642 -0.8450
 4927SOL    HW217099   1.933   5.822   2.030 -0.8683 -0.5203 -1.3821
 4928SOL     OW17100   5.735   0.993   2.222 -0.0547 -0.4123 -0.9709
 4928SOL    HW117101   5.719   0.923   2.159  1.5582 -0.8148 -0.9923
 4928SOL    HW217102   5.810   1.040   2.187 -0.7343  0.9594 -0.6373
 4929SOL     OW17103   6.639   7.692   5.894 -0.5755 -0.0928 -0.0372
 4929SOL    HW117104   6.682   7.776   5.909 -0.6335 -0.1439  0.4348
 4929SOL    HW217105   6.711   7.630   5.883 -0.4330  0.4618 -3.4109
 4930SOL     OW17106   7.363  10.344   2.225  0.6875  0.5406  0.8911
 4930SOL    HW117107   7.343  10.433   2.197  2.5183  0.6138 -0.3667
 4930SOL    HW217108   7.375  10.351   2.320 -1.1117  1.2002  1.1163
 4931SOL     OW17109   2.729   8.144   5.102 -0.0755 -0.3222  0.0846
 4931SOL    HW117110   2.765   8.099   5.026  0.0453 -1.2023  0.6434
 4931SOL    HW217111   2.766   8.232   5.098  0.8847 -0.7320 -0.2195
 4932SOL     OW17112   9.029   5.690   1.746 -0.6036  0.0258  0.0478
 4932SOL    HW117113   9.118   5.722   1.763 -0.5488  0.1741 -0.5055
 4932SOL    HW217114   9.023   5.610   1.799 -0.1156 -0.0297  0.0318
 4933SOL     OW17115   4.906   6.605   6.545 -0.0253 -0.2578  0.1913
 4933SOL    HW117116   4.824   6.637   6.581 -1.1908 -0.5702 -2.0131
 4933SOL    HW217117   4.907   6.637   6.455  2.8854  0.7645  0.4625
 4934SOL     OW17118   0.959   3.427   2.368 -0.3205  0.1667  0.0701
 4934SOL    HW117119   0.998   3.511   2.342  1.6960 -0.5665  0.5246
 4934SOL    HW217120   0.961   3.374   2.288  0.8580 -0.2870  0.3753
 4935SOL     OW17121   0.462   1.191   4.590  0.2577 -0.4406 -0.4415
 4935SOL    HW117122   0.485   1.196   4.497  0.2720  0.2982 -0.4080
 4935SOL    HW217123   0.522   1.253   4.632 -0.1570 -0.3138 -0.0262
 4936SOL     OW17124   9.259   4.140   7.949 -0.0842  0.0718 -0.3682
 4936SOL    HW117125   9.235   4.048   7.954 -0.7122  0.2230 -0.5620
 4936SOL    HW217126   9.290   4.152   7.859  0.2620 -0.0116 -0.2612
 4937SOL     OW17127   6.649   1.797   4.594 -0.0036 -0.0171 -0.3015
 4937SOL    HW117128   6.721   1.738   4.572 -0.5532 -0.3546 -1.2384
 4937SOL    HW217129   6.600   1.808   4.512 -0.4552  0.9909  0.0834
 4938SOL     OW17130   9.629   4.499   9.518 -0.2922 -0.0969 -0.0033
 4938SOL    HW117131   9.549   4.458   9.550 -1.4096  1.8856 -0.0754
 4938SOL    HW217132   9.632   4.477   9.425 -2.0890  1.6785 -0.5661
 4939SOL     OW17133   2.186   0.585   4.373 -0.8085  0.4060  0.1748
 4939SOL    HW117134   2.108   0.631   4.343 -0.2223  0.4505 -1.3637
 4939SOL    HW217135   2.197   0.613   4.464 -2.4077  0.6139  0.3227
 4940SOL     OW17136   8.297   2.955   7.173 -0.3550  0.3812  0.1605
 4940SOL    HW117137   8.273   2.894   7.243 -1.4098  0.7807  0.1624
 4940SOL    HW217138   8.392   2.949   7.167 -0.3969 -0.8338  0.5500
 4941SOL     OW17139   3.902  10.420  10.210  0.3835  0.1468  0.0328
 4941SOL    HW117140   3.995  10.399  10.220  0.4831  0.4761 -0.1910
 4941SOL    HW217141   3.873  10.441  10.299  0.9198  1.6393 -0.1198
 4942SOL     OW17142   9.061   7.325   9.218  0.3521  0.1080  0.1977
 4942SOL    HW117143   9.107   7.307   9.300 -1.3032 -0.9017  0.9764
 4942SOL    HW217144   9.055   7.240   9.175 -1.6480 -0.0408  0.6495
 4943SOL     OW17145   2.738   1.186   3.860 -0.0465  0.0595 -0.2177
 4943SOL    HW117146   2.826   1.184   3.898 -0.6485  0.4361  1.2958
 4943SOL    HW217147   2.709   1.277   3.873 -0.1463  0.3113 -1.9964
 4944SOL     OW17148   4.602   0.691   9.180 -0.4951  0.2036  0.5991
 4944SOL    HW117149   4.552   0.621   9.138  0.0162 -0.4270  1.0276
 4944SOL    HW217150   4.561   0.701   9.266 -1.1383  1.0599  0.2097
 4945SOL     OW17151   3.639   6.453   4.144  0.3294  0.0707  0.3427
 4945SOL    HW117152   3.614   6.370   4.186  1.1021 -1.5160 -2.1155
 4945SOL    HW217153   3.730   6.440   4.119  0.1577  1.2783 -1.0038
 4946SOL     OW17154   2.546   4.573   4.429 -0.0670  0.8224  0.0952
 4946SOL    HW117155   2.504   4.653   4.397 -0.9218  0.1980 -0.3915
 4946SOL    HW217156   2.623   4.561   4.373 -0.6746  0.5985 -0.7046
 4947SOL     OW17157  10.528   4.687   9.276 -0.1435 -0.1853 -0.0759
 4947SOL    HW117158  10.435   4.687   9.251 -0.7064 -0.9680  1.8449
 4947SOL    HW217159  10.574   4.662   9.195 -1.5271  0.7744 -1.2204
 4948SOL     OW17160   8.505   8.322   7.314 -0.2517  0.0970 -0.0765
 4948SOL    HW117161   8.552   8.252   7.269 -1.0714 -0.2688 -0.3782
 4948SOL    HW217162   8.497   8.291   7.404 -0.2305 -0.0018 -0.1086
 4949SOL     OW17163   8.835   1.426   9.489 -0.1514 -0.5707 -0.5606
 4949SOL    HW117164   8.865   1.488   9.423  2.4768  0.5868  1.4975
 4949SOL    HW217165   8.803   1.351   9.439 -0.1657  1.0041 -3.1056
 4950SOL     OW17166   1.341   8.064   5.714  0.4523 -0.2257  0.0147
 4950SOL    HW117167   1.425   8.075   5.760  0.3918  0.0199  0.0633
 4950SOL    HW217168   1.278   8.048   5.784  0.4766 -0.5364 -0.0303
 4951SOL     OW17169   8.643   9.860   2.256  0.5828  0.2356  0.1173
 4951SOL    HW117170   8.706   9.838   2.187 -1.5084 -1.2356 -1.4306
 4951SOL    HW217171   8.602   9.941   2.226  0.1215 -0.0617 -0.0669
 4952SOL     OW17172   8.376   4.132   8.496  0.1087 -0.0697 -0.0115
 4952SOL    HW117173   8.385   4.200   8.564  0.5082  0.0086 -0.1408
 4952SOL    HW217174   8.283   4.111   8.496 -0.1277  0.9351 -0.4081
 4953SOL     OW17175   9.888   3.297   3.060  0.1370 -0.0941 -0.1497
 4953SOL    HW117176   9.866   3.348   2.982  0.2999 -1.1644 -0.9290
 4953SOL    HW217177   9.977   3.265   3.043 -0.0588 -0.8486  0.1964
 4954SOL     OW17178   1.891  10.134   8.399  0.7821  0.3467  0.2018
 4954SOL    HW117179   1.796  10.124   8.394  0.8062  0.8794 -2.4342
 4954SOL    HW217180   1.925  10.071   8.336  2.2163  0.1095  1.1702
 4955SOL     OW17181   2.232   5.593   5.487 -0.1326 -0.0675 -0.1367
 4955SOL    HW117182   2.194   5.664   5.538 -0.5272 -1.3578  1.4618
 4955SOL    HW217183   2.327   5.601   5.501 -0.2405 -0.4166  0.8451
 4956SOL     OW17184   0.510   5.448  10.554 -0.2299 -0.1194  0.0461
 4956SOL    HW117185   0.561   5.426  10.632 -0.1807 -0.8422 -0.1835
 4956SOL    HW217186   0.568   5.506  10.504  0.6874 -1.4659 -0.5439
 4957SOL     OW17187   9.147   6.221   3.357 -0.1353 -0.2621 -0.1608
 4957SOL    HW117188   9.090   6.153   3.321  0.5090 -0.2319 -1.2855
 4957SOL    HW217189   9.235   6.182   3.356 -0.0538 -0.1566  1.1524
 4958SOL     OW17190   9.435   1.831   7.789  0.6507  0.0694 -0.1405
 4958SOL    HW117191   9.341   1.819   7.804  0.3191  3.0686  0.8509
 4958SOL    HW217192   9.444   1.831   7.693 -0.7437  1.7756 -0.3216
 4959SOL     OW17193   7.896   0.182   0.110  0.2279  0.0013 -0.3704
 4959SOL    HW117194   7.949   0.256   0.080 -0.6077  1.1058  0.7444
 4959SOL    HW217195   7.909   0.180   0.205 -0.8560 -0.3720 -0.2085
 4960SOL     OW17196   7.710   3.235   9.731  0.1472  0.6517  0.0064
 4960SOL    HW117197   7.792   3.216   9.686  0.1038  0.2641  0.0880
 4960SOL    HW217198   7.645   3.238   9.660 -0.0398 -0.6499  0.0994
 4961SOL     OW17199   6.110   9.780   1.183  0.3509  0.0418  0.3087
 4961SOL    HW117200   6.119   9.723   1.259  1.3879  0.2564  0.3645
 4961SOL    HW217201   6.018   9.805   1.182  0.1153 -0.7734  0.9039
 4962SOL     OW17202   3.976   2.549   1.853  0.3478 -0.3538  0.0881
 4962SOL    HW117203   4.021   2.633   1.867 -0.2741 -0.1356  0.8435
 4962SOL    HW217204   3.957   2.517   1.941 -0.6028 -0.6417 -0.2081
 4963SOL     OW17205   1.088   8.992   4.514 -0.2328  0.4428 -0.4051
 4963SOL    HW117206   1.107   8.988   4.608 -1.6023  0.9203 -0.0838
 4963SOL    HW217207   1.108   9.082   4.489  0.2675  0.2778 -0.6112
 4964SOL     OW17208   6.238   7.024   4.049 -0.3315 -0.1886  0.8930
 4964SOL    HW117209   6.309   7.086   4.061  0.6390 -0.7404 -1.3977
 4964SOL    HW217210   6.241   6.968   4.127  3.2972 -1.6363 -0.0900
 4965SOL     OW17211   1.984   5.604   5.799  0.0916  0.1175 -0.1376
 4965SOL    HW117212   2.041   5.527   5.795  2.3776  1.7775 -1.7023
 4965SOL    HW217213   1.985   5.630   5.891 -0.0845 -1.2241  0.2686
 4966SOL     OW17214   1.107   2.896   1.295  0.3394 -0.5313  0.3165
 4966SOL    HW117215   1.134   2.978   1.336  0.7802 -0.3246 -0.3780
 4966SOL    HW217216   1.040   2.861   1.354  2.1066 -1.0834  2.1218
 4967SOL     OW17217  10.021   0.337   0.174 -0.0053 -0.5536  0.1038
 4967SOL    HW117218  10.004   0.266   0.112 -0.7366 -0.1023 -0.2131
 4967SOL    HW217219  10.068   0.403   0.123 -0.9251 -0.0275 -0.0631
 4968SOL     OW17220   0.417   5.900   0.655  0.2431  0.0728  0.3876
 4968SOL    HW117221   0.474   5.924   0.728 -0.3298  0.0057  0.8669
 4968SOL    HW217222   0.462   5.933   0.577  0.7908  0.2758  0.7864
 4969SOL     OW17223   0.377   2.797   6.996 -0.0541 -0.2092 -0.0495
 4969SOL    HW117224   0.333   2.825   6.916 -0.9004  0.5881  0.6719
 4969SOL    HW217225   0.406   2.879   7.037  0.7967 -0.6324  0.2378
 4970SOL     OW17226   7.166   3.487   6.534  0.1131  0.1288 -0.0881
 4970SOL    HW117227   7.148   3.514   6.444 -1.2484 -1.3624 -0.3195
 4970SOL    HW217228   7.233   3.419   6.527  0.6407  0.6138  0.1257
 4971SOL     OW17229   5.296   9.606   8.140  0.2388 -0.2468  0.0231
 4971SOL    HW117230   5.248   9.671   8.088 -1.8916 -0.6312  1.3787
 4971SOL    HW217231   5.384   9.642   8.148 -0.8599  2.5385  0.7637
 4972SOL     OW17232   0.008   6.572   4.423  0.0574 -0.5354  0.3949
 4972SOL    HW117233   0.045   6.657   4.400 -0.2325 -0.1632  1.2940
 4972SOL    HW217234  -0.013   6.532   4.338  1.6887 -0.4047 -0.1046
 4973SOL     OW17235   5.024   0.245   0.232  0.2567  0.1174  0.1378
 4973SOL    HW117236   5.052   0.293   0.311 -1.4087 -0.9033  1.4229
 4973SOL    HW217237   5.015   0.154   0.262 -2.5973  0.0782 -0.5967
 4974SOL     OW17238   5.911   9.952   4.255  0.5769  0.3230 -0.5076
 4974SOL    HW117239   5.951   9.868   4.232 -1.0868 -0.4398 -0.7475
 4974SOL    HW217240   5.985  10.011   4.268  1.7678 -1.0453 -0.8423
 4975SOL     OW17241   9.559   1.597   7.732 -0.0484  0.5644  0.4772
 4975SOL    HW117242   9.540   1.691   7.737 -1.4792  0.3387 -0.0888
 4975SOL    HW217243   9.482   1.560   7.689  0.6606 -0.8245  0.3563
 4976SOL     OW17244   8.600   5.151   7.302  0.8301 -0.2617 -0.3418
 4976SOL    HW117245   8.691   5.155   7.271  0.3348 -0.7314 -1.9327
 4976SOL    HW217246   8.548   5.142   7.223 -0.6232 -0.0136  0.5526
 4977SOL     OW17247   5.305   3.295   6.676  0.2061  0.2453  0.4226
 4977SOL    HW117248   5.344   3.368   6.628  0.5992  0.4628  1.0511
 4977SOL    HW217249   5.258   3.338   6.748 -1.7555  0.0435 -0.6735
 4978SOL     OW17250   2.287  10.191   2.446  0.5416  0.1824  0.4400
 4978SOL    HW117251   2.347  10.201   2.519 -0.4890 -0.4034  1.4016
 4978SOL    HW217252   2.200  10.193   2.486 -0.0133 -2.3758 -0.4368
 4979SOL     OW17253   9.159   6.469   0.411  0.0623 -0.1866 -0.5060
 4979SOL    HW117254   9.225   6.509   0.468 -0.4130 -0.6752  0.3977
 4979SOL    HW217255   9.136   6.539   0.349 -0.0463  0.6407  0.4442
 4980SOL     OW17256   5.379   0.313   5.677  0.3054  0.1967  0.2321
 4980SOL    HW117257   5.369   0.219   5.695  1.0161 -0.4546 -2.3414
 4980SOL    HW217258   5.319   0.355   5.738  0.2986 -1.8783  1.7792
 4981SOL     OW17259   9.315   9.297   6.729  0.2151 -0.5431 -0.2237
 4981SOL    HW117260   9.259   9.291   6.652 -0.3235  0.1717  0.0997
 4981SOL    HW217261   9.254   9.303   6.803  0.7234 -0.9337  0.2392
 4982SOL     OW17262   4.002   0.160   4.544 -0.2232  0.1161 -0.3590
 4982SOL    HW117263   3.948   0.222   4.494  1.0683  1.3271 -0.3144
 4982SOL    HW217264   4.050   0.215   4.606  0.0265 -1.0914  0.5433
 4983SOL     OW17265   1.555  10.320   0.124 -1.0552 -0.0809  0.3242
 4983SOL    HW117266   1.512  10.404   0.137  0.2060  0.2742  2.5869
 4983SOL    HW217267   1.640  10.342   0.084 -1.3939 -0.4630 -0.6483
 4984SOL     OW17268   2.501   3.935   8.116  0.2297  0.0142  0.0632
 4984SOL    HW117269   2.436   4.001   8.136 -0.4495 -0.7971  0.6113
 4984SOL    HW217270   2.580   3.984   8.094 -0.7728  1.0447 -1.4232
 4985SOL     OW17271   2.490   8.395   1.956  0.5101  0.2304 -0.1660
 4985SOL    HW117272   2.553   8.438   2.013  2.2474  0.1112 -1.8706
 4985SOL    HW217273   2.420   8.459   1.945 -0.0953  0.0842  2.3626
 4986SOL     OW17274   6.389   4.577   1.014  0.0092 -0.1430  0.5759
 4986SOL    HW117275   6.434   4.650   1.058  0.5913 -0.1270 -0.0388
 4986SOL    HW217276   6.384   4.604   0.922 -1.0050 -0.2729  0.5828
 4987SOL     OW17277   6.101   4.327   9.503  0.8784  0.2474 -0.2166
 4987SOL    HW117278   6.023   4.324   9.559  1.0302 -0.3637 -0.0334
 4987SOL    HW217279   6.139   4.413   9.520 -0.7466  1.3301 -1.6739
 4988SOL     OW17280   6.712   3.677   3.720 -0.7338  0.1466  0.0638
 4988SOL    HW117281   6.631   3.630   3.737 -0.2398 -1.7717 -2.2557
 4988SOL    HW217282   6.698   3.718   3.635  0.0408  1.4986  0.5592
 4989SOL     OW17283   1.731   9.289   0.970 -0.2597 -0.6047  0.2399
 4989SOL    HW117284   1.782   9.346   0.912 -0.5607 -1.5361 -0.9784
 4989SOL    HW217285   1.792   9.267   1.041  0.1143  0.5470  0.3026
 4990SOL     OW17286   1.685   5.529   0.796 -0.2134  0.4946  0.0795
 4990SOL    HW117287   1.754   5.593   0.814  1.5526 -1.3593  0.2525
 4990SOL    HW217288   1.640   5.564   0.719 -0.5551  2.8546  1.2673
 4991SOL     OW17289   8.671   6.549   9.976 -0.0719  0.2100 -0.4535
 4991SOL    HW117290   8.587   6.574   9.938  0.1501  0.4503 -0.7974
 4991SOL    HW217291   8.654   6.468  10.024 -0.9670  1.3621  1.2649
 4992SOL     OW17292   4.936   5.884   5.085  0.4435 -0.3878 -0.0246
 4992SOL    HW117293   5.015   5.938   5.087  0.0735  0.1684 -0.3334
 4992SOL    HW217294   4.912   5.875   5.177 -0.1662  0.9815 -0.0335
 4993SOL     OW17295   7.342   0.774   7.734  0.1862  0.1391 -0.2969
 4993SOL    HW117296   7.332   0.688   7.694 -0.0764 -0.4433  0.9593
 4993SOL    HW217297   7.253   0.807   7.742  0.1681 -0.0559  0.4090
 4994SOL     OW17298   5.182   2.513   2.598  0.1373  0.0448  0.2101
 4994SOL    HW117299   5.105   2.561   2.630  0.0313 -0.2016  0.3287
 4994SOL    HW217300   5.250   2.532   2.662  0.1808  0.2746  0.0977
 4995SOL     OW17301   5.360   3.638   3.701  0.0311 -0.1708  0.2883
 4995SOL    HW117302   5.374   3.692   3.778  0.1034  0.5000 -0.1806
 4995SOL    HW217303   5.325   3.699   3.635  1.7526 -0.2842 -0.8087
 4996SOL     OW17304   1.295   0.375  10.597 -0.2407 -0.1045  0.0879
 4996SOL    HW117305   1.380   0.334  10.612 -0.0360 -0.1338 -1.1068
 4996SOL    HW217306   1.246   0.311  10.546 -1.1765 -0.2925  1.1630
 4997SOL     OW17307   5.714   0.634   0.991 -0.3074 -0.0155  0.4300
 4997SOL    HW117308   5.717   0.559   0.932  0.0009 -0.0610  0.5010
 4997SOL    HW217309   5.734   0.709   0.935  1.8518 -0.2454  0.7778
 4998SOL     OW17310   3.650   1.833   0.767  0.0578  0.0154  0.5001
 4998SOL    HW117311   3.718   1.898   0.751 -0.0646  0.1255  0.4224
 4998SOL    HW217312   3.697   1.755   0.797  0.3582 -0.4103 -0.9877
 4999SOL     OW17313   2.836   2.662   9.750 -0.2568 -0.0257  0.8638
 4999SOL    HW117314   2.873   2.667   9.662  0.8999 -0.0966  1.3168
 4999SOL    HW217315   2.755   2.713   9.746  1.3557  2.6962  0.5092
 5000SOL     OW17316   1.936   8.954   6.644 -0.2926  0.1584  0.1480
 5000SOL    HW117317   1.856   8.909   6.672  0.9692 -1.9276  0.6216
 5000SOL    HW217318   1.944   8.931   6.551  0.8338 -1.4344  0.6075
 5001SOL     OW17319   9.194   7.261   9.437  0.7299 -0.3523 -0.2096
 5001SOL    HW117320   9.286   7.279   9.418  0.3267 -1.2766 -3.5407
 5001SOL    HW217321   9.194   7.177   9.483  1.5490 -0.1131  0.2349
 5002SOL     OW17322   7.597   4.204   6.200  0.4225 -0.3811 -0.3825
 5002SOL    HW117323   7.524   4.192   6.140 -0.2865  0.3294  0.3023
 5002SOL    HW217324   7.599   4.298   6.217  0.0944 -0.6328  1.2884
 5003SOL     OW17325   3.826   6.352   4.540  0.1440  0.4369 -0.1805
 5003SOL    HW117326   3.755   6.412   4.563  1.3363  1.3297  1.3607
 5003SOL    HW217327   3.903   6.390   4.581  1.5009 -0.6172 -1.6278
 5004SOL     OW17328   7.672  10.232   7.895 -0.0663  0.1228  0.0042
 5004SOL    HW117329   7.581  10.258   7.902 -0.2266 -0.1966 -0.8023
 5004SOL    HW217330   7.686  10.173   7.969 -0.4224  0.4300  0.3178
 5005SOL     OW17331   3.995   4.597   7.228 -0.3946  0.4372  0.3986
 5005SOL    HW117332   3.971   4.552   7.147 -0.8254 -0.2805  0.9134
 5005SOL    HW217333   4.089   4.581   7.237 -0.6927 -1.1601  1.0325
 5006SOL     OW17334   1.593   8.213   4.693  0.4026  1.2195 -0.4319
 5006SOL    HW117335   1.561   8.153   4.626 -1.0291 -0.4109  1.5803
 5006SOL    HW217336   1.556   8.298   4.668 -2.6379  0.0864 -0.2059
 5007SOL     OW17337   8.316   1.503   3.378  0.4798  0.3661 -0.0012
 5007SOL    HW117338   8.261   1.426   3.395  1.8261 -1.0102 -1.4892
 5007SOL    HW217339   8.294   1.564   3.449 -2.2637 -0.4446 -0.0254
 5008SOL     OW17340   7.737   6.288   3.720  0.1023 -0.1927  0.3779
 5008SOL    HW117341   7.759   6.340   3.797  0.0024 -0.6682  0.7300
 5008SOL    HW217342   7.819   6.281   3.672  0.6016 -1.3903  1.3465
 5009SOL     OW17343   7.594   9.402   3.659  0.4249 -0.4222  0.0687
 5009SOL    HW117344   7.572   9.345   3.586  0.7275 -0.2293 -0.1773
 5009SOL    HW217345   7.534   9.376   3.730 -1.3312  0.7580 -0.8920
 5010SOL     OW17346   4.693   9.342   2.905 -0.1020 -0.7144  0.1518
 5010SOL    HW117347   4.708   9.281   2.978 -2.1870 -1.5793 -0.0716
 5010SOL    HW217348   4.606   9.318   2.872 -1.0252  2.3843  0.0452
 5011SOL     OW17349   2.702   6.974   8.096 -0.4807 -0.2655  0.1969
 5011SOL    HW117350   2.607   6.966   8.085 -0.5242  1.4671 -1.1267
 5011SOL    HW217351   2.735   6.992   8.008  0.8026  1.5005  0.9883
 5012SOL     OW17352   5.753   5.259   7.375 -0.2504 -0.4005 -0.5977
 5012SOL    HW117353   5.744   5.177   7.325 -2.0631 -0.3018 -0.4975
 5012SOL    HW217354   5.737   5.233   7.466  1.7728 -0.3546 -0.1931
 5013SOL     OW17355   8.822   1.975   3.873  1.0261  0.2262  0.2883
 5013SOL    HW117356   8.850   1.988   3.782  0.7832 -0.3543  0.1296
 5013SOL    HW217357   8.844   2.058   3.916 -1.3484  1.5660 -0.9033
 5014SOL     OW17358   6.026   8.603   6.475 -0.7195 -0.4218 -0.0777
 5014SOL    HW117359   6.097   8.577   6.415  0.1311 -0.3125  0.8672
 5014SOL    HW217360   6.064   8.673   6.528 -1.6540 -0.1297  0.2103
 5015SOL     OW17361   1.487   0.802   3.551 -0.6552 -0.2101  0.0917
 5015SOL    HW117362   1.433   0.881   3.551  0.2490  0.4696  1.8114
 5015SOL    HW217363   1.425   0.732   3.572 -1.2432  0.2341 -0.1310
 5016SOL     OW17364   5.553   9.148   9.369 -0.0652 -0.0001 -0.5812
 5016SOL    HW117365   5.586   9.173   9.455 -1.0046 -0.9921  0.0883
 5016SOL    HW217366   5.458   9.148   9.378 -0.1649 -2.1845 -0.9585
 5017SOL     OW17367   4.627   9.010   6.868  0.0397 -0.0382  0.1606
 5017SOL    HW117368   4.683   9.076   6.908  0.8092 -0.1070 -0.7670
 5017SOL    HW217369   4.686   8.938   6.846 -0.4464 -0.2074 -0.6342
 5018SOL     OW17370   4.607   3.199   6.278 -0.2605 -0.5082  0.3881
 5018SOL    HW117371   4.622   3.271   6.217 -1.0210 -0.7235 -0.0666
 5018SOL    HW217372   4.543   3.143   6.234 -0.0964 -1.1731  0.9723
 5019SOL     OW17373   8.698  10.378   9.660  0.6168  0.4018 -0.3320
 5019SOL    HW117374   8.701  10.389   9.755 -1.2286  1.2998 -0.3448
 5019SOL    HW217375   8.685  10.284   9.647 -3.0130  0.6461  0.5113
 5020SOL     OW17376   3.692   0.166   6.386 -0.7039 -0.0323 -0.0484
 5020SOL    HW117377   3.635   0.220   6.331  0.2304  0.7676 -0.2715
 5020SOL    HW217378   3.684   0.206   6.473  1.6574  1.9630 -0.6233
 5021SOL     OW17379   5.403   4.830   0.888  0.2222  0.0305  0.2377
 5021SOL    HW117380   5.470   4.872   0.942 -0.9402  0.1101  1.6752
 5021SOL    HW217381   5.345   4.902   0.862 -0.0985 -0.2508  0.1774
 5022SOL     OW17382   0.721   7.785   3.164  0.0008 -0.3029  0.0443
 5022SOL    HW117383   0.789   7.718   3.159 -1.2639 -1.5435 -1.0772
 5022SOL    HW217384   0.644   7.746   3.124 -1.3164  1.1861  0.9722
 5023SOL     OW17385   4.426   1.714   0.929 -0.5701 -0.1675 -0.0750
 5023SOL    HW117386   4.403   1.771   0.855 -0.6179 -1.6072 -1.2174
 5023SOL    HW217387   4.341   1.682   0.961 -0.4511 -1.1819 -0.7536
 5024SOL     OW17388   5.154   6.845   4.883 -0.3196 -0.2343  0.3595
 5024SOL    HW117389   5.163   6.838   4.978  0.3826 -0.5218  0.2817
 5024SOL    HW217390   5.061   6.859   4.868 -0.5145 -0.7203  1.0674
 5025SOL     OW17391   7.733   8.717   6.747  0.6846 -0.0349  0.2363
 5025SOL    HW117392   7.803   8.674   6.797  1.3947  0.8135  0.0048
 5025SOL    HW217393   7.770   8.803   6.724  0.6864 -0.6552 -2.4018
 5026SOL     OW17394   9.099   4.333   2.743 -0.1870 -0.5931  0.2723
 5026SOL    HW117395   9.040   4.261   2.768  1.4831 -1.8000  0.9046
 5026SOL    HW217396   9.186   4.299   2.761  0.7543  0.9136 -1.2434
 5027SOL     OW17397   4.688   3.391   6.761  0.0800 -0.1764  0.3183
 5027SOL    HW117398   4.658   3.338   6.687 -0.5234 -0.8393  1.0206
 5027SOL    HW217399   4.607   3.430   6.796  0.1738 -0.9554  1.4505
 5028SOL     OW17400   8.713   0.345   1.230 -0.1163  0.2226  0.1327
 5028SOL    HW117401   8.677   0.326   1.143  2.9498  0.1269 -1.2216
 5028SOL    HW217402   8.790   0.399   1.214 -0.3813  1.6526  2.9666
 5029SOL     OW17403   8.128   1.168   7.424  0.2703 -0.6185  0.0447
 5029SOL    HW117404   8.113   1.110   7.349  0.0264 -0.6093  0.0853
 5029SOL    HW217405   8.112   1.256   7.390 -0.6821 -0.6767  0.3166
 5030SOL     OW17406   2.269   5.631   6.526  0.4132  0.4677 -0.2203
 5030SOL    HW117407   2.364   5.621   6.531  0.4332  0.1236 -1.0833
 5030SOL    HW217408   2.239   5.553   6.478 -0.4297 -0.0230  1.0292
 5031SOL     OW17409   6.079   3.988   9.212  0.0135  0.0821 -0.5892
 5031SOL    HW117410   6.012   3.964   9.148  1.0340 -0.3835 -1.5251
 5031SOL    HW217411   6.115   4.071   9.180  0.4828 -0.1196 -0.6044
 5032SOL     OW17412   3.728   6.372   3.575 -0.2644 -0.1662 -0.0825
 5032SOL    HW117413   3.661   6.427   3.533  1.0121  0.7770 -0.9563
 5032SOL    HW217414   3.764   6.426   3.644  1.3489  0.3506 -1.2692
 5033SOL     OW17415   9.128  10.489   8.654 -0.1693  0.3879 -0.0153
 5033SOL    HW117416   9.079  10.413   8.622  2.1384 -0.7800 -1.0692
 5033SOL    HW217417   9.183  10.515   8.580 -0.6285  2.9213  0.4486
 5034SOL     OW17418   6.833   1.872   7.608 -0.1765 -0.4296  0.3947
 5034SOL    HW117419   6.787   1.868   7.692 -1.0047  1.2231  0.0825
 5034SOL    HW217420   6.911   1.924   7.625 -0.1791 -0.3651  0.2215
 5035SOL     OW17421   0.580   9.482   4.186 -0.9758  0.6412  0.8641
 5035SOL    HW117422   0.582   9.513   4.096  0.8199 -0.5365  0.4500
 5035SOL    HW217423   0.579   9.561   4.239 -1.4281  1.3469 -0.1698
 5036SOL     OW17424   1.949   4.331   5.901  0.3293  0.1406  0.2554
 5036SOL    HW117425   1.900   4.350   5.821 -0.3636 -0.0479  0.6248
 5036SOL    HW217426   2.034   4.299   5.871  0.5526  1.2847 -0.3985
 5037SOL     OW17427   0.762   9.356   9.844  0.7202 -0.5858 -0.4533
 5037SOL    HW117428   0.798   9.432   9.798  0.3983 -0.3979 -0.3968
 5037SOL    HW217429   0.668   9.369   9.843  0.5750 -1.5268 -1.4003
 5038SOL     OW17430   4.598   9.782   2.585  0.1555 -0.1116  0.5557
 5038SOL    HW117431   4.543   9.799   2.662 -1.0608 -1.0202 -0.0776
 5038SOL    HW217432   4.649   9.704   2.608 -0.7625 -0.8450  0.2009
 5039SOL     OW17433   9.185   2.113   5.926 -0.4150  0.1677  0.5820
 5039SOL    HW117434   9.239   2.192   5.918  0.3829 -0.4290 -0.0847
 5039SOL    HW217435   9.248   2.041   5.919 -1.1327 -0.5283  1.2121
 5040SOL     OW17436   5.788   6.066  10.307 -0.0592 -0.3671  0.2523
 5040SOL    HW117437   5.704   6.049  10.266 -1.3347  3.2404  0.9835
 5040SOL    HW217438   5.767   6.085  10.399  1.6841 -0.3959  0.7043
 5041SOL     OW17439   7.224   4.882   6.984 -0.0722  0.4582  0.5243
 5041SOL    HW117440   7.215   4.791   6.957 -0.4977  0.8932 -0.9413
 5041SOL    HW217441   7.316   4.903   6.969  0.2730 -0.0089  1.8811
 5042SOL     OW17442   1.625   3.231   3.700 -0.5310 -0.1724 -0.0044
 5042SOL    HW117443   1.653   3.277   3.621 -1.0586 -0.0650 -0.1344
 5042SOL    HW217444   1.560   3.168   3.669 -0.3911 -0.4606  0.2817
 5043SOL     OW17445   5.629   8.742   0.374  0.2643  0.1388 -0.1292
 5043SOL    HW117446   5.626   8.751   0.279 -0.1729  1.2610 -0.0211
 5043SOL    HW217447   5.651   8.829   0.406 -2.4049  0.5424  0.9046
 5044SOL     OW17448   3.689   6.003   7.390  0.3479  0.0714  0.8767
 5044SOL    HW117449   3.635   6.051   7.452 -2.2906 -1.2546 -0.2279
 5044SOL    HW217450   3.687   6.056   7.310 -1.2230 -0.9949  0.1614
 5045SOL     OW17451   2.012   3.820   5.916 -0.4571  0.7195 -0.7186
 5045SOL    HW117452   1.940   3.870   5.878 -1.1247  0.8955  0.6980
 5045SOL    HW217453   2.065   3.886   5.962  0.3542  0.5203 -1.3273
 5046SOL     OW17454   9.478   3.050   0.710 -0.4413  0.1592  0.2548
 5046SOL    HW117455   9.428   2.993   0.768 -0.6693  0.4676  0.3697
 5046SOL    HW217456   9.440   3.137   0.725 -0.3254  0.2835 -0.1616
 5047SOL     OW17457   8.972   9.252   6.270 -0.0307 -0.0892 -0.7667
 5047SOL    HW117458   8.953   9.309   6.195 -1.7378  0.2983 -0.0894
 5047SOL    HW217459   8.913   9.283   6.339  1.7260 -0.2201  0.8689
 5048SOL     OW17460   6.958   3.733   6.387 -0.1471  0.2510  0.0712
 5048SOL    HW117461   6.895   3.725   6.316 -0.9442 -0.3153  0.8206
 5048SOL    HW217462   6.922   3.679   6.458 -0.0779  1.8442  1.3941
 5049SOL     OW17463   4.411  10.291   3.912  0.5093 -0.3487  0.4913
 5049SOL    HW117464   4.364  10.372   3.889 -0.4589 -0.6666  1.2630
 5049SOL    HW217465   4.370  10.262   3.994 -0.4043 -2.5617 -0.6663
 5050SOL     OW17466   2.019   2.495   0.472  0.7419 -0.0440 -0.1030
 5050SOL    HW117467   2.074   2.494   0.550  1.2207  1.0095 -0.4209
 5050SOL    HW217468   1.930   2.510   0.506  0.6367 -1.5190  0.3868
 5051SOL     OW17469   2.057   5.816   2.460  0.2687 -0.2077 -0.1408
 5051SOL    HW117470   2.077   5.728   2.490 -0.4578 -0.5765 -0.7291
 5051SOL    HW217471   2.134   5.842   2.409  0.8171 -0.1846  0.6707
 5052SOL     OW17472   5.778   1.715   3.790  0.1722 -0.4262  0.5122
 5052SOL    HW117473   5.734   1.692   3.871 -0.3373  0.6720  0.5755
 5052SOL    HW217474   5.869   1.731   3.815 -0.1128  0.5220  1.0021
 5053SOL     OW17475   9.651   4.084   0.766 -0.0220  0.3614  0.1542
 5053SOL    HW117476   9.640   4.080   0.861  0.9822  1.5142  0.3414
 5053SOL    HW217477   9.733   4.038   0.749 -1.2858 -1.7974 -0.4301
 5054SOL     OW17478   4.470   5.465   6.230 -0.0020 -0.4531  1.0036
 5054SOL    HW117479   4.474   5.560   6.226  0.5395 -0.5185 -0.7878
 5054SOL    HW217480   4.404   5.440   6.166  0.4104 -1.3180  0.8997
 5055SOL     OW17481   6.378   1.396   3.617 -0.5121 -0.7532 -0.5412
 5055SOL    HW117482   6.365   1.302   3.629 -0.1971 -0.7349 -0.0319
 5055SOL    HW217483   6.425   1.424   3.696 -2.8665  0.3111  0.5934
 5056SOL     OW17484   0.616   8.778   4.421 -0.2004 -0.1639  0.5154
 5056SOL    HW117485   0.671   8.706   4.449  1.0965 -0.4418 -2.4006
 5056SOL    HW217486   0.539   8.773   4.478  1.2834 -1.7967  2.5169
 5057SOL     OW17487   5.628   4.040   3.970  0.0176 -0.0187  0.1788
 5057SOL    HW117488   5.637   4.052   3.875 -0.0832 -2.3852 -0.1835
 5057SOL    HW217489   5.564   3.970   3.979  0.6829 -0.4457  1.9818
 5058SOL     OW17490   5.602   1.648   3.049 -0.1661  0.4307 -0.0622
 5058SOL    HW117491   5.535   1.669   3.114  0.2575  0.4042  0.3842
 5058SOL    HW217492   5.670   1.715   3.061 -0.4312  0.8848 -0.9915
 5059SOL     OW17493   3.070   1.646   0.222  0.6678  0.1142 -0.2797
 5059SOL    HW117494   3.157   1.673   0.251  0.9730  0.3857 -1.4220
 5059SOL    HW217495   3.019   1.727   0.219  0.4485 -0.0046  0.1087
 5060SOL     OW17496   0.646   7.783   9.161  0.2775  0.5896  0.3891
 5060SOL    HW117497   0.603   7.838   9.227  1.2084  1.3271  0.4181
 5060SOL    HW217498   0.578   7.726   9.128 -0.3408  0.6176  1.5792
 5061SOL     OW17499  10.208   2.994   6.285  0.3413  0.1242  0.1969
 5061SOL    HW117500  10.121   3.023   6.309  0.4732  0.4483  0.2861
 5061SOL    HW217501  10.260   3.074   6.280  1.0676 -0.1946  1.8942
 5062SOL     OW17502   9.484   3.676   9.749  0.8048  0.5189  0.0735
 5062SOL    HW117503   9.478   3.751   9.689  1.5967  0.1062 -0.5320
 5062SOL    HW217504   9.407   3.623   9.728  1.2610  0.1957 -0.8448
 5063SOL     OW17505   8.690   9.092   4.421 -0.4842 -0.1083 -0.5348
 5063SOL    HW117506   8.675   9.130   4.334 -0.3390 -1.0008 -0.9588
 5063SOL    HW217507   8.774   9.048   4.414  0.2665  1.0993  0.5310
 5064SOL     OW17508  10.107   6.416   1.440  0.0068 -0.0732  0.0302
 5064SOL    HW117509  10.189   6.466   1.447  0.5908 -0.9790 -0.1222
 5064SOL    HW217510  10.038   6.480   1.456  0.6221  1.2230 -2.0405
 5065SOL     OW17511   1.165   6.720   5.180  0.2972  0.2454 -0.2418
 5065SOL    HW117512   1.216   6.639   5.190  0.7255  0.2792 -1.8152
 5065SOL    HW217513   1.210   6.783   5.236  0.9048 -0.2088 -0.2017
 5066SOL     OW17514   5.004   9.228   9.177  0.1458 -0.3422  0.2930
 5066SOL    HW117515   4.972   9.286   9.107  0.3621 -0.7271 -0.1294
 5066SOL    HW217516   4.975   9.140   9.150  0.3143 -0.5041  0.6386
 5067SOL     OW17517   6.606   0.561  10.273 -0.8236 -0.2539 -0.0011
 5067SOL    HW117518   6.680   0.552  10.333  0.8970 -1.0952 -2.1577
 5067SOL    HW217519   6.579   0.471  10.255 -2.4045  0.0341  0.7014
 5068SOL     OW17520   6.093   3.384   8.461 -0.2088 -0.2275 -0.1948
 5068SOL    HW117521   6.161   3.445   8.432 -1.4008  1.2195 -0.0575
 5068SOL    HW217522   6.016   3.439   8.475 -1.5648 -1.8886 -0.8234
 5069SOL     OW17523   7.301   9.121   3.754 -0.3432 -0.5177 -0.3281
 5069SOL    HW117524   7.246   9.197   3.734  0.0988 -0.2640 -0.5898
 5069SOL    HW217525   7.240   9.056   3.788 -0.6651  0.1014  0.2912
 5070SOL     OW17526   7.745   7.714   4.080  0.1376 -0.1223  0.1512
 5070SOL    HW117527   7.778   7.682   4.164  0.9825  0.7794  0.1761
 5070SOL    HW217528   7.659   7.672   4.071  1.1157 -2.2766  0.2226
 5071SOL     OW17529   8.059   3.999   0.343  0.2102  0.5079  0.1422
 5071SOL    HW117530   8.117   3.922   0.344  1.5608  1.3715 -2.3608
 5071SOL    HW217531   7.974   3.964   0.315  1.0994  0.0164 -2.1324
 5072SOL     OW17532   4.983   5.294   8.353 -0.3291 -1.1215  0.2603
 5072SOL    HW117533   4.899   5.326   8.320 -0.1523 -1.0640 -0.1451
 5072SOL    HW217534   5.040   5.370   8.352 -0.0176 -1.3576 -0.3379
 5073SOL     OW17535  10.042   1.215   2.775  0.2351  0.3856  0.2993
 5073SOL    HW117536  10.006   1.201   2.862  0.2099 -0.1989  0.2008
 5073SOL    HW217537  10.057   1.310   2.769  0.3332  0.4119  0.9684
 5074SOL     OW17538   2.822   7.169   2.781  0.3808  0.4465  0.8194
 5074SOL    HW117539   2.865   7.118   2.850  0.8712  0.4108  0.4938
 5074SOL    HW217540   2.733   7.134   2.779  0.8842 -0.8864  0.1583
 5075SOL     OW17541   4.035   0.062   2.875 -0.2134 -0.4563  0.0003
 5075SOL    HW117542   3.948   0.086   2.907  0.1176  1.4454 -0.3633
 5075SOL    HW217543   4.023  -0.021   2.829 -1.4839 -1.1037  1.4444
 5076SOL     OW17544   0.778   9.739   0.635 -0.3979  0.2327  0.4491
 5076SOL    HW117545   0.823   9.822   0.625  0.3267 -0.1424  0.4874
 5076SOL    HW217546   0.685   9.761   0.634 -0.2298  0.9416 -0.3719
 5077SOL     OW17547   1.409   7.392   9.288  0.4155  0.1387 -0.1787
 5077SOL    HW117548   1.488   7.445   9.300  1.1494 -0.6706 -1.2002
 5077SOL    HW217549   1.383   7.408   9.197 -0.3249  0.0165  0.0023
 5078SOL     OW17550   0.535   0.223   0.716 -0.0618  0.7454  0.4438
 5078SOL    HW117551   0.480   0.197   0.642  0.3379 -0.3768  0.5071
 5078SOL    HW217552   0.618   0.247   0.676  0.7155 -1.4398  0.5687
 5079SOL     OW17553   6.416   6.552   3.706  0.2638 -0.1925  0.3519
 5079SOL    HW117554   6.493   6.548   3.649  0.3427  0.6434  0.3821
 5079SOL    HW217555   6.344   6.575   3.648 -0.2205 -2.1381  0.1155
 5080SOL     OW17556   2.280   2.599   9.414 -0.1266  0.3660 -0.1944
 5080SOL    HW117557   2.224   2.670   9.446 -1.0772 -0.1846 -0.5721
 5080SOL    HW217558   2.307   2.627   9.327 -0.9254  0.0603 -0.5553
 5081SOL     OW17559   0.059   8.498   6.930  0.4296  0.0940 -0.0358
 5081SOL    HW117560   0.004   8.555   6.984  1.9694 -0.7056  2.5507
 5081SOL    HW217561   0.022   8.506   6.842 -1.5063  2.3941  0.8627
 5082SOL     OW17562   4.174   0.684   7.283 -0.2455  0.0989 -0.5331
 5082SOL    HW117563   4.128   0.640   7.354 -2.3597  2.0260 -0.6188
 5082SOL    HW217564   4.117   0.673   7.207  1.3328 -0.7485 -1.6681
 5083SOL     OW17565   0.848   5.148   8.552  0.1702  0.4578 -0.0192
 5083SOL    HW117566   0.857   5.053   8.560 -1.9812  0.1972 -0.0863
 5083SOL    HW217567   0.855   5.165   8.458 -2.1792 -0.0643 -0.3735
 5084SOL     OW17568   5.110  10.540   0.220 -0.0368  0.2043  1.0421
 5084SOL    HW117569   5.079  10.478   0.286 -0.4428 -0.9553 -0.1920
 5084SOL    HW217570   5.119  10.488   0.140  0.9272  1.4560  0.2880
 5085SOL     OW17571   8.532   9.636   3.000  0.1859  0.3175  0.1549
 5085SOL    HW117572   8.455   9.579   2.999  0.6950 -0.4067 -1.1869
 5085SOL    HW217573   8.500   9.720   3.032 -1.8827  0.9553 -3.1283
 5086SOL     OW17574   7.834   5.768   3.302  0.2997 -0.4419  0.1877
 5086SOL    HW117575   7.751   5.815   3.310  0.8946  0.7454 -0.3823
 5086SOL    HW217576   7.818   5.702   3.236 -1.0948 -2.3285  2.2704
 5087SOL     OW17577   0.867   3.810   6.749  0.2051 -0.2918 -0.0828
 5087SOL    HW117578   0.940   3.870   6.733  0.0230  0.0471  0.3471
 5087SOL    HW217579   0.882   3.738   6.688 -0.2448  0.7775 -1.5139
 5088SOL     OW17580   3.680   5.694   7.754  0.2269 -0.2027  0.2999
 5088SOL    HW117581   3.732   5.771   7.775  0.6508 -0.1779 -0.7714
 5088SOL    HW217582   3.743   5.629   7.722 -0.4160  0.0821 -1.7121
 5089SOL     OW17583   1.409   7.545   3.837 -0.4270  0.0836 -0.4429
 5089SOL    HW117584   1.396   7.621   3.892 -0.5658 -0.3875  0.1840
 5089SOL    HW217585   1.334   7.488   3.855 -0.1899 -0.3230 -0.7020
 5090SOL     OW17586   3.652   3.238   6.365 -0.6519  0.3296  0.1694
 5090SOL    HW117587   3.624   3.287   6.442  1.1416  2.9829 -0.7005
 5090SOL    HW217588   3.577   3.241   6.306 -1.4073 -0.1441  1.0822
 5091SOL     OW17589   8.855   1.271   0.376  0.2919  0.3848 -0.0153
 5091SOL    HW117590   8.872   1.298   0.285 -2.2496  2.5381  0.0174
 5091SOL    HW217591   8.773   1.222   0.371  0.9285 -0.8280  0.9683
 5092SOL     OW17592   0.376   0.055   4.677  0.3402 -0.3062 -0.1945
 5092SOL    HW117593   0.382   0.022   4.587  0.9955  1.1584 -0.7201
 5092SOL    HW217594   0.415   0.143   4.673 -2.8685  1.3231  0.7251
 5093SOL     OW17595   5.261   5.201   0.881  0.3752 -0.0254 -0.2965
 5093SOL    HW117596   5.249   5.165   0.968  0.5090  1.1864  0.2380
 5093SOL    HW217597   5.249   5.126   0.822  1.3546 -1.0778  0.8008
 5094SOL     OW17598  10.071   3.633   1.152  0.2647  1.3087  0.3431
 5094SOL    HW117599  10.098   3.592   1.069 -1.8408 -0.8662  0.6344
 5094SOL    HW217600  10.046   3.722   1.127 -0.3477  0.6887 -1.4049
 5095SOL     OW17601   7.832   9.600   1.243  0.1018  0.4818 -0.0825
 5095SOL    HW117602   7.759   9.558   1.291  0.1310  0.7357  0.1889
 5095SOL    HW217603   7.800   9.688   1.224  0.9912  1.2127  1.6022
 5096SOL     OW17604   7.834   2.401   7.041 -0.6028 -0.0157 -0.1283
 5096SOL    HW117605   7.784   2.477   7.070 -2.8549 -1.5465  0.2310
 5096SOL    HW217606   7.836   2.408   6.945 -0.2797  0.7756 -0.0672
 5097SOL     OW17607   9.316   8.683   7.675 -0.0648  0.2218 -0.0285
 5097SOL    HW117608   9.395   8.638   7.648  0.1978 -0.2718  1.4414
 5097SOL    HW217609   9.344   8.773   7.694 -0.0826  0.3359 -0.5326
 5098SOL     OW17610   0.474   5.885   9.200 -0.2362  0.5973  0.4971
 5098SOL    HW117611   0.503   5.887   9.109  1.8066 -1.8197  0.9504
 5098SOL    HW217612   0.542   5.932   9.248  0.1964 -0.5234  1.0241
 5099SOL     OW17613   7.203   1.124   0.473 -0.7748  0.4449  0.4160
 5099SOL    HW117614   7.259   1.051   0.449 -2.6259 -0.8686 -0.1109
 5099SOL    HW217615   7.215   1.188   0.402  3.1174  2.1526  2.3044
 5100SOL     OW17616   0.031   4.381   6.148 -0.0039  0.4734 -0.2856
 5100SOL    HW117617   0.060   4.303   6.101  0.0946  0.8692 -0.8850
 5100SOL    HW217618  -0.043   4.350   6.201  0.2840 -0.1111 -0.2170
 5101SOL     OW17619   4.966  10.316   9.994 -0.5105 -0.0333  0.4947
 5101SOL    HW117620   5.034  10.381   9.976  1.0860 -2.1793 -1.8117
 5101SOL    HW217621   4.895  10.339   9.935 -0.5274  0.3614  0.6603
 5102SOL     OW17622   8.231   5.526   4.176  0.3948  0.2413  0.0544
 5102SOL    HW117623   8.148   5.559   4.143 -0.0555 -1.0560 -0.1636
 5102SOL    HW217624   8.208   5.453   4.233  1.3066  0.9150  1.3451
 5103SOL     OW17625   5.722   5.172   0.866 -0.2716  0.0049  0.0253
 5103SOL    HW117626   5.656   5.240   0.854  0.7137  1.8731  3.8886
 5103SOL    HW217627   5.777   5.178   0.787 -1.6103  2.0193 -0.8252
 5104SOL     OW17628   0.624  10.176   5.662  0.4628 -0.4680 -0.6200
 5104SOL    HW117629   0.687  10.117   5.705  2.3379  2.4734  1.0649
 5104SOL    HW217630   0.544  10.125   5.655  2.2770 -3.5663 -0.4350
 5105SOL     OW17631   3.693   8.455   7.147  0.2050  0.4103 -0.2671
 5105SOL    HW117632   3.711   8.524   7.084  0.9645  0.5618  0.1106
 5105SOL    HW217633   3.773   8.402   7.149 -0.6740 -1.0493 -1.2405
 5106SOL     OW17634   5.612   5.083   1.526  0.0500  0.0035 -0.5840
 5106SOL    HW117635   5.669   5.098   1.601 -1.5033  1.3896  0.3996
 5106SOL    HW217636   5.669   5.045   1.460  1.4563 -1.4040  1.3256
 5107SOL     OW17637   8.414  10.212   8.079  0.4572 -0.0113 -0.2095
 5107SOL    HW117638   8.392  10.255   7.996 -0.0465 -1.0190 -0.6110
 5107SOL    HW217639   8.440  10.284   8.136 -1.8596  1.0383 -0.3488
 5108SOL     OW17640   2.424   3.358   3.106 -0.1230  0.0465 -0.2945
 5108SOL    HW117641   2.375   3.400   3.178 -0.3732 -0.4397 -0.1784
 5108SOL    HW217642   2.393   3.404   3.027  0.0908  0.5253 -0.1041
 5109SOL     OW17643   9.308   1.877   5.903 -0.0088 -0.4757 -0.3089
 5109SOL    HW117644   9.321   1.833   5.987  0.4914 -0.2366 -0.2629
 5109SOL    HW217645   9.392   1.870   5.859 -0.1768 -0.3119 -0.6590
 5110SOL     OW17646   1.986   1.602   8.947 -0.0641  0.4768 -0.2531
 5110SOL    HW117647   1.941   1.535   8.999  0.1361 -0.6584 -1.4911
 5110SOL    HW217648   1.988   1.679   9.004 -2.3192  0.1506  0.3722
 5111SOL     OW17649  10.036   6.648   5.204 -0.2823  0.1529 -0.1458
 5111SOL    HW117650  10.026   6.684   5.293  2.1470 -0.6373  0.5163
 5111SOL    HW217651   9.987   6.566   5.206 -1.0983  0.6376  0.1313
 5112SOL     OW17652   6.013   3.883   3.688 -0.5310 -0.3988  0.1554
 5112SOL    HW117653   5.979   3.972   3.696 -2.5376 -1.1049 -0.0340
 5112SOL    HW217654   5.938   3.830   3.659  0.8538 -1.9821 -0.7718
 5113SOL     OW17655  10.490   7.386   0.543  0.4180  0.1262 -0.0440
 5113SOL    HW117656  10.435   7.444   0.490  0.3940  1.4719  1.3624
 5113SOL    HW217657  10.430   7.323   0.581  0.2515 -0.0660 -0.6194
 5114SOL     OW17658   0.630   9.054   1.351  0.1096  0.0041  0.4440
 5114SOL    HW117659   0.714   9.091   1.322  0.5934 -1.3720  0.0261
 5114SOL    HW217660   0.646   9.028   1.442  0.4965 -1.2353  0.0431
 5115SOL     OW17661   9.523   3.656   7.884 -0.3375  0.2304  0.2036
 5115SOL    HW117662   9.534   3.660   7.979 -2.1705  1.6677  0.3954
 5115SOL    HW217663   9.612   3.639   7.851  0.2604 -0.7909  2.1553
 5116SOL     OW17664   2.084   1.864   9.741 -0.2528  0.0737  0.7902
 5116SOL    HW117665   2.023   1.862   9.667 -1.0173 -2.0419  1.4057
 5116SOL    HW217666   2.081   1.954   9.772 -1.3600  0.5441 -0.5916
 5117SOL     OW17667   7.430   3.547   6.330 -0.1265 -0.2540 -0.4103
 5117SOL    HW117668   7.447   3.571   6.421  1.6900  1.7667 -1.1900
 5117SOL    HW217669   7.346   3.500   6.332 -0.8098  0.9395  2.0970
 5118SOL     OW17670   1.059   0.636   7.311 -0.1846  0.1104  0.4738
 5118SOL    HW117671   0.978   0.645   7.260 -0.5325  0.4622  1.0786
 5118SOL    HW217672   1.109   0.569   7.264 -1.9732 -2.1367  1.5848
 5119SOL     OW17673   9.636   6.336   9.233 -0.0280 -0.3016  0.4431
 5119SOL    HW117674   9.690   6.415   9.235  1.4803 -1.2620  3.2097
 5119SOL    HW217675   9.623   6.314   9.325 -1.4374 -2.6131 -0.2262
 5120SOL     OW17676  10.277   6.834   3.995 -0.0372  0.6761 -0.4953
 5120SOL    HW117677  10.292   6.915   3.946 -0.9889 -0.4710 -2.8207
 5120SOL    HW217678  10.198   6.797   3.956  0.4930 -1.4836  0.3817
 5121SOL     OW17679   6.722   9.299   3.470 -0.0356 -0.4760 -0.0245
 5121SOL    HW117680   6.637   9.255   3.464 -0.0016 -0.6220  0.4879
 5121SOL    HW217681   6.744   9.322   3.380 -0.9108  0.1113 -0.0942
 5122SOL     OW17682   0.577   8.936   8.276 -0.2608 -0.2499 -0.3513
 5122SOL    HW117683   0.541   8.860   8.322  1.7850 -0.8171  0.4215
 5122SOL    HW217684   0.564   8.916   8.183  2.1127 -2.6698 -0.2987
 5123SOL     OW17685   6.072   9.235   9.760 -0.2544  0.3519 -0.3952
 5123SOL    HW117686   6.014   9.160   9.775  0.0274  0.4686  1.5081
 5123SOL    HW217687   6.013   9.311   9.762 -0.3048  0.3132 -0.4402
 5124SOL     OW17688   3.333   5.811  10.320  0.7753  0.4514  0.4124
 5124SOL    HW117689   3.404   5.819  10.384  0.4068  1.4354  0.7246
 5124SOL    HW217690   3.306   5.902  10.304 -0.6733  0.0719  0.5983
 5125SOL     OW17691   4.292   5.149   1.497  0.2500 -0.2599  0.3148
 5125SOL    HW117692   4.262   5.083   1.559 -2.2694  0.4119 -0.0912
 5125SOL    HW217693   4.312   5.101   1.417 -0.3400 -0.6863  0.4205
 5126SOL     OW17694   8.467   2.554   2.410  0.7962  0.8632 -0.5704
 5126SOL    HW117695   8.397   2.576   2.348  1.0537  0.9191 -0.8391
 5126SOL    HW217696   8.519   2.488   2.365  0.4744  0.2657 -0.0695
 5127SOL     OW17697   8.519   3.686   7.102  0.2935 -0.5302  0.0838
 5127SOL    HW117698   8.524   3.653   7.191  2.2258 -1.6018 -0.3769
 5127SOL    HW217699   8.486   3.776   7.112 -1.9971 -1.4402  1.6037
 5128SOL     OW17700   5.910   3.688   1.302  0.2861 -0.3280  0.6079
 5128SOL    HW117701   5.888   3.732   1.384 -0.9141  0.4546 -0.1005
 5128SOL    HW217702   5.996   3.723   1.278  0.7452 -0.7332  1.6306
 5129SOL     OW17703   2.468   7.543   5.465 -0.1310 -0.3471  0.4324
 5129SOL    HW117704   2.424   7.471   5.421 -1.5170  0.5049  0.3661
 5129SOL    HW217705   2.561   7.525   5.453 -0.4463 -2.1717  0.5291
 5130SOL     OW17706   4.121   9.061   6.008  0.0091 -0.3131  0.0379
 5130SOL    HW117707   4.158   9.099   6.087 -0.9682 -2.1459  1.4652
 5130SOL    HW217708   4.174   9.097   5.937  2.6504 -0.5742  1.7211
 5131SOL     OW17709   6.681   2.618   7.765  0.0216  0.8966 -0.2327
 5131SOL    HW117710   6.620   2.691   7.753  2.3961  3.3905  1.5400
 5131SOL    HW217711   6.752   2.636   7.703  1.2776  0.8946  1.1578
 5132SOL     OW17712   1.411   2.116   9.178 -0.7200 -0.5044 -0.2412
 5132SOL    HW117713   1.417   2.162   9.095 -0.8839 -2.2393 -1.2498
 5132SOL    HW217714   1.390   2.184   9.242  1.3519  1.1930 -1.2415
 5133SOL     OW17715   4.830   0.298   7.759 -0.2267  0.0093 -0.2745
 5133SOL    HW117716   4.781   0.294   7.842 -0.4896  1.5304 -0.3195
 5133SOL    HW217717   4.798   0.378   7.717  0.7105 -0.1580 -1.3416
 5134SOL     OW17718   3.958   1.516   9.005 -0.5035 -0.1315  0.8640
 5134SOL    HW117719   3.924   1.592   9.053 -0.7858  0.8433 -0.7966
 5134SOL    HW217720   4.045   1.544   8.976 -0.4228 -0.6169  0.6324
 5135SOL     OW17721   9.237   9.279   4.235 -0.0125  0.0966  0.3705
 5135SOL    HW117722   9.238   9.359   4.182 -2.5810  0.0539  0.1465
 5135SOL    HW217723   9.219   9.209   4.172  1.1162 -0.5442  0.7330
 5136SOL     OW17724   1.581   1.907   5.979  0.3313 -0.0853  0.4110
 5136SOL    HW117725   1.505   1.901   6.036  0.3117 -1.6051  0.2573
 5136SOL    HW217726   1.548   1.883   5.892  0.8978 -0.3401  0.2583
 5137SOL     OW17727   8.261   9.061   2.831  0.0390  0.0658  0.2426
 5137SOL    HW117728   8.187   9.025   2.783 -0.4777 -0.1660  1.1876
 5137SOL    HW217729   8.275   9.001   2.904  2.0784 -0.6838 -0.6832
 5138SOL     OW17730   9.986  10.522   2.045 -1.1011 -0.0054 -0.0083
 5138SOL    HW117731   9.976  10.488   2.134  0.8644 -1.0738 -0.1528
 5138SOL    HW217732   9.901  10.507   2.004 -0.8600 -3.4013  0.4410
 5139SOL     OW17733   3.650   7.257   0.716  0.2524 -0.5744 -0.2811
 5139SOL    HW117734   3.565   7.268   0.674  0.9784 -0.1005 -1.7122
 5139SOL    HW217735   3.637   7.285   0.806 -1.3101 -1.3718 -0.2232
 5140SOL     OW17736   8.634   4.034   0.052 -0.5224 -0.0893  0.4093
 5140SOL    HW117737   8.580   4.000  -0.020  0.0904  0.5012 -0.3444
 5140SOL    HW217738   8.581   4.020   0.130 -0.9578 -1.3117 -0.0681
 5141SOL     OW17739   8.167   2.422   1.396 -0.3598 -0.7631  0.1745
 5141SOL    HW117740   8.087   2.465   1.366  0.1271  0.0261 -0.0307
 5141SOL    HW217741   8.236   2.457   1.339  0.0410 -1.9097 -0.0673
 5142SOL     OW17742   8.123   0.846  10.139 -0.1369  0.2248 -0.2522
 5142SOL    HW117743   8.183   0.807  10.202 -1.5261 -0.4404  0.6921
 5142SOL    HW217744   8.176   0.912  10.093  0.9244  0.7113  1.5808
 5143SOL     OW17745   1.516   2.485   0.668  0.0707  0.3771  0.1018
 5143SOL    HW117746   1.480   2.402   0.699  2.2675 -0.5462  0.4051
 5143SOL    HW217747   1.443   2.547   0.672 -1.8844 -1.7331 -1.0528
 5144SOL     OW17748   3.791   2.224   7.067  0.4558 -0.8494  0.1253
 5144SOL    HW117749   3.880   2.202   7.097  0.9773  0.9268 -0.0063
 5144SOL    HW217750   3.734   2.191   7.136  1.2828 -1.1967  0.6646
 5145SOL     OW17751   2.445   9.124   8.490  0.2236  0.0596  0.2161
 5145SOL    HW117752   2.367   9.103   8.542 -0.4406 -1.9603 -1.4253
 5145SOL    HW217753   2.515   9.135   8.554 -1.2457  1.2455  1.6905
 5146SOL     OW17754   6.022   5.342   6.071 -0.1522  0.0195  0.2405
 5146SOL    HW117755   6.087   5.299   6.016  0.8107  1.5792  0.0996
 5146SOL    HW217756   5.938   5.308   6.040  0.4824 -0.5856 -0.8736
 5147SOL     OW17757   5.775   3.800   4.037  0.3613  0.0491 -0.1439
 5147SOL    HW117758   5.727   3.879   4.062  2.0850  1.1062  0.0223
 5147SOL    HW217759   5.865   3.830   4.025  1.0837 -1.9225 -0.0083
 5148SOL     OW17760   5.951   3.630   5.195 -0.1977  0.5293 -0.1717
 5148SOL    HW117761   5.975   3.621   5.103 -0.9946 -0.6466 -0.2867
 5148SOL    HW217762   5.923   3.542   5.222 -0.1018  0.8746  1.1572
 5149SOL     OW17763   3.478   7.589   9.247 -0.3329  0.2446  0.0190
 5149SOL    HW117764   3.564   7.548   9.248  0.4607  1.8061  1.1065
 5149SOL    HW217765   3.486   7.660   9.183 -0.7480  0.4810  0.2216
 5150SOL     OW17766   6.584   3.300   1.694 -0.0908  0.0823 -0.2965
 5150SOL    HW117767   6.539   3.219   1.716  1.1130 -0.9907 -1.5857
 5150SOL    HW217768   6.644   3.314   1.767  1.1865 -1.3725 -1.0087
 5151SOL     OW17769   5.212   3.115   7.792 -0.0373  0.0081 -0.4033
 5151SOL    HW117770   5.268   3.038   7.793  1.0111  0.7412  1.6722
 5151SOL    HW217771   5.123   3.080   7.798  0.4754 -1.0554  1.8610
 5152SOL     OW17772   1.913  10.517   8.883 -0.1190  0.3105 -0.0103
 5152SOL    HW117773   1.993  10.548   8.840 -1.2452  1.7563 -1.1782
 5152SOL    HW217774   1.890  10.437   8.836  1.6169 -1.2475  1.5940
 5153SOL     OW17775   1.657   1.928   9.297  0.1468  0.0073 -0.1887
 5153SOL    HW117776   1.650   1.905   9.390  0.6941 -1.8106 -0.5671
 5153SOL    HW217777   1.717   2.004   9.296  1.4490 -0.9529  0.8378
 5154SOL     OW17778  10.120   5.233   0.528 -0.3506 -0.1804  0.5077
 5154SOL    HW117779  10.174   5.182   0.589 -0.7909  0.0711  1.1070
 5154SOL    HW217780  10.032   5.196   0.538 -0.5573  0.3176  0.5193
 5155SOL     OW17781   1.737   6.467   7.348  0.2035  0.0664  0.5581
 5155SOL    HW117782   1.646   6.489   7.371  0.3398  0.1934  0.9766
 5155SOL    HW217783   1.763   6.402   7.413  0.5817  0.4066  0.7491
 5156SOL     OW17784   8.877   2.187   4.020  0.1606 -0.1619 -0.1670
 5156SOL    HW117785   8.811   2.246   4.057 -1.8456 -0.3143 -3.1835
 5156SOL    HW217786   8.955   2.242   4.012 -0.1160  0.5875  1.7490
 5157SOL     OW17787   1.424   5.369   7.095  0.2008 -0.1307  0.1627
 5157SOL    HW117788   1.346   5.324   7.126 -0.9640  0.3712 -1.8015
 5157SOL    HW217789   1.490   5.355   7.163 -0.6965 -3.0292  0.5592
 5158SOL     OW17790   9.733   5.995   5.307 -0.2984  0.1599  0.2270
 5158SOL    HW117791   9.693   5.920   5.263 -1.4857  0.8980 -0.0164
 5158SOL    HW217792   9.740   6.062   5.239 -0.8206  0.8308  0.8108
 5159SOL     OW17793   9.726   6.138   0.713  0.8091  0.2785  0.0950
 5159SOL    HW117794   9.644   6.090   0.715  0.8836  0.0919 -0.8055
 5159SOL    HW217795   9.725   6.192   0.792  0.9552 -1.5760  1.4512
 5160SOL     OW17796   4.830   8.866   2.245  0.7837 -0.6386 -0.5981
 5160SOL    HW117797   4.895   8.878   2.314  0.3041  0.5151 -0.3159
 5160SOL    HW217798   4.880   8.832   2.171  1.0783 -3.2645  0.7060
 5161SOL     OW17799   9.436  10.323   5.285 -0.3505  0.1464 -0.4323
 5161SOL    HW117800   9.503  10.301   5.221 -0.1454 -0.7699  0.0828
 5161SOL    HW217801   9.462  10.410   5.318 -0.0514  0.2939 -1.0372
 5162SOL     OW17802   4.659   4.844   8.252  0.3752  0.3962 -0.1711
 5162SOL    HW117803   4.705   4.926   8.266 -0.4975  0.9358 -0.4405
 5162SOL    HW217804   4.652   4.805   8.340  2.2864 -0.2314 -0.2473
 5163SOL     OW17805   6.140  10.194   7.978 -0.6092 -0.0922 -0.1903
 5163SOL    HW117806   6.199  10.176   7.905 -0.6624 -1.5038  0.0860
 5163SOL    HW217807   6.170  10.278   8.013  0.3839 -0.1452 -0.8783
 5164SOL     OW17808   7.777   2.578   8.262 -0.0633 -0.4304  0.2365
 5164SOL    HW117809   7.771   2.664   8.220 -3.7622 -1.1965 -1.2565
 5164SOL    HW217810   7.732   2.588   8.346  2.1713 -0.2921  1.4877
 5165SOL     OW17811   0.779   8.388   8.903 -0.4592 -0.5972  0.5367
 5165SOL    HW117812   0.824   8.313   8.944 -1.6027 -1.0087  1.0787
 5165SOL    HW217813   0.705   8.350   8.856  0.1563  0.0008 -0.9880
 5166SOL     OW17814   1.396   2.765   4.197 -0.7217 -0.1660  0.1956
 5166SOL    HW117815   1.470   2.826   4.192 -0.7169 -0.2077 -0.3281
 5166SOL    HW217816   1.375   2.760   4.290  1.6442 -2.1719  0.7404
 5167SOL     OW17817   5.618  10.531   8.931 -0.0934  0.2973 -0.1634
 5167SOL    HW117818   5.700  10.486   8.912  0.1515  0.0285  1.3784
 5167SOL    HW217819   5.631  10.620   8.897  0.9279  0.3221  0.2607
 5168SOL     OW17820   2.205   9.418   1.569  0.2236  0.0276 -0.2075
 5168SOL    HW117821   2.167   9.331   1.565  0.1178  0.0124  0.8744
 5168SOL    HW217822   2.163   9.466   1.497 -1.3674 -0.1795  0.5450
 5169SOL     OW17823  10.283   2.751   3.109 -0.1934  0.2168  0.6733
 5169SOL    HW117824  10.280   2.672   3.054  2.0400  0.0190  0.7487
 5169SOL    HW217825  10.272   2.718   3.198 -0.4210  0.1335  0.6159
 5170SOL     OW17826   6.212   2.618   8.745  0.4027 -0.2478  0.0685
 5170SOL    HW117827   6.303   2.646   8.747  0.5537 -0.5519 -1.2951
 5170SOL    HW217828   6.187   2.607   8.837  1.3879  0.9395  0.4942
 5171SOL     OW17829   8.907   5.359   5.785 -0.4569 -0.6021  0.0925
 5171SOL    HW117830   8.895   5.339   5.692  0.5413 -1.2228  0.0845
 5171SOL    HW217831   8.970   5.294   5.816 -0.1736  0.0910  1.0238
 5172SOL     OW17832   8.021   9.004   5.692 -0.3748  0.3672  0.1930
 5172SOL    HW117833   8.106   9.040   5.717  0.2516 -0.7481 -0.2527
 5172SOL    HW217834   7.965   9.021   5.767  0.9129 -1.0860  1.5683
 5173SOL     OW17835   0.261   1.222   7.601 -0.1137  0.1491  0.3868
 5173SOL    HW117836   0.246   1.152   7.538 -0.6581  0.7027 -0.1193
 5173SOL    HW217837   0.339   1.196   7.649 -0.5819 -1.0341  0.5340
 5174SOL     OW17838   3.853   9.053   6.325 -0.5725  0.0456  0.7527
 5174SOL    HW117839   3.798   8.977   6.306 -1.2368  0.6050  0.3887
 5174SOL    HW217840   3.803   9.103   6.389 -0.2775  0.3291  0.7630
 5175SOL     OW17841   1.379   1.435   1.641  0.0542 -0.0155 -0.0442
 5175SOL    HW117842   1.353   1.356   1.688  2.9724  0.5274  2.8437
 5175SOL    HW217843   1.342   1.507   1.691 -0.5573  0.5403 -1.2575
 5176SOL     OW17844   7.204   4.058   9.716 -0.1914  0.0233 -0.2279
 5176SOL    HW117845   7.237   4.048   9.626 -1.5042 -0.9209 -0.6305
 5176SOL    HW217846   7.157   3.976   9.734  2.5346 -1.1600  2.4405
 5177SOL     OW17847   5.644   9.673   2.764 -0.1927  0.3957 -0.1569
 5177SOL    HW117848   5.652   9.768   2.762 -1.0656  0.4750 -0.0867
 5177SOL    HW217849   5.606   9.654   2.850  1.5223 -0.1539  0.5312
 5178SOL     OW17850   5.199   9.203   1.637  0.2412 -0.1326 -0.2288
 5178SOL    HW117851   5.179   9.113   1.612 -0.3898  0.4791 -2.1054
 5178SOL    HW217852   5.193   9.253   1.555  0.6890  1.6020  0.7346
 5179SOL     OW17853  10.404   7.844   2.910  0.3328  0.0873  0.3218
 5179SOL    HW117854  10.400   7.928   2.955  2.3515 -0.0600  0.9069
 5179SOL    HW217855  10.395   7.779   2.980 -0.6649 -0.1898 -0.0551
 5180SOL     OW17856   0.619   1.742   3.265  0.2625 -0.0572 -0.5107
 5180SOL    HW117857   0.577   1.782   3.188 -1.9404  1.6007  1.3827
 5180SOL    HW217858   0.553   1.682   3.299  1.3933 -1.1256 -0.1442
 5181SOL     OW17859   5.370   9.273  10.148 -0.1124  0.2719 -0.2648
 5181SOL    HW117860   5.364   9.357  10.103 -0.1268 -0.9532 -2.6554
 5181SOL    HW217861   5.283   9.235  10.139  0.3183 -0.6554 -0.5657
 5182SOL     OW17862   2.309   5.483   4.021  0.1686  0.4320  0.0769
 5182SOL    HW117863   2.365   5.553   4.052 -1.0702  0.1292  3.3922
 5182SOL    HW217864   2.223   5.523   4.011  0.0122 -0.0513 -0.5920
 5183SOL     OW17865   1.085   2.992   9.550 -0.1973  0.0397 -0.0443
 5183SOL    HW117866   1.123   2.914   9.510  1.3262  0.2129  0.9808
 5183SOL    HW217867   1.079   3.055   9.479  0.1954 -0.4435 -0.5129
 5184SOL     OW17868   5.124   8.732   4.066 -0.2915 -0.3118 -0.2107
 5184SOL    HW117869   5.168   8.697   4.144  0.2991 -1.8707 -1.1951
 5184SOL    HW217870   5.157   8.821   4.058  1.6111 -0.9660 -0.1050
 5185SOL     OW17871   5.287   0.981   4.638 -0.2347 -0.0407 -0.1401
 5185SOL    HW117872   5.375   0.995   4.604 -0.1309 -1.8133 -0.7309
 5185SOL    HW217873   5.232   0.974   4.560 -0.6059 -0.5826  0.1622
 5186SOL     OW17874   3.677   4.366   3.432 -0.3092 -0.4230  0.4601
 5186SOL    HW117875   3.684   4.310   3.355 -1.3756  0.0085  0.0343
 5186SOL    HW217876   3.607   4.327   3.484  0.4636 -0.7666  1.2729
 5187SOL     OW17877   8.177   7.263   3.932 -0.1821  0.6652 -0.0141
 5187SOL    HW117878   8.116   7.336   3.918 -1.9863 -1.2470 -3.6211
 5187SOL    HW217879   8.142   7.217   4.009 -2.4232  0.5854 -0.9822
 5188SOL     OW17880   3.787  10.179   6.180 -0.5305  0.1383  0.2622
 5188SOL    HW117881   3.746  10.141   6.102 -0.6982  0.9371 -0.0384
 5188SOL    HW217882   3.719  10.173   6.248  0.1131 -1.9788  0.8070
 5189SOL     OW17883   8.488   5.366   2.361  0.2612 -0.6222  0.3767
 5189SOL    HW117884   8.402   5.368   2.320  0.6695  0.7461 -0.4732
 5189SOL    HW217885   8.492   5.280   2.404 -0.7454 -1.5153 -1.2214
 5190SOL     OW17886   2.704   1.301   0.259  0.1286  0.3354  0.0267
 5190SOL    HW117887   2.799   1.288   0.266 -0.2432 -2.2264  1.8994
 5190SOL    HW217888   2.681   1.259   0.176  0.6058  0.9612 -0.4321
 5191SOL     OW17889   1.599   5.634   4.283  0.1412  0.1635 -0.6028
 5191SOL    HW117890   1.617   5.555   4.334 -0.8609  0.8947  0.9343
 5191SOL    HW217891   1.584   5.601   4.194  0.6412 -1.2756 -0.1911
 5192SOL     OW17892   4.986   7.330   2.274 -0.4185  0.2038 -0.2730
 5192SOL    HW117893   4.943   7.407   2.311 -1.0337 -0.9799  1.5925
 5192SOL    HW217894   4.919   7.261   2.276  1.2652 -1.5248  2.1242
 5193SOL     OW17895   2.871  10.381   1.780 -0.5974  0.8445  0.5114
 5193SOL    HW117896   2.847  10.462   1.824  0.3013  0.0390  2.6252
 5193SOL    HW217897   2.960  10.397   1.747 -0.2294  0.6193  1.3422
 5194SOL     OW17898   1.520   2.460   7.819  0.2685 -0.3569 -0.2345
 5194SOL    HW117899   1.498   2.449   7.911 -0.6400 -0.8562 -0.5032
 5194SOL    HW217900   1.451   2.518   7.785 -0.1883 -1.2720 -0.8975
 5195SOL     OW17901   7.717   6.962  10.091 -0.0312  0.0337 -0.1129
 5195SOL    HW117902   7.715   7.057  10.102 -0.2922 -0.0804  0.9660
 5195SOL    HW217903   7.810   6.940  10.094 -0.0189  0.1486  0.8422
 5196SOL     OW17904   9.331   5.866   4.581 -0.1758  0.4079  0.2657
 5196SOL    HW117905   9.319   5.911   4.498  0.4738 -1.6432 -0.9950
 5196SOL    HW217906   9.242   5.847   4.611 -0.5715  3.4566  1.4941
 5197SOL     OW17907   7.146   1.959   6.073 -0.0225  0.0334  0.4843
 5197SOL    HW117908   7.140   1.968   6.168 -0.9285 -0.5882  0.4993
 5197SOL    HW217909   7.083   1.890   6.051 -0.6285  0.9052 -0.6743
 5198SOL     OW17910   1.987   9.114   6.087  0.5821  0.3238  0.8590
 5198SOL    HW117911   1.943   9.051   6.030  2.4422 -1.1436  0.9659
 5198SOL    HW217912   1.988   9.195   6.036  0.0920 -0.3100 -0.1897
 5199SOL     OW17913   3.943   1.577   6.978  0.3724 -0.3447  0.2693
 5199SOL    HW117914   3.949   1.481   6.980  0.1047 -0.3695 -0.1058
 5199SOL    HW217915   4.032   1.606   6.961  0.3986 -0.5395  0.0693
 5200SOL     OW17916  10.145   9.935   1.092 -0.4498 -0.2402 -0.7175
 5200SOL    HW117917  10.137   9.965   1.002 -1.4644 -0.0247 -0.5716
 5200SOL    HW217918  10.158  10.015   1.143 -0.3798 -0.3135 -0.6181
 5201SOL     OW17919   1.586   7.483   0.065 -0.0915 -0.0701 -0.2614
 5201SOL    HW117920   1.530   7.409   0.040  1.9220 -1.6502 -0.3713
 5201SOL    HW217921   1.646   7.494  -0.009 -0.6436  2.0521 -0.4598
 5202SOL     OW17922   6.250   4.006   3.556 -0.3862  0.5414 -0.2622
 5202SOL    HW117923   6.169   3.972   3.594 -0.9327  2.0468  0.0334
 5202SOL    HW217924   6.278   3.940   3.494 -0.4681 -1.1643  1.4361
 5203SOL     OW17925   9.680   6.557   5.442 -0.2145 -0.4359  0.2918
 5203SOL    HW117926   9.589   6.560   5.412  0.0201  0.2228 -0.3876
 5203SOL    HW217927   9.674   6.530   5.534 -1.1567  0.4830  0.5132
 5204SOL     OW17928   9.134   8.758   6.516  0.0973 -0.5734  0.8183
 5204SOL    HW117929   9.142   8.792   6.605  0.1964 -1.6157  1.2230
 5204SOL    HW217930   9.223   8.753   6.483 -0.0698  3.1789 -0.7194
 5205SOL     OW17931  10.410   8.319   2.276  0.1357  0.0914 -0.6374
 5205SOL    HW117932  10.481   8.347   2.333 -0.3401 -0.0793  0.0621
 5205SOL    HW217933  10.452   8.262   2.211  0.3349 -2.1409  1.2864
 5206SOL     OW17934   3.077   5.059  10.082  0.1805 -0.0601  0.4281
 5206SOL    HW117935   2.994   5.029  10.120  0.5533 -0.5352  0.8772
 5206SOL    HW217936   3.055   5.080   9.991  0.2583 -3.6314 -0.6003
 5207SOL     OW17937   1.227  10.396   6.199 -0.0472 -0.0668 -0.3057
 5207SOL    HW117938   1.276  10.457   6.254  1.9247 -0.7023 -1.2663
 5207SOL    HW217939   1.145  10.382   6.246  0.5444  1.2814  1.2282
 5208SOL     OW17940   1.291  10.203   1.457 -0.0047 -0.3612 -0.2923
 5208SOL    HW117941   1.287  10.188   1.552 -0.2321 -0.6598 -0.3469
 5208SOL    HW217942   1.326  10.292   1.449  1.1487 -0.7708  0.0418
 5209SOL     OW17943   9.437   7.499   9.648  0.0592  0.1284  0.6718
 5209SOL    HW117944   9.514   7.557   9.650  0.2584 -0.0395 -0.7302
 5209SOL    HW217945   9.447   7.451   9.566 -1.6452  0.2263  0.3846
 5210SOL     OW17946   9.528   5.941   0.017 -0.0128 -0.6155 -0.1929
 5210SOL    HW117947   9.528   6.032   0.047  0.5577 -1.0333  1.1773
 5210SOL    HW217948   9.608   5.932  -0.034 -0.2205 -0.2814 -0.5848
 5211SOL     OW17949   2.389   8.097   4.275  0.1441  0.3391 -0.1543
 5211SOL    HW117950   2.401   8.003   4.268  2.1479  0.5878 -0.8977
 5211SOL    HW217951   2.464   8.127   4.328 -1.0061  1.4142  0.9382
 5212SOL     OW17952  10.479  10.047   9.305 -0.2659 -0.9149  0.2898
 5212SOL    HW117953  10.530  10.128   9.306 -0.9352 -0.4739 -0.2158
 5212SOL    HW217954  10.450  10.036   9.396 -1.5496  0.3237  0.0637
 5213SOL     OW17955   8.351   2.611   5.731  0.2422 -0.1883  0.0317
 5213SOL    HW117956   8.370   2.694   5.774 -2.9554  0.5870  0.1415
 5213SOL    HW217957   8.397   2.545   5.784 -0.8392  1.0658  2.6913
 5214SOL     OW17958   6.864   8.083   2.077  0.3366  0.1577  0.3198
 5214SOL    HW117959   6.793   8.136   2.113 -0.4090  1.9179 -3.2929
 5214SOL    HW217960   6.944   8.132   2.099 -0.2143  1.9799 -1.4455
 5215SOL     OW17961   8.746   2.424   4.068 -0.2763  0.0030 -0.3872
 5215SOL    HW117962   8.725   2.389   4.155 -1.1673  1.6910  0.1238
 5215SOL    HW217963   8.665   2.467   4.040  0.3352  0.3920 -1.5892
 5216SOL     OW17964   7.513   1.724   5.972  0.0480 -0.3696  0.2034
 5216SOL    HW117965   7.478   1.684   6.052 -2.4307  1.2902  0.0697
 5216SOL    HW217966   7.491   1.817   5.981  3.2093  0.5855 -0.6807
 5217SOL     OW17967   3.515   2.350  10.124  0.5588  0.1452  0.0862
 5217SOL    HW117968   3.562   2.304  10.194 -0.5891 -1.1461  0.0401
 5217SOL    HW217969   3.542   2.442  10.134 -0.7382  0.3188  3.2457
 5218SOL     OW17970   1.945   7.852  10.509 -0.6585  0.8203  0.5766
 5218SOL    HW117971   2.015   7.897  10.461 -1.2457  1.8399  0.6350
 5218SOL    HW217972   1.974   7.761  10.513 -0.2397  0.8348 -1.0804
 5219SOL     OW17973   2.180   1.023   2.716  0.2036 -0.0047  0.3978
 5219SOL    HW117974   2.185   1.069   2.632  0.2521  0.3198  0.5790
 5219SOL    HW217975   2.088   1.000   2.726  0.4445 -1.5663 -0.5593
 5220SOL     OW17976   4.360   9.505   9.629  0.3401  0.2427 -0.2390
 5220SOL    HW117977   4.291   9.531   9.567  1.5596  0.4295 -1.5727
 5220SOL    HW217978   4.346   9.412   9.642 -0.4216  0.3624 -0.1761
 5221SOL     OW17979   8.509   3.402   0.838 -0.6967  0.2236 -0.5489
 5221SOL    HW117980   8.426   3.419   0.882 -0.5020 -1.0711  0.3552
 5221SOL    HW217981   8.532   3.313   0.863  1.8478  1.1253  0.7270
 5222SOL     OW17982  10.592   0.323   9.142 -0.4720 -0.3895 -0.4014
 5222SOL    HW117983  10.503   0.357   9.153 -1.1161 -1.9187 -0.6318
 5222SOL    HW217984  10.634   0.386   9.084 -0.7879  1.3640  1.1712
 5223SOL     OW17985   3.790   5.280   1.846 -0.8159  0.2061  0.1058
 5223SOL    HW117986   3.824   5.368   1.862 -0.6448  0.2906 -0.6852
 5223SOL    HW217987   3.857   5.222   1.881 -0.8648  0.3876  0.5068
 5224SOL     OW17988   5.823   5.002   7.281  0.3424  0.2869 -0.0580
 5224SOL    HW117989   5.737   4.961   7.295 -0.1163  1.3901  0.5013
 5224SOL    HW217990   5.855   4.963   7.200 -0.4282 -0.5676  0.0289
 5225SOL     OW17991   4.377  10.440   9.613  0.4583 -0.6479 -0.3603
 5225SOL    HW117992   4.367  10.530   9.645 -0.4110 -1.1720  0.9119
 5225SOL    HW217993   4.421  10.450   9.529 -0.0418  1.0006 -0.4708
 5226SOL     OW17994   3.192   1.564   5.423  0.6768  0.2533  0.8253
 5226SOL    HW117995   3.136   1.553   5.499  0.0892 -0.9503  0.2393
 5226SOL    HW217996   3.132   1.576   5.350  1.1807 -0.4975  0.2707
 5227SOL     OW17997   1.430   1.167   1.279 -0.4555 -0.6596  0.2748
 5227SOL    HW117998   1.395   1.235   1.336  0.7960  0.0553  0.2244
 5227SOL    HW217999   1.446   1.212   1.196  0.9575 -0.8395  0.4264
 5228SOL     OW18000   2.676   3.575   2.092  0.5418 -0.1272  0.9641
 5228SOL    HW118001   2.711   3.541   2.174  0.3572 -0.4057  0.9304
 5228SOL    HW218002   2.588   3.538   2.086 -0.1657  1.4028  1.5548
 5229SOL     OW18003   1.148   8.107  10.263  0.1172  0.2162  0.0303
 5229SOL    HW118004   1.194   8.024  10.257 -2.1246 -1.0448 -1.2384
 5229SOL    HW218005   1.127   8.130  10.172  1.3722  2.6514  0.2560
 5230SOL     OW18006  10.427   9.965   9.547 -0.3836 -0.1480  0.2339
 5230SOL    HW118007  10.442   9.870   9.546 -0.1960 -0.1414  1.4041
 5230SOL    HW218008  10.509  10.002   9.581 -0.6843  0.3912  0.3744
 5231SOL     OW18009   2.889   2.766   5.305  0.2751  0.2571 -0.3396
 5231SOL    HW118010   2.843   2.803   5.229  2.5781 -2.0125 -3.0898
 5231SOL    HW218011   2.838   2.688   5.328  0.0115  0.5152 -0.0320
 5232SOL     OW18012   3.243   0.131   1.291  0.2108 -0.7928  0.1845
 5232SOL    HW118013   3.332   0.159   1.271  0.3915  0.8697  2.7877
 5232SOL    HW218014   3.188   0.176   1.226  1.0465  0.6449  0.4319
 5233SOL     OW18015   8.072  10.444  10.039 -0.1167  0.0994 -0.2488
 5233SOL    HW118016   8.144  10.404  10.086  0.1695  0.0146 -0.7500
 5233SOL    HW218017   8.007  10.464  10.106 -0.2167 -1.0971  0.0259
 5234SOL     OW18018   8.401   9.316   2.819  0.9430  0.1353  0.0292
 5234SOL    HW118019   8.390   9.358   2.904 -2.2484  0.8508 -0.6004
 5234SOL    HW218020   8.375   9.225   2.833 -2.2356  0.8189 -0.5437
 5235SOL     OW18021   3.048   6.017   3.308 -0.0061 -0.2403  0.9015
 5235SOL    HW118022   3.028   6.011   3.402 -3.1279 -2.3757  0.2567
 5235SOL    HW218023   3.005   5.941   3.270  1.3018  0.4824 -2.3028
 5236SOL     OW18024   9.110   9.931   6.987  0.1838 -0.1893  0.1280
 5236SOL    HW118025   9.033   9.897   7.032  1.3339 -1.7926  0.9545
 5236SOL    HW218026   9.120  10.020   7.022 -1.5485  0.2502 -0.3737
 5237SOL     OW18027   8.640   9.295   3.523  0.2453 -0.2670  0.6537
 5237SOL    HW118028   8.586   9.353   3.470  1.1103  0.5994  0.6877
 5237SOL    HW218029   8.684   9.239   3.459  0.9100  0.4486  0.4672
 5238SOL     OW18030  10.126   7.076   5.344  0.1016 -0.4215  0.0780
 5238SOL    HW118031  10.097   7.120   5.264  2.5990  0.9235 -0.2036
 5238SOL    HW218032  10.213   7.042   5.322  0.4633 -0.8054  1.9504
 5239SOL     OW18033   2.249   3.075   1.299  0.1986  0.4088 -0.2060
 5239SOL    HW118034   2.239   2.985   1.329  0.1480  0.3174 -0.4917
 5239SOL    HW218035   2.167   3.118   1.325  1.0114  0.8944  1.7014
 5240SOL     OW18036   5.106   1.754   0.388  0.1397 -0.1047 -0.0030
 5240SOL    HW118037   5.100   1.732   0.295 -2.2710 -0.9728  0.2946
 5240SOL    HW218038   5.152   1.838   0.390  1.7267 -0.8512 -1.8206
 5241SOL     OW18039   5.457   5.326   6.551 -0.3809  0.0601 -0.1864
 5241SOL    HW118040   5.482   5.388   6.483 -2.1741 -0.5447 -1.4756
 5241SOL    HW218041   5.395   5.266   6.509  0.6528 -2.1530  1.2165
 5242SOL     OW18042   0.003   2.599   2.599  0.6663  0.0364  0.4692
 5242SOL    HW118043  -0.007   2.506   2.579  0.4995  0.0442  0.5098
 5242SOL    HW218044  -0.079   2.622   2.644 -0.7661  0.9718 -2.3831
 5243SOL     OW18045   2.531   9.431   2.668 -0.9817 -0.0635 -0.1985
 5243SOL    HW118046   2.541   9.382   2.750 -1.0101  0.1697 -0.0548
 5243SOL    HW218047   2.467   9.499   2.689  0.4724  1.2477  0.1640
 5244SOL     OW18048   4.238   5.906   9.110 -0.1249 -0.2090  0.0191
 5244SOL    HW118049   4.277   5.903   9.198 -0.3098  1.2130  0.1759
 5244SOL    HW218050   4.144   5.913   9.126 -0.2284 -0.7394 -0.3236
 5245SOL     OW18051   5.440   6.641   4.262 -0.3245 -0.0463 -0.0619
 5245SOL    HW118052   5.349   6.618   4.243 -0.8509 -0.9521  2.9322
 5245SOL    HW218053   5.487   6.623   4.181 -2.6018 -0.8160 -1.2995
 5246SOL     OW18054   2.734   6.955   4.152  0.0135  0.3193 -0.2025
 5246SOL    HW118055   2.809   7.011   4.131 -0.7337  1.2931 -0.3816
 5246SOL    HW218056   2.658   7.010   4.133 -0.7849 -1.1817 -1.5998
 5247SOL     OW18057   8.822  10.359   6.092 -0.2971 -0.0080 -0.2505
 5247SOL    HW118058   8.863  10.405   6.018  0.5924  0.0647  0.2737
 5247SOL    HW218059   8.882  10.374   6.165 -0.4783 -1.1979  0.1641
 5248SOL     OW18060   4.226   7.514   3.056  0.0994 -0.4406 -0.1979
 5248SOL    HW118061   4.265   7.426   3.048  0.1819 -0.3890 -0.3833
 5248SOL    HW218062   4.290   7.563   3.107  0.0493 -0.4901 -0.0864
 5249SOL     OW18063   2.915   9.328   2.351 -0.4789  0.1850 -0.0984
 5249SOL    HW118064   2.981   9.265   2.381 -0.0938  0.8704  0.5481
 5249SOL    HW218065   2.905   9.311   2.258  1.7856  1.0729 -0.5607
 5250SOL     OW18066   4.116   3.019   2.440  0.5493  0.1190  0.1173
 5250SOL    HW118067   4.113   3.046   2.349  1.4333 -0.6582 -0.1568
 5250SOL    HW218068   4.050   3.073   2.484 -1.8774 -1.3756 -1.4751
 5251SOL     OW18069   9.951   8.066   2.262  0.4266 -0.3737 -0.1460
 5251SOL    HW118070  10.018   8.123   2.300  0.0162  1.0423 -1.4710
 5251SOL    HW218071   9.872   8.120   2.258 -0.5292 -1.6534  0.3238
 5252SOL     OW18072   7.357   2.121   2.451  0.2320  0.5440  0.6545
 5252SOL    HW118073   7.333   2.113   2.359  1.5351  0.2645  0.3165
 5252SOL    HW218074   7.273   2.121   2.498 -0.4240  0.0967 -0.4789
 5253SOL     OW18075   1.862   7.559   0.416  0.4696  0.3992  0.3368
 5253SOL    HW118076   1.860   7.585   0.323  1.6989 -0.4531  0.0557
 5253SOL    HW218077   1.938   7.603   0.452  0.3974  0.1710  0.7762
 5254SOL     OW18078  10.298   8.906   9.700  0.3815 -0.1763  0.0773
 5254SOL    HW118079  10.366   8.932   9.762 -1.0213  1.4161  1.0305
 5254SOL    HW218080  10.249   8.836   9.745  0.4343 -0.2418  0.0341
 5255SOL     OW18081   1.669   7.246   1.241 -0.3198  0.3845 -1.2224
 5255SOL    HW118082   1.583   7.225   1.279 -0.1432  1.4781 -0.1551
 5255SOL    HW218083   1.721   7.278   1.315  1.0130 -0.2234 -1.8592
 5256SOL     OW18084  10.445   4.144   2.755 -0.4024  0.3672 -0.0099
 5256SOL    HW118085  10.384   4.218   2.759 -0.2596  0.4844 -0.0018
 5256SOL    HW218086  10.403   4.076   2.808 -0.6367  0.3652 -0.1949
 5257SOL     OW18087   2.160   8.359   9.137 -0.0973  0.0323 -0.1035
 5257SOL    HW118088   2.099   8.286   9.136  0.5593 -0.5417  0.6162
 5257SOL    HW218089   2.158   8.393   9.048  1.0271 -2.0963 -1.0150
 5258SOL     OW18090   5.766   7.562   6.927  0.5133 -0.0971  0.4572
 5258SOL    HW118091   5.856   7.548   6.898  0.3672  0.7973 -0.4698
 5258SOL    HW218092   5.712   7.534   6.853  0.1024  1.4138  0.1592
 5259SOL     OW18093   5.046  10.586   9.194 -0.3417 -0.0348  0.0031
 5259SOL    HW118094   5.060  10.540   9.277 -0.3350  0.7713  0.4557
 5259SOL    HW218095   5.050  10.517   9.128 -0.4495 -0.7040  0.6769
 5260SOL     OW18096   3.587   1.991   8.906  0.1624 -0.2723  0.0457
 5260SOL    HW118097   3.667   1.940   8.900 -0.0235 -0.7474  1.3011
 5260SOL    HW218098   3.588   2.028   8.995  0.2721  1.9068 -0.8071
 5261SOL     OW18099   2.996   1.223   4.874 -0.2776 -0.5973  0.2729
 5261SOL    HW118100   2.921   1.195   4.821 -0.2412  1.4248 -0.9823
 5261SOL    HW218101   3.065   1.241   4.809 -0.3371  2.2836  0.8797
 5262SOL     OW18102   8.731   3.814   7.708  0.0412 -0.0383  0.0630
 5262SOL    HW118103   8.670   3.857   7.647  1.3417  0.9426 -0.5959
 5262SOL    HW218104   8.687   3.818   7.792 -0.3154  1.7808 -0.1545
 5263SOL     OW18105   3.426   1.147   3.458 -0.0434  0.2769 -0.1338
 5263SOL    HW118106   3.380   1.074   3.498 -2.2954  1.5538 -0.1858
 5263SOL    HW218107   3.478   1.108   3.389 -2.8649 -1.1479 -1.6297
 5264SOL     OW18108   1.475   9.639   3.708  0.0874  0.4213  0.4180
 5264SOL    HW118109   1.445   9.553   3.740  1.0050  0.7886  2.4425
 5264SOL    HW218110   1.461   9.698   3.783  0.8096  1.7328 -0.4461
 5265SOL     OW18111   6.444   9.885   4.364 -0.2081 -0.4629 -0.0950
 5265SOL    HW118112   6.529   9.888   4.321 -0.4726  0.4374 -0.5683
 5265SOL    HW218113   6.428   9.975   4.393 -0.6088 -0.7957  0.7669
 5266SOL     OW18114   8.270   1.616   5.957 -0.1081  0.1799 -0.1139
 5266SOL    HW118115   8.195   1.674   5.966 -0.2387  0.0342 -0.2579
 5266SOL    HW218116   8.324   1.634   6.034 -0.9475 -0.6791  0.6960
 5267SOL     OW18117   3.451   2.202   1.436 -0.0521 -0.1908  0.2063
 5267SOL    HW118118   3.371   2.200   1.489 -1.7546 -1.6490 -2.1860
 5267SOL    HW218119   3.465   2.111   1.410  1.0886  0.3588 -1.2570
 5268SOL     OW18120   5.821   5.079  10.108  0.3759  0.1283 -0.4593
 5268SOL    HW118121   5.731   5.111  10.094 -0.1032 -0.2053  1.5530
 5268SOL    HW218122   5.873   5.125  10.042 -1.2369  0.4572 -1.5718
 5269SOL     OW18123   4.796   6.460   1.724  0.4013 -0.6766  0.3394
 5269SOL    HW118124   4.837   6.465   1.637 -1.4867  0.3218 -0.5562
 5269SOL    HW218125   4.761   6.371   1.727 -0.8962 -0.2242 -0.6156
 5270SOL     OW18126   1.802   9.228   9.080  0.2320  0.4415  0.1084
 5270SOL    HW118127   1.813   9.194   9.169  1.1194  0.7607  0.1366
 5270SOL    HW218128   1.819   9.322   9.088  1.7801  0.2529 -0.6215
 5271SOL     OW18129   4.295   2.489   0.904 -0.1877 -0.4838  0.2028
 5271SOL    HW118130   4.285   2.499   0.809  0.0650 -0.7759  0.1460
 5271SOL    HW218131   4.279   2.577   0.939 -1.9779 -0.6984  0.0295
 5272SOL     OW18132   9.913   5.930   5.572  0.0537 -0.1261  0.2387
 5272SOL    HW118133   9.948   5.843   5.550  0.1983 -0.0741  0.2617
 5272SOL    HW218134   9.844   5.945   5.507 -0.7667 -0.7484  0.9397
 5273SOL     OW18135   2.349   4.787   0.700  0.0766 -0.1987 -0.2873
 5273SOL    HW118136   2.275   4.808   0.643 -0.1489  0.1620  0.1291
 5273SOL    HW218137   2.426   4.806   0.647 -0.1198  1.3558 -0.0743
 5274SOL     OW18138   0.503   1.361   2.164  0.0586 -0.1066 -0.3527
 5274SOL    HW118139   0.424   1.365   2.219 -0.3622  1.2938 -1.0162
 5274SOL    HW218140   0.558   1.296   2.207 -0.6555  0.2510  1.2093
 5275SOL     OW18141   5.758   0.371   0.855  0.3886  0.8024  0.3798
 5275SOL    HW118142   5.834   0.373   0.912  2.4439 -1.9212 -1.9793
 5275SOL    HW218143   5.715   0.288   0.875 -0.6553  1.2390  0.0560
 5276SOL     OW18144   0.112   0.070   0.225 -0.4872 -0.4068  0.0981
 5276SOL    HW118145   0.048   0.105   0.162 -0.4837 -1.3307 -0.4344
 5276SOL    HW218146   0.189   0.126   0.214 -2.0225  2.4963  2.6541
 5277SOL     OW18147   2.625   8.883   9.360 -0.1898 -0.2677  0.1721
 5277SOL    HW118148   2.686   8.899   9.288  1.8595 -0.5876  1.7618
 5277SOL    HW218149   2.544   8.854   9.316 -0.0084  2.2668 -2.1016
 5278SOL     OW18150   9.799  10.504  10.439 -0.3551  0.0765  0.0525
 5278SOL    HW118151   9.780  10.562  10.512  0.2029 -0.8574  0.9668
 5278SOL    HW218152   9.756  10.422  10.461  0.6614 -0.5371 -0.1581
 5279SOL     OW18153   9.409   9.082   9.251 -0.2572 -0.2768 -0.1030
 5279SOL    HW118154   9.343   9.057   9.316 -1.9866  0.1601 -1.5768
 5279SOL    HW218155   9.409   9.011   9.188 -0.2002  0.2766 -0.7411
 5280SOL     OW18156   8.383   4.593   1.942 -0.5018 -0.3299  0.2785
 5280SOL    HW118157   8.439   4.517   1.931  0.9397  0.8154 -0.8088
 5280SOL    HW218158   8.426   4.645   2.010 -0.9171 -0.0235  0.3118
 5281SOL     OW18159   6.841   9.185   6.431 -0.2651  0.0295 -0.3904
 5281SOL    HW118160   6.888   9.135   6.497  3.0486  0.9710 -1.8510
 5281SOL    HW218161   6.834   9.273   6.468 -2.0566 -0.3644  0.3036
 5282SOL     OW18162   0.115   3.103   3.459 -0.3330 -0.2518 -0.5156
 5282SOL    HW118163   0.066   3.128   3.537  0.3458  0.6003 -0.3387
 5282SOL    HW218164   0.118   3.008   3.462  0.1015 -0.2280  0.7894
 5283SOL     OW18165   2.620   9.646   1.565 -0.3210 -0.0811 -0.4570
 5283SOL    HW118166   2.644   9.733   1.534  0.8253  0.0663  0.7453
 5283SOL    HW218167   2.534   9.658   1.606  1.1218  1.2474  2.4999
 5284SOL     OW18168   7.851   9.663   2.581 -0.2225 -0.0770  0.4589
 5284SOL    HW118169   7.860   9.615   2.499  0.0488 -0.3273  0.6344
 5284SOL    HW218170   7.790   9.734   2.561  2.6488  2.2044 -1.0317
 5285SOL     OW18171  10.405   1.845   6.824  0.4872  0.1863  0.2590
 5285SOL    HW118172  10.329   1.810   6.871 -0.5057  2.2914  0.3097
 5285SOL    HW218173  10.446   1.905   6.886  1.0484  0.5681 -0.4714
 5286SOL     OW18174   5.041   0.591   6.780 -0.0840  0.2354 -1.0656
 5286SOL    HW118175   5.069   0.629   6.864 -1.9103 -0.5470 -0.0475
 5286SOL    HW218176   5.114   0.535   6.754  0.1421 -0.2791  0.5296
 5287SOL     OW18177   8.658   0.000   2.836 -0.1153 -0.8404 -0.1135
 5287SOL    HW118178   8.698  -0.085   2.824  1.1699 -0.4491  1.0820
 5287SOL    HW218179   8.710   0.060   2.782 -0.9399 -0.7865 -0.8618
 5288SOL     OW18180   0.574   1.260   3.233 -0.0954  0.1249  0.5931
 5288SOL    HW118181   0.516   1.282   3.306  0.2625  1.8275  0.3982
 5288SOL    HW218182   0.514   1.243   3.160 -0.4313 -1.1337  1.1267
 5289SOL     OW18183   8.728  10.273   3.803 -0.1863 -0.2538 -0.4385
 5289SOL    HW118184   8.675  10.345   3.838 -0.8512 -0.5651 -0.7943
 5289SOL    HW218185   8.699  10.264   3.713 -1.8923 -2.5452  0.2296
 5290SOL     OW18186  10.327   0.042   6.628  0.0769  0.0900 -0.2518
 5290SOL    HW118187  10.315   0.041   6.533 -1.1094  1.6751 -0.1549
 5290SOL    HW218188  10.242   0.018   6.663 -0.3926  2.4791  0.4035
 5291SOL     OW18189   1.617   0.987   1.821 -0.3591  0.1930  0.1075
 5291SOL    HW118190   1.674   0.913   1.843 -1.2545 -0.8658 -0.9552
 5291SOL    HW218191   1.659   1.027   1.744 -0.2328  0.3798  0.2723
 5292SOL     OW18192   6.735   0.492   4.534  0.7691  0.1254 -0.2964
 5292SOL    HW118193   6.642   0.491   4.558  0.6749  1.2740 -0.5299
 5292SOL    HW218194   6.776   0.430   4.594  0.1986  1.2477  1.3507
 5293SOL     OW18195   8.420   3.594   6.843  0.2473  0.3209 -0.2456
 5293SOL    HW118196   8.434   3.588   6.937 -0.2313 -0.0582 -0.1945
 5293SOL    HW218197   8.439   3.686   6.822 -1.0019  0.7569  0.4544
 5294SOL     OW18198   6.305   0.391   6.780 -0.3906  0.3439  0.1303
 5294SOL    HW118199   6.260   0.344   6.710  1.1554  0.7607 -1.2311
 5294SOL    HW218200   6.318   0.479   6.744  0.3233  0.6047  1.0015
 5295SOL     OW18201   2.002   4.453   2.873 -0.3742 -0.1053 -0.1296
 5295SOL    HW118202   1.972   4.540   2.846 -0.0856 -0.4943 -1.7986
 5295SOL    HW218203   1.922   4.406   2.897 -0.5455  0.5412  0.6272
 5296SOL     OW18204   3.455   7.893   8.530  0.7282  0.1315  0.0247
 5296SOL    HW118205   3.511   7.833   8.479  0.7406 -0.2340  0.4621
 5296SOL    HW218206   3.366   7.865   8.509  0.6638  1.1470 -1.2038
 5297SOL     OW18207  10.581   7.865   4.339 -0.0219 -0.0861 -0.2100
 5297SOL    HW118208  10.605   7.904   4.423  0.3089  1.1336 -0.8558
 5297SOL    HW218209  10.545   7.779   4.362 -1.6563  0.9658  1.3195
 5298SOL     OW18210   7.022   4.106   0.671  0.0732  1.1390  0.1662
 5298SOL    HW118211   7.104   4.057   0.661  0.3866  1.8885 -1.0406
 5298SOL    HW218212   6.992   4.122   0.582 -2.2611 -0.4999  0.5700
 5299SOL     OW18213  10.043   4.205   4.209  0.1009  0.2953  0.5549
 5299SOL    HW118214  10.135   4.207   4.182 -0.6306  1.4749 -2.2581
 5299SOL    HW218215  10.021   4.112   4.208  0.6854  0.1252 -1.2494
 5300SOL     OW18216   1.861   8.399   7.301  0.5256  0.8081 -0.5409
 5300SOL    HW118217   1.898   8.332   7.359  0.2197  0.2483 -0.9781
 5300SOL    HW218218   1.842   8.473   7.358 -0.5912 -0.0593  0.2394
 5301SOL     OW18219   1.808   9.447   5.417 -0.1359 -0.2897 -0.7877
 5301SOL    HW118220   1.781   9.384   5.350 -1.8150  0.1019 -0.5195
 5301SOL    HW218221   1.892   9.413   5.449  0.5326 -0.6889 -2.7956
 5302SOL     OW18222   4.745   1.517   3.786 -0.3014 -0.1247 -0.2405
 5302SOL    HW118223   4.799   1.596   3.782 -2.5526  1.4893 -0.7762
 5302SOL    HW218224   4.700   1.523   3.869 -0.1619 -1.1273 -0.0786
 5303SOL     OW18225   4.973   1.644   4.894 -0.2883 -0.0601 -0.0138
 5303SOL    HW118226   5.050   1.691   4.927 -1.1706  2.6407 -1.5365
 5303SOL    HW218227   5.010   1.565   4.853  1.6483  0.8891 -0.2467
 5304SOL     OW18228  10.050   7.757   6.276 -0.0449  0.3131 -0.1025
 5304SOL    HW118229  10.083   7.831   6.326 -0.9360  1.8064 -1.6084
 5304SOL    HW218230  10.052   7.683   6.337 -0.5461  1.8900  1.9272
 5305SOL     OW18231   5.088   7.836   2.136 -0.2585  0.0346  0.1832
 5305SOL    HW118232   5.163   7.797   2.180 -2.1577 -4.4703 -0.0733
 5305SOL    HW218233   5.026   7.857   2.207 -0.2996  0.1067  0.1268
 5306SOL     OW18234   8.635   6.273   6.131  0.2258  0.0614  0.3203
 5306SOL    HW118235   8.688   6.218   6.073  0.5459 -0.0933  0.7586
 5306SOL    HW218236   8.695   6.299   6.201  0.0879  0.9934  0.1050
 5307SOL     OW18237   3.884   2.821   3.745 -0.7228 -0.5623  0.1931
 5307SOL    HW118238   3.884   2.779   3.830 -0.2527  0.4754  0.7273
 5307SOL    HW218239   3.970   2.800   3.707 -0.3443  0.1734  0.6116
 5308SOL     OW18240   6.724  10.271   3.243 -0.8915 -0.0499 -0.4621
 5308SOL    HW118241   6.795  10.208   3.224  1.4240  1.8438  1.3086
 5308SOL    HW218242   6.680  10.283   3.159  0.3291 -1.9622 -1.4588
 5309SOL     OW18243   0.698   5.050   1.450  0.2961  0.0076 -0.0961
 5309SOL    HW118244   0.688   4.975   1.508  1.4357 -0.2803 -0.2459
 5309SOL    HW218245   0.675   5.017   1.363  3.5143 -1.0236 -0.6745
 5310SOL     OW18246   1.644   5.389   0.392 -0.0401  0.1249  0.0355
 5310SOL    HW118247   1.555   5.408   0.362 -0.4148 -0.9781  0.3851
 5310SOL    HW218248   1.635   5.307   0.439  0.4593  1.8477  3.4039
 5311SOL     OW18249   2.203   0.909   7.084 -0.4921  0.0544 -0.0105
 5311SOL    HW118250   2.214   0.934   7.176  0.2117 -0.3169  0.0169
 5311SOL    HW218251   2.195   0.813   7.086  0.0749 -0.0037 -0.3798
 5312SOL     OW18252   6.433   0.061   7.914 -0.6367 -0.1758 -0.0665
 5312SOL    HW118253   6.406   0.107   7.834 -1.3305  1.0582  0.8479
 5312SOL    HW218254   6.468  -0.023   7.883  0.0905  0.7015 -1.7458
 5313SOL     OW18255   6.288   3.755   2.723 -0.1399  0.3122  0.1523
 5313SOL    HW118256   6.349   3.686   2.696  1.0736  1.8424 -1.1934
 5313SOL    HW218257   6.205   3.731   2.682 -0.3974 -1.5361  1.6057
 5314SOL     OW18258   8.962   5.324   2.670 -0.0858 -0.1807  0.0764
 5314SOL    HW118259   8.998   5.411   2.653 -0.1513  0.2066  1.7709
 5314SOL    HW218260   8.871   5.329   2.641  0.1799 -0.0239 -0.7806
 5315SOL     OW18261   3.556   4.686   7.578 -0.2826 -0.2566  0.5972
 5315SOL    HW118262   3.518   4.599   7.587 -0.5955 -0.2957 -0.7926
 5315SOL    HW218263   3.635   4.684   7.632  0.6824 -2.0250 -0.7567
 5316SOL     OW18264   3.360   4.679   7.214  0.0995  0.6924  0.3598
 5316SOL    HW118265   3.336   4.710   7.301 -0.0313  2.0620 -0.1342
 5316SOL    HW218266   3.329   4.589   7.210 -2.0232  1.3575  0.8970
 5317SOL     OW18267   4.950   4.629   4.069  0.0577  0.5070 -0.2704
 5317SOL    HW118268   4.997   4.577   4.004  0.8531  0.2113  0.5282
 5317SOL    HW218269   4.876   4.667   4.020  1.5895  1.7086 -1.7936
 5318SOL     OW18270   5.715   9.610   7.275  0.1742 -0.7569  0.2117
 5318SOL    HW118271   5.650   9.679   7.294 -0.0953 -0.7425 -0.7043
 5318SOL    HW218272   5.796   9.658   7.261  0.6274 -0.8319  2.2324
 5319SOL     OW18273   9.219   5.248   3.149  0.3981 -0.1499 -0.0246
 5319SOL    HW118274   9.236   5.187   3.221 -0.0653 -0.6184 -0.3120
 5319SOL    HW218275   9.146   5.302   3.181  1.6860  1.1945  0.7967
 5320SOL     OW18276   3.812   3.928  10.401 -0.0451  0.4167  0.2429
 5320SOL    HW118277   3.870   3.897  10.331  1.4509  1.3764  0.9988
 5320SOL    HW218278   3.871   3.942  10.476 -1.6328 -0.9151  1.8280
 5321SOL     OW18279   4.282   8.049   4.176 -0.5356  0.2106  0.4425
 5321SOL    HW118280   4.279   7.969   4.228  1.3578 -0.3195 -0.1770
 5321SOL    HW218281   4.298   8.118   4.241 -1.5038  0.0053  0.9071
 5322SOL     OW18282   2.743   2.523   8.157  0.2196  0.5010  0.3990
 5322SOL    HW118283   2.793   2.603   8.138 -0.0258  0.3768 -0.7856
 5322SOL    HW218284   2.652   2.546   8.142  0.2673 -0.4501 -1.6540
 5323SOL     OW18285   9.860   0.942   7.514  0.4948  0.3875  0.0579
 5323SOL    HW118286   9.773   0.980   7.528 -0.4652 -1.4604 -0.6113
 5323SOL    HW218287   9.894   0.989   7.437 -0.4985  0.2077 -0.5152
 5324SOL     OW18288   5.526   2.133   2.085 -0.1372  0.4670  0.2948
 5324SOL    HW118289   5.486   2.218   2.103  0.1407  0.7780 -0.5074
 5324SOL    HW218290   5.468   2.070   2.126  0.1195  1.0870  1.6727
 5325SOL     OW18291   9.864   7.024   5.422 -0.7629  0.1068 -0.7164
 5325SOL    HW118292   9.957   7.045   5.413 -0.5370 -0.0813  0.8021
 5325SOL    HW218293   9.862   6.930   5.439 -1.1127  0.3148  0.5062
 5326SOL     OW18294   4.776   4.871   8.927  0.4234 -0.3092  0.0882
 5326SOL    HW118295   4.850   4.906   8.879  1.1607 -1.1020  0.6268
 5326SOL    HW218296   4.762   4.933   8.999  1.9574 -1.2698  1.2560
 5327SOL     OW18297   3.328   2.704   7.910 -0.0848 -0.1117 -0.3485
 5327SOL    HW118298   3.264   2.774   7.911 -0.3196 -0.3303 -0.0590
 5327SOL    HW218299   3.291   2.638   7.851 -0.2603 -0.3648  0.0468
 5328SOL     OW18300   5.287   5.659   5.233 -0.1624 -0.8567 -0.5863
 5328SOL    HW118301   5.324   5.587   5.183  1.6934 -0.0002 -0.5348
 5328SOL    HW218302   5.310   5.738   5.183 -1.5403 -0.2380 -0.2951
 5329SOL     OW18303  10.211   5.685  10.152 -0.3049  0.1968 -0.0802
 5329SOL    HW118304  10.250   5.695  10.065 -2.6117 -1.5331 -1.4436
 5329SOL    HW218305  10.220   5.593  10.173  2.0212  0.8991  2.5678
 5330SOL     OW18306   3.103   4.664   1.181  0.1921  0.3199  0.6119
 5330SOL    HW118307   3.184   4.660   1.131  0.5233 -1.4749  1.2479
 5330SOL    HW218308   3.091   4.576   1.217 -0.7062  1.1861  2.6157
 5331SOL     OW18309  10.397  10.135   2.407 -0.4220 -0.3923  0.6686
 5331SOL    HW118310  10.402  10.147   2.502 -2.3025 -0.8263  0.8500
 5331SOL    HW218311  10.359  10.048   2.397 -2.4975  0.5891 -0.4433
 5332SOL     OW18312   0.025   5.679   7.421  0.0797 -0.2700 -0.2368
 5332SOL    HW118313   0.009   5.663   7.328  1.4117 -0.3358 -0.4671
 5332SOL    HW218314   0.075   5.602   7.450  0.3921  0.1465  0.3355
 5333SOL     OW18315   7.750   6.424   4.367 -0.2252 -0.3500  0.2267
 5333SOL    HW118316   7.677   6.483   4.386 -0.2305 -0.0145 -0.8004
 5333SOL    HW218317   7.713   6.359   4.307  0.3540 -0.0861 -0.4235
 5334SOL     OW18318  10.435   7.536   7.237  0.7589  0.2224 -0.5927
 5334SOL    HW118319  10.514   7.495   7.200  1.9999 -0.1475  2.2167
 5334SOL    HW218320  10.368   7.520   7.171  2.3299 -2.1003 -1.8040
 5335SOL     OW18321   0.102   1.747  10.443 -0.6127  0.5895 -0.3251
 5335SOL    HW118322   0.184   1.705  10.419  0.1566  1.1983  1.1499
 5335SOL    HW218323   0.108   1.761  10.537 -2.0383  1.4275 -0.3260
 5336SOL     OW18324  10.136   1.315   8.658  0.1627 -0.5224  0.1298
 5336SOL    HW118325  10.146   1.295   8.751  1.2392 -1.4351 -0.1685
 5336SOL    HW218326  10.042   1.333   8.648  0.1776  0.5261  1.5490
 5337SOL     OW18327   2.554   5.144   5.674  0.1711 -0.2794 -0.3572
 5337SOL    HW118328   2.482   5.083   5.655  0.4440 -0.8834  0.5092
 5337SOL    HW218329   2.628   5.109   5.625 -0.0640  0.2511 -1.1184
 5338SOL     OW18330   0.288   7.918   0.594 -0.0319  0.2954 -0.1140
 5338SOL    HW118331   0.194   7.909   0.607  0.0776 -0.1901  0.3958
 5338SOL    HW218332   0.325   7.836   0.628  0.5938  0.5998 -0.0417
 5339SOL     OW18333   8.159   2.210   6.801 -0.0305  0.1870 -0.0317
 5339SOL    HW118334   8.147   2.117   6.822 -1.7689 -0.0995 -1.9690
 5339SOL    HW218335   8.129   2.218   6.710  2.7022  2.1468 -0.8670
 5340SOL     OW18336   7.541   8.048   5.786 -0.5422 -0.2793 -0.8197
 5340SOL    HW118337   7.559   7.954   5.784  1.7353  0.1030 -2.2441
 5340SOL    HW218338   7.536   8.074   5.694 -0.5739  1.1061 -0.4597
 5341SOL     OW18339  10.133   7.785   9.957  0.2183  0.0585  0.2733
 5341SOL    HW118340  10.196   7.857   9.951  0.8499 -0.5042  0.0473
 5341SOL    HW218341  10.182   7.714   9.998 -0.1218 -0.5523 -0.3680
 5342SOL     OW18342   9.686   1.128   9.719 -0.6833  0.0702  0.2322
 5342SOL    HW118343   9.747   1.190   9.759  0.6117 -0.6348 -0.5716
 5342SOL    HW218344   9.720   1.116   9.630 -1.6246 -0.8510 -0.0167
 5343SOL     OW18345   0.101   7.115   5.146  0.1995  0.0240  0.0769
 5343SOL    HW118346   0.171   7.080   5.202 -0.8914  1.3468  2.4581
 5343SOL    HW218347   0.124   7.208   5.135  0.2481 -0.1607 -1.5252
 5344SOL     OW18348   2.410   7.957   2.704 -0.5855 -0.1578  0.1252
 5344SOL    HW118349   2.367   7.874   2.722  0.9429 -0.6585  1.8186
 5344SOL    HW218350   2.485   7.934   2.649 -0.0090  0.0378  0.8139
 5345SOL     OW18351   5.761   1.912   9.453 -0.3925  0.5529  0.7064
 5345SOL    HW118352   5.835   1.958   9.414 -0.3808 -0.3317 -0.3469
 5345SOL    HW218353   5.688   1.927   9.392 -0.3750 -0.8429  0.3020
 5346SOL     OW18354   9.398   8.733   6.431  0.2077 -0.0007 -0.3138
 5346SOL    HW118355   9.389   8.645   6.467 -1.0909  0.8944  1.7391
 5346SOL    HW218356   9.468   8.773   6.482  0.6439  0.2379 -1.0842
 5347SOL     OW18357   9.079   2.327   6.500  0.4941  0.6457 -0.1953
 5347SOL    HW118358   9.064   2.406   6.449 -0.4403  0.9139  0.4587
 5347SOL    HW218359   9.160   2.344   6.548  0.3090  1.2050 -0.0733
 5348SOL     OW18360   2.693   0.917   7.206  0.0258  0.0908  0.0241
 5348SOL    HW118361   2.656   0.979   7.143  0.5894  0.1007 -0.3062
 5348SOL    HW218362   2.653   0.941   7.290 -1.5661 -0.6138 -0.4966
 5349SOL     OW18363   8.038   1.326   9.158  0.2582 -0.5887 -0.0754
 5349SOL    HW118364   7.955   1.357   9.196  1.0523  0.7026  0.6928
 5349SOL    HW218365   8.012   1.281   9.078 -1.2676 -1.0836  0.6426
 5350SOL     OW18366   8.996  10.494   0.052  0.0343 -0.0135 -0.3168
 5350SOL    HW118367   9.082  10.461   0.076 -0.1936 -0.1892  0.2829
 5350SOL    HW218368   8.983  10.465  -0.039  0.3937 -0.4166 -0.2405
 5351SOL     OW18369   6.949   3.597   6.830  0.0495 -0.2974  0.2180
 5351SOL    HW118370   6.952   3.619   6.923 -0.4704  0.1126  0.1430
 5351SOL    HW218371   6.866   3.634   6.799 -0.4781 -1.6728 -0.0989
 5352SOL     OW18372   7.401   9.560   5.536 -1.2933  0.3436 -0.1119
 5352SOL    HW118373   7.385   9.474   5.498 -0.5147  0.2768 -0.3175
 5352SOL    HW218374   7.465   9.544   5.605 -1.5166  0.6902  0.1785
 5353SOL     OW18375   8.219   2.722   0.507  0.4352  0.1737 -0.3360
 5353SOL    HW118376   8.294   2.752   0.455 -1.3201  1.2339 -2.3738
 5353SOL    HW218377   8.214   2.628   0.489  0.7299  0.2652 -0.9175
 5354SOL     OW18378   7.365   7.043   1.409  0.2576  0.0417 -0.2215
 5354SOL    HW118379   7.345   7.074   1.497  1.3617 -0.4805  0.2252
 5354SOL    HW218380   7.355   7.121   1.354  0.7951  0.6668  0.5490
 5355SOL     OW18381   0.570   0.960   3.942 -0.3721 -0.0179  0.2162
 5355SOL    HW118382   0.638   0.961   4.011 -0.1442  0.7600 -0.0099
 5355SOL    HW218383   0.592   0.883   3.889 -0.4618 -0.5446  0.9162
 5356SOL     OW18384   0.745   0.812   3.029  0.6742 -0.6249 -0.0672
 5356SOL    HW118385   0.840   0.821   3.022  0.5461  1.1389 -0.0679
 5356SOL    HW218386   0.711   0.846   2.946  0.0381 -0.7195  0.1478
 5357SOL     OW18387   2.665   5.494   3.556 -0.3382  0.6373 -0.9043
 5357SOL    HW118388   2.582   5.501   3.509 -0.4894 -0.7857 -0.8991
 5357SOL    HW218389   2.708   5.418   3.517 -0.0329  0.0210  0.5535
 5358SOL     OW18390   6.374   9.316  10.437 -0.2649  0.4904  0.7894
 5358SOL    HW118391   6.438   9.245  10.446 -1.7945 -1.0003  0.3385
 5358SOL    HW218392   6.321   9.311  10.516 -0.7336  0.7687  0.4998
 5359SOL     OW18393   3.962  10.326   4.495  0.3354  0.3140 -0.0408
 5359SOL    HW118394   3.899  10.380   4.542  1.8032  1.2374  0.9370
 5359SOL    HW218395   4.016  10.287   4.563  0.8890 -0.3947 -0.8600
 5360SOL     OW18396   8.891   1.525   2.081 -0.0456  0.1786  0.2930
 5360SOL    HW118397   8.830   1.598   2.067 -2.7598 -1.9367  0.1655
 5360SOL    HW218398   8.883   1.472   2.001  2.2655 -0.0301  0.1492
 5361SOL     OW18399  10.306   6.351   5.215 -0.2275  0.1520 -0.3661
 5361SOL    HW118400  10.286   6.370   5.123 -0.9997 -0.4842 -0.3308
 5361SOL    HW218401  10.240   6.288   5.242  1.5630 -1.7277 -0.1418
 5362SOL     OW18402   1.710   2.268   4.055  0.4533 -0.3155 -0.4546
 5362SOL    HW118403   1.674   2.180   4.061  0.6991 -0.3711  0.4088
 5362SOL    HW218404   1.739   2.288   4.145 -1.0902  1.2576 -0.2454
 5363SOL     OW18405   9.212   1.328   7.102 -0.3846  0.0736 -0.5602
 5363SOL    HW118406   9.154   1.368   7.167 -1.0601 -0.3834 -0.8850
 5363SOL    HW218407   9.154   1.282   7.041  0.3232 -0.6879 -0.6863
 5364SOL     OW18408   2.599   8.450   3.149  0.2327  0.0560  0.3862
 5364SOL    HW118409   2.685   8.482   3.122  1.2249 -0.3968  2.8082
 5364SOL    HW218410   2.541   8.525   3.138  0.7729  0.2332 -1.7573
 5365SOL     OW18411   6.977   2.769   3.538 -0.0252  0.5477 -0.4138
 5365SOL    HW118412   6.909   2.718   3.580  1.5464 -1.4824 -0.1872
 5365SOL    HW218413   6.979   2.852   3.586 -2.2740  0.6753 -0.4475
 5366SOL     OW18414   1.582   4.338   1.733  0.1895 -0.0666  0.2121
 5366SOL    HW118415   1.535   4.411   1.773  0.1842 -1.0188  2.0324
 5366SOL    HW218416   1.613   4.286   1.807 -1.1960 -2.8129 -1.0155
 5367SOL     OW18417   7.544   7.531   4.619 -0.1542  0.0759 -0.3752
 5367SOL    HW118418   7.573   7.472   4.549 -0.4199 -0.2201 -0.2362
 5367SOL    HW218419   7.454   7.504   4.638  0.4417 -0.9817  1.2325
 5368SOL     OW18420   9.237   6.504   2.050  0.2038  0.1417  0.4702
 5368SOL    HW118421   9.212   6.594   2.032  0.8181  0.2842  0.2743
 5368SOL    HW218422   9.162   6.452   2.022  0.7123  0.4354 -1.6235
 5369SOL     OW18423   5.630   7.049   3.275 -0.6941  0.1489 -0.3461
 5369SOL    HW118424   5.631   7.041   3.370 -3.5255 -0.4634 -0.2804
 5369SOL    HW218425   5.712   7.007   3.247 -0.3825 -0.7759  1.7453
 5370SOL     OW18426  10.316   6.073   3.098 -0.1800 -0.0572 -0.2606
 5370SOL    HW118427  10.391   6.116   3.138  0.0255 -2.2529  1.9809
 5370SOL    HW218428  10.348   5.986   3.073 -1.1117  0.1869 -2.5902
 5371SOL     OW18429   3.510   1.985   8.134  0.2183 -0.2748 -0.0760
 5371SOL    HW118430   3.432   2.011   8.086  0.3426  0.4178  0.0841
 5371SOL    HW218431   3.577   2.048   8.107  1.3018 -2.0284 -1.7548
 5372SOL     OW18432   3.142   1.987  10.292  0.3165  0.0501 -0.0954
 5372SOL    HW118433   3.149   1.902  10.249  0.3761 -0.0976  0.2045
 5372SOL    HW218434   3.219   1.991  10.349 -0.8202 -0.6152  1.5207
 5373SOL     OW18435   8.634   2.498   0.549  0.6445 -0.5126  0.6472
 5373SOL    HW118436   8.723   2.488   0.581  0.4812 -1.8930  0.7183
 5373SOL    HW218437   8.585   2.425   0.589 -0.9387  1.1974  2.0343
 5374SOL     OW18438  10.394   8.774   7.857  0.8669 -0.2971  0.1081
 5374SOL    HW118439  10.409   8.841   7.924 -0.3452  0.7528 -0.6078
 5374SOL    HW218440  10.481   8.738   7.839  1.6254  1.3226  0.3133
 5375SOL     OW18441   4.324   3.884   5.426  0.0544  0.3803  0.1376
 5375SOL    HW118442   4.359   3.847   5.507 -0.1117  0.5187  0.2745
 5375SOL    HW218443   4.368   3.836   5.357 -1.2813 -1.1758  0.3106
 5376SOL     OW18444   8.263   5.820   3.357 -0.5641 -0.0800 -0.3835
 5376SOL    HW118445   8.219   5.904   3.365 -1.1780 -0.3424 -0.8889
 5376SOL    HW218446   8.346   5.831   3.404 -0.8816  0.6244  0.0228
 5377SOL     OW18447   2.959   7.091   4.058  0.2805 -0.2312  0.8202
 5377SOL    HW118448   2.950   7.033   3.983 -0.8618 -0.3455  1.0226
 5377SOL    HW218449   2.966   7.179   4.020 -3.1231  0.0640  0.5426
 5378SOL     OW18450   1.143   6.721   6.061  0.2940  0.2423 -0.2193
 5378SOL    HW118451   1.094   6.667   6.124  0.2086  0.6792  0.0882
 5378SOL    HW218452   1.185   6.788   6.115  1.9425 -0.6337 -0.3761
 5379SOL     OW18453   6.588   0.229   0.962 -0.1260  0.0895  0.5097
 5379SOL    HW118454   6.524   0.179   0.912 -1.1598  1.3453  0.5428
 5379SOL    HW218455   6.540   0.305   0.995  1.3304  0.9822  0.6734
 5380SOL     OW18456   4.201   2.891   6.499 -0.5330 -0.2761  0.1119
 5380SOL    HW118457   4.137   2.914   6.431 -0.2479  0.7500  0.1662
 5380SOL    HW218458   4.190   2.960   6.565  0.1429 -0.4934  0.4530
 5381SOL     OW18459   5.822   2.426   1.860  0.2745  0.6163  0.0353
 5381SOL    HW118460   5.816   2.335   1.832 -0.4076  1.4634 -2.9014
 5381SOL    HW218461   5.765   2.431   1.937 -1.3963 -1.0090 -1.0046
 5382SOL     OW18462   3.339   6.427  10.594 -0.0406  0.2536  0.1716
 5382SOL    HW118463   3.344   6.511  10.549  1.2271  0.1994  0.1915
 5382SOL    HW218464   3.258   6.388  10.561 -2.0897  2.5384  2.0737
 5383SOL     OW18465   2.349   0.959   8.080  0.1188 -0.2039  0.3459
 5383SOL    HW118466   2.402   1.038   8.091 -2.4630  1.9879 -1.6672
 5383SOL    HW218467   2.284   0.963   8.150 -1.8642  1.2128 -1.4427
 5384SOL     OW18468   8.206   1.855   4.859 -0.0161  0.0724 -0.1286
 5384SOL    HW118469   8.236   1.821   4.943 -0.1774 -1.6176 -0.7301
 5384SOL    HW218470   8.255   1.806   4.793 -0.2596  1.0056 -1.0441
 5385SOL     OW18471   8.829   5.549   5.494  0.2278  0.0321 -0.0218
 5385SOL    HW118472   8.874   5.465   5.497 -0.8887 -0.6125 -0.4635
 5385SOL    HW218473   8.782   5.547   5.411  0.7758  1.4199 -0.3773
 5386SOL     OW18474   5.802   7.727   8.282  0.3788 -0.0026  0.2133
 5386SOL    HW118475   5.850   7.809   8.283  2.1190 -0.9764  1.4463
 5386SOL    HW218476   5.868   7.660   8.265 -0.8233 -1.2421  0.2176
 5387SOL     OW18477   1.492   5.765   5.765  0.0727 -0.4847 -0.2219
 5387SOL    HW118478   1.551   5.822   5.814  1.1578 -1.5346 -0.2416
 5387SOL    HW218479   1.422   5.822   5.733  0.5228  0.6014  0.7017
 5388SOL     OW18480   0.690   6.660   4.748 -0.2836  0.1590  0.5004
 5388SOL    HW118481   0.607   6.668   4.701 -0.6256 -0.0601  1.0571
 5388SOL    HW218482   0.666   6.661   4.840  0.4861  1.8483  0.7263
 5389SOL     OW18483   3.345   9.235   3.586 -0.2174 -0.3746  0.1931
 5389SOL    HW118484   3.351   9.234   3.491 -0.7357  0.3618  0.1471
 5389SOL    HW218485   3.403   9.164   3.614 -1.8445 -2.1840 -0.7793
 5390SOL     OW18486  10.134   7.892   9.251  0.0429 -0.0751 -0.3993
 5390SOL    HW118487  10.220   7.925   9.226  0.0880 -0.2391 -0.4592
 5390SOL    HW218488  10.073   7.960   9.222  0.3133  1.0981  1.6187
 5391SOL     OW18489   5.422   5.260   1.523  0.5227  0.3281  0.4608
 5391SOL    HW118490   5.350   5.221   1.573  0.9365 -0.7161  0.2720
 5391SOL    HW218491   5.492   5.195   1.527  0.8403  0.5604 -0.8317
 5392SOL     OW18492   7.019   6.106   1.841 -0.8127 -0.3493 -0.1244
 5392SOL    HW118493   7.009   6.020   1.880  1.5656 -0.1140  1.2182
 5392SOL    HW218494   6.934   6.149   1.853 -1.4927 -1.8809  0.7421
 5393SOL     OW18495   3.146   0.646   2.645  0.2982  0.2575 -0.2964
 5393SOL    HW118496   3.192   0.727   2.668 -0.5697  0.9529 -0.9214
 5393SOL    HW218497   3.179   0.623   2.558 -0.2736  0.5854 -0.6104
 5394SOL     OW18498   9.041   5.006   4.670 -0.2500  0.1774  0.0544
 5394SOL    HW118499   9.115   5.041   4.718 -0.7143  0.5975  0.4743
 5394SOL    HW218500   8.990   5.083   4.645  0.9305  0.1525 -2.7543
 5395SOL     OW18501   5.756   9.479   8.187  0.0355  0.1525  0.4907
 5395SOL    HW118502   5.679   9.455   8.136  1.5338 -1.7582 -1.0055
 5395SOL    HW218503   5.726   9.476   8.278 -1.6186 -0.6019 -0.0362
 5396SOL     OW18504   4.720   8.238   8.619 -0.9456  0.1615  0.5810
 5396SOL    HW118505   4.752   8.308   8.561 -0.6271  0.2936  0.9111
 5396SOL    HW218506   4.754   8.157   8.580  1.2668  0.4187  1.8527
 5397SOL     OW18507   2.057   0.383   2.521 -0.3037  0.5744  0.3765
 5397SOL    HW118508   2.019   0.445   2.459  1.1562  0.4754 -0.6631
 5397SOL    HW218509   2.151   0.399   2.517 -0.1331  0.2263  2.2324
 5398SOL     OW18510   3.300   0.396   0.423  0.4438 -0.2151  0.1106
 5398SOL    HW118511   3.256   0.473   0.459 -2.1111 -0.9592 -1.1444
 5398SOL    HW218512   3.339   0.428   0.341 -0.4016 -0.1376 -0.2850
 5399SOL     OW18513   1.307   5.855   7.420 -0.2262  0.1926 -0.2079
 5399SOL    HW118514   1.332   5.934   7.372  1.3481 -0.3721 -0.3682
 5399SOL    HW218515   1.379   5.840   7.481 -0.4852 -1.1362 -0.2026
 5400SOL     OW18516   8.235   2.121   8.192  0.4749 -0.3233  0.1039
 5400SOL    HW118517   8.290   2.046   8.216  0.3505 -0.8053 -1.1013
 5400SOL    HW218518   8.282   2.197   8.228  0.8316 -0.9255  0.9327
 5401SOL     OW18519   7.376   6.256   8.281  0.1547  0.3800  0.4634
 5401SOL    HW118520   7.388   6.310   8.359  2.5152  0.5595  0.0592
 5401SOL    HW218521   7.291   6.214   8.293  0.6484 -0.0052  3.4015
 5402SOL     OW18522   4.106   6.547   5.551  0.3301  0.1232  0.4346
 5402SOL    HW118523   4.161   6.496   5.611  0.9434  0.4414  0.1516
 5402SOL    HW218524   4.022   6.555   5.596  0.4694 -0.4907  0.8105
 5403SOL     OW18525   1.321   1.739   8.753 -0.2171 -0.3840 -0.0106
 5403SOL    HW118526   1.246   1.689   8.720 -0.2720  0.4916 -1.3082
 5403SOL    HW218527   1.284   1.793   8.823 -0.6165 -0.5757 -0.0710
 5404SOL     OW18528   6.326   6.872   4.818  0.2178 -0.4393  0.1225
 5404SOL    HW118529   6.313   6.966   4.804 -2.3595 -0.5297  1.3344
 5404SOL    HW218530   6.338   6.864   4.913 -0.3215 -1.3953  0.1212
 5405SOL     OW18531   3.547   7.530  10.048 -0.2502 -0.0957  0.1954
 5405SOL    HW118532   3.634   7.547  10.084 -0.4228 -0.5354  0.8343
 5405SOL    HW218533   3.550   7.568   9.960  0.5879 -0.1086  0.2065
 5406SOL     OW18534   2.234   9.664   1.379  0.3069 -0.1244 -0.2958
 5406SOL    HW118535   2.244   9.731   1.311  0.3210  1.5408  1.2855
 5406SOL    HW218536   2.151   9.685   1.422  0.9267 -0.3277  1.0388
 5407SOL     OW18537  10.592   5.240   0.963 -0.0406 -0.6092 -0.2737
 5407SOL    HW118538  10.531   5.197   1.023 -0.5782 -0.1056 -0.4453
 5407SOL    HW218539  10.587   5.188   0.883 -1.8757  0.6175 -1.0238
 5408SOL     OW18540   9.161   0.136   0.006 -0.0402  0.1737 -0.7585
 5408SOL    HW118541   9.122   0.152   0.092  2.7893  1.9257  0.3306
 5408SOL    HW218542   9.089   0.151  -0.056 -1.2630  2.9290  1.1028
 5409SOL     OW18543   4.801   4.260   4.762 -0.1357 -0.1422 -0.6164
 5409SOL    HW118544   4.738   4.218   4.820 -1.3974  0.2060 -1.6969
 5409SOL    HW218545   4.886   4.241   4.802 -0.9444 -0.0044  1.2791
 5410SOL     OW18546   1.754   3.721   5.335  0.0452 -0.4627 -0.4625
 5410SOL    HW118547   1.664   3.713   5.305  0.0152 -1.2173 -0.1767
 5410SOL    HW218548   1.769   3.816   5.337 -1.3932 -0.2076  1.3837
 5411SOL     OW18549   1.056   9.945   1.443  0.3100 -0.3290 -0.3426
 5411SOL    HW118550   0.973   9.966   1.487  0.6192 -0.5325  0.3503
 5411SOL    HW218551   1.052   9.850   1.430 -0.4822 -0.0986 -2.2352
 5412SOL     OW18552   0.972   5.516   5.268  0.7205 -0.0665 -0.1727
 5412SOL    HW118553   1.056   5.503   5.312  2.3257 -0.8267 -3.2213
 5412SOL    HW218554   0.970   5.609   5.247  0.7687 -0.0430 -0.0772
 5413SOL     OW18555  10.383   7.221   5.661  0.5420 -0.0233  0.1672
 5413SOL    HW118556  10.357   7.311   5.678 -0.2444 -0.0874 -0.6455
 5413SOL    HW218557  10.410   7.220   5.569  0.2348 -0.6755  0.0766
 5414SOL     OW18558   1.981   4.376   7.321 -0.1267  0.4658 -0.1754
 5414SOL    HW118559   1.897   4.387   7.277 -0.4837  0.0897  0.4008
 5414SOL    HW218560   2.041   4.435   7.274 -0.6495  0.5542 -0.7398
 5415SOL     OW18561   6.828   7.550   4.321 -0.3702  0.4061 -0.1709
 5415SOL    HW118562   6.800   7.459   4.314  1.4045 -0.2027 -0.0650
 5415SOL    HW218563   6.857   7.559   4.412 -0.0979  0.9344 -0.3064
 5416SOL     OW18564   6.382   9.237   5.033  0.3958  0.1543 -0.3812
 5416SOL    HW118565   6.398   9.291   5.110  2.3326 -1.4030  0.3965
 5416SOL    HW218566   6.468   9.232   4.989 -0.5624  0.6648 -2.4451
 5417SOL     OW18567   7.449   5.818  10.191 -0.1497  0.1931  0.1582
 5417SOL    HW118568   7.513   5.785  10.127  1.0165  1.4233  0.6357
 5417SOL    HW218569   7.396   5.881  10.141  1.4465  1.9573  0.5833
 5418SOL     OW18570   6.988  10.355   5.629 -1.4093 -0.4337 -0.4439
 5418SOL    HW118571   7.045  10.300   5.683 -0.4415  0.8504 -0.1077
 5418SOL    HW218572   6.998  10.320   5.540  1.5591  0.9586 -0.7820
 5419SOL     OW18573   0.348   8.069   1.517  0.4004  0.0099  0.3054
 5419SOL    HW118574   0.314   8.151   1.482  0.2740 -0.6833 -1.2592
 5419SOL    HW218575   0.401   8.096   1.593 -0.3007  1.4447  0.3155
 5420SOL     OW18576   4.843  10.254   4.101 -0.2965  0.4015  0.5704
 5420SOL    HW118577   4.791  10.333   4.114 -1.5099  0.0434 -1.6724
 5420SOL    HW218578   4.913  10.279   4.041  0.1775  0.0787  0.9689
 5421SOL     OW18579   0.649   1.944   7.931  0.0691  0.0012 -0.7388
 5421SOL    HW118580   0.631   1.930   8.024  1.0072 -2.2086 -0.8270
 5421SOL    HW218581   0.640   1.858   7.891 -0.8495  0.9737 -2.8449
 5422SOL     OW18582   4.839   9.829   2.871 -0.5004  0.0231 -0.4301
 5422SOL    HW118583   4.787   9.749   2.864  2.1448 -1.8670 -0.4015
 5422SOL    HW218584   4.848   9.844   2.965 -0.5184  0.0009 -0.4248
 5423SOL     OW18585   4.961  10.568   0.869 -0.4318  0.3834  0.2326
 5423SOL    HW118586   4.898  10.510   0.911 -0.1510 -0.4563 -0.4694
 5423SOL    HW218587   5.045  10.544   0.907 -0.0763 -0.8507 -1.2304
 5424SOL     OW18588  10.076   2.276   7.731  0.6638 -0.1395  0.3245
 5424SOL    HW118589  10.046   2.356   7.689 -0.1583 -0.7264 -0.2377
 5424SOL    HW218590   9.996   2.235   7.765  0.8152 -1.6100 -0.9681
 5425SOL     OW18591   9.585   6.731   0.160  0.1190 -0.3916 -0.1339
 5425SOL    HW118592   9.561   6.799   0.096 -0.6541 -0.9378 -0.4396
 5425SOL    HW218593   9.587   6.778   0.244  1.1694  0.3363 -0.5404
 5426SOL     OW18594   0.303   9.640   0.782 -0.1168  0.3549  0.2038
 5426SOL    HW118595   0.309   9.545   0.792 -0.6525  0.3179  0.1783
 5426SOL    HW218596   0.290   9.674   0.870  0.6898  0.4583  0.2919
 5427SOL     OW18597  10.273   3.972   3.898 -0.3921  0.2481 -0.2041
 5427SOL    HW118598  10.240   4.058   3.922 -0.6842 -0.2778  1.3974
 5427SOL    HW218599  10.345   3.955   3.959 -1.4617 -1.3423  0.7031
 5428SOL     OW18600   9.663  10.299   9.931 -0.2585  0.0218  0.5562
 5428SOL    HW118601   9.723  10.252   9.873 -0.4527  0.1249  0.2686
 5428SOL    HW218602   9.718  10.363   9.976 -0.1475  0.1107  0.2987
 5429SOL     OW18603   9.263   4.195   2.426 -0.1456  0.1494 -0.0607
 5429SOL    HW118604   9.305   4.175   2.509  1.5709  3.1050 -0.0827
 5429SOL    HW218605   9.176   4.226   2.449 -0.3859 -0.8691  0.4428
 5430SOL     OW18606   3.123   0.324   8.668 -0.3103  0.2307 -0.7549
 5430SOL    HW118607   3.118   0.380   8.590 -0.0276  1.0898 -0.1582
 5430SOL    HW218608   3.062   0.362   8.730 -0.2704 -0.2419 -0.4168
 5431SOL     OW18609   0.679   8.467   4.450 -0.0302 -0.0767  0.3936
 5431SOL    HW118610   0.770   8.466   4.478 -0.0105 -0.4240  0.3237
 5431SOL    HW218611   0.635   8.405   4.508  0.0448 -0.9356 -0.4251
 5432SOL     OW18612   2.122   4.144   8.600  0.2309  0.1554  0.5366
 5432SOL    HW118613   2.062   4.172   8.668 -0.0559 -0.2238  0.4467
 5432SOL    HW218614   2.083   4.063   8.566 -1.5329  2.0819 -2.4535
 5433SOL     OW18615  10.398   9.067   8.902  0.1118 -0.6670  0.0170
 5433SOL    HW118616  10.449   9.103   8.829  1.2600 -0.8819  0.6920
 5433SOL    HW218617  10.365   8.983   8.870 -0.5414 -0.1496 -0.7139
 5434SOL     OW18618   5.214  10.457   8.673  0.0360 -0.5595 -0.2281
 5434SOL    HW118619   5.303  10.423   8.687  0.3898 -0.6929 -2.3178
 5434SOL    HW218620   5.227  10.547   8.644 -0.2602 -1.2188 -2.7045
 5435SOL     OW18621   9.904   1.492   3.185 -0.0635  0.2411 -0.2828
 5435SOL    HW118622   9.932   1.412   3.141  1.0900  0.0148  0.8063
 5435SOL    HW218623   9.810   1.480   3.199  0.6028 -2.7971  3.3723
 5436SOL     OW18624   3.778   6.940   5.526  0.0853 -0.0592  0.6557
 5436SOL    HW118625   3.744   6.916   5.612  0.0608  0.6515  0.8539
 5436SOL    HW218626   3.708   6.993   5.487  0.5656  0.6104  0.6783
 5437SOL     OW18627   1.175   5.168   3.486  0.4008  0.1497 -0.3745
 5437SOL    HW118628   1.085   5.172   3.455 -0.2193 -0.3745  1.2918
 5437SOL    HW218629   1.227   5.200   3.412 -0.7915 -2.8551 -2.6994
 5438SOL     OW18630  10.180   6.224   2.319  0.5058 -0.0880  0.0125
 5438SOL    HW118631  10.111   6.216   2.386  1.5858  0.8943  1.2798
 5438SOL    HW218632  10.194   6.134   2.289  1.5270 -0.9236  2.7312
 5439SOL     OW18633   6.082   9.848   3.118 -0.3828 -0.8707 -0.3450
 5439SOL    HW118634   6.085   9.921   3.180 -0.5567 -2.0107  1.0584
 5439SOL    HW218635   6.048   9.774   3.169 -0.3189 -1.9184 -1.7499
 5440SOL     OW18636   0.804   5.133  10.578  0.0894  0.0828 -0.6052
 5440SOL    HW118637   0.744   5.105  10.509  0.6357  2.4149 -2.1006
 5440SOL    HW218638   0.863   5.058  10.590  0.9885  0.1188 -3.8322
 5441SOL     OW18639   9.276   4.721   4.120 -0.1169  0.2855  0.1792
 5441SOL    HW118640   9.360   4.697   4.160 -1.3057  1.2020  3.5360
 5441SOL    HW218641   9.285   4.814   4.099 -0.1495  0.2645  0.0700
 5442SOL     OW18642  10.369   4.704  10.152 -0.1191 -0.1896  0.2651
 5442SOL    HW118643  10.294   4.668  10.200 -0.9801 -0.9475 -1.5667
 5442SOL    HW218644  10.331   4.769  10.093  0.9414  0.8754  0.7259
 5443SOL     OW18645   4.211   6.182   7.119 -0.1240  0.2141  0.4940
 5443SOL    HW118646   4.155   6.151   7.048  1.0893 -0.3664 -0.2404
 5443SOL    HW218647   4.178   6.270   7.140 -1.1413 -0.0221 -0.0744
 5444SOL     OW18648   9.699   3.211   7.648  0.2714 -0.6992  0.5497
 5444SOL    HW118649   9.660   3.157   7.716 -0.2788 -0.1200  0.6996
 5444SOL    HW218650   9.682   3.162   7.567  0.4294 -1.1119  0.7649
 5445SOL     OW18651   3.693   5.522   0.096 -0.0042  0.7343  0.4159
 5445SOL    HW118652   3.607   5.509   0.057 -0.4464 -3.5531  2.2832
 5445SOL    HW218653   3.754   5.509   0.025 -0.8439  0.2568 -0.2356
 5446SOL     OW18654   1.463   5.429   8.214 -0.3331 -0.5683  0.1213
 5446SOL    HW118655   1.402   5.495   8.180  0.7237  0.6942  0.5584
 5446SOL    HW218656   1.498   5.386   8.136 -2.7368 -2.3038 -0.1153
 5447SOL     OW18657   0.905   7.300   6.646 -0.3538 -0.5944 -0.2098
 5447SOL    HW118658   0.961   7.375   6.626  0.6067 -1.7414 -2.0937
 5447SOL    HW218659   0.840   7.299   6.575  0.5845 -2.3865 -1.1074
 5448SOL     OW18660   9.786   2.944   0.353  0.1096  0.7173  0.2872
 5448SOL    HW118661   9.779   3.039   0.363 -0.9411  0.6115  0.7073
 5448SOL    HW218662   9.698   2.912   0.372  0.5178 -0.3635  0.4092
 5449SOL     OW18663   3.648   3.591   3.682 -0.4492 -0.3079  0.2910
 5449SOL    HW118664   3.625   3.643   3.604 -1.6034 -0.0465  0.7948
 5449SOL    HW218665   3.675   3.656   3.747 -3.1816 -0.1538  1.3767
 5450SOL     OW18666   4.120   3.506   7.540 -0.5653  0.1241  0.1869
 5450SOL    HW118667   4.034   3.482   7.575 -1.4172  2.8598  0.2173
 5450SOL    HW218668   4.120   3.602   7.540  1.6827  0.2201 -1.8237
 5451SOL     OW18669   0.574   5.144   1.688 -0.5947  0.2875 -0.0681
 5451SOL    HW118670   0.564   5.234   1.656  2.0663  1.8278  2.8931
 5451SOL    HW218671   0.628   5.100   1.622 -0.5711  1.3448 -0.7780
 5452SOL     OW18672   9.870   8.416   7.997  0.5062 -0.9068  0.1539
 5452SOL    HW118673   9.948   8.409   8.052  1.2898 -0.1713 -0.8159
 5452SOL    HW218674   9.886   8.354   7.925  0.5123 -0.2815 -0.3958
 5453SOL     OW18675   5.770   7.564   7.197 -0.0510  0.1252 -0.0840
 5453SOL    HW118676   5.748   7.475   7.226  1.1090  0.2484  1.2743
 5453SOL    HW218677   5.765   7.559   7.101  2.4059 -2.1359 -0.2101
 5454SOL     OW18678  10.460   7.967   2.123  0.0334 -0.2588 -0.2898
 5454SOL    HW118679  10.419   7.982   2.037  0.3027  0.7132 -0.2575
 5454SOL    HW218680  10.554   7.969   2.105  0.1112  1.1459  0.2114
 5455SOL     OW18681   5.861   8.853   5.854  0.2498  0.5444  0.6749
 5455SOL    HW118682   5.838   8.793   5.925 -0.8130 -0.1900 -0.2468
 5455SOL    HW218683   5.848   8.940   5.891 -2.0229  0.1763  0.8952
 5456SOL     OW18684   4.368   8.821   7.263 -0.0839  0.4664 -0.2546
 5456SOL    HW118685   4.336   8.902   7.223 -1.3309 -0.3904 -1.0493
 5456SOL    HW218686   4.298   8.794   7.322  0.2494 -0.1160 -0.1186
 5457SOL     OW18687   2.720   8.799   5.118  0.4499  0.6143 -0.0489
 5457SOL    HW118688   2.687   8.709   5.125 -0.8522  1.0912  0.3007
 5457SOL    HW218689   2.773   8.799   5.039  0.5362 -0.4834 -0.0113
 5458SOL     OW18690   2.545   0.629   6.237  0.5330 -0.3237 -0.4521
 5458SOL    HW118691   2.547   0.556   6.298 -2.7589 -1.6543 -1.7364
 5458SOL    HW218692   2.511   0.703   6.288  2.1554 -0.1077  0.3868
 5459SOL     OW18693   7.630   8.565   3.939 -0.0339  0.1321  0.0642
 5459SOL    HW118694   7.667   8.477   3.947  2.2547  1.0373  0.4463
 5459SOL    HW218695   7.601   8.572   3.848 -0.0109 -0.9360 -0.0295
 5460SOL     OW18696   9.823   5.707   3.871 -0.2383  0.0162 -0.5610
 5460SOL    HW118697   9.860   5.795   3.868  1.0331 -0.3991  1.1311
 5460SOL    HW218698   9.827   5.675   3.781  0.6710  1.1483 -0.9404
 5461SOL     OW18699   8.580   4.045   3.729 -0.4571 -0.0422  0.2154
 5461SOL    HW118700   8.507   4.095   3.693  0.4313  1.4258  0.3601
 5461SOL    HW218701   8.657   4.083   3.687  0.2704 -1.2072  0.4608
 5462SOL     OW18702   5.810   8.161   2.594  0.5445 -0.3168 -0.1559
 5462SOL    HW118703   5.766   8.218   2.657 -1.3934  0.1593 -1.8546
 5462SOL    HW218704   5.807   8.074   2.636 -1.1619 -0.1112  0.2322
 5463SOL     OW18705   4.246   0.744   1.409 -0.2413 -0.3470  0.0429
 5463SOL    HW118706   4.272   0.777   1.323  0.7884 -2.2303 -0.4252
 5463SOL    HW218707   4.281   0.808   1.471  0.7211  0.0419 -0.8657
 5464SOL     OW18708   7.445   2.902   0.019 -0.3847  0.3718 -0.0454
 5464SOL    HW118709   7.455   2.966  -0.052  1.1237 -0.9779 -1.1240
 5464SOL    HW218710   7.523   2.847   0.013 -0.8386 -0.5702  1.8927
 5465SOL     OW18711   4.829  10.540  10.410  0.0474  0.7674  0.0202
 5465SOL    HW118712   4.848  10.546  10.503  0.1115 -3.4477  0.4948
 5465SOL    HW218713   4.734  10.541  10.405 -0.0830 -1.6182  0.5934
 5466SOL     OW18714   9.863   8.083   3.810  0.8157 -0.9040 -0.2099
 5466SOL    HW118715   9.924   8.090   3.737 -0.2630 -1.0518 -1.1576
 5466SOL    HW218716   9.900   8.138   3.878  0.6128  1.3037 -1.7660
 5467SOL     OW18717   5.902   2.818   4.641 -0.0707  0.0220  0.3865
 5467SOL    HW118718   5.931   2.878   4.710  0.4010 -1.1517  1.2320
 5467SOL    HW218719   5.966   2.747   4.643 -0.5128 -0.4223 -0.7323
 5468SOL     OW18720   9.181   8.049   2.562 -0.2039 -0.1796  0.0302
 5468SOL    HW118721   9.176   8.068   2.469 -0.6588 -1.9600 -0.3447
 5468SOL    HW218722   9.142   8.125   2.605  1.3074  1.3041 -1.1180
 5469SOL     OW18723   8.757   0.207   9.805  0.2670 -0.0055  0.1110
 5469SOL    HW118724   8.684   0.229   9.746  1.0746  1.0861 -0.5269
 5469SOL    HW218725   8.715   0.174   9.884 -0.8841 -0.5688 -0.7049
 5470SOL     OW18726   6.685   0.910   6.384 -0.0684  0.0756  0.3168
 5470SOL    HW118727   6.677   1.004   6.404 -0.1315  0.1008  0.1696
 5470SOL    HW218728   6.739   0.876   6.455 -1.1264 -0.0199  1.1072
 5471SOL     OW18729   6.619   5.248   2.102 -0.1058  0.0833  0.0543
 5471SOL    HW118730   6.661   5.172   2.062 -0.9950 -1.3414  1.6838
 5471SOL    HW218731   6.602   5.221   2.193 -1.1543  1.9424  0.4606
 5472SOL     OW18732   1.875   4.683   5.622 -0.1372  0.3092 -0.0359
 5472SOL    HW118733   1.912   4.596   5.609 -1.1342 -0.4134  1.5817
 5472SOL    HW218734   1.866   4.691   5.717 -1.4634  1.5700 -0.2273
 5473SOL     OW18735   0.458   6.413   3.203 -0.1754  0.1626 -0.0685
 5473SOL    HW118736   0.424   6.414   3.292  0.9941  2.7545  0.4429
 5473SOL    HW218737   0.404   6.476   3.156  0.3818  0.1825 -0.7075
 5474SOL     OW18738   3.032   0.664   7.369  0.1698  0.0857 -0.4336
 5474SOL    HW118739   3.006   0.750   7.335 -0.1894 -0.3224 -1.2315
 5474SOL    HW218740   3.125   0.672   7.386 -0.1689  1.1536  1.1513
 5475SOL     OW18741   4.763   0.973   1.025  0.1625  0.4051  0.7762
 5475SOL    HW118742   4.785   1.064   1.048 -0.4885  0.5217  0.9466
 5475SOL    HW218743   4.848   0.931   1.012  0.4650  1.5529 -1.4198
 5476SOL     OW18744   7.531   4.039   5.335 -0.1784  0.1502 -0.4111
 5476SOL    HW118745   7.625   4.030   5.352 -0.0037  0.7621 -0.9775
 5476SOL    HW218746   7.516   3.985   5.258 -0.6930 -1.5160  0.8155
 5477SOL     OW18747   1.055  10.093  10.463  0.1429 -0.2546  0.0260
 5477SOL    HW118748   1.145  10.062  10.464 -0.0835 -1.0568 -1.6834
 5477SOL    HW218749   1.001  10.014  10.469 -0.4306 -0.1847 -2.8934
 5478SOL     OW18750  10.075   0.707   2.417 -0.2699 -0.4751 -0.1483
 5478SOL    HW118751  10.106   0.641   2.356 -0.0897 -0.3437 -0.2016
 5478SOL    HW218752   9.981   0.692   2.424  0.0471 -2.0203  1.3765
 5479SOL     OW18753  10.039   6.562   4.536 -0.1523 -0.2907 -0.3394
 5479SOL    HW118754  10.125   6.577   4.497 -1.0209  2.3089 -1.4817
 5479SOL    HW218755  10.004   6.486   4.489  1.7885 -1.9779  0.7780
 5480SOL     OW18756   5.659   8.973   7.757 -0.3025 -0.7015 -0.1112
 5480SOL    HW118757   5.738   8.962   7.810 -1.0100 -1.8870  0.7459
 5480SOL    HW218758   5.691   9.011   7.674  1.0271 -0.3118  0.5503
 5481SOL     OW18759   1.536   8.336   2.213  0.9021 -0.1082  0.0511
 5481SOL    HW118760   1.554   8.332   2.307  1.0700 -1.5894 -0.0203
 5481SOL    HW218761   1.543   8.429   2.191  1.8335  0.1468  1.3071
 5482SOL     OW18762   8.935   8.107   4.502  0.1274  0.6032  0.0268
 5482SOL    HW118763   9.003   8.145   4.558  0.7600  0.3177 -0.5368
 5482SOL    HW218764   8.913   8.024   4.546 -0.4904  1.0884  0.6731
 5483SOL     OW18765   6.542  10.149   4.873 -0.3433  0.3412 -0.2211
 5483SOL    HW118766   6.480  10.122   4.941 -0.8360 -0.4794 -0.9682
 5483SOL    HW218767   6.566  10.238   4.897  1.8367 -0.8831  2.7043
 5484SOL     OW18768   1.735   5.279   8.895  0.2269 -0.1592 -0.7006
 5484SOL    HW118769   1.719   5.275   8.989 -2.8575 -1.8485 -1.1571
 5484SOL    HW218770   1.818   5.326   8.886 -1.0192  3.1826  2.6700
 5485SOL     OW18771   3.746  10.159   0.569 -0.6158  0.9145  0.0640
 5485SOL    HW118772   3.698  10.230   0.612  0.3587  0.5273  1.8763
 5485SOL    HW218773   3.682  10.090   0.557 -0.8860  0.9742  1.0801
 5486SOL     OW18774   3.254   4.805   3.375  0.3052 -0.4901 -0.3466
 5486SOL    HW118775   3.299   4.872   3.324 -2.1007  0.0180 -1.9565
 5486SOL    HW218776   3.191   4.853   3.429  0.5579 -1.2658  0.6794
 5487SOL     OW18777   8.584   8.948   8.826  0.2842  0.1320  0.1026
 5487SOL    HW118778   8.606   8.977   8.737  0.5598  0.5456  0.3010
 5487SOL    HW218779   8.643   8.874   8.843 -0.4603 -0.6006 -0.4283
 5488SOL     OW18780   3.272   6.847   4.450 -0.1635  0.9555  0.4373
 5488SOL    HW118781   3.197   6.865   4.394  1.1437  1.1873 -1.3144
 5488SOL    HW218782   3.348   6.856   4.393  1.1370 -0.6749  1.7882
 5489SOL     OW18783   8.598   6.545   7.103  0.0339 -0.3451 -0.0875
 5489SOL    HW118784   8.692   6.543   7.084 -0.3037 -1.6942 -1.9147
 5489SOL    HW218785   8.573   6.636   7.088  0.9649 -0.0724 -0.0764
 5490SOL     OW18786   6.119   8.692   2.549  0.0550 -0.1347  0.0522
 5490SOL    HW118787   6.194   8.719   2.602  0.4625  0.2946 -0.7113
 5490SOL    HW218788   6.055   8.763   2.560 -0.4327 -0.7132  1.0539
 5491SOL     OW18789  10.317   8.458   9.954  0.3010  0.0420  0.5181
 5491SOL    HW118790  10.232   8.419   9.977 -0.6160  1.0239 -1.0442
 5491SOL    HW218791  10.343   8.413   9.874  0.5177  0.8005  0.1576
 5492SOL     OW18792   2.383   1.919   1.193  0.3983 -0.1324  0.1498
 5492SOL    HW118793   2.333   1.875   1.125  1.3052  0.1903 -0.7428
 5492SOL    HW218794   2.345   2.006   1.199 -0.7973 -0.6958  1.2777
 5493SOL     OW18795   8.402   1.408   0.847 -0.6055  0.5475  0.4511
 5493SOL    HW118796   8.311   1.438   0.858 -0.2792  1.4729  0.7248
 5493SOL    HW218797   8.413   1.400   0.752 -0.9979  0.3452  0.4186
 5494SOL     OW18798   6.302   3.328   6.319 -0.4318  0.0763 -0.5757
 5494SOL    HW118799   6.320   3.353   6.409  0.4467  1.1585 -1.0386
 5494SOL    HW218800   6.382   3.284   6.289 -0.7104 -0.2669 -0.8438
 5495SOL     OW18801   7.210   5.026   5.169 -0.1526 -0.4007 -0.0204
 5495SOL    HW118802   7.272   5.072   5.226  0.5454 -2.0442  0.5983
 5495SOL    HW218803   7.241   5.046   5.080  0.9922 -0.8036  0.2720
 5496SOL     OW18804   5.899   0.963  10.319 -0.5753  0.2123  0.0731
 5496SOL    HW118805   5.933   1.047  10.289 -0.1360  0.5323  1.3872
 5496SOL    HW218806   5.975   0.905  10.318 -0.8019 -0.0800 -0.4947
 5497SOL     OW18807   2.546   9.308   0.273  0.1381  0.2717 -1.0693
 5497SOL    HW118808   2.522   9.225   0.233  1.3436 -0.1879 -0.8588
 5497SOL    HW218809   2.495   9.373   0.224 -1.3758 -0.6261 -0.7641
 5498SOL     OW18810   7.014   4.243   6.859  0.2447  0.2139 -0.4974
 5498SOL    HW118811   6.992   4.318   6.915  1.7095 -0.1684  0.6521
 5498SOL    HW218812   6.935   4.189   6.859  0.3937 -0.0897  1.7520
 5499SOL     OW18813   7.771   4.224   5.001  0.0348 -0.3438 -0.3374
 5499SOL    HW118814   7.805   4.289   4.940  0.3696  1.1060  1.3257
 5499SOL    HW218815   7.689   4.261   5.033 -1.1455 -1.9846 -1.3000
 5500SOL     OW18816   3.334   7.825   6.406  0.1747 -0.3361  0.1684
 5500SOL    HW118817   3.265   7.854   6.465  0.2858 -0.7439  0.5086
 5500SOL    HW218818   3.382   7.904   6.384  1.1326 -0.3635  1.9233
 5501SOL     OW18819   3.343   7.876   0.007 -0.2743  0.2802 -0.4064
 5501SOL    HW118820   3.370   7.916   0.090  0.1109 -0.6451 -0.0795
 5501SOL    HW218821   3.250   7.897   0.000 -0.5206 -0.3779  0.6932
 5502SOL     OW18822   3.068   3.210   0.654  0.6614 -0.0689  0.3059
 5502SOL    HW118823   3.100   3.294   0.687  0.1910  0.0136  0.5524
 5502SOL    HW218824   2.973   3.216   0.660  0.5495  0.0236 -1.2315
 5503SOL     OW18825   4.729   3.628   4.406  0.4216 -0.7539 -0.0563
 5503SOL    HW118826   4.778   3.574   4.345  1.5052 -0.6328  0.6713
 5503SOL    HW218827   4.781   3.708   4.415  0.1229 -0.6373  0.7581
 5504SOL     OW18828   2.551  10.337   9.197  0.6920 -0.0493  0.1687
 5504SOL    HW118829   2.565  10.267   9.262 -0.6771 -0.8540 -0.3599
 5504SOL    HW218830   2.516  10.410   9.248 -2.7320 -1.4915  0.0896
 5505SOL     OW18831   8.363   7.030   4.042  0.1332 -0.5907 -0.1141
 5505SOL    HW118832   8.404   7.088   4.106  1.7456 -0.2539 -1.3881
 5505SOL    HW218833   8.270   7.053   4.043 -0.4884 -2.4174  3.9993
 5506SOL     OW18834   7.291   0.680   4.521  0.0059 -0.0894 -0.0630
 5506SOL    HW118835   7.277   0.730   4.440 -1.4152 -0.8747 -0.3431
 5506SOL    HW218836   7.252   0.594   4.503  1.9855 -1.1840  0.5585
 5507SOL     OW18837   2.925   4.766   8.643  0.2092  0.1100 -0.1840
 5507SOL    HW118838   2.927   4.809   8.558 -1.7126 -0.6826 -0.6657
 5507SOL    HW218839   2.921   4.838   8.706 -0.8874  0.6896 -0.8866
 5508SOL     OW18840   9.378   0.681   9.514 -0.0247 -0.0987 -0.1621
 5508SOL    HW118841   9.294   0.675   9.559  0.1306 -0.1969  0.1216
 5508SOL    HW218842   9.390   0.775   9.498  0.7681  0.1642  1.6806
 5509SOL     OW18843   7.792  10.530   8.854 -0.1716  0.0228  0.2383
 5509SOL    HW118844   7.821  10.448   8.894 -0.1891 -0.9008 -1.5275
 5509SOL    HW218845   7.873  10.580   8.839  0.0906 -0.6565 -0.7000
 5510SOL     OW18846   2.059   9.920   7.610  0.2819  0.5327  0.4599
 5510SOL    HW118847   2.099   9.999   7.574  1.5110 -0.4771 -0.4867
 5510SOL    HW218848   2.132   9.872   7.651 -0.5779  0.2503  1.7544
 5511SOL     OW18849   8.737   7.588   8.478 -0.2984 -0.0313 -0.1918
 5511SOL    HW118850   8.695   7.674   8.476 -1.3306 -0.4980  0.2786
 5511SOL    HW218851   8.822   7.601   8.436 -1.0442  0.8929 -1.4930
 5512SOL     OW18852   0.495   1.409   7.597 -0.3250 -0.5100  0.2780
 5512SOL    HW118853   0.419   1.357   7.625 -0.8606  0.9094  1.6140
 5512SOL    HW218854   0.459   1.495   7.576  0.9523  0.3152  1.3270
 5513SOL     OW18855   3.395   6.038   6.037 -0.2648 -0.2965 -0.5374
 5513SOL    HW118856   3.304   6.055   6.061 -0.0172 -0.0169  0.2168
 5513SOL    HW218857   3.394   6.038   5.941 -0.8575  0.8376 -0.5536
 5514SOL     OW18858   7.224   3.463   3.434  1.1215  0.2682  0.5785
 5514SOL    HW118859   7.238   3.502   3.520  0.8478 -0.6173  1.0391
 5514SOL    HW218860   7.305   3.480   3.386  0.6584  2.2454  0.3996
 5515SOL     OW18861   7.437   3.037   1.895  0.4115 -0.5404  0.9687
 5515SOL    HW118862   7.522   3.065   1.929  0.0883  0.5512  0.9164
 5515SOL    HW218863   7.415   3.102   1.828  0.8087 -2.3853 -1.0480
 5516SOL     OW18864  10.145   7.415   8.029  0.5516 -0.2723 -0.1664
 5516SOL    HW118865  10.146   7.413   8.124  0.3659  1.3867 -0.1118
 5516SOL    HW218866  10.203   7.487   8.005  1.5074 -1.3726 -1.3620
 5517SOL     OW18867   0.695   7.591   3.763 -0.5487  0.4986 -0.6444
 5517SOL    HW118868   0.712   7.666   3.706 -1.8051  0.9212 -0.5038
 5517SOL    HW218869   0.699   7.626   3.852 -2.7654  0.8304 -0.6090
 5518SOL     OW18870   8.341   0.744   4.342  0.4916  0.0085 -0.0278
 5518SOL    HW118871   8.261   0.726   4.391 -0.6630  2.9336 -0.6083
 5518SOL    HW218872   8.360   0.664   4.295 -1.7546 -0.9590  0.5970
 5519SOL     OW18873   1.473   9.014   3.093 -0.3085  0.0804  0.3385
 5519SOL    HW118874   1.437   9.003   3.181 -0.6805  0.6218  0.2676
 5519SOL    HW218875   1.497   8.926   3.065 -0.6653 -0.1658  0.7845
 5520SOL     OW18876   0.637   8.413   2.824 -0.4782 -0.3337  0.1387
 5520SOL    HW118877   0.566   8.468   2.790 -1.3681 -1.3005  0.3856
 5520SOL    HW218878   0.612   8.324   2.800 -0.1991 -0.8539  1.6912
 5521SOL     OW18879   3.659  10.412   7.054  0.2069  0.0475  0.3228
 5521SOL    HW118880   3.728  10.408   6.988  0.3171 -2.2229  0.4831
 5521SOL    HW218881   3.705  10.404   7.138 -0.1411 -0.4824  0.4756
 5522SOL     OW18882   2.521   0.613   9.699 -0.1461 -0.4542 -0.5097
 5522SOL    HW118883   2.479   0.686   9.744 -0.3526 -0.6600 -0.3660
 5522SOL    HW218884   2.550   0.649   9.615  1.1422  0.2087  0.1767
 5523SOL     OW18885   9.963   6.352   9.509  0.0672  0.0405 -0.2657
 5523SOL    HW118886  10.053   6.375   9.485 -0.6349 -0.7762 -4.5148
 5523SOL    HW218887   9.969   6.264   9.545  0.9981  0.0777 -0.3045
 5524SOL     OW18888   9.610   2.520   8.510 -0.0282 -0.4000  0.0122
 5524SOL    HW118889   9.669   2.506   8.584  0.5198 -1.4188 -0.5819
 5524SOL    HW218890   9.577   2.609   8.522  0.9140 -0.1382  0.8647
 5525SOL     OW18891   2.848   6.741   3.071 -0.3174 -0.2223 -0.5801
 5525SOL    HW118892   2.839   6.654   3.111 -0.9706 -0.2532 -0.7839
 5525SOL    HW218893   2.759   6.774   3.066 -0.3821 -0.6015 -2.8666
 5526SOL     OW18894   0.607   4.224   2.765  0.1735 -0.5091  0.4062
 5526SOL    HW118895   0.643   4.163   2.830  2.4279 -0.6313 -0.8467
 5526SOL    HW218896   0.622   4.180   2.681 -2.5857 -0.3189 -0.2694
 5527SOL     OW18897   2.823   1.058   9.028  0.1443 -0.5517 -0.2501
 5527SOL    HW118898   2.891   1.076   8.962  0.7627 -0.3704  0.4246
 5527SOL    HW218899   2.849   1.110   9.103  0.0486 -1.5992  0.5263
 5528SOL     OW18900   0.928   0.873  10.513 -0.0600  0.4647 -0.0042
 5528SOL    HW118901   0.968   0.913  10.435  0.7356 -0.3499 -0.0405
 5528SOL    HW218902   0.909   0.946  10.571 -0.0830  1.0299 -0.7135
 5529SOL     OW18903   9.840   0.754  10.247 -0.2941 -0.4816  0.2501
 5529SOL    HW118904   9.802   0.829  10.202 -1.5263 -0.9893  0.3872
 5529SOL    HW218905   9.851   0.688  10.179  0.9197 -0.1478  0.1017
 5530SOL     OW18906   2.964   5.291   3.227 -0.0522 -0.0803 -0.4458
 5530SOL    HW118907   2.966   5.213   3.283  1.0215  0.2831  0.0438
 5530SOL    HW218908   2.873   5.298   3.200  0.2013 -2.9674 -2.5670
 5531SOL     OW18909   2.396   8.145   8.491 -0.1524  0.0172 -0.7601
 5531SOL    HW118910   2.355   8.229   8.470 -2.0612 -0.4830  0.7281
 5531SOL    HW218911   2.324   8.083   8.495  1.1739 -1.6452 -1.4237
 5532SOL     OW18912   8.554   2.375   4.333  0.5795  0.0571  0.6457
 5532SOL    HW118913   8.510   2.290   4.323 -1.1670  0.8644  0.9793
 5532SOL    HW218914   8.495   2.425   4.390  0.3163  2.2850 -1.4129
 5533SOL     OW18915   6.642   1.992   1.099  0.6230 -0.1428  0.2761
 5533SOL    HW118916   6.577   2.016   1.033  0.5350 -1.5370 -0.1937
 5533SOL    HW218917   6.628   2.053   1.171 -0.4464  0.2996 -0.2897
 5534SOL     OW18918   0.339  10.224   4.450 -0.1880 -0.0057 -0.2805
 5534SOL    HW118919   0.394  10.197   4.522 -1.1342  0.0909  0.4968
 5534SOL    HW218920   0.380  10.304   4.417  0.6997 -0.4929 -0.3948
 5535SOL     OW18921  10.275   2.700  10.523 -0.4555 -0.5668 -0.0828
 5535SOL    HW118922  10.250   2.727  10.612 -2.1945 -0.0490 -0.6891
 5535SOL    HW218923  10.252   2.607  10.519  2.5410 -1.4955  0.9504
 5536SOL     OW18924   8.161   1.543   1.675 -0.8917 -0.4801 -0.3300
 5536SOL    HW118925   8.069   1.519   1.686 -1.7097  2.2327 -0.6790
 5536SOL    HW218926   8.167   1.576   1.586  0.4004 -0.4096 -0.2356
 5537SOL     OW18927   7.184   6.567   6.072 -0.1332  0.5632 -0.2896
 5537SOL    HW118928   7.094   6.592   6.093 -0.1433  0.9195 -0.7409
 5537SOL    HW218929   7.176   6.480   6.033 -0.1188 -0.0812  1.0789
 5538SOL     OW18930   3.894   1.192   9.860 -0.6151  0.0693  0.4985
 5538SOL    HW118931   3.835   1.238   9.800 -1.3901  0.9833  1.9095
 5538SOL    HW218932   3.861   1.213   9.947  1.8225  0.6412  1.3535
 5539SOL     OW18933   0.010   5.478   2.567 -0.5165 -0.9829 -0.6024
 5539SOL    HW118934   0.030   5.390   2.598 -1.6078 -1.0429  0.0038
 5539SOL    HW218935  -0.035   5.519   2.641  1.6421  0.7547 -0.1507
 5540SOL     OW18936   1.358   1.599   2.004  0.1620 -0.4848 -0.1478
 5540SOL    HW118937   1.320   1.685   1.987  1.1739 -0.1879 -0.9320
 5540SOL    HW218938   1.414   1.612   2.080  0.8559 -0.2876 -0.6889
 5541SOL     OW18939   5.825   4.361   2.667 -0.4497 -0.2780 -0.5354
 5541SOL    HW118940   5.872   4.278   2.677  1.4975  0.7454 -0.6972
 5541SOL    HW218941   5.733   4.337   2.675  0.0681 -2.3946 -0.1918
 5542SOL     OW18942   0.780   2.571   3.047 -0.1377 -0.6720  0.1182
 5542SOL    HW118943   0.838   2.597   2.975 -0.0255 -0.4269  0.2963
 5542SOL    HW218944   0.737   2.491   3.015 -0.8716  0.0126 -0.6448
 5543SOL     OW18945   3.577   9.552   3.511 -1.1870  0.6784 -0.2598
 5543SOL    HW118946   3.556   9.533   3.420  4.8619 -0.3755 -1.9174
 5543SOL    HW218947   3.598   9.646   3.512  0.8549  0.2863 -0.7045
 5544SOL     OW18948   1.843   8.036  10.072 -0.5523  0.0430 -0.3197
 5544SOL    HW118949   1.846   8.083   9.989  2.4527  0.0924 -0.2912
 5544SOL    HW218950   1.810   8.101  10.135 -2.6574  0.0631 -1.3825
 5545SOL     OW18951   6.251   7.744   4.318  0.8684 -0.4414 -0.5364
 5545SOL    HW118952   6.310   7.741   4.393  0.9301 -2.0844 -0.6190
 5545SOL    HW218953   6.187   7.811   4.340  0.5831 -1.2485  1.2090
 5546SOL     OW18954   6.445   5.608   5.310 -0.2529 -0.5196 -0.1883
 5546SOL    HW118955   6.510   5.585   5.244  0.7139 -0.4884  0.7148
 5546SOL    HW218956   6.467   5.554   5.386 -0.7326  0.1318  0.4393
 5547SOL     OW18957   5.531   4.979   6.381  0.0252  0.6859 -0.2659
 5547SOL    HW118958   5.464   5.045   6.398 -0.6683  0.2260 -1.1427
 5547SOL    HW218959   5.510   4.946   6.294  1.2941  0.4067 -0.4781
 5548SOL     OW18960   9.616   9.833   2.129 -0.1547 -0.1965  0.0271
 5548SOL    HW118961   9.702   9.795   2.148  0.9206  2.7857  1.9140
 5548SOL    HW218962   9.554   9.778   2.177  0.7341 -2.0224 -0.8343
 5549SOL     OW18963   2.720   3.739   0.734 -1.1317 -0.2356 -0.5485
 5549SOL    HW118964   2.670   3.714   0.656 -0.0063 -0.0309 -1.3711
 5549SOL    HW218965   2.739   3.832   0.721 -1.2319 -0.1149  0.1455
 5550SOL     OW18966   0.643   1.090   7.395  0.3449  0.0786  0.5260
 5550SOL    HW118967   0.659   1.028   7.465  0.8423  0.9630  1.2075
 5550SOL    HW218968   0.691   1.055   7.320 -1.9572 -2.0636 -0.0948
 5551SOL     OW18969   2.936   6.745   5.960 -0.2597  0.5972 -0.1061
 5551SOL    HW118970   2.946   6.651   5.972 -0.1496  0.6132 -0.0768
 5551SOL    HW218971   3.018   6.774   5.920 -0.0508  0.7812  0.4500
 5552SOL     OW18972   6.504   8.026   7.181  0.0807 -0.1294  0.4578
 5552SOL    HW118973   6.584   8.014   7.232  0.2899 -0.0180  0.1585
 5552SOL    HW218974   6.535   8.059   7.097 -0.1516 -1.5793 -0.2252
 5553SOL     OW18975   3.503   2.686   9.638 -0.0154  0.4590 -0.9366
 5553SOL    HW118976   3.496   2.769   9.684  1.0609 -0.1359  0.4026
 5553SOL    HW218977   3.534   2.709   9.551  0.8494  1.4371 -0.3931
 5554SOL     OW18978   8.202   8.160   1.752  0.2714 -0.3085 -0.0114
 5554SOL    HW118979   8.202   8.234   1.690  2.2271  0.1316  0.4419
 5554SOL    HW218980   8.163   8.196   1.831  1.4301  0.3691  0.2857
 5555SOL     OW18981   7.752   7.807   4.578 -0.0955 -0.0661 -0.5742
 5555SOL    HW118982   7.732   7.821   4.670 -0.0305 -0.4690 -0.4961
 5555SOL    HW218983   7.844   7.831   4.569 -0.2773  0.6097 -0.6758
 5556SOL     OW18984   8.445   3.389   5.555  0.1024 -0.0154 -0.1230
 5556SOL    HW118985   8.386   3.460   5.579 -0.3928  0.4441 -2.4579
 5556SOL    HW218986   8.445   3.331   5.631 -0.3990  1.8570  1.3931
 5557SOL     OW18987   2.510  10.228   2.018 -0.2026 -0.1493 -0.3795
 5557SOL    HW118988   2.456  10.228   1.939 -1.8765 -0.1304  0.7185
 5557SOL    HW218989   2.493  10.143   2.058 -1.8947  1.0336  1.5758
 5558SOL     OW18990   2.943   1.007   5.901  0.4333 -0.3859 -0.7873
 5558SOL    HW118991   2.935   0.940   5.969  0.8066  0.8220  0.4950
 5558SOL    HW218992   2.863   0.999   5.850 -0.1628 -0.9043  0.1970
 5559SOL     OW18993   2.346   6.265   8.685 -0.0073 -0.6378 -0.0875
 5559SOL    HW118994   2.368   6.184   8.639 -1.4680 -2.4787  2.2088
 5559SOL    HW218995   2.274   6.303   8.635  0.2059 -1.1486 -0.7835
 5560SOL     OW18996   3.700   3.531   5.362  0.1287 -0.4556  0.2743
 5560SOL    HW118997   3.723   3.600   5.424 -0.7109  2.1032 -2.0454
 5560SOL    HW218998   3.779   3.518   5.309 -0.2880  0.2118 -0.5423
 5561SOL     OW18999   7.251   1.329   6.500  0.5347 -0.1351 -0.1195
 5561SOL    HW119000   7.270   1.262   6.566  3.3807  0.4212 -0.2423
 5561SOL    HW219001   7.333   1.378   6.492 -0.5136  1.3999 -2.2803
 5562SOL     OW19002   8.475   3.415   4.005  0.3853  0.1046 -0.6826
 5562SOL    HW119003   8.390   3.401   3.963  0.7401  0.0804 -1.4148
 5562SOL    HW219004   8.503   3.328   4.032  0.8259 -0.1081 -1.7492
 5563SOL     OW19005   0.210   0.951  10.280 -0.4235 -0.0427  0.0256
 5563SOL    HW119006   0.302   0.924  10.273 -0.6805 -1.7562  2.1626
 5563SOL    HW219007   0.193   0.998  10.199  3.0091  2.5232  0.5342
 5564SOL     OW19008   4.574   5.888   9.201 -0.2361 -0.2781  0.0116
 5564SOL    HW119009   4.504   5.834   9.239 -0.5296 -0.4728 -0.7998
 5564SOL    HW219010   4.655   5.847   9.233 -0.4382 -1.5883 -1.0536
 5565SOL     OW19011   2.090   3.980   3.156 -0.0612  0.2689  0.0336
 5565SOL    HW119012   2.171   3.954   3.113  0.1007 -1.2167  1.1604
 5565SOL    HW219013   2.040   4.025   3.087  1.3910  0.5734 -0.8707
 5566SOL     OW19014   0.177   1.536   1.920  0.2624  0.6535 -0.1299
 5566SOL    HW119015   0.188   1.444   1.940  1.9625  0.5939 -1.1071
 5566SOL    HW219016   0.142   1.538   1.831  0.1443  0.9431 -0.0802
 5567SOL     OW19017   9.172   8.652   2.977 -0.5898 -0.4095 -0.8645
 5567SOL    HW119018   9.159   8.601   3.057 -1.4568  0.4399 -0.4453
 5567SOL    HW219019   9.087   8.694   2.961 -0.0963  0.3464 -1.5894
 5568SOL     OW19020   4.908   6.610   1.953  0.4149  0.3376  0.2691
 5568SOL    HW119021   4.863   6.558   1.886 -2.5439  1.0024  1.6263
 5568SOL    HW219022   4.920   6.550   2.026  0.7813  0.4719  0.3240
 5569SOL     OW19023   6.294   6.371   4.672 -0.6465  0.6767  0.6960
 5569SOL    HW119024   6.363   6.436   4.688  1.2488 -0.6611 -1.4245
 5569SOL    HW219025   6.327   6.291   4.713 -0.8580  0.0093 -0.3841
 5570SOL     OW19026   8.180   6.970   6.238  0.1459  0.2226  0.4204
 5570SOL    HW119027   8.213   7.050   6.279 -0.7357  1.0003 -0.3432
 5570SOL    HW219028   8.117   7.000   6.173  0.3719 -1.0529 -0.4442
 5571SOL     OW19029   6.002   6.553   9.083 -0.1271 -0.6082 -0.1299
 5571SOL    HW119030   5.936   6.501   9.037 -2.8066  1.8325  0.6533
 5571SOL    HW219031   6.034   6.614   9.017 -2.4181  1.4825  0.5562
 5572SOL     OW19032   0.850   7.601   5.031  0.2470  0.4382  0.0430
 5572SOL    HW119033   0.841   7.534   5.099 -0.9814  1.2370  0.6970
 5572SOL    HW219034   0.853   7.684   5.078  0.6548  0.9312 -0.8157
 5573SOL     OW19035   8.057  10.378   8.056  0.1999  0.0000 -0.4677
 5573SOL    HW119036   8.103  10.449   8.011  0.9419 -0.3645 -0.3154
 5573SOL    HW219037   8.092  10.380   8.145 -1.9495  1.3272  0.4165
 5574SOL     OW19038   9.133   8.491   8.095  0.1348  0.3329  0.0965
 5574SOL    HW119039   9.184   8.570   8.078  0.2140  0.8518  2.4427
 5574SOL    HW219040   9.045   8.512   8.065  0.5769  0.5515 -1.1217
 5575SOL     OW19041   3.674   6.045  10.289  0.6682  0.7570 -0.4536
 5575SOL    HW119042   3.742   6.110  10.273  1.1169 -0.0885 -2.2550
 5575SOL    HW219043   3.593   6.086  10.257  0.6650  0.9912 -0.1562
 5576SOL     OW19044   6.753  10.266   7.174  0.1536 -0.4273 -0.4730
 5576SOL    HW119045   6.693  10.341   7.168  0.9446  0.1976 -0.6427
 5576SOL    HW219046   6.701  10.197   7.217 -0.0748  0.7372  1.2136
 5577SOL     OW19047   1.177   2.138   6.508  0.0993  0.4808 -0.0327
 5577SOL    HW119048   1.147   2.229   6.507 -1.2034  0.0711 -0.5804
 5577SOL    HW219049   1.121   2.095   6.573 -0.0441 -0.1538 -0.5626
 5578SOL     OW19050   8.217  10.396   4.152 -0.0143 -0.5656  0.0417
 5578SOL    HW119051   8.178  10.426   4.235 -1.5264 -0.4566 -0.6762
 5578SOL    HW219052   8.280  10.329   4.178  0.6107  0.5033  1.3890
 5579SOL     OW19053   8.303   4.425   8.999  0.3994 -0.3188  0.4252
 5579SOL    HW119054   8.389   4.428   9.041  0.2827  3.1135  0.7112
 5579SOL    HW219055   8.267   4.513   9.012 -2.8209 -1.3683 -0.4254
 5580SOL     OW19056  10.386   5.204   1.596  0.2988  0.4015  0.3211
 5580SOL    HW119057  10.330   5.151   1.539  1.3974  0.2425 -0.6246
 5580SOL    HW219058  10.369   5.294   1.569  0.6366  0.3421 -0.0917
 5581SOL     OW19059   3.061   0.517   1.090  0.0587 -0.3242  1.0789
 5581SOL    HW119060   3.060   0.502   1.185  3.4544  0.3016  1.3423
 5581SOL    HW219061   3.054   0.612   1.080  2.0000 -0.1655  0.9080
 5582SOL     OW19062   8.225   3.597   8.525 -0.1026 -0.0743  0.3004
 5582SOL    HW119063   8.142   3.552   8.538  0.2521 -0.6635  0.5668
 5582SOL    HW219064   8.272   3.584   8.607  0.1407  0.5018  0.2573
 5583SOL     OW19065   2.952   9.720   0.304  0.1003  0.1634 -0.3342
 5583SOL    HW119066   2.871   9.669   0.309  1.4733 -2.0730  0.6495
 5583SOL    HW219067   2.981   9.728   0.395  1.2598  0.4929 -0.7174
 5584SOL     OW19068   8.104   6.206  10.323  0.0926 -0.1119  0.9051
 5584SOL    HW119069   8.112   6.182  10.230  0.2748  0.5878  0.7319
 5584SOL    HW219070   8.021   6.168  10.350 -1.2526  1.8175 -0.2420
 5585SOL     OW19071   9.465   7.629   4.681  0.0742 -0.9707 -0.1330
 5585SOL    HW119072   9.442   7.568   4.611 -1.3122  0.2483 -0.8011
 5585SOL    HW219073   9.559   7.642   4.673 -0.1770 -0.2317 -2.3211
 5586SOL     OW19074  10.430   2.229   6.564 -0.1318  0.2229 -0.2942
 5586SOL    HW119075  10.436   2.298   6.498 -1.6812  0.8503  0.1823
 5586SOL    HW219076  10.363   2.170   6.530 -0.6796  0.3560  0.5364
 5587SOL     OW19077   2.762   7.750   3.771 -0.8226  0.2281 -0.0944
 5587SOL    HW119078   2.741   7.810   3.843 -0.1526 -0.5999  0.8214
 5587SOL    HW219079   2.682   7.745   3.720 -1.0367  1.5321  0.0753
 5588SOL     OW19080   6.426   3.849   9.492  0.2753 -0.5942  0.1084
 5588SOL    HW119081   6.478   3.769   9.495  0.3027 -0.6558 -1.1608
 5588SOL    HW219082   6.337   3.822   9.513  0.2205 -1.0404 -0.6496
 5589SOL     OW19083   9.108   2.360  10.456  1.1439  0.6673  0.3751
 5589SOL    HW119084   9.204   2.350  10.457  1.1016 -0.6965 -1.7097
 5589SOL    HW219085   9.076   2.282  10.501  0.9912  0.8636  0.6103
 5590SOL     OW19086   2.523   2.977   3.495  0.6484  0.1690  0.5492
 5590SOL    HW119087   2.476   3.060   3.496 -2.7886 -1.5846  1.0066
 5590SOL    HW219088   2.518   2.945   3.585  1.2167 -0.8913  0.2285
 5591SOL     OW19089   7.657   3.660   3.344  0.0085 -0.1511 -0.3837
 5591SOL    HW119090   7.740   3.626   3.309 -0.2029 -1.2455  0.1275
 5591SOL    HW219091   7.681   3.744   3.383  0.8138 -0.2967 -0.5374
 5592SOL     OW19092   9.875   4.400   9.652 -0.3929  0.3798 -0.1303
 5592SOL    HW119093   9.787   4.428   9.626 -0.7331  0.1891  0.7925
 5592SOL    HW219094   9.919   4.381   9.569 -1.4991 -0.3576 -0.5776
 5593SOL     OW19095   5.735   0.702   9.802 -0.7513 -0.6418  0.4720
 5593SOL    HW119096   5.704   0.792   9.790 -0.4940 -0.5779  0.2698
 5593SOL    HW219097   5.680   0.666   9.872  0.1169  0.1475  1.5973
 5594SOL     OW19098   6.074   7.248   4.165  0.7057  0.0203 -0.9675
 5594SOL    HW119099   6.096   7.228   4.256  1.5249 -0.7317 -1.3069
 5594SOL    HW219100   6.153   7.289   4.130 -0.0537  1.4790 -1.0082
 5595SOL     OW19101   2.470   2.558   8.055  0.6003  0.3467 -0.2221
 5595SOL    HW119102   2.457   2.648   8.023  1.2772  0.5613  0.0893
 5595SOL    HW219103   2.386   2.535   8.094  0.7750  1.2898  0.7532
 5596SOL     OW19104  10.439   2.862   5.363  0.4178 -0.5366 -0.0797
 5596SOL    HW119105  10.389   2.780   5.357 -1.7153  0.5261  1.6426
 5596SOL    HW219106  10.476   2.860   5.451  2.0492 -0.5019 -0.7385
 5597SOL     OW19107   3.958   2.521   3.165 -0.4941  0.0948 -0.4152
 5597SOL    HW119108   3.925   2.433   3.182  1.6845 -0.6201  0.4927
 5597SOL    HW219109   3.993   2.551   3.249  1.6416  0.4963 -1.3671
 5598SOL     OW19110   5.056   2.763   6.970 -0.2613  0.0014 -0.4845
 5598SOL    HW119111   5.123   2.802   6.914 -0.4044  1.3586  0.2621
 5598SOL    HW219112   5.041   2.676   6.932  2.4836 -0.7016 -0.2089
 5599SOL     OW19113   2.072   5.956   8.514 -0.1427  0.2387 -0.3357
 5599SOL    HW119114   2.067   5.930   8.605  2.1772 -1.0927 -0.5202
 5599SOL    HW219115   1.981   5.958   8.484 -0.7799 -2.2805  1.1985
 5600SOL     OW19116   5.844   1.143   3.227  0.0104 -0.6369 -0.0943
 5600SOL    HW119117   5.770   1.082   3.231 -0.2218 -0.4330 -1.1086
 5600SOL    HW219118   5.803   1.230   3.230  0.3399 -0.5073  1.3803
 5601SOL     OW19119   9.083   7.773   6.174 -0.0270  0.1042  0.4057
 5601SOL    HW119120   9.088   7.750   6.081  1.5262 -0.8176  0.6910
 5601SOL    HW219121   9.122   7.860   6.179 -0.3218  0.2530  0.1726
 5602SOL     OW19122   3.107   0.570   4.670 -0.1347 -0.4073 -0.7455
 5602SOL    HW119123   3.119   0.664   4.654  0.1523 -0.5339 -1.2624
 5602SOL    HW219124   3.052   0.567   4.749  0.8235  0.1884 -0.0327
 5603SOL     OW19125   1.533   5.863   6.219  0.6334 -0.3134  0.3873
 5603SOL    HW119126   1.596   5.809   6.171 -0.3888 -0.2375 -1.0950
 5603SOL    HW219127   1.575   5.879   6.303  0.3443 -4.7501  1.6166
 5604SOL     OW19128   3.746   1.555   0.806  0.2075 -0.1428  0.2260
 5604SOL    HW119129   3.818   1.507   0.847  0.2707  0.5163  0.9216
 5604SOL    HW219130   3.673   1.544   0.867  0.1395  0.3880  0.2435
 5605SOL     OW19131   2.369   8.030   5.587 -0.2309 -0.3061  0.0650
 5605SOL    HW119132   2.347   8.011   5.496 -1.9314 -1.0848  0.5929
 5605SOL    HW219133   2.445   8.088   5.582 -0.4938 -0.0617 -1.8442
 5606SOL     OW19134   5.920   4.650   8.573 -0.0446 -0.4657  0.0218
 5606SOL    HW119135   5.891   4.610   8.655  1.2911 -0.5369  0.4677
 5606SOL    HW219136   5.993   4.707   8.597 -0.1313  0.1155 -1.0092
 5607SOL     OW19137   2.874   7.563   7.564  0.1430 -0.4179  0.7202
 5607SOL    HW119138   2.932   7.560   7.488  1.5988  0.6369  1.7443
 5607SOL    HW219139   2.918   7.621   7.625 -0.9760 -1.2711  2.4016
 5608SOL     OW19140   2.384   7.435   6.544 -0.5055  0.1575 -0.0596
 5608SOL    HW119141   2.455   7.500   6.552 -1.0736  0.5607  2.3744
 5608SOL    HW219142   2.420   7.368   6.486  0.5979  1.9584 -1.6068
 5609SOL     OW19143   7.357   8.373  10.046 -0.0459  0.5057 -0.5651
 5609SOL    HW119144   7.338   8.279  10.036  1.5355  0.2197 -1.2379
 5609SOL    HW219145   7.368   8.385  10.140  2.3490 -0.5954 -0.6322
 5610SOL     OW19146   6.045   1.890   9.347 -0.5146 -0.1539 -0.3294
 5610SOL    HW119147   6.089   1.811   9.377  1.4732 -0.0984 -2.7822
 5610SOL    HW219148   6.108   1.960   9.364 -1.0409  0.4561 -0.8399
 5611SOL     OW19149   1.839   1.620   3.591 -0.1367 -0.2691 -0.3618
 5611SOL    HW119150   1.758   1.661   3.622  1.1960  1.5153  0.9871
 5611SOL    HW219151   1.885   1.691   3.546 -0.3211 -1.8708 -3.2635
 5612SOL     OW19152   1.709   0.803   0.217  0.3294 -0.5210  0.2506
 5612SOL    HW119153   1.665   0.810   0.132 -0.4416  0.2190  0.6922
 5612SOL    HW219154   1.776   0.871   0.214  0.2500 -0.4418  0.2641
 5613SOL     OW19155   7.623   3.095   3.892  0.1864  0.1571 -0.0189
 5613SOL    HW119156   7.535   3.059   3.881  0.3370 -0.8130  1.5910
 5613SOL    HW219157   7.672   3.063   3.816 -0.7730  0.4813 -0.7832
 5614SOL     OW19158  10.265   4.648  10.408 -0.2816  0.4704 -0.3879
 5614SOL    HW119159  10.210   4.716  10.448 -0.0694  1.3218 -1.4908
 5614SOL    HW219160  10.330   4.628  10.475 -2.2348 -1.0028  1.1988
 5615SOL     OW19161   9.445   8.549   5.625  0.1535 -0.4005  0.2536
 5615SOL    HW119162   9.493   8.493   5.564  0.3713 -1.2554  1.1957
 5615SOL    HW219163   9.397   8.489   5.682  0.7351  0.3337  1.5715
 5616SOL     OW19164   4.257   8.676   6.480 -0.1354  0.8199 -0.0692
 5616SOL    HW119165   4.336   8.650   6.432 -1.1254  0.5768 -1.6079
 5616SOL    HW219166   4.290   8.733   6.550  1.5040 -0.0887 -0.0533
 5617SOL     OW19167   0.040   1.492   1.690  0.1781 -0.2138 -0.4749
 5617SOL    HW119168  -0.051   1.517   1.676  0.1426 -0.4461 -0.6744
 5617SOL    HW219169   0.058   1.427   1.621 -0.4461 -2.5004  1.3718
 5618SOL     OW19170   0.237   2.676   8.264  0.2794 -0.1921 -0.4598
 5618SOL    HW119171   0.267   2.667   8.174  0.3146 -2.4152 -0.2825
 5618SOL    HW219172   0.213   2.587   8.290 -0.9836  0.6090  1.3037
 5619SOL     OW19173   8.635   5.682   0.570  0.1895  0.0837 -0.4294
 5619SOL    HW119174   8.590   5.612   0.522 -0.4852 -0.0466  0.3530
 5619SOL    HW219175   8.575   5.703   0.642  0.8731  0.7287 -0.0364
 5620SOL     OW19176   0.539   9.503   9.291  0.1096  0.1326  0.2648
 5620SOL    HW119177   0.462   9.458   9.325  0.9192 -1.1522  0.4495
 5620SOL    HW219178   0.612   9.445   9.311  0.6607 -0.8517 -3.8073
 5621SOL     OW19179   4.896   9.386   3.877  0.5376  0.0904 -0.1112
 5621SOL    HW119180   4.915   9.458   3.937  1.4623 -0.9197  0.8317
 5621SOL    HW219181   4.901   9.307   3.930  0.3977 -0.7605 -1.3082
 5622SOL     OW19182   0.939   9.346   3.545 -0.2403  0.1040  0.5317
 5622SOL    HW119183   0.882   9.276   3.575 -0.8837 -0.0055 -0.8607
 5622SOL    HW219184   0.983   9.377   3.624 -1.7792 -0.2099  1.5590
 5623SOL     OW19185   1.307   0.771   9.806 -0.2184 -0.1507 -0.4364
 5623SOL    HW119186   1.362   0.841   9.771  2.5402 -0.8950  1.9757
 5623SOL    HW219187   1.344   0.690   9.770  0.3229 -0.6758  1.2102
 5624SOL     OW19188   8.347   8.642   6.415  0.0338  0.3973  0.2143
 5624SOL    HW119189   8.329   8.596   6.497 -1.8994 -0.8524 -0.8321
 5624SOL    HW219190   8.285   8.715   6.413 -2.7144 -1.7530 -1.7130
 5625SOL     OW19191   5.053   6.989   2.132 -0.1721 -0.2844  0.3139
 5625SOL    HW119192   5.131   7.019   2.085 -1.5404  0.6696 -1.4945
 5625SOL    HW219193   5.084   6.968   2.220  1.9512  0.8724 -0.0923
 5626SOL     OW19194   8.039   3.158   4.479 -0.3767  0.4717 -0.5544
 5626SOL    HW119195   8.085   3.107   4.412 -0.1873 -1.5448  1.0191
 5626SOL    HW219196   8.011   3.237   4.433  0.8402 -0.2372 -2.6784
 5627SOL     OW19197   4.512   0.581   3.764  0.3559 -0.0737 -0.5749
 5627SOL    HW119198   4.544   0.641   3.832  0.1442  0.3243 -0.8199
 5627SOL    HW219199   4.564   0.501   3.776  0.3302 -0.0011  0.0416
 5628SOL     OW19200   2.398   3.897   7.438 -0.1638 -0.0544  0.6716
 5628SOL    HW119201   2.363   3.952   7.368 -0.5921 -0.7690  0.3152
 5628SOL    HW219202   2.492   3.895   7.422 -0.3389 -0.8705 -0.3896
 5629SOL     OW19203   3.836   7.714   6.128  0.1518 -0.3393 -0.0015
 5629SOL    HW119204   3.798   7.634   6.090 -0.4955 -0.0038 -0.0637
 5629SOL    HW219205   3.793   7.785   6.082 -1.4357  0.1212  2.0318
 5630SOL     OW19206   3.502   9.489   3.247 -0.4257  0.3686 -0.0324
 5630SOL    HW119207   3.445   9.559   3.216  0.4397  1.8240  1.4756
 5630SOL    HW219208   3.566   9.477   3.177 -0.4422  1.2837 -0.2173
 5631SOL     OW19209   1.999   3.946   1.422 -1.0737  0.6573  0.5569
 5631SOL    HW119210   2.000   3.943   1.326  0.1120 -1.1283  0.5661
 5631SOL    HW219211   1.922   3.894   1.446  0.2449 -1.4616  0.5177
 5632SOL     OW19212  10.282   7.426   3.833 -0.1314 -0.6218  0.2761
 5632SOL    HW119213  10.190   7.454   3.832  0.4545  1.7090  2.0713
 5632SOL    HW219214  10.314   7.446   3.745 -0.4591  2.1454  0.6959
 5633SOL     OW19215   7.348   9.655   2.339  0.1942 -0.1338 -0.5514
 5633SOL    HW119216   7.426   9.616   2.301  2.3618  1.3237  2.0594
 5633SOL    HW219217   7.323   9.724   2.278  2.0443  0.5322 -0.6206
 5634SOL     OW19218   8.963   2.565   3.975 -0.2616  0.7529 -0.2490
 5634SOL    HW119219   8.940   2.651   4.008 -2.2840  0.3306 -0.4703
 5634SOL    HW219220   8.888   2.510   3.995  1.1893 -1.1206  0.3624
 5635SOL     OW19221  10.063   3.528   3.710 -0.3057  0.1406  0.6687
 5635SOL    HW119222  10.069   3.469   3.634 -0.4104  3.1340 -1.8493
 5635SOL    HW219223  10.148   3.572   3.712 -1.2670  2.1020  0.4610
 5636SOL     OW19224  10.548   9.026   6.954 -0.2966  0.4480  0.0998
 5636SOL    HW119225  10.453   9.036   6.949 -0.5867 -1.5909  0.5776
 5636SOL    HW219226  10.565   9.003   7.046  0.8448  2.0768  0.3473
 5637SOL     OW19227   2.102   2.789   9.530  0.1554 -0.1437  0.2523
 5637SOL    HW119228   2.028   2.740   9.495  1.5872 -1.4168 -1.1294
 5637SOL    HW219229   2.063   2.847   9.596 -2.0146 -0.9198 -0.2617
 5638SOL     OW19230   7.434   4.651  10.027 -0.0060  0.3756 -0.0033
 5638SOL    HW119231   7.436   4.746  10.040 -0.1325  0.2030  1.4790
 5638SOL    HW219232   7.352   4.623  10.067 -0.7265 -0.2028 -1.8031
 5639SOL     OW19233  10.538   5.143   1.814 -0.6837  0.7040 -0.2019
 5639SOL    HW119234  10.621   5.189   1.796 -0.4890  1.0532  1.4926
 5639SOL    HW219235  10.484   5.162   1.737  0.5073  1.1752 -0.9585
 5640SOL     OW19236   0.147   0.991   5.793  0.1885 -0.0173 -0.0727
 5640SOL    HW119237   0.125   1.000   5.886  0.6686 -1.5169  0.2161
 5640SOL    HW219238   0.235   1.029   5.786  0.4649 -0.5687  0.2600
 5641SOL     OW19239   5.114   2.033   3.151  0.3383 -0.6307  0.5522
 5641SOL    HW119240   5.174   2.108   3.154  2.6060 -2.3652  1.2168
 5641SOL    HW219241   5.131   1.992   3.066  0.5623 -1.4915  1.0006
 5642SOL     OW19242   9.875   8.525   1.387 -0.1293  0.0367 -0.7097
 5642SOL    HW119243   9.859   8.449   1.442  1.8543  0.2202  0.2397
 5642SOL    HW219244   9.810   8.590   1.415 -0.1481 -0.4179  0.3462
 5643SOL     OW19245   7.742   8.765   8.214  0.3021  0.2180  0.2511
 5643SOL    HW119246   7.736   8.673   8.189  1.4816  0.5260 -1.3409
 5643SOL    HW219247   7.768   8.810   8.133  1.8486  1.6434  1.4668
 5644SOL     OW19248   8.678   3.097   5.274 -0.0556  0.0098  0.3190
 5644SOL    HW119249   8.694   3.075   5.183 -0.1041 -1.1177  0.5726
 5644SOL    HW219250   8.632   3.021   5.310  1.2040 -0.1935  1.6360
 5645SOL     OW19251   3.836   8.763   3.460 -0.6629 -0.2097 -0.5487
 5645SOL    HW119252   3.783   8.816   3.400 -1.3061 -1.1834 -0.8700
 5645SOL    HW219253   3.925   8.768   3.425 -0.6405  0.9519 -0.3553
 5646SOL     OW19254   8.743   0.587   4.458  0.6027  0.4872  0.1608
 5646SOL    HW119255   8.834   0.613   4.443  1.6037 -2.3650  0.5158
 5646SOL    HW219256   8.745   0.542   4.543 -0.6201 -1.6070 -0.8320
 5647SOL     OW19257  10.107   9.753   5.013  0.2151  0.0344  0.0455
 5647SOL    HW119258  10.057   9.807   5.073 -0.2955 -0.5679  0.1789
 5647SOL    HW219259  10.063   9.668   5.015 -0.0155  0.0853 -1.4152
 5648SOL     OW19260   7.463   1.942   7.781  0.1103  0.7231  0.4372
 5648SOL    HW119261   7.534   2.005   7.777  0.5266  0.4304  2.2350
 5648SOL    HW219262   7.462   1.913   7.872 -1.2951 -0.4552  0.0860
 5649SOL     OW19263   4.466   3.793   2.226  0.0639  0.1853 -0.0837
 5649SOL    HW119264   4.553   3.828   2.243  0.5963 -0.4468 -1.4317
 5649SOL    HW219265   4.479   3.700   2.208 -1.0318 -0.1695  0.7530
 5650SOL     OW19266   8.656   8.337   8.810 -0.1302  0.7296 -0.4278
 5650SOL    HW119267   8.606   8.404   8.857 -0.4320 -0.1237  0.4990
 5650SOL    HW219268   8.747   8.356   8.832 -0.2510  0.5075  0.2960
 5651SOL     OW19269   9.761   6.194  10.285 -0.3003  0.7989 -0.1046
 5651SOL    HW119270   9.767   6.109  10.329  0.1752 -0.1221 -1.8327
 5651SOL    HW219271   9.805   6.255  10.344 -1.2305 -0.0019  1.4799
 5652SOL     OW19272   1.142   0.832   0.144 -0.8728  0.5163  0.4132
 5652SOL    HW119273   1.092   0.871   0.071  0.1274  1.4339  0.1993
 5652SOL    HW219274   1.151   0.740   0.120  0.5598  1.0421 -1.3157
 5653SOL     OW19275   9.079   3.000   2.294 -0.7746  0.3553 -0.7388
 5653SOL    HW119276   9.072   2.967   2.204 -0.8039 -0.2335 -0.5278
 5653SOL    HW219277   8.992   2.988   2.331 -0.2653 -1.3436  0.0052
 5654SOL     OW19278   3.016  10.352   8.605 -0.4062  0.0521  0.7922
 5654SOL    HW119279   2.922  10.363   8.593 -0.2476 -0.2213 -0.8573
 5654SOL    HW219280   3.043  10.432   8.651 -1.2255  0.7906  0.0312
 5655SOL     OW19281   1.995   2.154   7.781  0.0227  0.2649  0.4425
 5655SOL    HW119282   2.000   2.249   7.771  0.9050  0.2756  0.8339
 5655SOL    HW219283   2.020   2.120   7.696  1.8145  0.3895  0.8753
 5656SOL     OW19284   1.206   2.614   8.821 -0.3624  0.2259  0.2633
 5656SOL    HW119285   1.167   2.605   8.734 -1.3184 -0.8824  0.7885
 5656SOL    HW219286   1.132   2.628   8.880  0.3110  1.5350  0.8515
 5657SOL     OW19287   6.210   8.039   8.097  0.6324  0.1684  0.0109
 5657SOL    HW119288   6.275   8.107   8.113 -0.1329  0.4800  1.9892
 5657SOL    HW219289   6.235   8.002   8.012  0.3623  3.6960 -1.7908
 5658SOL     OW19290   0.870   0.338   5.147  0.0322 -0.4090 -0.0917
 5658SOL    HW119291   0.791   0.288   5.126 -0.7497  0.7436  0.0589
 5658SOL    HW219292   0.940   0.291   5.101 -0.7918 -1.1917 -0.5853
 5659SOL     OW19293   4.112   7.021   1.583 -0.2514  0.3021 -0.3609
 5659SOL    HW119294   4.137   6.991   1.670  0.9401  2.1168 -0.0373
 5659SOL    HW219295   4.194   7.023   1.533 -0.6650  0.8667 -1.0343
 5660SOL     OW19296   1.663   0.605  10.315 -0.1508  0.3222  0.1609
 5660SOL    HW119297   1.581   0.590  10.362  0.2094  0.8301  0.9636
 5660SOL    HW219298   1.693   0.517  10.292 -0.9566  0.1359 -0.2194
 5661SOL     OW19299   7.557   0.594   2.086 -0.2733  0.2128  0.1361
 5661SOL    HW119300   7.522   0.562   2.169 -2.1252 -3.1739 -1.7093
 5661SOL    HW219301   7.652   0.584   2.094 -0.4557 -0.5961  1.6060
 5662SOL     OW19302   9.150   5.716  10.064 -0.0413  0.1210 -0.1932
 5662SOL    HW119303   9.134   5.768   9.986 -0.5389  0.1355 -0.0829
 5662SOL    HW219304   9.195   5.775  10.124 -0.0976  0.2565 -0.2839
 5663SOL     OW19305   8.472   6.867   3.538  0.4213 -0.4187  0.0663
 5663SOL    HW119306   8.495   6.927   3.609  2.7641 -1.0468 -0.0831
 5663SOL    HW219307   8.530   6.893   3.466 -1.2763 -0.3761 -1.3559
 5664SOL     OW19308   7.920   5.215   9.070 -0.0078 -0.1565  0.4200
 5664SOL    HW119309   7.849   5.227   9.133 -1.9366  2.8026 -2.0485
 5664SOL    HW219310   7.897   5.134   9.023  0.1859 -1.0774  1.8500
 5665SOL     OW19311   3.413  10.074   0.284 -0.3054 -0.1653  0.4440
 5665SOL    HW119312   3.401  10.166   0.308 -2.1035  0.2229 -1.6572
 5665SOL    HW219313   3.466  10.076   0.205  0.7338 -1.0644  1.0805
 5666SOL     OW19314   3.994   8.015   9.545 -0.5774  0.0105 -0.8349
 5666SOL    HW119315   4.024   8.074   9.475 -0.9936  1.0661 -0.1428
 5666SOL    HW219316   4.075   7.976   9.578  0.2340  3.0992  1.2532
 5667SOL     OW19317   4.086   4.201  10.235  0.4708  0.0307  0.5342
 5667SOL    HW119318   4.156   4.155  10.188  1.5625 -1.4893  3.3507
 5667SOL    HW219319   4.119   4.290  10.246  0.7916  0.0354 -0.3656
 5668SOL     OW19320   7.509   4.877   1.782 -0.2408  0.2451 -0.4159
 5668SOL    HW119321   7.421   4.856   1.752 -0.4362  0.1339  0.2161
 5668SOL    HW219322   7.550   4.922   1.708 -1.4373  1.9610 -0.1130
 5669SOL     OW19323   9.518   9.623   9.993 -0.1022  0.3901 -0.3488
 5669SOL    HW119324   9.461   9.551  10.018 -1.3560  2.3416  3.1305
 5669SOL    HW219325   9.570   9.589   9.920 -2.6190 -2.9527 -0.7982
 5670SOL     OW19326   8.174   0.195   5.183 -0.5055  0.4390  0.0950
 5670SOL    HW119327   8.236   0.144   5.130 -0.7596 -1.2873  1.3740
 5670SOL    HW219328   8.190   0.286   5.157  1.2134 -0.1199 -1.0108
 5671SOL     OW19329   0.555   5.766   3.832 -0.0120  0.0677 -0.0177
 5671SOL    HW119330   0.556   5.681   3.789 -1.9444  0.7009 -1.4929
 5671SOL    HW219331   0.647   5.792   3.839  0.5874 -1.9430  0.1459
 5672SOL     OW19332   7.689   9.431   5.352 -0.4865  0.2194 -0.1930
 5672SOL    HW119333   7.711   9.380   5.274  0.7720 -0.1157  0.3459
 5672SOL    HW219334   7.606   9.395   5.382 -0.5823 -0.1865 -0.9271
 5673SOL     OW19335   9.323   7.082   2.374 -0.0869 -0.1481  0.2608
 5673SOL    HW119336   9.401   7.027   2.383  0.3111  0.2296 -0.6662
 5673SOL    HW219337   9.255   7.036   2.423  0.4735 -0.9894  0.2789
 5674SOL     OW19338   0.679   0.235   3.461  0.8736  0.5570 -0.1953
 5674SOL    HW119339   0.633   0.283   3.393  1.3041  0.9365 -0.2273
 5674SOL    HW219340   0.761   0.283   3.473  1.0839  0.1269  0.1392
 5675SOL     OW19341   7.761   1.236   5.686 -0.3212  0.2685  0.1160
 5675SOL    HW119342   7.742   1.329   5.694 -1.1106  0.0105  1.7504
 5675SOL    HW219343   7.701   1.204   5.619  0.1655  0.9684 -0.6728
 5676SOL     OW19344   5.342   8.348   0.847 -0.3924  0.3726  0.1840
 5676SOL    HW119345   5.344   8.391   0.761  0.3682  2.3753  1.1373
 5676SOL    HW219346   5.390   8.266   0.834  0.3202  0.9729 -1.1565
 5677SOL     OW19347   0.536  10.069   0.476 -0.1526  0.3688 -0.2363
 5677SOL    HW119348   0.449  10.059   0.438 -1.0911  0.6707  1.7389
 5677SOL    HW219349   0.523  10.121   0.555  1.9997  1.3939 -0.4723
 5678SOL     OW19350  10.245   2.604   4.131  0.0450  0.0378  0.4519
 5678SOL    HW119351  10.223   2.692   4.163  1.1440  0.2914  0.5281
 5678SOL    HW219352  10.323   2.616   4.077  0.5242 -0.9733  0.8961
 5679SOL     OW19353   2.550   5.260   1.733 -0.2611 -0.0469  0.1417
 5679SOL    HW119354   2.536   5.294   1.822  2.6048 -0.0735  0.7118
 5679SOL    HW219355   2.535   5.336   1.676 -0.6212  0.3718  0.7763
 5680SOL     OW19356   6.477   4.502   9.636 -0.4333  0.4568  0.1006
 5680SOL    HW119357   6.439   4.425   9.592 -0.2711  0.0859  0.6008
 5680SOL    HW219358   6.464   4.485   9.729  0.9883  0.3083  0.2869
 5681SOL     OW19359   5.496   9.336   3.027  0.1372  0.6979 -0.4114
 5681SOL    HW119360   5.529   9.314   2.940 -1.5508 -0.4148 -0.8176
 5681SOL    HW219361   5.425   9.398   3.012  0.7774  1.6256  0.2952
 5682SOL     OW19362   8.242   6.735   1.360  0.1938 -0.5059  0.3867
 5682SOL    HW119363   8.257   6.823   1.325  0.3879 -0.3393  0.8805
 5682SOL    HW219364   8.201   6.750   1.445  0.5598 -0.8790  0.6316
 5683SOL     OW19365   8.532   1.555  10.313 -0.2967  0.1627 -0.0542
 5683SOL    HW119366   8.535   1.514  10.399 -0.5233 -1.6443 -0.8425
 5683SOL    HW219367   8.619   1.538  10.275 -0.0601  1.2929 -0.0376
 5684SOL     OW19368  10.476   3.264   4.951 -0.0500  0.0906 -0.1094
 5684SOL    HW119369  10.544   3.326   4.976  0.0167 -0.4534  1.0990
 5684SOL    HW219370  10.407   3.277   5.015 -0.7646  0.0959 -0.8672
 5685SOL     OW19371   8.488   8.748   7.360  0.1103 -0.8916  1.1917
 5685SOL    HW119372   8.493   8.821   7.299 -1.0015  0.6880  2.8989
 5685SOL    HW219373   8.538   8.678   7.318  0.4403  0.5290 -0.9112
 5686SOL     OW19374   5.140   2.152   1.681 -0.1721  0.2776 -0.3743
 5686SOL    HW119375   5.065   2.095   1.695  0.6112 -0.2278  2.2477
 5686SOL    HW219376   5.216   2.099   1.704  0.9857  1.0405 -2.1623
 5687SOL     OW19377  10.461   8.725   9.292 -0.2135  0.2240  0.2706
 5687SOL    HW119378  10.473   8.779   9.213 -0.0017 -0.5951 -0.2627
 5687SOL    HW219379  10.538   8.669   9.294 -0.0639  0.4580  1.2426
 5688SOL     OW19380   8.812   0.592   9.557 -0.4474  0.0231  0.2023
 5688SOL    HW119381   8.803   0.587   9.652 -0.4308 -1.2098  0.1603
 5688SOL    HW219382   8.724   0.609   9.526 -0.6161 -0.4759  0.3972
 5689SOL     OW19383   1.525   6.511   0.012 -0.3893 -0.3101 -0.2894
 5689SOL    HW119384   1.453   6.526   0.073  0.3231 -1.1276  0.8005
 5689SOL    HW219385   1.484   6.474  -0.066 -1.1685 -0.6021  0.2539
 5690SOL     OW19386  10.269   0.123  10.280 -0.2303  0.0241  0.4962
 5690SOL    HW119387  10.222   0.085  10.354  2.2302 -0.1179  2.1079
 5690SOL    HW219388  10.257   0.061  10.209  1.3810 -2.4823  2.2528
 5691SOL     OW19389   0.415  10.002   5.596  0.0459 -0.1300  0.2851
 5691SOL    HW119390   0.369   9.931   5.642  0.2279 -1.3555 -1.3361
 5691SOL    HW219391   0.352  10.032   5.530  0.2362  0.7725  0.4942
 5692SOL     OW19392  10.533   8.624   9.907  0.0876 -0.1729  0.5420
 5692SOL    HW119393  10.504   8.576   9.829 -0.4309  1.4825 -0.3226
 5692SOL    HW219394  10.542   8.556   9.974  2.5667 -2.0273 -1.4317
 5693SOL     OW19395   0.309   5.875   1.458 -0.1559  0.4562  0.5329
 5693SOL    HW119396   0.345   5.797   1.501  0.5667  0.7289  0.4357
 5693SOL    HW219397   0.251   5.839   1.390 -0.7468  0.0204  1.2464
 5694SOL     OW19398   1.262   6.825   5.666  0.1234  0.0607  0.6150
 5694SOL    HW119399   1.198   6.756   5.647 -0.1409  0.6396 -0.6808
 5694SOL    HW219400   1.344   6.791   5.631  0.3290 -0.2399  1.3619
 5695SOL     OW19401   9.938   4.954  10.517  0.4840 -0.1541  0.2713
 5695SOL    HW119402   9.876   4.897  10.471  0.4209 -0.5538  0.8353
 5695SOL    HW219403   9.892   5.038  10.525  0.3942 -0.1611 -0.1534
 5696SOL     OW19404   9.803   6.253   5.478 -0.2099  0.7308 -0.4303
 5696SOL    HW119405   9.725   6.222   5.432 -1.2949  0.3805  1.5387
 5696SOL    HW219406   9.876   6.222   5.424 -1.2998 -2.7103 -0.2011
 5697SOL     OW19407   5.051  10.072   2.031 -0.0250 -0.2195 -0.2047
 5697SOL    HW119408   5.069   9.988   2.073 -0.7907  0.4128  1.4801
 5697SOL    HW219409   5.136  10.117   2.031  0.1432 -0.5292 -0.0632
 5698SOL     OW19410   4.901   9.241   3.610 -0.2947 -0.4115  0.0270
 5698SOL    HW119411   4.869   9.308   3.671  1.3054 -0.3156  0.8182
 5698SOL    HW219412   4.835   9.172   3.613 -0.0141 -0.6639  2.3184
 5699SOL     OW19413   9.857   0.599   5.657 -0.1391 -0.3790  0.2995
 5699SOL    HW119414   9.900   0.536   5.599  0.9792  0.2151  0.4507
 5699SOL    HW219415   9.794   0.644   5.601 -0.2108 -0.9111 -0.0559
 5700SOL     OW19416   9.025   4.014   3.427  0.6839 -0.2112 -0.6292
 5700SOL    HW119417   9.077   4.019   3.346  1.2141 -0.7351 -0.3286
 5700SOL    HW219418   8.945   3.969   3.401 -0.6790  2.5286 -1.6110
 5701SOL     OW19419   3.714   5.932   1.965 -0.0804  0.4245 -0.1423
 5701SOL    HW119420   3.802   5.934   2.001  0.1982 -0.4372 -0.7487
 5701SOL    HW219421   3.663   5.990   2.022  0.2389 -1.1514  1.8617
 5702SOL     OW19422   2.699   8.350   5.366  0.0328 -0.9412  0.7094
 5702SOL    HW119423   2.758   8.326   5.294  0.6486 -0.0664  0.9105
 5702SOL    HW219424   2.698   8.446   5.365  1.3985 -0.8450  2.9228
 5703SOL     OW19425   8.858   6.018   8.268  0.0068  1.3414 -0.5325
 5703SOL    HW119426   8.937   6.053   8.309  1.1653  0.1245 -1.5821
 5703SOL    HW219427   8.868   5.923   8.276 -1.2350  1.1693 -0.9073
 5704SOL     OW19428   3.963   0.196   6.816  0.4049 -0.2284 -0.4674
 5704SOL    HW119429   4.007   0.212   6.900 -1.9419  2.0244  0.4890
 5704SOL    HW219430   3.982   0.274   6.764  1.6827 -1.5242 -2.0268
 5705SOL     OW19431   8.226   0.842   8.072  0.3869 -0.4045 -0.2181
 5705SOL    HW119432   8.263   0.757   8.051  0.5223 -0.4933  0.3652
 5705SOL    HW219433   8.221   0.844   8.168  1.0198  0.5082 -0.1896
 5706SOL     OW19434   0.111  10.376   3.469 -0.4473 -0.4741 -0.2988
 5706SOL    HW119435   0.163  10.336   3.400 -0.3596  0.5167 -0.8162
 5706SOL    HW219436   0.115  10.313   3.542  1.4733 -0.4153 -0.3131
 5707SOL     OW19437   4.560  10.166   2.468 -0.0149  0.2849 -0.1498
 5707SOL    HW119438   4.569  10.112   2.389 -1.7175 -0.6063  0.2158
 5707SOL    HW219439   4.491  10.229   2.446 -0.5438 -0.0070  0.6322
 5708SOL     OW19440   4.290   4.217   7.210 -0.0208 -0.3825 -0.0712
 5708SOL    HW119441   4.206   4.238   7.170 -0.4592 -1.7459  0.0609
 5708SOL    HW219442   4.274   4.135   7.257  1.0410  0.0501  1.1056
 5709SOL     OW19443   8.267   8.415   2.023  0.0091 -0.4632  0.1370
 5709SOL    HW119444   8.191   8.400   1.967  0.0340  0.7686 -0.2689
 5709SOL    HW219445   8.267   8.342   2.085 -0.2961 -1.6211 -1.1619
 5710SOL     OW19446   5.946   1.336   2.312  0.1595 -0.3854  0.0864
 5710SOL    HW119447   5.972   1.258   2.263 -0.2025  0.0174 -0.7610
 5710SOL    HW219448   6.027   1.386   2.323  0.1024 -0.0742 -0.8410
 5711SOL     OW19449   8.460   6.552  10.437  0.6795 -0.2273 -0.2274
 5711SOL    HW119450   8.428   6.566  10.526  1.9077  1.4960 -0.0011
 5711SOL    HW219451   8.400   6.487  10.399  0.2863 -1.1911  1.9153
 5712SOL     OW19452   8.068   0.524   9.921  0.0508  0.2348  0.1252
 5712SOL    HW119453   8.065   0.478  10.006 -0.1311  1.2419  0.6805
 5712SOL    HW219454   8.022   0.606   9.937 -2.8173 -0.8187 -1.7805
 5713SOL     OW19455   4.502   7.944   8.921 -0.1606 -0.2298  0.7581
 5713SOL    HW119456   4.537   7.879   8.859  0.2204  1.1100 -0.4902
 5713SOL    HW219457   4.465   7.892   8.992  1.4784 -1.7853  0.5454
 5714SOL     OW19458   9.959  10.433   0.641 -0.5174  0.4963 -0.1838
 5714SOL    HW119459   9.934  10.392   0.724  0.5624  0.2546  0.0462
 5714SOL    HW219460  10.048  10.464   0.657  0.4516 -1.2183 -1.8162
 5715SOL     OW19461   7.870   0.192   2.983  0.0393  0.2961 -0.2889
 5715SOL    HW119462   7.901   0.265   3.037 -0.9890 -0.1590  0.9748
 5715SOL    HW219463   7.788   0.223   2.945  0.2741  0.2658 -0.8234
 5716SOL     OW19464   4.131   2.257   1.871 -0.3548  0.1505 -0.0518
 5716SOL    HW119465   4.062   2.319   1.847  0.8315  1.6974  0.4085
 5716SOL    HW219466   4.188   2.254   1.794 -0.8789 -1.1304 -0.4318
 5717SOL     OW19467   1.115  10.083   2.149  0.2939 -0.2837  0.3655
 5717SOL    HW119468   1.095  10.096   2.241 -1.3099  1.0731 -0.1228
 5717SOL    HW219469   1.030  10.065   2.108  0.7592  0.5377 -1.0480
 5718SOL     OW19470   6.541  10.245   5.583 -0.0368 -0.4414 -0.0073
 5718SOL    HW119471   6.584  10.262   5.499  0.6877 -1.0740  0.2310
 5718SOL    HW219472   6.452  10.217   5.558  0.3380 -1.1548 -0.6002
 5719SOL     OW19473   6.570   0.302   5.739  0.0847  0.2340  0.6686
 5719SOL    HW119474   6.647   0.271   5.788 -0.0751  0.6386  1.1793
 5719SOL    HW219475   6.591   0.283   5.648  1.7956  2.3901  0.5307
 5720SOL     OW19476   1.196   1.298   4.428 -0.4927 -0.0337  0.5269
 5720SOL    HW119477   1.202   1.332   4.339 -1.5010 -0.4434  0.2926
 5720SOL    HW219478   1.194   1.376   4.484  1.7567  0.2195  0.3382
 5721SOL     OW19479   5.078   1.789   3.951  0.0709 -0.9699 -0.5964
 5721SOL    HW119480   5.025   1.758   3.878 -1.6891  2.4429 -0.9814
 5721SOL    HW219481   5.144   1.845   3.911 -1.0031  1.0660  0.3421
 5722SOL     OW19482   6.696   2.147   9.675  0.0518 -0.0120 -0.0414
 5722SOL    HW119483   6.701   2.227   9.622 -0.6152  0.7839  1.0461
 5722SOL    HW219484   6.766   2.156   9.739  0.9311 -1.0286 -0.8128
 5723SOL     OW19485   9.272   2.111   1.881  0.6767  0.2243 -0.4030
 5723SOL    HW119486   9.263   2.170   1.956 -2.7891 -1.2378  0.5153
 5723SOL    HW219487   9.196   2.052   1.886  1.0144 -0.8775 -4.2881
 5724SOL     OW19488   4.198   6.373   2.075 -0.1390  0.1694 -0.1545
 5724SOL    HW119489   4.123   6.403   2.025  0.1455 -0.0171 -0.7009
 5724SOL    HW219490   4.167   6.295   2.122 -0.4327  0.4011  0.0368
 5725SOL     OW19491   7.383   6.818   3.258  0.1808 -0.0945 -0.2229
 5725SOL    HW119492   7.461   6.784   3.214  1.1078 -0.0756  1.3425
 5725SOL    HW219493   7.317   6.824   3.189  1.1783 -1.3098 -1.3285
 5726SOL     OW19494   8.813   2.926  10.043  0.0431  0.2162  0.3827
 5726SOL    HW119495   8.876   2.891   9.980  1.4490 -0.3023  1.9953
 5726SOL    HW219496   8.868   2.969  10.109 -1.3767  0.6467  1.3055
 5727SOL     OW19497   0.748   7.113   9.793 -0.2159  0.1441 -0.1517
 5727SOL    HW119498   0.664   7.066   9.793 -0.6331  0.8612 -0.1371
 5727SOL    HW219499   0.807   7.058   9.743 -0.4750 -0.7555  0.5044
 5728SOL     OW19500   5.756   5.002   7.790  0.2909 -0.4256 -0.1382
 5728SOL    HW119501   5.849   5.018   7.808  0.0476  2.2519 -0.8459
 5728SOL    HW219502   5.719   4.977   7.875  1.6436 -1.6653  0.1309
 5729SOL     OW19503   2.299   1.159   9.524 -0.0012 -0.4743  0.6417
 5729SOL    HW119504   2.348   1.086   9.486 -0.5194  1.2592 -4.0063
 5729SOL    HW219505   2.365   1.221   9.554  0.5556 -0.4654 -0.5893
 5730SOL     OW19506   5.146   4.910   5.413  0.3582 -0.3499 -0.0075
 5730SOL    HW119507   5.183   4.970   5.348  2.0679 -1.5495 -0.2179
 5730SOL    HW219508   5.163   4.952   5.497  0.5690 -0.0405 -0.2030
 5731SOL     OW19509   6.451   9.080   7.238  0.4272 -0.5033 -0.2276
 5731SOL    HW119510   6.409   9.144   7.181 -0.7746 -1.0519  0.0027
 5731SOL    HW219511   6.382   9.015   7.256  1.3917 -1.4554  0.1446
 5732SOL     OW19512   4.433   9.247  10.419 -0.2908  0.0455 -0.1820
 5732SOL    HW119513   4.468   9.336  10.413 -0.0745  0.1935  2.2024
 5732SOL    HW219514   4.338   9.259  10.416 -0.3298  0.5976  1.5958
 5733SOL     OW19515   5.045   6.953   3.445  0.1476  0.1852 -0.5258
 5733SOL    HW119516   5.080   6.952   3.534  1.2052 -1.4380 -0.9271
 5733SOL    HW219517   5.111   6.908   3.392 -0.5362  0.9596 -2.1144
 5734SOL     OW19518   5.641   9.419   0.479  0.5402 -0.0302  0.3899
 5734SOL    HW119519   5.735   9.430   0.466  0.2821  1.6862 -0.3064
 5734SOL    HW219520   5.612   9.504   0.512 -0.6595 -0.7756  1.3205
 5735SOL     OW19521  10.509   5.582   8.083  0.0835 -0.1169  0.4133
 5735SOL    HW119522  10.553   5.499   8.100 -1.7329 -1.0240  0.9087
 5735SOL    HW219523  10.441   5.587   8.150 -1.0880  0.8177 -0.8056
 5736SOL     OW19524   7.440   9.656   1.314 -0.2810 -0.5778  0.3838
 5736SOL    HW119525   7.472   9.566   1.307 -2.2405 -1.2909 -0.1525
 5736SOL    HW219526   7.516   9.710   1.296  0.8413 -2.1363  0.2480
 5737SOL     OW19527   0.669   6.064   8.926  0.2585  0.2537  0.0471
 5737SOL    HW119528   0.720   6.034   8.851 -0.0730 -0.0395 -0.0657
 5737SOL    HW219529   0.578   6.043   8.903  0.0672  0.8860  0.1842
 5738SOL     OW19530   2.764   4.059   8.030 -0.5746 -0.4013 -0.2257
 5738SOL    HW119531   2.750   4.123   8.099 -1.4228 -0.2080 -0.5550
 5738SOL    HW219532   2.849   4.021   8.048 -0.9442 -0.6198  1.1351
 5739SOL     OW19533   9.087  10.266   8.332  0.5790  0.0334 -0.2663
 5739SOL    HW119534   9.082  10.357   8.361  0.5462 -0.0817  0.0925
 5739SOL    HW219535   9.002  10.249   8.293  0.4352  0.0329  0.0422
 5740SOL     OW19536  10.577   0.080   8.036  0.4167  0.0156  0.2167
 5740SOL    HW119537  10.605   0.109   8.123  2.0848  0.0346 -0.2914
 5740SOL    HW219538  10.622   0.139   7.976 -1.0949  0.3155 -0.6827
 5741SOL     OW19539   2.757   0.129   0.529  0.1941  0.2468 -0.0569
 5741SOL    HW119540   2.793   0.107   0.615 -0.2019  1.0079  0.3124
 5741SOL    HW219541   2.814   0.083   0.467  0.1901 -0.7070  0.6217
 5742SOL     OW19542   2.245   3.114   7.031  0.1630 -0.0500  0.1023
 5742SOL    HW119543   2.339   3.106   7.049  0.0875 -0.9591  0.1385
 5742SOL    HW219544   2.227   3.208   7.036  0.9999  0.0961  0.4630
 5743SOL     OW19545   1.163   0.574   1.791  0.6018  0.1261  0.6739
 5743SOL    HW119546   1.197   0.586   1.702  0.6634 -0.5979  0.6001
 5743SOL    HW219547   1.068   0.572   1.780  0.6535 -2.2269  0.3255
 5744SOL     OW19548  10.263   0.731   7.302 -0.1269 -0.9836  0.1844
 5744SOL    HW119549  10.352   0.741   7.334  0.7066  1.0051 -2.4590
 5744SOL    HW219550  10.271   0.727   7.207 -2.7720 -2.1777 -0.0985
 5745SOL     OW19551   4.640   5.127   6.739  0.7582 -0.0891 -0.6834
 5745SOL    HW119552   4.629   5.222   6.742 -1.3502 -0.3078  0.0342
 5745SOL    HW219553   4.692   5.106   6.817  2.2721  0.5444 -1.4783
 5746SOL     OW19554   9.187   0.024   4.473  0.0553 -0.0096 -0.0111
 5746SOL    HW119555   9.116   0.067   4.426 -0.2030  0.0953  0.4693
 5746SOL    HW219556   9.143  -0.034   4.536  0.3815  0.4594  0.6650
 5747SOL     OW19557   9.538   3.857   5.210  0.0094  0.1098 -0.1244
 5747SOL    HW119558   9.608   3.793   5.221 -0.5274 -0.5022 -0.1904
 5747SOL    HW219559   9.571   3.936   5.252  0.8028 -0.1179 -0.2980
 5748SOL     OW19560   8.671   7.316   6.862  0.2046 -0.7325  0.1180
 5748SOL    HW119561   8.754   7.285   6.825 -0.2089 -0.5549 -0.9924
 5748SOL    HW219562   8.672   7.410   6.849 -0.0726 -0.6990  0.3199
 5749SOL     OW19563  10.105   6.840   0.481 -0.2389 -0.1255  0.0264
 5749SOL    HW119564  10.165   6.785   0.530 -0.5612 -1.0793 -0.6142
 5749SOL    HW219565  10.102   6.801   0.393 -0.3056  1.0467 -0.5207
 5750SOL     OW19566  10.518   9.172   5.668  0.0876  0.3196  0.3285
 5750SOL    HW119567  10.613   9.166   5.655  0.2094 -0.2899  1.3279
 5750SOL    HW219568  10.492   9.082   5.690 -0.9669  0.1795 -1.3548
 5751SOL     OW19569   6.937   4.011   5.497  0.1140  0.1725 -0.1734
 5751SOL    HW119570   7.019   4.024   5.546 -2.1090  0.6505  3.9097
 5751SOL    HW219571   6.906   3.925   5.526 -1.0579  0.2248 -1.2068
 5752SOL     OW19572   3.629   2.338   5.104 -0.2807  0.0437  0.5921
 5752SOL    HW119573   3.576   2.329   5.025 -0.4423  0.8679  0.5913
 5752SOL    HW219574   3.717   2.314   5.078 -0.6861 -1.6592  0.6660
 5753SOL     OW19575   5.109   4.766   5.820 -0.8449  0.2467 -0.2077
 5753SOL    HW119576   5.172   4.745   5.752  0.8072  1.0394  0.9852
 5753SOL    HW219577   5.118   4.861   5.833 -0.2871 -0.0338  1.8291
 5754SOL     OW19578   8.803   7.464   1.728  0.3254 -0.4903  0.0023
 5754SOL    HW119579   8.827   7.387   1.780 -1.6030 -2.5400 -1.9393
 5754SOL    HW219580   8.877   7.476   1.668  2.5094  1.8114  2.8187
 5755SOL     OW19581   5.945   4.884   8.865 -0.2350 -0.2701  0.5518
 5755SOL    HW119582   5.996   4.938   8.925 -0.0516  0.3023 -0.1003
 5755SOL    HW219583   5.879   4.943   8.829 -0.1079 -0.4965 -0.0829
 5756SOL     OW19584   8.300   3.492   0.954 -0.0480  0.3843  0.0265
 5756SOL    HW119585   8.230   3.557   0.953  0.7782  1.2956 -0.1924
 5756SOL    HW219586   8.325   3.485   1.046 -0.3850  0.0891  0.0989
 5757SOL     OW19587   4.926  10.374   2.359 -0.4247  0.0011  0.2074
 5757SOL    HW119588   4.879  10.393   2.440  1.6952 -0.1680  1.5781
 5757SOL    HW219589   5.014  10.408   2.375 -0.0621  0.3258 -2.2181
 5758SOL     OW19590   0.640   5.925   0.462  0.3257 -0.1091 -0.2982
 5758SOL    HW119591   0.704   5.871   0.416  1.0541  0.2591  0.2721
 5758SOL    HW219592   0.592   5.970   0.392  1.0167 -0.0150 -0.7178
 5759SOL     OW19593   5.519   1.470   5.909 -0.7821 -0.0530 -0.1779
 5759SOL    HW119594   5.504   1.419   5.988  0.9211  1.3237  1.1000
 5759SOL    HW219595   5.542   1.557   5.940  0.6618  0.3456 -2.1589
 5760SOL     OW19596   0.101   3.403   1.457 -0.4058  0.2079  0.1832
 5760SOL    HW119597   0.154   3.426   1.534 -2.1006 -0.7167  1.6854
 5760SOL    HW219598   0.052   3.482   1.437  0.5026  0.6502 -0.3930
 5761SOL     OW19599   0.576   5.159   9.631 -0.4899  0.1194 -1.0743
 5761SOL    HW119600   0.499   5.131   9.581 -0.1792 -2.3897 -0.2917
 5761SOL    HW219601   0.650   5.130   9.577 -0.1405 -3.0466  0.8484
 5762SOL     OW19602  10.317   9.551   8.332  0.1946  0.6206 -0.3219
 5762SOL    HW119603  10.341   9.459   8.324  0.3511  0.5140  1.2006
 5762SOL    HW219604  10.369   9.583   8.405 -1.9176  1.1993  1.0042
 5763SOL     OW19605   6.925   2.999   0.183  0.4595  0.2750 -0.3522
 5763SOL    HW119606   6.940   3.065   0.251 -1.1052  1.2341 -0.8933
 5763SOL    HW219607   6.864   2.936   0.222  0.1702  0.4015 -0.5938
 5764SOL     OW19608   8.556   1.279  10.045  0.8285 -0.1935 -0.0047
 5764SOL    HW119609   8.575   1.276  10.139  0.5492  1.3840  0.1425
 5764SOL    HW219610   8.469   1.240  10.036  0.7904 -0.2081  0.4131
 5765SOL     OW19611   7.898   1.516   4.474  0.5659 -0.2710 -0.6066
 5765SOL    HW119612   7.815   1.489   4.514  1.0652 -1.1028 -0.1083
 5765SOL    HW219613   7.959   1.522   4.547  1.3396 -1.2317 -1.1464
 5766SOL     OW19614   0.229   5.281   3.425 -0.0935 -0.3327  0.2294
 5766SOL    HW119615   0.175   5.355   3.396  1.6536  0.5461 -0.9790
 5766SOL    HW219616   0.210   5.212   3.362  0.9246  0.3346 -0.8540
 5767SOL     OW19617   1.834  10.160   8.652  0.0923 -0.2430  0.4559
 5767SOL    HW119618   1.866  10.139   8.564 -1.1595 -0.3127 -0.0004
 5767SOL    HW219619   1.806  10.251   8.645 -0.7428 -0.4882  0.5547
 5768SOL     OW19620   0.869   0.444   7.608  0.0754 -0.1857  0.5202
 5768SOL    HW119621   0.796   0.478   7.556 -0.2801 -0.5675  0.7661
 5768SOL    HW219622   0.924   0.521   7.624 -0.1063  0.0453  0.0666
 5769SOL     OW19623  10.374   8.275   0.925  0.1988  0.0633  0.0269
 5769SOL    HW119624  10.459   8.283   0.881  0.3380 -3.0884 -0.5333
 5769SOL    HW219625  10.313   8.324   0.870  1.3142  0.7235 -0.6535
 5770SOL     OW19626   3.808   9.464   6.074 -0.2628  0.0638  0.1293
 5770SOL    HW119627   3.728   9.508   6.043  0.0308 -0.4784 -1.5235
 5770SOL    HW219628   3.810   9.382   6.025 -0.0615 -1.1791  2.1301
 5771SOL     OW19629   6.850   7.697   3.295  0.5745  0.5219 -0.5325
 5771SOL    HW119630   6.775   7.754   3.308  0.4048 -0.0711  1.3940
 5771SOL    HW219631   6.921   7.755   3.267 -0.1558  1.3362 -0.7098
 5772SOL     OW19632   2.313   6.775   5.349  0.2257  0.4508  0.2236
 5772SOL    HW119633   2.403   6.741   5.343 -0.3685 -1.1732  0.1309
 5772SOL    HW219634   2.324   6.868   5.371  1.9274  0.3292  0.0066
 5773SOL     OW19635   9.309   6.900   0.859  0.1721 -0.1807  0.4325
 5773SOL    HW119636   9.215   6.907   0.842  0.2651 -1.0618 -0.5179
 5773SOL    HW219637   9.338   6.826   0.806  1.1997 -0.6372  1.5733
 5774SOL     OW19638   8.306   2.744   9.611 -0.8457  0.1543  0.4050
 5774SOL    HW119639   8.221   2.759   9.652 -0.5641 -1.3493  1.6288
 5774SOL    HW219640   8.369   2.757   9.682 -0.0624  0.8781 -0.3954
 5775SOL     OW19641   7.967   9.583   1.004  0.1423 -0.3605 -0.3876
 5775SOL    HW119642   7.917   9.593   1.085 -1.0361  1.8217 -1.2912
 5775SOL    HW219643   7.933   9.503   0.965 -2.1948  0.6348 -0.5755
 5776SOL     OW19644   3.924   0.575   8.906  0.1902  0.3788 -0.3365
 5776SOL    HW119645   3.850   0.635   8.916 -0.3863 -0.3671  0.0072
 5776SOL    HW219646   3.933   0.534   8.992  0.5104 -0.0965 -0.5956
 5777SOL     OW19647   6.329  10.322   0.460  0.0893 -0.1277  0.3211
 5777SOL    HW119648   6.356  10.403   0.417  1.4488 -0.1896  0.9827
 5777SOL    HW219649   6.326  10.345   0.553 -1.5948 -0.3099  0.3413
 5778SOL     OW19650   6.391   3.792   4.084 -0.8480  0.2321 -0.5758
 5778SOL    HW119651   6.452   3.777   4.155 -0.2188 -0.0358 -1.1613
 5778SOL    HW219652   6.321   3.727   4.098 -0.4419 -0.1966 -0.5164
 5779SOL     OW19653   1.205   4.848   2.818  0.0071  0.6920 -0.5517
 5779SOL    HW119654   1.185   4.758   2.792 -0.5021  0.8359 -0.6773
 5779SOL    HW219655   1.299   4.848   2.833 -0.1256 -0.0954  0.3887
 5780SOL     OW19656   1.198   6.654   9.906  0.4790  0.0783 -0.8538
 5780SOL    HW119657   1.146   6.727   9.938 -0.8003 -1.6299  1.3025
 5780SOL    HW219658   1.279   6.658   9.958 -0.0011 -0.5293 -0.0254
 5781SOL     OW19659   4.855   3.509   9.110 -0.2283 -0.5778  0.3479
 5781SOL    HW119660   4.766   3.524   9.142 -0.3934 -0.2055 -0.2572
 5781SOL    HW219661   4.897   3.595   9.114 -0.0362 -0.6641  0.2131
 5782SOL     OW19662   2.076   2.366   5.385 -0.0164  0.3980  0.1673
 5782SOL    HW119663   2.131   2.301   5.429 -2.0314 -0.5188  1.4975
 5782SOL    HW219664   2.048   2.323   5.304 -0.9293 -0.2508  0.8011
 5783SOL     OW19665   6.130   2.304   9.360  0.0060  0.7963 -0.1248
 5783SOL    HW119666   6.036   2.291   9.368  0.0146  1.3592  1.3582
 5783SOL    HW219667   6.149   2.295   9.267 -1.4273  0.1531 -0.3718
 5784SOL     OW19668   5.199   0.062  10.322  0.2443  0.4842 -0.0733
 5784SOL    HW119669   5.269   0.127  10.319  1.3976 -0.5932  1.8279
 5784SOL    HW219670   5.131   0.103  10.375  0.3434  0.6866 -0.1010
 5785SOL     OW19671   0.227   1.993  10.095 -0.2689  0.2624 -0.0620
 5785SOL    HW119672   0.208   2.053  10.023 -0.6180 -0.8962 -0.9720
 5785SOL    HW219673   0.142   1.956  10.118 -0.0292 -0.0447  0.3269
 5786SOL     OW19674   8.172   1.637   4.357  0.3802 -0.1201  0.5271
 5786SOL    HW119675   8.181   1.635   4.452 -0.7692  0.0670  0.6634
 5786SOL    HW219676   8.116   1.562   4.337  1.2776 -0.6349 -0.0972
 5787SOL     OW19677   2.757   2.206   0.800 -0.1033  0.3488  0.6087
 5787SOL    HW119678   2.813   2.221   0.876 -1.0958  3.3059  0.8863
 5787SOL    HW219679   2.770   2.283   0.744 -4.4985  1.7899  1.1713
 5788SOL     OW19680   5.340   4.455   5.643  0.0745  0.2121 -0.2995
 5788SOL    HW119681   5.388   4.493   5.718  0.3503 -0.8574  0.0780
 5788SOL    HW219682   5.250   4.449   5.674  0.5551 -2.3247  0.8357
 5789SOL     OW19683   0.546   8.877   4.171  0.2342  0.5179 -0.0150
 5789SOL    HW119684   0.498   8.958   4.191  0.1463  0.4078  0.2308
 5789SOL    HW219685   0.572   8.843   4.256  0.8385  0.6234 -0.1511
 5790SOL     OW19686   2.288   3.399   4.807  0.0447  0.1464 -0.0712
 5790SOL    HW119687   2.302   3.493   4.823  0.5716 -0.0265  0.4841
 5790SOL    HW219688   2.369   3.357   4.836 -0.7918 -0.6484  1.1934
 5791SOL     OW19689   9.908   1.491   2.251 -0.1640  0.1704  0.6249
 5791SOL    HW119690   9.912   1.433   2.327 -2.5861  0.9621  1.4476
 5791SOL    HW219691   9.968   1.452   2.188  0.2132 -1.7721  2.0922
 5792SOL     OW19692   0.255   0.733   5.866 -0.2398  0.7314 -0.7001
 5792SOL    HW119693   0.234   0.817   5.824 -1.5230  1.0000  0.4209
 5792SOL    HW219694   0.174   0.682   5.858 -0.1402  0.3823  0.4529
 5793SOL     OW19695   2.238   3.909   6.687 -0.0400 -0.1879  0.3834
 5793SOL    HW119696   2.305   3.842   6.673  0.3149  0.4234 -1.0617
 5793SOL    HW219697   2.263   3.951   6.769  1.3400 -0.0074 -0.1017
 5794SOL     OW19698   6.482   3.073   0.167  0.0868  0.1558 -0.2738
 5794SOL    HW119699   6.507   3.071   0.074 -0.8413  1.3152 -0.5703
 5794SOL    HW219700   6.386   3.076   0.165  0.0786  0.6566  0.7214
 5795SOL     OW19701   4.141   0.626   0.805 -0.4438  0.0513 -0.1172
 5795SOL    HW119702   4.186   0.566   0.865  0.2660 -0.1989 -0.8718
 5795SOL    HW219703   4.059   0.582   0.784 -1.1298  0.5533  1.3518
 5796SOL     OW19704   1.271   2.961   2.272  0.2587  0.3572  0.2733
 5796SOL    HW119705   1.279   3.020   2.346 -2.0319 -1.7765  2.4525
 5796SOL    HW219706   1.205   3.002   2.215 -0.4816  0.4744  1.1857
 5797SOL     OW19707   4.695   7.528   6.316  0.5631 -0.0732  0.1504
 5797SOL    HW119708   4.763   7.462   6.330  0.5906 -1.0200 -3.5141
 5797SOL    HW219709   4.733   7.591   6.256 -1.8033 -0.9631 -2.5292
 5798SOL     OW19710   7.982   9.965   2.859 -0.3146 -0.1480 -0.2894
 5798SOL    HW119711   7.900   9.918   2.843 -1.2961  1.8094 -1.3945
 5798SOL    HW219712   7.965  10.017   2.938 -0.4445  0.8560 -0.9606
 5799SOL     OW19713   3.618   2.262   6.592 -0.4963  0.7308  0.0555
 5799SOL    HW119714   3.573   2.323   6.650 -0.6255 -1.1760  2.0883
 5799SOL    HW219715   3.547   2.216   6.547 -0.4837  0.4376  0.3296
 5800SOL     OW19716   9.776   5.385   6.660  0.2284  0.3523 -0.1861
 5800SOL    HW119717   9.762   5.471   6.619  0.7826 -0.2689 -1.7479
 5800SOL    HW219718   9.773   5.323   6.587 -0.5461 -1.0134  0.9744
 5801SOL     OW19719   6.744   1.921   4.029 -0.1233  0.1663  0.0512
 5801SOL    HW119720   6.715   2.010   4.050 -0.8459 -0.2426  0.8829
 5801SOL    HW219721   6.669   1.882   3.984  0.7347  0.4292 -1.6764
 5802SOL     OW19722   5.751   0.959   2.794 -0.0257  0.3120 -0.0607
 5802SOL    HW119723   5.748   0.878   2.743 -1.5518 -0.4099  1.0904
 5802SOL    HW219724   5.671   1.006   2.769 -0.3098  0.3837  0.9153
 5803SOL     OW19725   6.438   6.597   3.351 -0.1775 -0.0309  0.6462
 5803SOL    HW119726   6.406   6.533   3.287 -1.9875 -0.5319  2.0033
 5803SOL    HW219727   6.493   6.547   3.410 -1.3628 -0.3116  1.5387
 5804SOL     OW19728   9.570   7.217   6.135 -0.1607  0.1734 -0.3579
 5804SOL    HW119729   9.544   7.290   6.079 -0.5210  1.0841  0.9306
 5804SOL    HW219730   9.560   7.251   6.224 -0.6036 -1.5546  0.2886
 5805SOL     OW19731   0.116  10.398   2.481  0.4155  0.0445  0.3048
 5805SOL    HW119732   0.151  10.429   2.565  2.0124 -0.2789 -0.1998
 5805SOL    HW219733   0.194  10.367   2.433 -0.4758  0.1394 -1.2550
 5806SOL     OW19734   1.497   3.746   5.218 -0.0557 -0.2676 -0.3012
 5806SOL    HW119735   1.533   3.770   5.132 -1.0358  0.4662 -0.5302
 5806SOL    HW219736   1.450   3.664   5.202 -2.8957  1.3964 -1.2677
 5807SOL     OW19737   4.605   1.932   4.888 -0.1998 -0.9850  1.0879
 5807SOL    HW119738   4.542   1.985   4.839 -0.8973 -2.5307  0.2322
 5807SOL    HW219739   4.573   1.933   4.978 -0.2307 -0.0126  1.0729
 5808SOL     OW19740   4.948   9.035   8.989  0.0444  0.1399 -0.4311
 5808SOL    HW119741   5.015   9.050   8.923  0.4211 -0.7930 -0.2807
 5808SOL    HW219742   4.876   8.993   8.942  1.1377 -2.4939  0.0477
 5809SOL     OW19743   5.194   6.514   6.136 -0.5735 -0.4246  0.0647
 5809SOL    HW119744   5.109   6.495   6.097 -0.3580  0.9460 -1.1925
 5809SOL    HW219745   5.212   6.439   6.193 -2.1030 -1.2687 -0.4963
 5810SOL     OW19746   6.998   6.784   0.221 -0.2979 -0.1710 -0.6825
 5810SOL    HW119747   7.006   6.856   0.283 -1.1369  0.9240 -1.7829
 5810SOL    HW219748   7.009   6.705   0.274 -0.6680  0.7244  0.7882
 5811SOL     OW19749   2.198   5.471   0.265  0.1517  0.1261 -0.0253
 5811SOL    HW119750   2.149   5.542   0.224 -1.1623 -0.4530  0.4738
 5811SOL    HW219751   2.247   5.430   0.194 -0.6727  0.2601 -0.6793
 5812SOL     OW19752   4.944   5.873   4.776 -0.1797  0.0460 -0.0572
 5812SOL    HW119753   4.893   5.853   4.698  0.9216 -0.9704 -0.5405
 5812SOL    HW219754   4.889   5.844   4.849  0.3516 -2.6202 -0.6361
 5813SOL     OW19755   7.794   6.421   0.234 -0.0187  0.0097  0.0733
 5813SOL    HW119756   7.719   6.416   0.174 -0.2932  0.5777  0.3642
 5813SOL    HW219757   7.786   6.506   0.276  0.5134 -0.1339  0.4826
 5814SOL     OW19758   8.346   3.537   1.248  0.1378  0.9641  0.5752
 5814SOL    HW119759   8.352   3.625   1.209 -0.3083  1.5769  1.8426
 5814SOL    HW219760   8.359   3.552   1.341  4.6329 -0.8417  0.4605
 5815SOL     OW19761   1.075   1.747   1.585  0.3392  0.0804  0.7336
 5815SOL    HW119762   1.104   1.689   1.515 -0.2592  0.1714  0.4043
 5815SOL    HW219763   0.990   1.712   1.611 -0.5701  1.4392 -0.2349
 5816SOL     OW19764   9.533   9.208   1.307 -0.0939  0.0136 -0.0524
 5816SOL    HW119765   9.616   9.232   1.265 -0.1829  1.0879  0.3484
 5816SOL    HW219766   9.490   9.292   1.324 -1.4591 -0.5370 -0.6375
 5817SOL     OW19767   4.091   2.837   2.960 -0.5951 -0.0656  0.0122
 5817SOL    HW119768   4.153   2.856   3.031 -0.9578  0.0484  0.2988
 5817SOL    HW219769   4.035   2.914   2.956 -0.8479 -0.2556 -0.1113
 5818SOL     OW19770   0.734   3.673   2.132 -0.2009  0.0454  0.7052
 5818SOL    HW119771   0.671   3.714   2.191  0.0162  0.3718  0.7133
 5818SOL    HW219772   0.774   3.746   2.085  1.3704  0.0019  1.8736
 5819SOL     OW19773   4.092   9.674   1.140 -0.2432 -0.3840  0.1061
 5819SOL    HW119774   4.036   9.660   1.063  0.4782 -1.1306 -0.2937
 5819SOL    HW219775   4.031   9.699   1.209 -1.0645 -1.0314 -0.3597
 5820SOL     OW19776   2.785  10.136   0.449  0.0361 -0.5629  0.8725
 5820SOL    HW119777   2.812  10.205   0.510 -1.0595 -0.9448  1.8243
 5820SOL    HW219778   2.768  10.061   0.505 -1.5844 -0.7505  0.1734
 5821SOL     OW19779   9.240   6.660   1.507 -0.4192  0.1893 -0.0503
 5821SOL    HW119780   9.199   6.742   1.480 -0.3523 -0.4233 -2.1476
 5821SOL    HW219781   9.167   6.598   1.513 -0.3842  0.2183  0.9348
 5822SOL     OW19782   9.347   7.550   9.213  0.3577  0.3132 -0.0225
 5822SOL    HW119783   9.260   7.518   9.190  0.5577 -0.1600 -0.1271
 5822SOL    HW219784   9.385   7.481   9.266  1.1697 -0.0809 -1.0818
 5823SOL     OW19785   1.650   4.050   4.222 -0.0533  0.2265  0.1946
 5823SOL    HW119786   1.638   3.974   4.279 -4.3943  0.7966  0.3914
 5823SOL    HW219787   1.674   4.121   4.282  1.2285 -0.3594  0.4019
 5824SOL     OW19788   8.965   3.765   7.488 -0.2203 -0.3667 -0.1315
 5824SOL    HW119789   8.892   3.723   7.442 -0.4621 -1.0677  0.8644
 5824SOL    HW219790   8.929   3.791   7.572  0.2409  0.8409 -0.2857
 5825SOL     OW19791   6.262   1.913   7.475  0.4891  0.7394  0.1159
 5825SOL    HW119792   6.309   1.839   7.513  0.6049 -0.2511 -1.8066
 5825SOL    HW219793   6.233   1.965   7.550  0.0038 -1.4752  1.5517
 5826SOL     OW19794   8.730   0.379  10.178  0.2697 -0.0102 -0.5114
 5826SOL    HW119795   8.702   0.295  10.214  0.5327 -0.8879 -2.2740
 5826SOL    HW219796   8.795   0.411  10.240  0.5113 -1.3291 -0.0566
 5827SOL     OW19797   8.121   4.633   9.101  0.3858 -0.3865 -0.3029
 5827SOL    HW119798   8.108   4.699   9.169  0.1300 -1.5497  0.8276
 5827SOL    HW219799   8.112   4.549   9.147 -1.7839 -1.2610 -2.0956
 5828SOL     OW19800   4.778   4.038   7.444 -0.3993  0.1128  0.9278
 5828SOL    HW119801   4.810   4.072   7.361 -0.7439 -0.3989  0.5760
 5828SOL    HW219802   4.816   4.095   7.510 -0.2373  0.6126  0.4091
 5829SOL     OW19803   5.377   4.186   9.696 -0.2187 -0.1363  0.1528
 5829SOL    HW119804   5.315   4.160   9.764  0.0830 -3.1958 -0.5957
 5829SOL    HW219805   5.351   4.135   9.620  0.6675  1.7237 -1.4785
 5830SOL     OW19806   7.082   8.414   0.958  0.1659  0.1744 -0.0310
 5830SOL    HW119807   7.143   8.460   0.901 -0.0902  2.4542  1.4216
 5830SOL    HW219808   7.068   8.330   0.914  1.8785  0.8159 -2.0042
 5831SOL     OW19809   1.173   9.866   8.248  0.6276  0.7833 -0.1319
 5831SOL    HW119810   1.212   9.780   8.267  0.5378  0.5385 -1.0034
 5831SOL    HW219811   1.160   9.906   8.334  0.1175 -0.3293  0.3302
 5832SOL     OW19812   0.967   2.191  10.128 -0.3419 -0.0398  0.3847
 5832SOL    HW119813   1.037   2.240  10.171  0.8707 -2.3786  1.2731
 5832SOL    HW219814   0.956   2.234  10.043  3.1641 -0.3339 -0.3625
 5833SOL     OW19815   4.697   8.705   9.131 -0.1596  0.0972 -0.5818
 5833SOL    HW119816   4.629   8.720   9.066 -1.1620 -0.8612  0.2338
 5833SOL    HW219817   4.701   8.610   9.142  0.0643  0.2335  0.6762
 5834SOL     OW19818   7.450   1.007   6.304  0.2569  0.1602  0.2644
 5834SOL    HW119819   7.501   0.941   6.257  1.9186  0.9733  0.8638
 5834SOL    HW219820   7.515   1.060   6.350 -1.1452  1.1653  1.1728
 5835SOL     OW19821   3.981   3.974   1.341 -0.4214  0.3175  0.4933
 5835SOL    HW119822   3.971   3.894   1.393  2.0127 -1.4257 -1.4828
 5835SOL    HW219823   4.033   4.033   1.396 -1.3147  0.1575  1.5442
 5836SOL     OW19824   9.845   1.730   1.816 -0.0262 -0.0396 -0.4975
 5836SOL    HW119825   9.824   1.820   1.842  0.4443  0.3022 -1.2538
 5836SOL    HW219826   9.846   1.733   1.720 -0.0888 -0.8731 -0.5292
 5837SOL     OW19827   2.776   3.373   8.400  0.0375  0.3462 -0.7644
 5837SOL    HW119828   2.684   3.396   8.416 -0.3947 -0.8646 -1.3677
 5837SOL    HW219829   2.799   3.316   8.472  0.0966  0.0876 -0.9858
 5838SOL     OW19830   3.634   8.419   2.939  0.1965 -0.1736 -0.2997
 5838SOL    HW119831   3.656   8.373   2.858  0.6537 -0.2771 -0.1184
 5838SOL    HW219832   3.670   8.365   3.009  2.6878  1.4704 -0.1680
 5839SOL     OW19833   5.389   1.806   8.233 -0.2555 -0.8620 -0.1716
 5839SOL    HW119834   5.310   1.771   8.192 -0.6243 -1.6616  1.1649
 5839SOL    HW219835   5.359   1.886   8.277  0.3041  0.4588 -2.0489
 5840SOL     OW19836   7.257   6.742   3.504 -0.1266 -0.3270  0.4721
 5840SOL    HW119837   7.215   6.826   3.520  1.2277  0.3648  0.4948
 5840SOL    HW219838   7.310   6.755   3.425 -0.0187 -1.2012  0.3839
 5841SOL     OW19839   7.194   2.429   3.045  0.2056  0.3799  0.2472
 5841SOL    HW119840   7.204   2.376   3.124 -0.6813  0.4384  0.4033
 5841SOL    HW219841   7.181   2.518   3.077  1.3443  0.6608 -0.0086
 5842SOL     OW19842   7.789   5.276   4.358 -0.3486  0.4186 -0.1512
 5842SOL    HW119843   7.814   5.335   4.286 -0.6965  0.1598 -0.4912
 5842SOL    HW219844   7.741   5.331   4.419  0.5739  0.8037  0.2471
 5843SOL     OW19845   9.209  10.235   0.309 -0.1241  0.4174  0.1916
 5843SOL    HW119846   9.205  10.320   0.266  0.6047  0.5855  0.4406
 5843SOL    HW219847   9.234  10.174   0.239  0.2220  0.5512  0.1980
 5844SOL     OW19848   3.627   6.055   3.637 -0.1921  0.0849  0.4277
 5844SOL    HW119849   3.606   6.051   3.544  0.5150  0.4594  0.2390
 5844SOL    HW219850   3.723   6.057   3.639 -0.2099  0.6395  1.1323
 5845SOL     OW19851   6.669  10.523   0.152  0.1451 -0.2152  0.0075
 5845SOL    HW119852   6.607  10.596   0.152 -0.6887 -0.9024  0.8189
 5845SOL    HW219853   6.754  10.564   0.138 -0.6068  0.6092 -2.8414
 5846SOL     OW19854   6.713   2.781   4.557  0.0631 -0.8059  0.1629
 5846SOL    HW119855   6.700   2.868   4.521  2.5059 -0.1086  0.8079
 5846SOL    HW219856   6.710   2.723   4.481 -1.3893 -0.1767 -0.2920
 5847SOL     OW19857  10.225   6.077   8.498  0.0849 -0.3302  0.0879
 5847SOL    HW119858  10.151   6.053   8.443 -0.0722 -0.1808  0.2307
 5847SOL    HW219859  10.247   6.166   8.472  1.0462 -0.8178 -0.8521
 5848SOL     OW19860   6.830   7.893  10.510  0.0386 -0.1680 -0.3521
 5848SOL    HW119861   6.846   7.987  10.512  0.7444 -0.2867  0.0648
 5848SOL    HW219862   6.820   7.868  10.602  0.2196 -0.5517 -0.4310
 5849SOL     OW19863   9.659  10.400   6.061 -0.0547  0.9626 -0.1184
 5849SOL    HW119864   9.569  10.375   6.082 -0.1577  1.9619  0.7249
 5849SOL    HW219865   9.712  10.358   6.128  0.2229 -0.3026 -1.0918
 5850SOL     OW19866   8.959   7.936   7.015 -0.4416  0.5027 -0.8185
 5850SOL    HW119867   8.995   7.853   6.983  0.0056  0.6764 -0.7803
 5850SOL    HW219868   8.967   7.932   7.110  0.3332  0.9078 -0.8494
 5851SOL     OW19869   4.719   3.226   4.285 -0.9557 -0.6596 -0.0417
 5851SOL    HW119870   4.660   3.196   4.215 -1.9393 -1.1868  0.9928
 5851SOL    HW219871   4.746   3.313   4.257 -0.6258 -1.1882 -1.5136
 5852SOL     OW19872   5.500   8.970   1.075  0.0579  0.3598 -0.0647
 5852SOL    HW119873   5.538   9.018   1.001  1.9629  0.7003  1.0767
 5852SOL    HW219874   5.483   9.037   1.141  1.2039 -0.2902  0.9244
 5853SOL     OW19875   1.865   6.457   5.871  0.0391  0.2344  0.0418
 5853SOL    HW119876   1.906   6.527   5.922  0.3780 -0.0630  0.1865
 5853SOL    HW219877   1.937   6.396   5.852 -0.0467  0.4220 -0.9381
 5854SOL     OW19878   6.089   0.187   9.617  0.5811 -0.1243 -0.0000
 5854SOL    HW119879   6.147   0.256   9.585  1.2331  0.9004  3.0856
 5854SOL    HW219880   6.001   0.221   9.604  0.8050  0.1738 -0.7909
 5855SOL     OW19881  10.181   4.283   9.014  0.3307  0.3836 -0.0327
 5855SOL    HW119882  10.131   4.244   9.086  0.4525  1.4554  0.6544
 5855SOL    HW219883  10.264   4.236   9.014 -0.4200 -0.9706 -0.7646
 5856SOL     OW19884   6.215   6.556   3.523  0.0894 -0.3903 -0.3440
 5856SOL    HW119885   6.139   6.610   3.545 -1.1371 -1.8282 -0.8874
 5856SOL    HW219886   6.260   6.603   3.453  2.1124  2.5376  2.6198
 5857SOL     OW19887  10.194   1.106   7.859 -0.6299 -1.2714 -0.9548
 5857SOL    HW119888  10.271   1.083   7.911  0.3977  0.5070 -1.5940
 5857SOL    HW219889  10.134   1.146   7.921  1.2702  2.4064 -1.2264
 5858SOL     OW19890   6.767   4.044   3.532  0.4065  0.0079  0.1824
 5858SOL    HW119891   6.733   4.057   3.621 -2.1513  0.4358 -0.7921
 5858SOL    HW219892   6.737   3.957   3.507 -0.6263  0.6438 -0.9314
 5859SOL     OW19893   7.822   1.527   7.902  0.6099 -0.2997 -0.1034
 5859SOL    HW119894   7.753   1.468   7.869  0.7725 -0.4407 -0.1970
 5859SOL    HW219895   7.896   1.510   7.843 -0.2730  2.1883 -2.1017
 5860SOL     OW19896  10.128   5.355   0.984 -0.0848 -0.4453 -0.2523
 5860SOL    HW119897  10.089   5.285   1.036  2.4743 -0.2388  2.1372
 5860SOL    HW219898  10.142   5.427   1.046 -0.8395  1.5344 -2.2137
 5861SOL     OW19899   1.198   1.343   2.325 -0.0564 -0.4475 -0.3104
 5861SOL    HW119900   1.122   1.374   2.276  0.6063 -0.3519 -1.3081
 5861SOL    HW219901   1.222   1.417   2.381  0.8979  0.5480 -1.9385
 5862SOL     OW19902  10.374   3.139   6.663  0.0103  0.1044  0.0827
 5862SOL    HW119903  10.445   3.163   6.603 -0.0613 -0.4788 -0.2368
 5862SOL    HW219904  10.300   3.192   6.635 -0.4656 -1.2442 -1.3129
 5863SOL     OW19905   7.678   3.109   8.091 -0.8111 -0.3352  0.2767
 5863SOL    HW119906   7.650   3.149   8.173 -1.4938 -0.1413 -0.0469
 5863SOL    HW219907   7.601   3.111   8.035  0.2517  1.9504 -1.3032
 5864SOL     OW19908   5.233   2.224   0.214 -0.0717  0.1537 -0.4956
 5864SOL    HW119909   5.262   2.142   0.253  1.1067  0.0732 -1.4817
 5864SOL    HW219910   5.193   2.273   0.286 -0.5666 -1.1683  0.1559
 5865SOL     OW19911   8.301  10.185   3.274 -1.0080 -0.1320  0.6338
 5865SOL    HW119912   8.205  10.179   3.275 -1.3075  3.0513  1.7625
 5865SOL    HW219913   8.323  10.196   3.182 -1.4645 -2.7025  0.1318
 5866SOL     OW19914   0.481   4.790   9.747 -0.1451  0.2570 -0.4554
 5866SOL    HW119915   0.451   4.703   9.772  0.4339  0.7978  2.5724
 5866SOL    HW219916   0.571   4.777   9.716 -0.0532 -0.2592  0.0045
 5867SOL     OW19917   5.349   2.557   7.451  0.0632  0.3319  0.5988
 5867SOL    HW119918   5.342   2.465   7.426 -0.4874  0.2802  0.9371
 5867SOL    HW219919   5.435   2.584   7.417 -0.7870  0.3805 -1.7290
 5868SOL     OW19920   5.768   0.456  10.395  0.3184 -0.0200  0.0102
 5868SOL    HW119921   5.676   0.454  10.369 -0.3218  0.8952  1.9812
 5868SOL    HW219922   5.809   0.516  10.334 -0.6832  0.5890 -0.0819
 5869SOL     OW19923   7.358   4.488   8.933 -0.3434 -0.3165  0.3990
 5869SOL    HW119924   7.403   4.503   9.016 -0.1377 -1.7610  0.5857
 5869SOL    HW219925   7.265   4.486   8.956 -0.4059  0.8731  0.3113
 5870SOL     OW19926   8.891   7.446   0.656  0.0865  0.3936 -0.3131
 5870SOL    HW119927   8.960   7.462   0.591 -0.3143 -0.2826 -0.9279
 5870SOL    HW219928   8.869   7.354   0.645 -1.1704  0.6811 -0.3847
 5871SOL     OW19929   0.101   6.179   8.140  0.4221 -0.0243  0.7686
 5871SOL    HW119930   0.087   6.113   8.072 -0.5617  1.3453 -0.4268
 5871SOL    HW219931   0.038   6.156   8.208  0.8041 -0.8974  0.8426
 5872SOL     OW19932   4.068   7.739   1.857 -0.0622 -0.2924 -0.7994
 5872SOL    HW119933   4.063   7.687   1.938 -1.4409  0.5719 -0.3008
 5872SOL    HW219934   4.113   7.681   1.795 -2.8916 -2.7604 -0.7640
 5873SOL     OW19935   4.578  10.433   2.064  0.0734 -0.3120 -0.1742
 5873SOL    HW119936   4.658  10.476   2.094 -1.0580  1.6356  0.2583
 5873SOL    HW219937   4.574  10.454   1.970 -0.6913  0.9748  0.1201
 5874SOL     OW19938   9.042   3.238   3.644  0.1446  0.6148  0.5450
 5874SOL    HW119939   9.065   3.159   3.693 -0.6786 -0.1436 -0.2362
 5874SOL    HW219940   8.949   3.226   3.623 -0.2907  2.3427  1.3852
 5875SOL     OW19941   3.780   4.025   1.973  0.4987 -0.5386  0.0430
 5875SOL    HW119942   3.849   4.039   2.039 -0.5154 -1.4921  1.3601
 5875SOL    HW219943   3.759   4.113   1.942 -0.7682  0.2627  2.8912
 5876SOL     OW19944   7.813   3.506   5.722  0.5824  0.0776  0.0920
 5876SOL    HW119945   7.844   3.597   5.715  0.3270  0.3705  2.1146
 5876SOL    HW219946   7.742   3.500   5.658  2.1403  0.5582 -1.7924
 5877SOL     OW19947  10.157   8.568   1.049 -0.0064 -0.3561  0.4701
 5877SOL    HW119948  10.117   8.520   0.977 -1.8496  0.3325  0.9944
 5877SOL    HW219949  10.158   8.659   1.020  0.6297 -0.2746  0.7241
 5878SOL     OW19950   3.528   2.405   5.625 -0.4117 -0.6751 -0.3595
 5878SOL    HW119951   3.505   2.479   5.569  1.5666 -0.2443 -0.6860
 5878SOL    HW219952   3.559   2.338   5.564  1.3087 -0.3752  0.1235
 5879SOL     OW19953   1.285   7.648   8.059 -0.1287 -0.9153  0.4267
 5879SOL    HW119954   1.216   7.583   8.073 -1.0936  0.5565  3.3022
 5879SOL    HW219955   1.241   7.733   8.069  1.4235  0.2061 -1.4624
 5880SOL     OW19956   9.043   6.238   9.414  0.2158 -0.6180  0.5029
 5880SOL    HW119957   9.058   6.257   9.506 -1.0415 -1.2473  0.8658
 5880SOL    HW219958   9.064   6.146   9.404 -1.3989 -1.0389  0.6131
 5881SOL     OW19959   6.042   1.346   9.649 -0.4908  0.2479  0.0506
 5881SOL    HW119960   6.065   1.381   9.563 -1.1318 -0.4153 -0.4054
 5881SOL    HW219961   6.078   1.409   9.712  2.9710 -0.9082 -0.5618
 5882SOL     OW19962   6.324   6.233   1.530 -0.4387 -0.5653  0.1006
 5882SOL    HW119963   6.347   6.256   1.620 -1.5524 -0.5497  0.3991
 5882SOL    HW219964   6.321   6.317   1.484  1.4726 -0.6886 -0.3017
 5883SOL     OW19965   2.516  10.313   5.934 -0.4122  0.1357 -0.1908
 5883SOL    HW119966   2.454  10.256   5.889 -0.3666  0.9769 -1.3501
 5883SOL    HW219967   2.543  10.376   5.868  2.0487 -0.4769  0.1387
 5884SOL     OW19968   9.965   4.394   0.455 -0.1472  0.7595  0.0796
 5884SOL    HW119969   9.945   4.444   0.376  1.2256 -0.3936 -1.0609
 5884SOL    HW219970   9.887   4.340   0.469 -0.1028  0.3763 -1.0065
 5885SOL     OW19971   7.446   9.108   0.392 -0.0629  0.2266  0.0679
 5885SOL    HW119972   7.506   9.044   0.355  1.8193  2.4353 -0.9885
 5885SOL    HW219973   7.359   9.074   0.373  0.7448 -2.9998  1.4757
 5886SOL     OW19974   6.108   2.491   6.156  0.0477  0.1691 -0.2140
 5886SOL    HW119975   6.073   2.415   6.111 -0.6509 -0.3858  1.2111
 5886SOL    HW219976   6.202   2.474   6.163 -0.1363 -0.6994  0.3092
 5887SOL     OW19977   0.846   7.198   3.535  0.8044 -0.7481 -0.7856
 5887SOL    HW119978   0.908   7.261   3.573 -1.1794  0.4512  0.7042
 5887SOL    HW219979   0.760   7.236   3.554 -0.5298 -4.0699  0.4210
 5888SOL     OW19980   7.510   4.454   7.423  0.1056 -0.2518  0.4460
 5888SOL    HW119981   7.530   4.509   7.347 -0.8230  0.5386  0.7582
 5888SOL    HW219982   7.439   4.397   7.393  0.6397 -0.8667  0.3209
 5889SOL     OW19983   9.299   1.863   0.722 -0.6425 -0.3051 -0.1912
 5889SOL    HW119984   9.286   1.776   0.682  1.5146 -1.3635  1.2046
 5889SOL    HW219985   9.214   1.885   0.760 -1.1812 -1.9151 -0.3778
 5890SOL     OW19986   9.012   5.002   3.800  0.1808  0.2068 -0.1133
 5890SOL    HW119987   8.946   4.984   3.733 -0.0235  0.5533 -0.0077
 5890SOL    HW219988   9.095   4.992   3.755  0.0408  2.1297 -0.8849
 5891SOL     OW19989   0.911   9.764   9.948  0.2236 -0.5893  0.5235
 5891SOL    HW119990   0.926   9.687   9.894 -0.9158 -0.5505  0.1178
 5891SOL    HW219991   0.849   9.817   9.898  1.5625  0.9766  0.4391
 5892SOL     OW19992   7.091   0.972   6.339  0.1624 -0.1192 -0.0538
 5892SOL    HW119993   7.060   1.050   6.292 -1.1050 -0.7551 -0.3199
 5892SOL    HW219994   7.124   0.914   6.270  1.2136  0.2117  0.1539
 5893SOL     OW19995   8.084   5.032   5.808  0.0260 -0.0808 -0.1861
 5893SOL    HW119996   8.119   4.977   5.738  1.0326 -1.2828  1.1788
 5893SOL    HW219997   8.089   4.976   5.886 -2.0526  0.8219  0.6741
 5894SOL     OW19998  10.116   1.150   7.156  0.2716  0.3340 -0.2283
 5894SOL    HW119999  10.060   1.218   7.118 -1.3261 -0.4147  0.6761
 5894SOL    HW220000  10.063   1.070   7.151  1.7363 -0.6555 -0.3981
 5895SOL     OW20001   1.939   9.289   3.900 -0.9116  0.1320 -0.7403
 5895SOL    HW120002   1.873   9.327   3.842 -1.4541 -0.1706 -0.3342
 5895SOL    HW220003   1.909   9.312   3.988 -0.4399  0.0472 -0.5567
 5896SOL     OW20004  10.586   2.311   2.592  0.3893  0.0195 -0.9062
 5896SOL    HW120005  10.510   2.253   2.588  0.9870 -0.7420 -1.9184
 5896SOL    HW220006  10.654   2.259   2.635  0.6415  0.3270 -0.9265
 5897SOL     OW20007   6.611   1.482   8.919  0.3741 -0.2013 -1.0140
 5897SOL    HW120008   6.602   1.397   8.876  0.5373 -1.9527  2.1097
 5897SOL    HW220009   6.522   1.517   8.923 -0.2312 -1.8008  0.5152
 5898SOL     OW20010   2.194   0.775   6.638  0.0424 -0.2895  0.0745
 5898SOL    HW120011   2.223   0.845   6.696 -0.5381 -0.7633  0.9645
 5898SOL    HW220012   2.175   0.701   6.696 -3.1452  0.0427 -0.3371
 5899SOL     OW20013   3.642   4.137  10.390  0.5700  0.4911  0.5790
 5899SOL    HW120014   3.695   4.059  10.406 -0.2407 -0.1063  0.4539
 5899SOL    HW220015   3.608   4.162  10.476  0.7953  0.6807  0.6126
 5900SOL     OW20016   2.517   3.127   6.173  0.0810  0.0054  0.5123
 5900SOL    HW120017   2.613   3.122   6.172  0.0644 -0.6482 -1.4419
 5900SOL    HW220018   2.498   3.216   6.143  0.0646 -0.2414 -0.2074
 5901SOL     OW20019   7.349   0.982   8.788 -0.0955  0.0299 -0.2213
 5901SOL    HW120020   7.379   0.958   8.876 -0.0494  0.1252 -0.2112
 5901SOL    HW220021   7.256   1.001   8.799 -0.7912 -2.6409 -0.6828
 5902SOL     OW20022   7.575   7.523   2.490 -0.0596 -0.0294  0.1070
 5902SOL    HW120023   7.606   7.457   2.551  2.5706  0.9596 -0.0502
 5902SOL    HW220024   7.530   7.588   2.544 -0.3385 -0.6081  0.5759
 5903SOL     OW20025   0.145   2.390   1.642  0.1445  0.2671  0.4627
 5903SOL    HW120026   0.142   2.485   1.654 -0.9125  0.2603  0.3257
 5903SOL    HW220027   0.112   2.375   1.553  1.3301 -0.1650  0.0747
 5904SOL     OW20028   1.527   2.964   3.641  0.9798 -0.7280  0.0249
 5904SOL    HW120029   1.555   2.964   3.549 -1.7878  3.6728 -1.1129
 5904SOL    HW220030   1.446   2.913   3.642  0.1862  0.5073 -0.3502
 5905SOL     OW20031   0.512   7.258   5.816 -0.5609 -0.3606  0.0463
 5905SOL    HW120032   0.572   7.317   5.771  1.1750 -0.1046  2.5063
 5905SOL    HW220033   0.434   7.312   5.833  0.1259  0.5574  0.3406
 5906SOL     OW20034   2.971   8.131   6.457 -0.4030 -0.5881  0.1490
 5906SOL    HW120035   2.997   8.150   6.367 -0.1961 -0.1582  0.2961
 5906SOL    HW220036   2.898   8.069   6.449 -1.3717  0.5654 -0.3672
 5907SOL     OW20037   1.558   2.119   4.606 -0.0951  0.2229 -0.2856
 5907SOL    HW120038   1.575   2.198   4.554 -2.4110  0.4438 -0.8185
 5907SOL    HW220039   1.464   2.122   4.624  0.1951 -1.1548  1.8234
 5908SOL     OW20040   3.576   1.756   9.603 -0.1246  0.0496 -0.1414
 5908SOL    HW120041   3.568   1.664   9.577 -1.8802  0.8268 -2.7911
 5908SOL    HW220042   3.584   1.804   9.521 -1.1895  2.4209  1.0261
 5909SOL     OW20043   1.859   4.533   4.778 -0.0107  0.0642  0.0379
 5909SOL    HW120044   1.880   4.493   4.694  0.1296  1.2102 -0.4939
 5909SOL    HW220045   1.767   4.559   4.771 -0.1298 -0.2347  0.4126
 5910SOL     OW20046   6.735   0.125  10.095 -0.2145 -0.2452  0.4061
 5910SOL    HW120047   6.705   0.155  10.009  0.0780 -1.4859 -0.1642
 5910SOL    HW220048   6.680   0.171  10.158 -1.3647 -0.3226 -0.5120
 5911SOL     OW20049   2.874   9.608   5.110  0.5654  0.9593  0.2612
 5911SOL    HW120050   2.814   9.614   5.184 -2.6919 -3.6034 -1.5242
 5911SOL    HW220051   2.830   9.655   5.039  1.6908  1.9064  0.1683
 5912SOL     OW20052   0.849   5.809   5.365 -0.1180  0.1490 -0.2709
 5912SOL    HW120053   0.905   5.844   5.295 -0.1530 -2.1723 -1.5634
 5912SOL    HW220054   0.908   5.800   5.440  0.3777  0.9315 -0.5490
 5913SOL     OW20055   3.936   1.125   5.257  0.6571 -0.2321 -0.1161
 5913SOL    HW120056   3.853   1.084   5.231  0.5688  0.3812 -0.8500
 5913SOL    HW220057   3.953   1.189   5.188  1.7355 -0.3316  0.0477
 5914SOL     OW20058   3.725   1.746   8.425 -0.3030 -0.6106  0.7254
 5914SOL    HW120059   3.796   1.790   8.472 -0.6757  2.5818 -1.3778
 5914SOL    HW220060   3.648   1.757   8.481 -0.2326  0.9136  0.5613
 5915SOL     OW20061   1.868   4.487   1.728 -0.2622 -0.1000 -0.0527
 5915SOL    HW120062   1.817   4.406   1.730 -1.8045  0.8406  0.5354
 5915SOL    HW220063   1.811   4.551   1.685 -0.0666  1.2566  1.5669
 5916SOL     OW20064   6.831   3.054   2.700  0.3260 -0.9116  0.0208
 5916SOL    HW120065   6.913   3.074   2.654  1.2026 -0.8876  1.5382
 5916SOL    HW220066   6.857   3.000   2.775 -0.9397 -0.2531  0.9837
 5917SOL     OW20067   3.143   7.540   8.887  0.0034 -0.5537  0.5745
 5917SOL    HW120068   3.126   7.497   8.803 -1.8608 -0.0088  0.6324
 5917SOL    HW220069   3.221   7.594   8.871 -0.9427  0.3965 -1.1597
 5918SOL     OW20070   8.579   0.883   4.092  0.2727 -0.2929  0.5746
 5918SOL    HW120071   8.544   0.802   4.129  0.9540 -0.4686  0.8473
 5918SOL    HW220072   8.613   0.932   4.168  1.6357 -0.6305  0.2163
 5919SOL     OW20073   4.606   0.146   2.299  0.4395 -0.1281  0.0680
 5919SOL    HW120074   4.526   0.134   2.248  0.2532  1.1560  0.0226
 5919SOL    HW220075   4.664   0.077   2.269  0.8311  1.3401 -2.9137
 5920SOL     OW20076   0.934   7.770   1.229  0.0834  0.1172 -0.7484
 5920SOL    HW120077   0.968   7.837   1.170  0.2284 -1.1475 -2.1394
 5920SOL    HW220078   1.012   7.733   1.270  0.0255  0.5270 -0.2520
 5921SOL     OW20079   5.264   9.833   2.675 -0.3095 -0.1638 -0.0788
 5921SOL    HW120080   5.178   9.873   2.688 -0.8223 -1.5259  1.0422
 5921SOL    HW220081   5.301   9.828   2.763  0.0816 -1.3283 -0.2957
 5922SOL     OW20082   0.868   1.161   7.663 -0.0011 -0.3443  0.4121
 5922SOL    HW120083   0.908   1.240   7.626  0.3245 -2.6279 -5.0977
 5922SOL    HW220084   0.794   1.193   7.714  0.9618  3.5279 -0.2809
 5923SOL     OW20085   8.518   3.012   9.801  0.0967 -0.3012 -0.2461
 5923SOL    HW120086   8.522   2.923   9.837  1.1585  0.1505  0.8161
 5923SOL    HW220087   8.430   3.043   9.822  0.3310 -0.4503  1.0225
 5924SOL     OW20088   6.101   9.354   8.648 -0.2742 -0.4303  0.7182
 5924SOL    HW120089   6.009   9.331   8.632  0.0185 -1.3550  0.2828
 5924SOL    HW220090   6.103   9.449   8.646 -1.2891 -0.3847  1.0970
 5925SOL     OW20091   0.707   1.066   1.073  0.1629  0.2211  0.3043
 5925SOL    HW120092   0.730   0.979   1.041 -0.6853  0.2104 -0.3082
 5925SOL    HW220093   0.728   1.125   1.000 -1.9915  0.1703 -0.4390
 5926SOL     OW20094   8.408   1.214   9.194  0.0759  0.0688 -0.0642
 5926SOL    HW120095   8.457   1.135   9.173  0.2099  0.1739 -0.1401
 5926SOL    HW220096   8.389   1.254   9.110 -0.0171  0.1043 -0.0274
 5927SOL     OW20097   6.227  10.172   8.906  0.1290  0.0209  0.1503
 5927SOL    HW120098   6.280  10.166   8.827  0.4745 -0.6842  0.4219
 5927SOL    HW220099   6.172  10.249   8.893  0.5854  0.2396 -0.5249
 5928SOL     OW20100  10.510   8.213   0.410 -0.0038  0.1191 -0.4391
 5928SOL    HW120101  10.481   8.128   0.379 -1.6690  0.9774 -1.3733
 5928SOL    HW220102  10.523   8.202   0.504  2.5141 -1.8407 -0.9245
 5929SOL     OW20103   1.249   3.019   1.671  0.4234 -0.2972  0.6546
 5929SOL    HW120104   1.290   2.937   1.644  0.4228 -0.7354  1.9136
 5929SOL    HW220105   1.190   2.994   1.742 -0.4466  0.6355  0.2957
 5930SOL     OW20106   3.616   2.164   7.284  0.1653 -0.0229  0.4109
 5930SOL    HW120107   3.586   2.242   7.330 -1.9350  0.2590 -1.2702
 5930SOL    HW220108   3.636   2.101   7.353 -1.7246  0.7616  1.7434
 5931SOL     OW20109   1.996   7.231   6.851  0.2895 -0.6096 -0.2116
 5931SOL    HW120110   1.973   7.305   6.795  0.4913  0.6588  1.3234
 5931SOL    HW220111   1.917   7.176   6.852 -0.6658  0.7272  0.3763
 5932SOL     OW20112   1.239   1.362   4.181  0.3694 -0.1772  0.0195
 5932SOL    HW120113   1.174   1.332   4.118 -0.7858 -1.0706  1.5408
 5932SOL    HW220114   1.321   1.366   4.132 -0.1753 -2.3091 -1.1862
 5933SOL     OW20115   4.246   1.935   3.794 -0.7685 -0.4128 -0.3244
 5933SOL    HW120116   4.168   1.886   3.768 -1.7808  0.1907  1.3933
 5933SOL    HW220117   4.315   1.869   3.800 -0.8792 -0.8289 -2.7048
 5934SOL     OW20118   6.085   2.886   1.489 -0.2616  0.1890  0.3360
 5934SOL    HW120119   6.050   2.974   1.472  1.0834  0.2841 -2.7834
 5934SOL    HW220120   6.031   2.828   1.436 -0.2310 -0.6796  1.2369
 5935SOL     OW20121   5.508   0.046  10.502  0.5513 -0.5055  0.0180
 5935SOL    HW120122   5.460   0.073  10.580  2.2675 -0.6839  1.1686
 5935SOL    HW220123   5.507   0.124  10.446 -0.4878 -0.3028  0.2840
 5936SOL     OW20124   2.727   5.885   1.931 -0.3580  0.3855  0.0844
 5936SOL    HW120125   2.791   5.924   1.870 -0.7500 -1.0931 -1.3383
 5936SOL    HW220126   2.678   5.822   1.878 -1.4567 -0.1956  1.7007
 5937SOL     OW20127   3.039   6.680  10.055 -0.0580  0.4517  0.0090
 5937SOL    HW120128   3.079   6.604  10.097  0.0360  0.0027 -0.8820
 5937SOL    HW220129   3.111   6.742  10.043  0.7715 -0.9146 -2.9024
 5938SOL     OW20130   6.661   2.759   0.845  0.0187 -0.4923 -0.1708
 5938SOL    HW120131   6.592   2.814   0.883 -2.2957 -2.1150 -1.7588
 5938SOL    HW220132   6.673   2.793   0.757  0.5694 -0.8253 -0.2304
 5939SOL     OW20133   5.997   1.374  10.107  0.1032 -0.3380 -0.6795
 5939SOL    HW120134   6.057   1.448  10.103  0.6137 -0.6710  0.4255
 5939SOL    HW220135   5.912   1.413  10.127  0.4574 -0.0755  0.3760
 5940SOL     OW20136   2.678   4.690   0.774 -0.5093 -0.5179  0.1902
 5940SOL    HW120137   2.664   4.693   0.679 -1.4731  0.3960  0.3560
 5940SOL    HW220138   2.611   4.630   0.806 -0.2532 -0.7411  0.3079
 5941SOL     OW20139   4.112   2.489   2.635  0.0338  0.1371  0.0013
 5941SOL    HW120140   4.149   2.403   2.657  1.7709  0.9973  0.6552
 5941SOL    HW220141   4.018   2.480   2.653  0.5187 -0.9046  2.4827
 5942SOL     OW20142   6.115   1.104   5.054 -0.0577 -0.0468  0.0834
 5942SOL    HW120143   6.108   1.170   4.985 -1.3886  0.2458  0.4737
 5942SOL    HW220144   6.206   1.110   5.083  0.1266  0.8625 -0.6211
 5943SOL     OW20145   9.433   8.019   4.807  0.0799 -0.2779  0.1773
 5943SOL    HW120146   9.445   7.971   4.725 -1.0372  1.0069 -0.7741
 5943SOL    HW220147   9.376   7.963   4.860 -0.8979 -0.1890 -0.7643
 5944SOL     OW20148  10.458   9.222   9.644  0.2318 -0.2610  0.0469
 5944SOL    HW120149  10.460   9.178   9.559 -3.5721 -0.7890  0.0656
 5944SOL    HW220150  10.455   9.315   9.622 -1.0024 -0.4014 -0.4594
 5945SOL     OW20151   9.387   4.132   4.134 -0.0192  0.5448  0.1722
 5945SOL    HW120152   9.445   4.058   4.153  0.4067  0.8641  0.1262
 5945SOL    HW220153   9.444   4.197   4.092 -0.6589  0.3716 -1.0113
 5946SOL     OW20154   3.353   7.853  10.299 -0.4183  0.2075 -1.1489
 5946SOL    HW120155   3.324   7.873  10.388  0.5803  0.0920 -0.7962
 5946SOL    HW220156   3.366   7.938  10.258  2.3046  0.3658 -0.1347
 5947SOL     OW20157   9.196   1.722   2.211  0.3677 -0.1902  0.0176
 5947SOL    HW120158   9.179   1.636   2.174 -2.7612 -0.1775  1.0560
 5947SOL    HW220159   9.196   1.708   2.306 -0.2627  0.9318  0.2084
 5948SOL     OW20160   9.560   7.745   8.360 -0.2642  0.4341 -0.1876
 5948SOL    HW120161   9.538   7.814   8.423  0.9629 -0.5355  1.3619
 5948SOL    HW220162   9.493   7.754   8.291 -0.4174  2.8549  0.1617
 5949SOL     OW20163  10.000   3.970   6.356 -0.8230  0.5831 -0.7012
 5949SOL    HW120164   9.926   3.999   6.302 -0.4993 -0.3294 -1.6733
 5949SOL    HW220165  10.013   4.040   6.419 -2.0575  1.0880 -0.9816
 5950SOL     OW20166   8.871   1.533   3.192 -0.4357 -0.1341  0.1764
 5950SOL    HW120167   8.829   1.449   3.172 -0.3927 -0.5170  1.5625
 5950SOL    HW220168   8.833   1.560   3.275  1.7964 -0.3507  1.3549
 5951SOL     OW20169   3.509   4.047   5.804 -0.4803  0.4940 -0.2472
 5951SOL    HW120170   3.566   4.028   5.730 -0.1006  0.5514  0.0315
 5951SOL    HW220171   3.521   4.141   5.820 -0.0752  0.3517  0.2966
 5952SOL     OW20172   4.058   5.189   3.139  0.3096  0.0044  0.3984
 5952SOL    HW120173   4.004   5.132   3.083 -0.8481  1.6184 -0.1839
 5952SOL    HW220174   4.093   5.129   3.205 -0.0626 -1.5715 -0.7482
 5953SOL     OW20175   1.595   3.666   6.983 -0.3980 -0.0014 -0.0595
 5953SOL    HW120176   1.556   3.581   6.965 -0.8045  0.2852 -0.5723
 5953SOL    HW220177   1.679   3.646   7.024  0.1364 -0.6813 -1.4260
 5954SOL     OW20178   1.807   9.162   4.463 -0.2215 -0.0673 -0.8350
 5954SOL    HW120179   1.871   9.220   4.504 -0.3189  1.1916 -2.3916
 5954SOL    HW220180   1.743   9.221   4.422 -2.5541 -1.2469  0.8361
 5955SOL     OW20181   7.578   4.752   5.744 -0.2782 -0.3365 -0.8945
 5955SOL    HW120182   7.620   4.667   5.746 -1.2002 -0.8208 -1.4571
 5955SOL    HW220183   7.486   4.734   5.759 -0.7594  0.3523 -2.6690
 5956SOL     OW20184   8.151   0.178  10.213 -0.4282  0.6333  0.3743
 5956SOL    HW120185   8.090   0.106  10.199 -0.1831  0.2961  1.0383
 5956SOL    HW220186   8.100   0.256  10.191 -0.6829  0.2665 -0.3744
 5957SOL     OW20187   0.960   1.879   6.971  0.1315 -0.0226 -0.5228
 5957SOL    HW120188   0.978   1.847   6.882 -0.4403  0.9058 -0.9893
 5957SOL    HW220189   0.900   1.952   6.958  0.1929  0.2445  0.6229
 5958SOL     OW20190   7.549   4.787   2.288  0.0797 -0.0469  0.4381
 5958SOL    HW120191   7.530   4.804   2.196 -1.9307 -1.3733  0.5408
 5958SOL    HW220192   7.644   4.777   2.292  0.0984 -1.5672 -1.8181
 5959SOL     OW20193   8.856   2.334   2.031  0.1938  0.4714  0.2724
 5959SOL    HW120194   8.857   2.324   2.126  1.0342 -2.3711  0.0731
 5959SOL    HW220195   8.890   2.421   2.015  0.2828  0.9139  2.5599
 5960SOL     OW20196   1.665   1.952  10.261 -0.2316  0.3212  0.3697
 5960SOL    HW120197   1.707   1.952  10.347 -1.4547  0.5175  0.9925
 5960SOL    HW220198   1.709   1.883  10.212  0.5459  0.2747  1.1217
 5961SOL     OW20199   7.505   1.604   0.687 -0.0267 -0.3608  0.1004
 5961SOL    HW120200   7.525   1.569   0.601 -1.0952 -0.3001 -0.1906
 5961SOL    HW220201   7.590   1.618   0.728  0.4580 -1.9684 -0.3035
 5962SOL     OW20202   3.135   1.263   8.228  0.2352  0.6614  0.0394
 5962SOL    HW120203   3.054   1.300   8.195 -0.4253 -0.5291  0.2702
 5962SOL    HW220204   3.165   1.205   8.159  2.3588  3.0328 -1.2097
 5963SOL     OW20205   9.706   9.246   7.550 -0.5228  0.0334 -0.4505
 5963SOL    HW120206   9.652   9.324   7.563 -1.0647 -0.4029 -0.0158
 5963SOL    HW220207   9.710   9.206   7.637  2.5391  1.3303  0.1568
 5964SOL     OW20208   4.320   0.048   2.865  0.5927 -0.4803  0.3257
 5964SOL    HW120209   4.312   0.101   2.786  0.1489 -2.2886 -0.9107
 5964SOL    HW220210   4.236   0.058   2.909  1.5567  2.1866  1.7388
 5965SOL     OW20211   8.403   3.671   3.953 -0.3757 -0.9167 -0.0963
 5965SOL    HW120212   8.369   3.655   3.865  0.6422 -1.7951 -0.3569
 5965SOL    HW220213   8.344   3.623   4.011 -1.2223 -0.0921 -0.2645
 5966SOL     OW20214   5.488   9.035   2.234 -0.3273  0.2809  0.1266
 5966SOL    HW120215   5.396   9.047   2.258 -0.6009  0.3977 -0.9193
 5966SOL    HW220216   5.485   8.969   2.165  0.5150 -0.7517  1.0390
 5967SOL     OW20217   6.077   9.007   4.894 -0.2025  0.4637 -0.8714
 5967SOL    HW120218   6.038   8.965   4.971 -0.6265 -0.4048 -1.5396
 5967SOL    HW220219   6.166   8.973   4.891  0.3508  1.7711  0.1588
 5968SOL     OW20220   0.183   6.080   5.381  0.0639  0.4961  0.2879
 5968SOL    HW120221   0.254   6.123   5.429  1.0872  2.7619 -2.9343
 5968SOL    HW220222   0.125   6.151   5.355 -1.7683 -0.9554  0.1880
 5969SOL     OW20223   3.928   3.388   9.858 -0.7971 -0.0624 -0.3085
 5969SOL    HW120224   3.954   3.336   9.934  2.0641 -0.5758 -1.5129
 5969SOL    HW220225   3.882   3.464   9.895  1.5609  0.3449  2.0672
 5970SOL     OW20226   2.465   0.195   4.251  0.1709  0.8828 -0.2294
 5970SOL    HW120227   2.453   0.235   4.165 -0.5189  0.2579 -0.4369
 5970SOL    HW220228   2.422   0.254   4.313  0.8880  1.4629 -0.2709
 5971SOL     OW20229   7.678   1.008   9.679 -0.3671  0.0487  0.4801
 5971SOL    HW120230   7.647   0.921   9.655 -0.5478  0.0752  0.6147
 5971SOL    HW220231   7.752   0.992   9.737 -1.6422 -0.0454  2.1724
 5972SOL     OW20232   4.282   0.652   8.970  0.0161 -0.2405  0.0242
 5972SOL    HW120233   4.326   0.592   9.031 -0.8166 -0.7348  0.1517
 5972SOL    HW220234   4.306   0.739   9.001  3.4427 -0.4143 -1.7105
 5973SOL     OW20235   8.959   9.075   0.205  0.0545  0.4414 -0.7292
 5973SOL    HW120236   8.960   9.113   0.293 -1.0688  1.0199 -0.9493
 5973SOL    HW220237   8.915   8.991   0.217 -1.5744  1.2187 -0.9743
 5974SOL     OW20238   8.500   8.431   4.522 -0.1918 -0.0311 -0.1531
 5974SOL    HW120239   8.418   8.421   4.570 -0.3313  0.2346 -0.3338
 5974SOL    HW220240   8.547   8.349   4.538  0.8878  0.9821  2.5684
 5975SOL     OW20241   0.418   3.463   6.557 -0.3280  0.5729  0.7608
 5975SOL    HW120242   0.403   3.534   6.495  2.3124  1.7216  1.3361
 5975SOL    HW220243   0.501   3.424   6.530 -0.2167 -0.3316  2.3000
 5976SOL     OW20244   2.694   0.269   7.729  0.5382 -0.7851 -0.3780
 5976SOL    HW120245   2.688   0.316   7.812  2.7322  0.4319 -0.8094
 5976SOL    HW220246   2.647   0.187   7.743  1.4142 -0.9046  2.2740
 5977SOL     OW20247   3.272   4.555  10.091  0.1734  0.3817 -0.3358
 5977SOL    HW120248   3.241   4.554  10.181  0.9217  0.0545 -0.0790
 5977SOL    HW220249   3.363   4.529  10.096  0.3509  0.8053 -1.1422
 5978SOL     OW20250   8.076   9.724   9.764 -0.2948  0.0850  0.6265
 5978SOL    HW120251   8.154   9.687   9.806 -0.6686 -0.3864  0.9126
 5978SOL    HW220252   8.066   9.811   9.802  0.2856  0.2837  0.3406
 5979SOL     OW20253   6.176   4.656   3.101  1.1484 -0.5056  0.0080
 5979SOL    HW120254   6.243   4.589   3.117  1.6148 -0.3130 -1.0634
 5979SOL    HW220255   6.217   4.718   3.040  0.6457  0.6448  0.8065
 5980SOL     OW20256   5.050   4.071  10.069 -0.2729  0.3619  0.4158
 5980SOL    HW120257   5.117   4.011  10.102  2.4350  2.6187 -0.5424
 5980SOL    HW220258   4.998   4.018  10.009  0.7271 -1.4870  1.0904
 5981SOL     OW20259   0.806   6.410   6.817  0.3834  0.0301 -0.2341
 5981SOL    HW120260   0.719   6.373   6.828  0.4473 -0.3634 -0.9795
 5981SOL    HW220261   0.813   6.476   6.886 -0.3027 -0.2951  0.1562
 5982SOL     OW20262   3.639   0.720   4.464  0.0644 -0.0308 -0.4111
 5982SOL    HW120263   3.587   0.747   4.540  0.4761 -0.2421 -0.0507
 5982SOL    HW220264   3.725   0.758   4.480  1.3345 -3.2416  1.1817
 5983SOL     OW20265   5.318   6.448   3.693 -0.1516 -0.5306 -0.2773
 5983SOL    HW120266   5.299   6.439   3.600  0.1998 -1.2084 -0.2900
 5983SOL    HW220267   5.378   6.376   3.712  0.9025  0.4464  0.1670
 5984SOL     OW20268   6.757   8.413   1.541 -0.8046  0.3621  0.0471
 5984SOL    HW120269   6.738   8.456   1.624  0.3199  0.0835  0.4666
 5984SOL    HW220270   6.803   8.480   1.490  0.5967 -0.1882  0.5518
 5985SOL     OW20271   7.411   6.214   5.998 -0.2583 -0.1627 -0.5824
 5985SOL    HW120272   7.451   6.147   5.943 -1.0442 -0.6427 -0.5804
 5985SOL    HW220273   7.444   6.297   5.963  0.7134 -0.5466 -0.5849
 5986SOL     OW20274   9.945   6.059   8.980  0.2155  0.6619  0.2563
 5986SOL    HW120275   9.944   5.970   8.944  0.1768  0.8265 -0.1616
 5986SOL    HW220276   9.878   6.106   8.930 -0.0911  0.8056  0.7953
 5987SOL     OW20277   3.222   6.120   8.917 -0.1677 -0.0695 -0.5605
 5987SOL    HW120278   3.186   6.112   9.005 -1.4065  1.7629 -0.8407
 5987SOL    HW220279   3.159   6.074   8.861 -1.0052  1.3072 -0.7984
 5988SOL     OW20280   1.584   2.683   5.965 -0.1513 -0.1819  0.0944
 5988SOL    HW120281   1.589   2.588   5.977 -0.1347 -0.2539 -0.4507
 5988SOL    HW220282   1.562   2.717   6.052 -0.1784 -0.6856  0.2896
 5989SOL     OW20283   0.569   9.103   9.465  0.0164 -0.2742  0.2784
 5989SOL    HW120284   0.547   9.010   9.461  2.0428 -0.9693  2.5780
 5989SOL    HW220285   0.510   9.139   9.531 -1.4416  0.3681 -1.3054
 5990SOL     OW20286   3.732   4.000   0.571  0.3779 -0.4397 -0.6446
 5990SOL    HW120287   3.730   3.905   0.583 -1.6157 -0.5125 -1.2562
 5990SOL    HW220288   3.697   4.015   0.484 -2.0765  0.9708  0.4832
 5991SOL     OW20289   3.731   2.772   5.050  0.4914  0.0994  0.3991
 5991SOL    HW120290   3.821   2.740   5.043  0.6673  0.9386 -2.2116
 5991SOL    HW220291   3.735   2.862   5.018 -1.1971  0.3407  0.7774
 5992SOL     OW20292   1.018   1.833   3.216  0.2792  0.0162  0.6464
 5992SOL    HW120293   1.102   1.874   3.198  0.3359 -1.3728 -3.0570
 5992SOL    HW220294   0.954   1.890   3.175 -0.0776 -1.1374 -0.4751
 5993SOL     OW20295   0.836   8.864   4.205 -0.2947 -0.1623 -0.0081
 5993SOL    HW120296   0.753   8.901   4.174 -0.8810 -2.5172 -1.4956
 5993SOL    HW220297   0.894   8.939   4.215 -1.8655  1.2982 -1.3267
 5994SOL     OW20298   3.777   7.152   4.801 -0.1833  0.1499 -0.1220
 5994SOL    HW120299   3.767   7.208   4.724  0.8035 -1.3036 -1.3704
 5994SOL    HW220300   3.694   7.106   4.809  0.4947 -1.5071 -1.8778
 5995SOL     OW20301   4.990   6.562   2.520  0.0299 -0.0995 -0.1338
 5995SOL    HW120302   5.071   6.612   2.522 -1.2994  2.1401  0.2916
 5995SOL    HW220303   4.920   6.627   2.530 -1.7694 -2.1508  1.6759
 5996SOL     OW20304   5.896   8.500   7.749  0.1240  0.4997 -0.1381
 5996SOL    HW120305   5.910   8.498   7.655  0.0204 -1.3862 -0.1409
 5996SOL    HW220306   5.976   8.463   7.786 -0.9425 -1.4212  0.3421
 5997SOL     OW20307   4.950   3.724   1.013  0.1784  0.4139  0.2868
 5997SOL    HW120308   4.957   3.636   1.049 -0.2912  0.2968  0.1003
 5997SOL    HW220309   4.864   3.725   0.970  0.1191  1.0080  0.4174
 5998SOL     OW20310   6.822   2.026   4.636  0.1044  0.2095  0.2063
 5998SOL    HW120311   6.774   2.108   4.621 -0.7702 -0.0444  1.4517
 5998SOL    HW220312   6.754   1.959   4.632  0.7780 -0.4420 -0.5517
 5999SOL     OW20313   2.285   1.113   9.119  0.2608 -0.5754 -0.0067
 5999SOL    HW120314   2.223   1.118   9.192  0.1920 -0.7538 -0.0521
 5999SOL    HW220315   2.348   1.182   9.137 -1.2380  1.1721 -1.1941
 6000SOL     OW20316   6.822   3.795  10.243  0.5162 -0.2404 -0.4465
 6000SOL    HW120317   6.735   3.758  10.259  0.4319 -0.0551 -0.4775
 6000SOL    HW220318   6.855   3.817  10.330  0.0924  0.6868 -0.5097
 6001SOL     OW20319   2.292   6.949   9.451  0.3173  0.2577 -0.1880
 6001SOL    HW120320   2.264   6.859   9.436  1.7947 -0.0102 -1.5738
 6001SOL    HW220321   2.336   6.975   9.370  1.1456  1.7442  0.6849
 6002SOL     OW20322   8.321   7.079   5.828 -0.3389  0.4575 -0.7044
 6002SOL    HW120323   8.262   7.062   5.901 -0.9972  0.2438 -1.2644
 6002SOL    HW220324   8.401   7.111   5.868 -0.1517 -1.0609  0.2082
 6003SOL     OW20325   1.978   3.913   1.128 -0.9842 -0.1448 -0.0619
 6003SOL    HW120326   2.038   3.838   1.120  0.2785  0.8580 -0.3899
 6003SOL    HW220327   1.912   3.899   1.061 -0.4230 -0.6631 -0.5186
 6004SOL     OW20328   3.996  10.207   1.783  0.1176 -0.1562  0.0890
 6004SOL    HW120329   4.001  10.114   1.804 -0.5672 -0.2414 -0.1025
 6004SOL    HW220330   3.903  10.228   1.790 -0.0826 -0.0401 -2.1364
 6005SOL     OW20331  10.491   5.889   1.851 -0.2239  0.1617  0.6737
 6005SOL    HW120332  10.410   5.858   1.893 -0.4845 -0.2005 -0.0921
 6005SOL    HW220333  10.472   5.980   1.828 -1.4831 -0.6755 -2.0421
 6006SOL     OW20334   3.971   8.464   2.306 -0.0780  0.0884 -0.1510
 6006SOL    HW120335   3.915   8.522   2.254 -0.6293 -0.2688  0.0401
 6006SOL    HW220336   4.055   8.466   2.260 -0.0276  1.1925 -0.0307
 6007SOL     OW20337   4.607   5.508   7.412  0.4665 -0.2551 -0.4137
 6007SOL    HW120338   4.553   5.515   7.492  1.9563 -0.5219  0.6568
 6007SOL    HW220339   4.640   5.596   7.398  1.0682 -0.4224 -0.0908
 6008SOL     OW20340   8.988   6.214   2.749 -0.9716 -0.2882 -0.2431
 6008SOL    HW120341   8.925   6.158   2.794 -0.2586 -0.1624  0.9824
 6008SOL    HW220342   9.058   6.156   2.722 -0.0358  0.0015  1.3881
 6009SOL     OW20343   9.708   4.504   2.301  0.6927  0.3121 -0.1816
 6009SOL    HW120344   9.723   4.503   2.395 -1.1134 -2.5715  0.1907
 6009SOL    HW220345   9.653   4.581   2.287 -2.2081 -1.1987  1.8392
 6010SOL     OW20346   8.345   7.434   8.663  0.5433  0.0055 -0.1968
 6010SOL    HW120347   8.383   7.517   8.693  0.6535 -0.4227  0.9193
 6010SOL    HW220348   8.398   7.409   8.588  1.7015  0.0364  0.5805
 6011SOL     OW20349   5.674   3.790   6.824  0.2552  0.3243  0.1791
 6011SOL    HW120350   5.579   3.796   6.837  0.2842  0.2646  0.4380
 6011SOL    HW220351   5.702   3.721   6.885  0.7285  1.6643  1.5608
 6012SOL     OW20352   2.164   7.351   4.819 -0.9596 -0.2284 -0.0496
 6012SOL    HW120353   2.149   7.414   4.890 -0.0385 -0.0978  0.0414
 6012SOL    HW220354   2.257   7.359   4.799 -1.1686 -0.3954 -1.1549
 6013SOL     OW20355   5.814   9.082   4.787 -0.2725  0.1220 -0.4580
 6013SOL    HW120356   5.885   9.039   4.833  0.1482 -0.3937 -1.5543
 6013SOL    HW220357   5.757   9.011   4.758 -1.9105  0.5921  1.4311
 6014SOL     OW20358   0.189   6.813   7.280 -0.2597 -0.2678 -0.0217
 6014SOL    HW120359   0.254   6.870   7.321  0.0694 -0.3636 -0.4019
 6014SOL    HW220360   0.240   6.738   7.248 -0.7040 -0.8534  0.6108
 6015SOL     OW20361   0.135   9.562   0.573 -0.1079 -0.4815  0.3009
 6015SOL    HW120362   0.196   9.601   0.636  1.0109  0.4175 -1.2835
 6015SOL    HW220363   0.133   9.624   0.500 -1.4978 -1.4199 -0.5014
 6016SOL     OW20364   4.638   4.825   2.942 -0.2407  0.5605  0.1276
 6016SOL    HW120365   4.703   4.891   2.917 -0.8141  0.3226 -2.2613
 6016SOL    HW220366   4.690   4.750   2.972  0.6385  0.4095 -1.6598
 6017SOL     OW20367   7.724   5.983   3.655  0.2889  0.0079  0.0309
 6017SOL    HW120368   7.759   6.061   3.699  0.9430 -0.7291  0.8682
 6017SOL    HW220369   7.783   5.968   3.582 -1.0671  1.5095 -1.4484
 6018SOL     OW20370   3.478   8.461  10.416  0.0730 -0.3328  0.6066
 6018SOL    HW120371   3.392   8.419  10.418  0.0267 -0.2885 -0.0778
 6018SOL    HW220372   3.459   8.554  10.427 -0.0564 -0.2275 -0.3611
 6019SOL     OW20373   1.337   5.558   3.309  0.3075 -0.2322  0.0109
 6019SOL    HW120374   1.344   5.647   3.343 -2.0752 -0.0854  0.3300
 6019SOL    HW220375   1.422   5.519   3.326  1.3984  1.9469 -0.0800
 6020SOL     OW20376   7.822   5.611   9.200  0.2457 -0.2776 -0.4364
 6020SOL    HW120377   7.743   5.607   9.145  0.6081  1.3240 -1.1267
 6020SOL    HW220378   7.802   5.555   9.274 -0.0635 -3.0389 -2.4326
 6021SOL     OW20379   3.784  10.184  10.118 -0.4954  0.1464  0.4015
 6021SOL    HW120380   3.852  10.120  10.139 -0.5711  0.3422  1.2858
 6021SOL    HW220381   3.831  10.267  10.109 -0.3055 -0.1179 -1.4052
 6022SOL     OW20382   1.678   0.661   7.271  0.1139 -0.3804 -0.0595
 6022SOL    HW120383   1.631   0.630   7.194  1.0026  2.2044 -1.7891
 6022SOL    HW220384   1.638   0.746   7.290  3.2770  1.4889 -1.0439
 6023SOL     OW20385   5.073   6.650   7.724 -0.8731 -0.3390 -0.5496
 6023SOL    HW120386   5.166   6.643   7.746 -0.9404 -2.0030 -0.6619
 6023SOL    HW220387   5.068   6.726   7.665  0.2837  0.2399  0.0637
 6024SOL     OW20388   5.038   1.435   3.558  0.0880  0.4262  0.5738
 6024SOL    HW120389   4.991   1.358   3.526 -3.1908  2.3744  0.2430
 6024SOL    HW220390   4.997   1.509   3.513  0.8653  2.6477  3.2303
 6025SOL     OW20391   9.966   3.296   2.021 -0.0717  0.1279  0.0929
 6025SOL    HW120392   9.906   3.370   2.033 -0.5142 -0.1861 -0.1691
 6025SOL    HW220393   9.910   3.219   2.018  0.3114 -0.1347 -0.5223
 6026SOL     OW20394   6.101   3.118   3.044 -0.0272  0.0159  0.1402
 6026SOL    HW120395   6.178   3.147   2.995  1.3339  0.7268  2.5537
 6026SOL    HW220396   6.126   3.032   3.078 -1.4031 -1.0021 -1.2903
 6027SOL     OW20397   8.304  10.275   7.818  0.4965  0.0487  0.5010
 6027SOL    HW120398   8.236  10.327   7.861 -0.0637 -0.1406 -0.1336
 6027SOL    HW220399   8.255  10.211   7.765  1.1557 -1.4408  1.6311
 6028SOL     OW20400   6.241   1.813   7.200  0.3664  0.6472 -0.1743
 6028SOL    HW120401   6.335   1.809   7.220  1.1248  2.0591 -2.9590
 6028SOL    HW220402   6.222   1.906   7.192 -1.0007  0.3368 -0.8068
 6029SOL     OW20403   1.258   1.748   5.055 -0.1293 -0.0631 -0.0743
 6029SOL    HW120404   1.323   1.758   4.985  1.3707 -0.1307  1.2657
 6029SOL    HW220405   1.281   1.665   5.097 -0.6436  0.2520  0.8551
 6030SOL     OW20406   1.291   7.683   5.147  0.1398  0.4039 -0.1952
 6030SOL    HW120407   1.321   7.592   5.140 -0.3545  0.3685 -2.2751
 6030SOL    HW220408   1.328   7.714   5.230  1.1348 -1.3866  0.0668
 6031SOL     OW20409   9.702   6.228   2.580  0.1268 -0.4666 -0.2421
 6031SOL    HW120410   9.610   6.240   2.603 -0.3503 -2.8196 -0.6723
 6031SOL    HW220411   9.719   6.296   2.513 -1.8279 -1.0952 -1.4553
 6032SOL     OW20412   3.444   9.857   5.391 -0.0786 -0.2907 -0.5896
 6032SOL    HW120413   3.516   9.811   5.433 -0.6989  0.3551  1.2647
 6032SOL    HW220414   3.447   9.829   5.299  1.1698 -1.9390 -0.0762
 6033SOL     OW20415   4.707   5.926   5.524  0.2283  0.2698  0.3955
 6033SOL    HW120416   4.777   5.973   5.569 -1.1082  0.1826  2.7165
 6033SOL    HW220417   4.626   5.960   5.562 -1.0808  0.3851 -2.1931
 6034SOL     OW20418   0.244  10.182   6.458 -0.0837  0.2100 -0.1427
 6034SOL    HW120419   0.249  10.092   6.492  0.5203  0.4683  0.4895
 6034SOL    HW220420   0.285  10.177   6.372  2.1609  0.3146  0.8531
 6035SOL     OW20421   3.660   6.455   7.641  0.3052  0.5633 -0.1965
 6035SOL    HW120422   3.634   6.546   7.647 -1.8043 -0.0503  1.2680
 6035SOL    HW220423   3.651   6.433   7.548 -0.2275  1.5609 -0.3908
 6036SOL     OW20424   4.614   7.984   9.444  0.2553  0.3804  0.0366
 6036SOL    HW120425   4.555   8.013   9.375 -0.2628 -0.7426 -0.0142
 6036SOL    HW220426   4.702   7.995   9.407 -0.0373 -1.3840 -1.3216
 6037SOL     OW20427   3.054   3.914   2.050  0.0037  0.1113 -0.4906
 6037SOL    HW120428   2.988   3.844   2.047 -1.2236  1.0838  1.6714
 6037SOL    HW220429   3.007   3.992   2.021 -0.1952  1.0289  2.0503
 6038SOL     OW20430   0.721   4.647   2.448  0.1353  0.2261  0.1885
 6038SOL    HW120431   0.652   4.648   2.382  0.4085  2.8523 -0.1963
 6038SOL    HW220432   0.695   4.580   2.511 -1.5442 -0.4343 -1.1562
 6039SOL     OW20433   3.481   4.163  10.596 -0.2778  0.5384 -0.2278
 6039SOL    HW120434   3.472   4.206  10.681 -0.5201 -1.4109  0.8018
 6039SOL    HW220435   3.391   4.146  10.568 -0.1960 -1.1443  0.4219
 6040SOL     OW20436   4.191   3.528   2.775 -0.2544  0.6147 -0.4537
 6040SOL    HW120437   4.284   3.532   2.795 -0.5810  1.5316  1.0074
 6040SOL    HW220438   4.164   3.440   2.803  0.4406 -0.2375 -2.3083
 6041SOL     OW20439   8.178   9.440   3.916  0.0459 -0.0012 -0.3080
 6041SOL    HW120440   8.083   9.434   3.916 -0.0296  1.0362 -0.1830
 6041SOL    HW220441   8.207   9.370   3.974 -0.5594 -1.2579 -1.4576
 6042SOL     OW20442   3.639   5.757   9.777 -0.4333 -0.0053 -0.6977
 6042SOL    HW120443   3.695   5.770   9.700 -1.5686  1.3885 -1.3319
 6042SOL    HW220444   3.683   5.807   9.847  0.6676 -1.3800 -0.3661
 6043SOL     OW20445   4.164   5.029   7.223 -0.4429  0.1546 -0.4692
 6043SOL    HW120446   4.177   4.937   7.200  0.2267  0.3465 -0.8624
 6043SOL    HW220447   4.250   5.059   7.251 -0.9085  0.3294  0.8899
 6044SOL     OW20448   4.021   0.574   7.887  0.4393 -0.0143 -0.3798
 6044SOL    HW120449   4.050   0.527   7.965  0.9156 -1.2369 -1.2580
 6044SOL    HW220450   4.101   0.616   7.853  0.6361 -0.9768 -1.1785
 6045SOL     OW20451   7.870   1.326   3.852  0.6688  0.0763 -0.3886
 6045SOL    HW120452   7.804   1.389   3.880  0.3697 -0.5340  0.3593
 6045SOL    HW220453   7.849   1.307   3.761  0.0632  0.2107 -0.2828
 6046SOL     OW20454   1.352   5.562   2.483 -0.7028 -0.4289 -0.2911
 6046SOL    HW120455   1.432   5.613   2.476 -0.7738 -0.3671 -0.7377
 6046SOL    HW220456   1.379   5.472   2.462 -0.9746 -0.1910 -1.7975
 6047SOL     OW20457   4.446   8.417   3.689  0.0147  0.4590 -0.2936
 6047SOL    HW120458   4.464   8.324   3.672 -1.7097  0.2016 -0.8930
 6047SOL    HW220459   4.485   8.433   3.775 -0.5155 -1.0879  0.2682
 6048SOL     OW20460  10.074   9.669   2.033 -0.1202  0.7304  0.0368
 6048SOL    HW120461  10.018   9.643   1.961  3.5217 -0.7827 -2.5283
 6048SOL    HW220462  10.083   9.764   2.023  0.8598  0.4728 -2.0508
 6049SOL     OW20463   9.277   7.928   2.162  0.1080 -0.2544  0.2301
 6049SOL    HW120464   9.340   7.897   2.227 -0.9515 -3.0931  0.0403
 6049SOL    HW220465   9.328   7.939   2.082  1.0553  1.4718  1.0047
 6050SOL     OW20466   5.726   1.246   9.914  0.1337  0.0612  0.1801
 6050SOL    HW120467   5.761   1.328   9.882 -1.0243  0.1708 -0.8636
 6050SOL    HW220468   5.664   1.271   9.983  0.9807 -0.0503  1.0047
 6051SOL     OW20469   8.966   4.509   0.259 -0.4551  0.4218 -0.0077
 6051SOL    HW120470   8.982   4.414   0.267 -0.5143  0.2036 -1.9788
 6051SOL    HW220471   8.876   4.521   0.288 -0.8336 -0.3330 -0.8168
 6052SOL     OW20472   9.303   8.869   1.468 -0.0910  0.5337 -0.0987
 6052SOL    HW120473   9.305   8.965   1.465  0.1910  0.6236  1.6422
 6052SOL    HW220474   9.313   8.848   1.561  0.0786 -1.1990 -0.4733
 6053SOL     OW20475   4.374   5.221   0.169 -0.1840 -0.6521 -0.2551
 6053SOL    HW120476   4.323   5.180   0.100 -0.0513  0.0028 -0.7556
 6053SOL    HW220477   4.457   5.244   0.127  0.1069 -0.7254  0.2633
 6054SOL     OW20478   7.409   5.802   2.671  0.1720  0.2960  0.2680
 6054SOL    HW120479   7.461   5.877   2.702  1.9144 -1.9206  3.1910
 6054SOL    HW220480   7.471   5.730   2.666 -1.6709 -1.2981 -1.2720
 6055SOL     OW20481   5.446   2.580   5.570 -0.1936 -0.4050 -0.1452
 6055SOL    HW120482   5.506   2.640   5.526 -1.4497  1.8868  1.0555
 6055SOL    HW220483   5.368   2.632   5.586 -0.3692 -1.5199  3.4295
 6056SOL     OW20484   0.296  10.217   0.956  0.4484  0.5638 -0.2534
 6056SOL    HW120485   0.264  10.140   1.001  0.8106  0.5949  0.0623
 6056SOL    HW220486   0.221  10.276   0.951  0.6583  0.9877  1.2225
 6057SOL     OW20487   5.776   0.679   4.975  0.3192  0.5146  0.3309
 6057SOL    HW120488   5.711   0.609   4.987  0.3720  0.3989 -0.0435
 6057SOL    HW220489   5.811   0.664   4.887  0.5808  0.8059  0.3851
 6058SOL     OW20490   9.897   1.609  10.481 -0.3483 -0.3151 -0.3595
 6058SOL    HW120491   9.919   1.652  10.564 -1.2745  0.4361 -0.4903
 6058SOL    HW220492   9.854   1.676  10.429 -0.5545 -1.0208 -1.1258
 6059SOL     OW20493   1.500   2.736   7.973 -0.0981  0.0829  0.0453
 6059SOL    HW120494   1.480   2.746   8.066  1.7270  0.1247  0.4574
 6059SOL    HW220495   1.571   2.672   7.970 -0.2110 -0.0193 -1.3479
 6060SOL     OW20496   5.610  10.318   7.335  0.4983 -0.2850  0.6442
 6060SOL    HW120497   5.596  10.412   7.341  1.3553 -0.0623 -0.5563
 6060SOL    HW220498   5.552  10.281   7.402 -0.4594  1.0266  0.5762
 6061SOL     OW20499   6.262  10.453   3.665  0.0143  0.0924 -0.0417
 6061SOL    HW120500   6.243  10.370   3.709 -0.7148 -0.6980 -1.7650
 6061SOL    HW220501   6.210  10.517   3.713 -1.9928 -0.9939 -0.6165
 6062SOL     OW20502   5.691   4.650   8.976 -0.9790 -0.0335 -0.2415
 6062SOL    HW120503   5.623   4.710   8.945 -1.5029  0.0191  0.9528
 6062SOL    HW220504   5.642   4.575   9.012 -0.6254  1.2075  3.2209
 6063SOL     OW20505   7.076   3.983   8.764 -0.3424 -0.2143  0.1548
 6063SOL    HW120506   6.988   3.997   8.731 -0.0766  0.6139 -0.2135
 6063SOL    HW220507   7.118   3.928   8.698 -0.2090  0.3798 -0.2520
 6064SOL     OW20508   8.880   5.916   1.850  0.2049 -0.3219 -0.3939
 6064SOL    HW120509   8.885   5.844   1.788 -0.2023  0.1524 -0.9915
 6064SOL    HW220510   8.787   5.923   1.871  0.4868 -1.4132  1.4127
 6065SOL     OW20511   8.127   5.648   4.483 -0.3040  0.2982 -0.3681
 6065SOL    HW120512   8.060   5.631   4.417  0.7679  0.5463 -1.5647
 6065SOL    HW220513   8.112   5.583   4.551 -0.2143 -1.2956 -1.8167
 6066SOL     OW20514   3.724   1.844   0.183  0.0157  0.1413  0.0964
 6066SOL    HW120515   3.718   1.922   0.127 -0.5374  0.8448  1.1009
 6066SOL    HW220516   3.756   1.877   0.267 -1.8001 -0.4313  1.0579
 6067SOL     OW20517   4.862  10.395   3.464 -0.3001 -0.7928 -0.1990
 6067SOL    HW120518   4.839  10.309   3.428 -1.0478 -0.3128 -0.9026
 6067SOL    HW220519   4.925  10.431   3.401 -0.9465 -0.3130 -0.5809
 6068SOL     OW20520   8.381   2.097   2.934 -0.1853  0.2052  0.4231
 6068SOL    HW120521   8.364   2.191   2.927 -0.2544  0.2607  1.2650
 6068SOL    HW220522   8.342   2.060   2.855  0.3688  0.9541 -0.2106
 6069SOL     OW20523   0.430   6.579   8.150 -0.0623  0.2589  0.2370
 6069SOL    HW120524   0.350   6.628   8.166 -0.6241 -0.3700 -0.5630
 6069SOL    HW220525   0.405   6.487   8.160  0.4887  0.0439 -0.2656
 6070SOL     OW20526   5.054   7.095   6.301 -0.0569 -0.4662 -0.4305
 6070SOL    HW120527   5.131   7.125   6.253 -0.8672  1.8968 -0.4091
 6070SOL    HW220528   5.068   7.127   6.390 -1.5807  1.1523 -0.7159
 6071SOL     OW20529   1.349   0.136   1.759  0.4684  0.1274 -0.0120
 6071SOL    HW120530   1.385   0.215   1.799  0.8616 -0.2379  0.3581
 6071SOL    HW220531   1.314   0.085   1.833 -1.5641  0.8321 -0.4045
 6072SOL     OW20532   2.427   5.346   8.184 -0.1288  0.7914  0.0951
 6072SOL    HW120533   2.396   5.420   8.236 -0.6758  1.1259 -0.6883
 6072SOL    HW220534   2.347   5.306   8.149  0.0550 -0.9731  1.5318
 6073SOL     OW20535   6.330   9.988  10.373  0.3883  0.1150 -0.1016
 6073SOL    HW120536   6.250   9.989  10.424  0.5727  1.5333  0.2094
 6073SOL    HW220537   6.385  10.057  10.412  1.2046  0.0973 -1.1486
 6074SOL     OW20538   8.843   1.891   9.888  0.1460 -0.2607  0.0342
 6074SOL    HW120539   8.779   1.853   9.827 -1.7814  0.7296  1.3290
 6074SOL    HW220540   8.818   1.983   9.896  2.2034  0.3482  0.0687
 6075SOL     OW20541   4.831   6.861   1.715  0.0989  0.2252  0.4221
 6075SOL    HW120542   4.783   6.926   1.664  0.4721  0.5080  0.4213
 6075SOL    HW220543   4.850   6.906   1.798 -0.9990 -0.4272  1.0422
 6076SOL     OW20544   2.160   2.390   7.801 -0.0622  0.0648 -0.2721
 6076SOL    HW120545   2.224   2.428   7.740  1.0910 -0.2292  0.7244
 6076SOL    HW220546   2.207   2.319   7.843 -0.7448  0.4359  1.1592
 6077SOL     OW20547   8.460   8.136   5.422  0.9195  0.0401  0.0841
 6077SOL    HW120548   8.402   8.060   5.429 -0.5712  1.1139 -0.3480
 6077SOL    HW220549   8.420   8.202   5.478  1.0981  1.1748 -1.0961
 6078SOL     OW20550   1.233   5.148   7.598 -0.0545 -0.3006 -0.5995
 6078SOL    HW120551   1.293   5.098   7.542 -0.6378 -1.0683 -0.5552
 6078SOL    HW220552   1.202   5.085   7.662  1.6713  0.8608  1.5320
 6079SOL     OW20553  10.276   5.516   1.778 -0.2481 -0.6964  0.0607
 6079SOL    HW120554  10.241   5.467   1.704  0.2612  1.5167 -1.7380
 6079SOL    HW220555  10.284   5.451   1.848  0.8307 -3.2656 -2.2898
 6080SOL     OW20556   8.446   9.760   3.566  0.3350 -0.1521 -0.6911
 6080SOL    HW120557   8.533   9.725   3.586 -0.1173 -0.0758  1.7511
 6080SOL    HW220558   8.396   9.749   3.647 -1.2390  1.8995 -1.2858
 6081SOL     OW20559   1.201   1.591   6.841 -0.4664 -0.2810  0.1261
 6081SOL    HW120560   1.175   1.627   6.757 -1.6624 -0.5645  0.3496
 6081SOL    HW220561   1.118   1.575   6.887  0.1185 -1.0718  0.9549
 6082SOL     OW20562   3.822   6.484   3.802  0.2330 -0.0425 -0.5800
 6082SOL    HW120563   3.795   6.401   3.840  2.4803 -1.9494 -2.8059
 6082SOL    HW220564   3.749   6.543   3.819 -0.6208 -1.8261  2.8468
 6083SOL     OW20565   5.670   5.702   7.759 -0.2007 -0.4950  0.7427
 6083SOL    HW120566   5.643   5.624   7.711 -0.3635 -0.4039  0.6834
 6083SOL    HW220567   5.594   5.760   7.754 -0.2208 -0.4886  1.1142
 6084SOL     OW20568   4.722   6.720   9.649  0.0370  0.0394  0.0158
 6084SOL    HW120569   4.727   6.751   9.739 -0.8002  0.5746 -0.1070
 6084SOL    HW220570   4.760   6.633   9.651  2.8521  1.1770  0.3007
 6085SOL     OW20571   5.087   7.498   6.854 -0.1449 -0.1577  0.2731
 6085SOL    HW120572   5.160   7.559   6.854  1.2428 -1.7654 -0.1267
 6085SOL    HW220573   5.032   7.527   6.781  0.0688  1.0725  0.5873
 6086SOL     OW20574  10.156   1.553   5.378 -0.0181  0.4719  0.4559
 6086SOL    HW120575  10.131   1.641   5.351  1.3757  1.3079  1.7248
 6086SOL    HW220576  10.222   1.525   5.314 -1.0396 -0.0025 -0.4133
 6087SOL     OW20577   6.595   4.237   7.651 -0.1117 -0.2453 -0.0500
 6087SOL    HW120578   6.605   4.332   7.642 -1.1195 -0.2508 -1.5814
 6087SOL    HW220579   6.643   4.200   7.577  2.1081 -1.1171  1.6905
 6088SOL     OW20580   4.973   1.692   3.097  0.0704  0.1216  0.4496
 6088SOL    HW120581   4.927   1.637   3.033  0.6641 -0.0552  0.1710
 6088SOL    HW220582   4.994   1.632   3.168 -3.1002  0.8637  2.1983
 6089SOL     OW20583   2.931  10.092   6.782  0.5411  0.2550  0.4426
 6089SOL    HW120584   2.886  10.067   6.702 -1.0872 -1.1460  1.7219
 6089SOL    HW220585   2.944  10.186   6.774 -2.3193  0.6925 -0.1977
 6090SOL     OW20586   8.545   4.343  10.314 -0.0802  0.1100  0.3640
 6090SOL    HW120587   8.621   4.399  10.299  1.3203 -2.1934 -1.9571
 6090SOL    HW220588   8.559   4.308  10.402  0.9402  0.6212  0.4260
 6091SOL     OW20589   2.614   9.093   5.573 -0.2738 -0.1086  0.1805
 6091SOL    HW120590   2.527   9.129   5.556  0.0556  0.0652 -1.2111
 6091SOL    HW220591   2.612   9.007   5.531 -0.1842 -0.6501  1.2488
 6092SOL     OW20592   1.257   8.287   5.549 -0.6800 -0.1870  0.1031
 6092SOL    HW120593   1.169   8.323   5.540 -1.3458 -1.6299  0.6360
 6092SOL    HW220594   1.249   8.219   5.616  0.7232 -0.7215 -0.2338
 6093SOL     OW20595   6.628   3.112   8.725 -0.2411  0.2181  0.6518
 6093SOL    HW120596   6.538   3.145   8.721  0.0592  0.9022 -1.2042
 6093SOL    HW220597   6.644   3.100   8.819 -1.5754  2.0163  1.1745
 6094SOL     OW20598   4.011   3.953   0.852  0.2189 -0.1908 -0.2022
 6094SOL    HW120599   4.027   3.930   0.761  1.2771 -1.0101  0.1672
 6094SOL    HW220600   3.932   3.904   0.877 -0.3499  0.4077 -0.7951
 6095SOL     OW20601   1.644   8.917   6.623  0.1814  0.0584  0.2530
 6095SOL    HW120602   1.618   8.878   6.706 -0.3930  0.1096  0.1088
 6095SOL    HW220603   1.580   8.988   6.610 -1.2852 -1.4676 -1.3960
 6096SOL     OW20604   9.455   5.954   9.513 -0.1668  0.2472 -1.1255
 6096SOL    HW120605   9.458   5.967   9.418  2.1466 -1.6828 -1.4084
 6096SOL    HW220606   9.486   6.037   9.549 -1.5439  1.1807 -1.9708
 6097SOL     OW20607   6.004   2.061   7.107  0.0818 -0.8183  0.4101
 6097SOL    HW120608   5.930   2.018   7.066 -0.4245  0.2666  0.1601
 6097SOL    HW220609   6.050   2.104   7.034 -0.9361  1.2899  0.9184
 6098SOL     OW20610   0.693   9.656   7.432 -0.7645 -0.9475 -0.3452
 6098SOL    HW120611   0.648   9.692   7.508 -1.5363 -1.4530 -0.5528
 6098SOL    HW220612   0.718   9.733   7.381  2.0217 -0.4121  1.6004
 6099SOL     OW20613   2.881   7.573   8.462 -0.2592  0.1230  0.1518
 6099SOL    HW120614   2.929   7.552   8.382 -1.4878  2.2932 -1.2806
 6099SOL    HW220615   2.791   7.545   8.443 -0.4569  0.1754  0.9914
 6100SOL     OW20616  10.149   7.138   8.316 -0.0032  0.2066  0.1480
 6100SOL    HW120617  10.216   7.115   8.380 -1.4373 -1.3344  1.1861
 6100SOL    HW220618  10.153   7.233   8.309  1.8083  0.2000  0.6792
 6101SOL     OW20619   3.965   2.658   5.486 -0.4437 -0.5285 -0.4650
 6101SOL    HW120620   3.904   2.719   5.444  0.9193  0.9287 -0.3964
 6101SOL    HW220621   3.956   2.674   5.579  0.7273  0.3974 -0.4960
 6102SOL     OW20622   8.520   1.557   5.261  0.5653 -0.1784  0.4238
 6102SOL    HW120623   8.567   1.526   5.184  0.4553  0.7084 -0.0134
 6102SOL    HW220624   8.583   1.614   5.307  0.7855 -1.0563  1.2447
 6103SOL     OW20625   8.736   0.616   3.811  0.3285  0.1549 -0.0159
 6103SOL    HW120626   8.755   0.524   3.793  1.1884  0.3353 -0.0804
 6103SOL    HW220627   8.642   0.618   3.832 -0.8517 -0.1048 -4.2861
 6104SOL     OW20628   7.098   8.013   0.533  0.3974  0.0100 -0.0969
 6104SOL    HW120629   7.002   8.014   0.527  0.4663  0.4086 -2.5880
 6104SOL    HW220630   7.122   8.105   0.543  0.5310 -0.0822  0.4552
 6105SOL     OW20631   2.258   3.951   2.448 -0.1769  0.5447  0.4221
 6105SOL    HW120632   2.215   3.922   2.367 -0.0075 -1.3632  0.9641
 6105SOL    HW220633   2.229   4.041   2.459  0.0817  0.9965 -1.9455
 6106SOL     OW20634   0.194   3.907   0.605  0.4295 -0.0975 -0.3821
 6106SOL    HW120635   0.271   3.956   0.578  0.6515  0.8312  1.7262
 6106SOL    HW220636   0.121   3.949   0.559  1.0564 -0.5121 -1.8121
 6107SOL     OW20637   4.218   3.365   6.597  0.6942 -0.0816 -0.4372
 6107SOL    HW120638   4.148   3.307   6.570  1.0917 -0.1103 -1.4283
 6107SOL    HW220639   4.235   3.341   6.688 -2.5756  1.9037  0.8709
 6108SOL     OW20640   3.279   8.316   0.805  0.2977 -0.0302 -0.9029
 6108SOL    HW120641   3.363   8.301   0.848 -0.6796 -0.2077  1.0363
 6108SOL    HW220642   3.231   8.234   0.816 -0.5668  0.4486 -0.9620
 6109SOL     OW20643   9.282   5.064   3.341  0.0385 -0.6309 -0.3418
 6109SOL    HW120644   9.203   5.011   3.340 -0.2118 -0.2601 -1.0077
 6109SOL    HW220645   9.351   5.005   3.311 -0.1990 -0.6554 -0.8586
 6110SOL     OW20646   6.030   3.548   4.392 -0.0276 -0.0051 -0.2327
 6110SOL    HW120647   5.983   3.598   4.459  0.9811 -0.9630  1.2626
 6110SOL    HW220648   5.989   3.462   4.393  0.7938 -0.4017  0.0484
 6111SOL     OW20649   2.921   3.861   1.735  0.2700 -0.1486 -0.2103
 6111SOL    HW120650   2.834   3.879   1.698 -0.0912 -0.3076  0.5583
 6111SOL    HW220651   2.904   3.825   1.821  1.1226  1.2689  0.5902
 6112SOL     OW20652   0.369   9.022   5.253  0.1020 -0.1183  0.3111
 6112SOL    HW120653   0.441   9.044   5.194  1.3031 -0.0730  1.7209
 6112SOL    HW220654   0.345   8.933   5.230  1.1409 -0.4071  0.3114
 6113SOL     OW20655  10.489   7.334   8.729 -0.5555 -0.5110  0.1824
 6113SOL    HW120656  10.571   7.333   8.778 -1.1856 -0.9992  1.2607
 6113SOL    HW220657  10.428   7.382   8.784 -0.8679  0.3455 -0.8689
 6114SOL     OW20658   7.217   7.241   8.519  0.4363  0.0816 -0.2282
 6114SOL    HW120659   7.299   7.278   8.551  1.1969 -0.1193 -1.8755
 6114SOL    HW220660   7.236   7.213   8.430 -0.9865 -1.4386 -0.0967
 6115SOL     OW20661   0.932   1.515   2.574  0.0843 -0.5520  0.4374
 6115SOL    HW120662   0.984   1.579   2.525 -2.9715  2.0585  0.2600
 6115SOL    HW220663   0.965   1.521   2.663  2.0172 -1.2554 -0.1695
 6116SOL     OW20664   9.854   2.268   3.088 -0.0054  0.0243  0.4073
 6116SOL    HW120665   9.800   2.228   3.021  0.6668  1.2835 -0.9416
 6116SOL    HW220666   9.792   2.311   3.147 -0.6022 -1.1912  0.6983
 6117SOL     OW20667   7.652   9.149   0.830  0.0215  0.2687  0.3155
 6117SOL    HW120668   7.658   9.187   0.742 -0.1984 -0.7873 -0.1646
 6117SOL    HW220669   7.567   9.106   0.832  0.4416 -0.5580  0.7089
 6118SOL     OW20670   6.411   5.693   9.593  0.4007 -0.6369 -0.2698
 6118SOL    HW120671   6.420   5.668   9.502  1.0215 -0.9343 -0.1285
 6118SOL    HW220672   6.493   5.667   9.634  0.2058 -0.3278  0.3330
 6119SOL     OW20673   3.938   6.676   0.932  1.1061  0.0293  0.2125
 6119SOL    HW120674   3.898   6.726   0.860  1.0218  0.0780  0.2929
 6119SOL    HW220675   3.929   6.584   0.904 -0.1473 -0.0400  0.7634
 6120SOL     OW20676   1.181   7.888   1.384  0.4306 -0.4492 -0.2119
 6120SOL    HW120677   1.241   7.814   1.381  1.7535  0.5968 -0.3899
 6120SOL    HW220678   1.221   7.954   1.328 -1.1145  0.1327 -0.6711
 6121SOL     OW20679   4.013   1.490   3.126  0.1455 -0.4131 -0.5237
 6121SOL    HW120680   3.959   1.569   3.122  0.5633 -0.0085  1.0133
 6121SOL    HW220681   4.103   1.521   3.121  0.3409 -0.6813  0.9051
 6122SOL     OW20682   4.046   2.661  10.308 -0.1021 -0.0200 -0.0838
 6122SOL    HW120683   4.018   2.680  10.218  1.1205 -0.8192 -0.6544
 6122SOL    HW220684   3.988   2.715  10.363  0.5001  2.1247 -1.4261
 6123SOL     OW20685   3.361   2.604   6.434 -0.0527 -0.2229 -0.2709
 6123SOL    HW120686   3.411   2.570   6.360  0.6300 -0.6159  0.3544
 6123SOL    HW220687   3.283   2.549   6.438 -0.3096  0.0818 -0.9612
 6124SOL     OW20688   0.727   9.973   4.187 -0.2629 -0.5372 -0.4819
 6124SOL    HW120689   0.666   9.900   4.200 -0.9086 -0.2803 -1.9442
 6124SOL    HW220690   0.692  10.021   4.113  0.5653  0.8590 -0.0051
 6125SOL     OW20691   8.603   3.108   0.111 -0.2212  0.3330 -0.1950
 6125SOL    HW120692   8.558   3.170   0.168 -1.7039  0.3561 -1.3211
 6125SOL    HW220693   8.668   3.160   0.065  0.9524  0.3270  1.3664
 6126SOL     OW20694   2.721   7.552   0.060 -0.1632 -0.0098  0.0092
 6126SOL    HW120695   2.783   7.609   0.016 -0.0905 -0.1809 -0.1084
 6126SOL    HW220696   2.729   7.467   0.016  1.5338 -0.8437  1.7526
 6127SOL     OW20697   0.832   3.454   0.180 -0.8016  0.0854  0.7252
 6127SOL    HW120698   0.920   3.475   0.151 -0.3272  0.6016  2.4377
 6127SOL    HW220699   0.841   3.369   0.223 -1.6228 -0.9968 -1.0845
 6128SOL     OW20700   1.123   4.986   5.401  0.3971  0.2044 -0.5886
 6128SOL    HW120701   1.049   5.046   5.401  1.4920  1.6285  1.1022
 6128SOL    HW220702   1.122   4.946   5.488  1.6143  0.2555 -0.5315
 6129SOL     OW20703  10.585   8.894   0.027 -0.2685 -0.2237 -0.0904
 6129SOL    HW120704  10.673   8.860   0.042  0.3371  2.0552  2.1914
 6129SOL    HW220705  10.542   8.891   0.112 -1.6341  0.7053 -0.6990
 6130SOL     OW20706   9.615   2.337   2.075 -0.4987 -0.1899 -0.2684
 6130SOL    HW120707   9.636   2.321   2.167 -0.4862 -1.5510 -0.4770
 6130SOL    HW220708   9.699   2.361   2.035  0.0034 -1.9328 -0.3610
 6131SOL     OW20709   7.371   2.168   5.377 -0.6966 -0.4537  0.2897
 6131SOL    HW120710   7.347   2.121   5.297 -0.5091 -0.7300  0.3934
 6131SOL    HW220711   7.419   2.103   5.429  1.0983  0.3393 -0.3020
 6132SOL     OW20712   4.615   1.442   7.944 -0.2772 -0.0044 -0.2791
 6132SOL    HW120713   4.636   1.536   7.945 -1.1162  0.1889 -0.2440
 6132SOL    HW220714   4.524   1.438   7.913  0.1624 -0.8963 -1.5575
 6133SOL     OW20715   3.395   3.144   3.502 -0.2922  0.0332  0.3815
 6133SOL    HW120716   3.332   3.076   3.477 -1.0266  0.6075  0.6428
 6133SOL    HW220717   3.342   3.211   3.546  0.4602  0.6680  0.3365
 6134SOL     OW20718   3.195   1.646   3.014  0.0457 -0.1584 -0.0567
 6134SOL    HW120719   3.147   1.565   2.997  1.4454 -1.1677  0.6303
 6134SOL    HW220720   3.279   1.634   2.971  0.2983  0.9186  0.1046
 6135SOL     OW20721   3.057   1.279   4.150 -0.0839  0.0045 -0.0058
 6135SOL    HW120722   3.014   1.266   4.235 -0.1758 -0.3637 -0.1087
 6135SOL    HW220723   3.047   1.195   4.104  1.6093 -0.4311  0.3479
 6136SOL     OW20724   3.955   1.280   5.044 -0.7076  0.5093 -0.3653
 6136SOL    HW120725   3.971   1.363   4.998 -1.5311  0.7507 -0.2403
 6136SOL    HW220726   3.915   1.224   4.977 -1.1195  0.5725 -0.1752
 6137SOL     OW20727   7.127   1.130   0.020 -0.4314  0.5844 -0.1307
 6137SOL    HW120728   7.116   1.196  -0.048 -0.8022  0.0202 -0.6319
 6137SOL    HW220729   7.060   1.064   0.001  1.4248 -1.1393 -1.0807
 6138SOL     OW20730   9.549   7.679   0.860  0.1003 -0.0170  0.2267
 6138SOL    HW120731   9.543   7.639   0.947  0.9578  0.1296  0.3659
 6138SOL    HW220732   9.550   7.605   0.800  0.1838 -0.1497  0.3887
 6139SOL     OW20733   6.070   4.288   4.619 -0.5274  0.4117 -0.3560
 6139SOL    HW120734   6.110   4.321   4.539 -0.3356  0.8442 -0.0861
 6139SOL    HW220735   6.051   4.196   4.601  0.1223  0.3326 -0.6646
 6140SOL     OW20736   7.390   1.061   2.231 -0.6236 -0.1384  0.4324
 6140SOL    HW120737   7.368   1.135   2.288 -1.2222 -0.9088  1.2259
 6140SOL    HW220738   7.407   0.989   2.292 -1.1853 -0.9579 -0.3652
 6141SOL     OW20739   6.366   8.783   4.828  0.0006  0.4536  0.1488
 6141SOL    HW120740   6.352   8.845   4.901  0.5281 -0.0711  0.7052
 6141SOL    HW220741   6.459   8.790   4.809 -0.2624  1.1115 -0.9748
 6142SOL     OW20742   3.634   8.617   1.897  0.8289  0.5228 -0.3213
 6142SOL    HW120743   3.728   8.618   1.878  0.8818  2.1949 -0.0409
 6142SOL    HW220744   3.599   8.553   1.835  2.1374 -0.1169 -0.4432
 6143SOL     OW20745   5.229   5.597   7.794 -0.2835 -0.6248 -0.3694
 6143SOL    HW120746   5.217   5.507   7.824 -1.4538 -0.7483 -1.1400
 6143SOL    HW220747   5.140   5.632   7.787  0.1811  1.3238  2.0184
 6144SOL     OW20748   6.769   3.443   2.769 -0.5474 -0.3603 -0.3155
 6144SOL    HW120749   6.675   3.433   2.754 -0.9309  1.3518  0.6750
 6144SOL    HW220750   6.782   3.538   2.776  1.4519 -0.4858 -1.5493
 6145SOL     OW20751   8.149   7.315   6.747  0.3074  0.2254  0.0546
 6145SOL    HW120752   8.213   7.383   6.726  1.2133 -0.4506  0.5180
 6145SOL    HW220753   8.201   7.245   6.788 -0.5390 -0.8858 -0.6973
 6146SOL     OW20754   3.017   8.916   0.978 -0.2246  0.1581  0.1423
 6146SOL    HW120755   2.946   8.972   1.010  0.4156  1.3396 -0.4266
 6146SOL    HW220756   3.011   8.921   0.883  1.5226  1.5578  0.0402
 6147SOL     OW20757   3.608   3.024   1.267 -0.1000  0.3425 -0.0045
 6147SOL    HW120758   3.539   2.976   1.221  0.5902 -1.6933  0.9654
 6147SOL    HW220759   3.683   3.022   1.208  0.1888 -0.5647  0.3766
 6148SOL     OW20760  10.140   3.208   4.609  0.1307  0.2682 -0.3341
 6148SOL    HW120761  10.217   3.265   4.616  0.7869 -0.5680 -0.6205
 6148SOL    HW220762  10.176   3.121   4.593 -0.9104  0.0553 -1.6659
 6149SOL     OW20763   2.818   4.245   3.661  0.2277  0.0144 -0.1508
 6149SOL    HW120764   2.904   4.284   3.644  0.9121 -1.1623  0.4371
 6149SOL    HW220765   2.833   4.188   3.737 -0.5083 -1.9341 -1.3761
 6150SOL     OW20766   2.928   4.269   8.485 -1.0940 -0.2281 -0.6525
 6150SOL    HW120767   2.990   4.318   8.431 -0.7095 -0.1411 -0.1410
 6150SOL    HW220768   2.908   4.191   8.434  1.0485 -1.2930  0.0378
 6151SOL     OW20769   4.288   5.123  10.531  0.2216 -0.1050  0.4440
 6151SOL    HW120770   4.323   5.122  10.442  0.7316 -1.2211  0.6418
 6151SOL    HW220771   4.205   5.170  10.523  0.3004 -0.1184 -0.6050
 6152SOL     OW20772  10.274   2.766   9.665 -0.2599 -0.0268  0.1407
 6152SOL    HW120773  10.337   2.697   9.645  0.7771  0.5031  1.4416
 6152SOL    HW220774  10.198   2.746   9.610  0.3971 -1.6255 -0.2283
 6153SOL     OW20775   9.478   5.644   3.387  0.4533 -0.3702  0.4038
 6153SOL    HW120776   9.526   5.562   3.375  0.7520 -0.4339  1.9080
 6153SOL    HW220777   9.467   5.652   3.482  2.9888  2.7982  0.6013
 6154SOL     OW20778   0.791   9.670   0.951 -0.3236 -0.5429 -0.3010
 6154SOL    HW120779   0.801   9.693   0.859  0.5827  1.5082  0.2340
 6154SOL    HW220780   0.740   9.743   0.988 -1.4236 -1.7548  0.6797
 6155SOL     OW20781   1.886   1.130   0.430 -0.1034 -0.2290  0.0543
 6155SOL    HW120782   1.943   1.106   0.357  1.2955 -1.5499  1.4820
 6155SOL    HW220783   1.800   1.098   0.405 -0.0340  0.8820 -1.7313
 6156SOL     OW20784   1.868   8.034   4.071 -0.5044  0.0760  0.7279
 6156SOL    HW120785   1.826   8.037   3.985 -1.7728 -1.1488  1.2648
 6156SOL    HW220786   1.908   8.120   4.082  2.2473 -0.6427 -2.3057
 6157SOL     OW20787   1.248  10.002   7.465  0.3462  0.4531  0.3805
 6157SOL    HW120788   1.167   9.994   7.515  1.1183 -2.9707  1.2970
 6157SOL    HW220789   1.313  10.031   7.528  0.4524  0.2557  0.3625
 6158SOL     OW20790  10.032   3.332   4.059  0.0045 -0.4956 -0.9386
 6158SOL    HW120791   9.948   3.347   4.101  0.6088  0.0812  0.1038
 6158SOL    HW220792  10.096   3.337   4.130  0.8542 -1.6999 -1.5832
 6159SOL     OW20793   2.769   8.289   6.158  0.2120 -0.2387  0.0138
 6159SOL    HW120794   2.712   8.230   6.209  1.0277 -0.6796  0.4355
 6159SOL    HW220795   2.734   8.284   6.069 -0.0269 -1.0001  0.1398
 6160SOL     OW20796   7.006   2.284   7.419  0.2303 -0.1657  0.0262
 6160SOL    HW120797   7.045   2.232   7.489 -0.0315  0.3927  0.5985
 6160SOL    HW220798   6.912   2.280   7.435  0.1819  0.1356 -0.1747
 6161SOL     OW20799   4.567   7.678   4.390 -0.1078 -0.1717  0.1454
 6161SOL    HW120800   4.539   7.734   4.463  1.5678  1.4709 -0.3756
 6161SOL    HW220801   4.592   7.596   4.430  1.2669  0.8797  1.5286
 6162SOL     OW20802   7.586   2.676   9.098  0.0843 -1.1107  0.2462
 6162SOL    HW120803   7.502   2.708   9.064  0.9811 -0.1933 -1.2180
 6162SOL    HW220804   7.607   2.736   9.169  0.2313 -0.3693 -0.4104
 6163SOL     OW20805   5.291   3.273  10.480 -0.1152 -0.1715  0.0621
 6163SOL    HW120806   5.356   3.283  10.550 -0.1114 -0.0752  0.0439
 6163SOL    HW220807   5.219   3.226  10.522 -0.1071 -0.1264  0.1268
 6164SOL     OW20808   7.403   6.850   0.893  0.4204  0.0513  0.1232
 6164SOL    HW120809   7.477   6.849   0.955 -0.5440  0.0158  1.3114
 6164SOL    HW220810   7.378   6.759   0.884  0.0367  0.1373  0.3202
 6165SOL     OW20811   6.077   2.170   2.216  0.2527 -0.1395 -0.5392
 6165SOL    HW120812   6.146   2.114   2.181 -0.2164 -1.3744  0.4352
 6165SOL    HW220813   6.004   2.158   2.155  0.8097  1.0329 -1.4729
 6166SOL     OW20814   3.659   1.264   3.839  0.1857 -0.0399 -0.3472
 6166SOL    HW120815   3.656   1.193   3.902 -1.7908  0.6139  0.3517
 6166SOL    HW220816   3.743   1.308   3.856  0.4991 -0.9594  0.5785
 6167SOL     OW20817   9.696   5.114   4.986 -0.2866 -0.2986 -0.4666
 6167SOL    HW120818   9.674   5.091   5.076 -1.2838  0.7707 -0.4157
 6167SOL    HW220819   9.781   5.072   4.971  0.6509  0.7494  1.4856
 6168SOL     OW20820   8.843   7.044   9.398 -0.2619  0.1688 -0.1970
 6168SOL    HW120821   8.933   7.027   9.428 -0.5084  1.4734  1.4511
 6168SOL    HW220822   8.850   7.048   9.303  1.7621  1.7798 -0.0614
 6169SOL     OW20823   5.013   5.017   5.922 -0.0768  0.1737  0.2259
 6169SOL    HW120824   4.998   5.094   5.976 -0.8496  0.6079 -0.5866
 6169SOL    HW220825   4.976   4.944   5.972  0.0313  0.4335  0.6857
 6170SOL     OW20826   0.821   3.531  10.098  0.2171  0.0909 -0.1886
 6170SOL    HW120827   0.872   3.523  10.179  1.2738  1.4696 -0.6946
 6170SOL    HW220828   0.730   3.536  10.128  0.4782 -0.7029  0.8181
 6171SOL     OW20829   5.149  10.244   8.493  0.6586 -0.2484  0.6376
 6171SOL    HW120830   5.145  10.273   8.584  0.7255 -1.8940  1.2080
 6171SOL    HW220831   5.058  10.226   8.470  0.6561  0.0383  0.4210
 6172SOL     OW20832   5.925   7.062   3.662 -0.2311  0.1153 -0.5977
 6172SOL    HW120833   5.847   7.046   3.715 -0.5694  1.0090 -0.7959
 6172SOL    HW220834   5.985   7.107   3.721  0.3316 -0.9757 -0.3132
 6173SOL     OW20835   5.792  10.184   4.169 -0.8015 -0.3842  0.6237
 6173SOL    HW120836   5.705  10.164   4.204 -0.0959 -3.1937  0.9474
 6173SOL    HW220837   5.842  10.104   4.181  1.4711  0.7377 -0.7730
 6174SOL     OW20838   8.472   4.421   1.457  0.0231  0.5974  0.2465
 6174SOL    HW120839   8.403   4.403   1.521  3.3675 -1.0138  3.8092
 6174SOL    HW220840   8.495   4.335   1.422  2.6048  0.4218  2.0667
 6175SOL     OW20841   5.059   6.257   8.904  0.3522  0.2085  0.4459
 6175SOL    HW120842   4.987   6.211   8.947  1.0664 -0.9586  0.4582
 6175SOL    HW220843   5.061   6.220   8.816  0.2988  0.9741  0.1190
 6176SOL     OW20844   0.662   2.162   6.075 -0.4811  0.1877 -0.3388
 6176SOL    HW120845   0.685   2.076   6.109  0.4747  0.4374 -0.3350
 6176SOL    HW220846   0.696   2.224   6.139 -0.2519  0.5995 -0.8504
 6177SOL     OW20847   5.002   1.532   5.468  0.0420 -0.3171 -0.4046
 6177SOL    HW120848   5.048   1.461   5.423 -1.2659 -1.6940  0.3126
 6177SOL    HW220849   4.934   1.559   5.406  0.4830  0.2571 -0.6412
 6178SOL     OW20850   6.208   2.752   1.192  0.5910 -0.2962  0.4746
 6178SOL    HW120851   6.188   2.693   1.119  1.7598 -0.7684  0.5098
 6178SOL    HW220852   6.141   2.733   1.257  0.1671 -0.6437 -0.0584
 6179SOL     OW20853   0.394   7.164   3.756 -0.3456  0.3686  0.3890
 6179SOL    HW120854   0.318   7.222   3.759 -0.4316  0.3629 -0.9473
 6179SOL    HW220855   0.463   7.217   3.715 -0.2164 -0.2290 -0.1905
 6180SOL     OW20856   8.421   0.765   4.873 -0.2185  0.2385  0.0535
 6180SOL    HW120857   8.499   0.754   4.819 -1.1891 -1.5505 -1.0724
 6180SOL    HW220858   8.356   0.802   4.814 -0.9194 -0.5243  0.3316
 6181SOL     OW20859   6.707   2.365   3.721 -0.5698 -0.4825  0.5595
 6181SOL    HW120860   6.727   2.283   3.677 -0.5314 -1.1896  1.8406
 6181SOL    HW220861   6.630   2.399   3.675 -1.2562 -1.7965  0.7009
 6182SOL     OW20862   4.996   5.180   4.808  0.9523 -0.0645  0.1430
 6182SOL    HW120863   5.010   5.211   4.719  3.6343  1.1184  0.8647
 6182SOL    HW220864   4.901   5.172   4.816  0.3990  2.7352 -1.8828
 6183SOL     OW20865   2.832   1.801   6.377 -0.0036  0.1416 -0.1721
 6183SOL    HW120866   2.817   1.712   6.409  0.8608  0.3834  0.9683
 6183SOL    HW220867   2.766   1.814   6.309  0.4923 -1.7329 -1.0811
 6184SOL     OW20868   5.214   5.100   6.726  0.1919  0.0130 -0.2319
 6184SOL    HW120869   5.254   5.018   6.754 -0.7579 -0.5702 -0.5603
 6184SOL    HW220870   5.174   5.081   6.642 -2.8447 -0.1177  1.1065
 6185SOL     OW20871   3.789   1.902   0.445 -0.3113  0.0032  0.5071
 6185SOL    HW120872   3.874   1.860   0.461 -0.0464 -0.0744 -0.9895
 6185SOL    HW220873   3.777   1.961   0.520  0.9227 -0.1982  0.8846
 6186SOL     OW20874   5.707   4.043   8.201 -0.1014  0.2665  0.7468
 6186SOL    HW120875   5.688   4.070   8.290  1.3928  0.7911  0.9314
 6186SOL    HW220876   5.790   3.996   8.207  0.2363  0.6810 -0.4239
 6187SOL     OW20877   2.994   7.136   5.674  0.0276  0.0545 -0.0535
 6187SOL    HW120878   3.049   7.071   5.630 -0.7752 -1.7703  1.4624
 6187SOL    HW220879   3.003   7.215   5.621  1.3909 -1.1542 -1.7647
 6188SOL     OW20880   8.499   3.696   7.367 -0.0632  0.7679 -0.0354
 6188SOL    HW120881   8.537   3.765   7.422  1.2516  0.7487 -0.8635
 6188SOL    HW220882   8.408   3.689   7.395  0.1005  2.0256  0.8637
 6189SOL     OW20883   8.031   6.542   5.302 -0.8521  0.0265  0.3274
 6189SOL    HW120884   8.090   6.574   5.370  0.3323 -0.7026 -0.3335
 6189SOL    HW220885   8.014   6.619   5.247 -0.3805  0.1967  0.4174
 6190SOL     OW20886   1.617   7.147   6.103 -0.6056 -0.1096 -0.5724
 6190SOL    HW120887   1.567   7.226   6.081  0.2026  1.2193  1.9298
 6190SOL    HW220888   1.707   7.177   6.113  0.0897 -1.7586 -1.4287
 6191SOL     OW20889   5.120   2.279   2.475  0.2997  0.4382  0.3639
 6191SOL    HW120890   5.127   2.218   2.548  3.3899 -1.3806 -1.2315
 6191SOL    HW220891   5.183   2.348   2.497 -0.3064  1.0002  0.3540
 6192SOL     OW20892   7.451   0.214   4.976  0.2918 -0.9436  0.3657
 6192SOL    HW120893   7.480   0.226   5.066 -0.1563  0.2958  0.3723
 6192SOL    HW220894   7.358   0.239   4.978  0.4557 -0.1959 -0.5623
 6193SOL     OW20895   9.258   2.621   6.645 -0.1846  0.1146 -0.2564
 6193SOL    HW120896   9.288   2.667   6.724 -0.1781 -1.5356  0.7643
 6193SOL    HW220897   9.314   2.544   6.640 -0.2988  0.1084 -1.8144
 6194SOL     OW20898   4.739   6.990   5.132 -0.2372  0.4533 -0.3152
 6194SOL    HW120899   4.715   6.913   5.081  1.3477 -0.3767  0.1562
 6194SOL    HW220900   4.661   7.007   5.186 -1.1023  0.0238 -1.3797
 6195SOL     OW20901   6.595   9.185  10.536  0.2841 -0.0250  0.7555
 6195SOL    HW120902   6.642   9.262  10.569  0.0664  0.1921  0.5651
 6195SOL    HW220903   6.646   9.110  10.568  0.4393  0.1950  1.0273
 6196SOL     OW20904   0.010   4.671   7.933 -0.3098  0.0990 -0.0138
 6196SOL    HW120905   0.057   4.713   7.861  1.5570 -0.7952  0.6220
 6196SOL    HW220906  -0.046   4.606   7.891  0.1929  0.1109 -0.7067
 6197SOL     OW20907  10.547   8.204   9.237  0.0095 -0.4357 -0.0293
 6197SOL    HW120908  10.470   8.260   9.242 -1.0461 -1.8017 -0.1412
 6197SOL    HW220909  10.592   8.232   9.157 -0.2122  0.5481  0.1767
 6198SOL     OW20910   4.002  10.120   2.452  0.0302  0.0934  0.1735
 6198SOL    HW120911   4.049  10.121   2.536  0.0282  1.2283  0.1638
 6198SOL    HW220912   4.011  10.029   2.422  0.9662 -0.0668  0.8743
 6199SOL     OW20913   7.091   6.242   4.896 -0.0679 -0.3367  0.1913
 6199SOL    HW120914   7.047   6.263   4.814 -1.6725  0.3278  1.1755
 6199SOL    HW220915   7.184   6.247   4.875 -0.4345  0.9436 -1.3108
 6200SOL     OW20916   5.451   2.263   0.531  0.1006 -0.0717  0.4847
 6200SOL    HW120917   5.356   2.253   0.533  0.2304 -1.6399  0.0477
 6200SOL    HW220918   5.467   2.349   0.570 -1.4959  0.2670  0.4584
 6201SOL     OW20919   1.387  10.509   1.592 -0.0324 -0.0547 -0.6089
 6201SOL    HW120920   1.335  10.480   1.667 -1.1174  1.7187 -0.6194
 6201SOL    HW220921   1.381  10.605   1.594  2.9979  0.2566 -0.8100
 6202SOL     OW20922   1.435   7.683   7.709  0.1614  0.3460  0.5355
 6202SOL    HW120923   1.434   7.768   7.754  0.6607  0.6032  0.0777
 6202SOL    HW220924   1.436   7.705   7.616  0.2841 -0.1657  0.4112
 6203SOL     OW20925   5.332   0.610   0.991 -0.2031 -0.4456  0.2939
 6203SOL    HW120926   5.347   0.700   1.021 -0.2783 -0.3420  0.0188
 6203SOL    HW220927   5.237   0.599   0.996 -0.2423 -0.3339 -0.1780
 6204SOL     OW20928   4.866   2.730   4.671  0.0844 -0.1658 -0.1943
 6204SOL    HW120929   4.892   2.699   4.757 -0.6989  0.9066  0.4544
 6204SOL    HW220930   4.860   2.651   4.617 -0.8959 -1.0095  1.1245
 6205SOL     OW20931   7.829   5.331   0.205  0.1013 -0.0135  0.5617
 6205SOL    HW120932   7.750   5.337   0.152  0.8196  0.4543 -0.5074
 6205SOL    HW220933   7.867   5.419   0.201  0.7188 -0.2525  0.9932
 6206SOL     OW20934   1.419   8.621   3.321  0.0118  0.4912 -0.2033
 6206SOL    HW120935   1.483   8.650   3.257 -1.0685 -2.2075 -2.7219
 6206SOL    HW220936   1.468   8.564   3.381  0.1281 -1.5033 -2.0748
 6207SOL     OW20937   8.473   3.444  10.247 -0.3988  0.0619  0.0233
 6207SOL    HW120938   8.415   3.484  10.182 -0.2491  1.6114  0.7903
 6207SOL    HW220939   8.438   3.355  10.258 -0.9191  0.0346 -1.5405
 6208SOL     OW20940   2.978   0.261   7.578 -0.1449  0.0259 -0.0102
 6208SOL    HW120941   3.003   0.294   7.664  1.1540 -1.0748  0.0721
 6208SOL    HW220942   2.884   0.278   7.572  0.0611  1.6739  0.8996
 6209SOL     OW20943   9.372   1.147   3.863  0.3203 -0.0642  0.2730
 6209SOL    HW120944   9.324   1.225   3.837  0.2582  0.1240  0.9245
 6209SOL    HW220945   9.377   1.153   3.959  0.0161 -1.0332  0.3559
 6210SOL     OW20946   8.095   0.634   3.284  0.0844 -0.3508  0.5743
 6210SOL    HW120947   8.171   0.619   3.226  1.0704  1.1100  1.4499
 6210SOL    HW220948   8.023   0.653   3.224  0.3894 -1.6919 -0.2716
 6211SOL     OW20949   9.285   5.075   0.977 -0.2904  0.2866 -0.0547
 6211SOL    HW120950   9.297   4.982   0.994  0.7098  0.5213  0.5475
 6211SOL    HW220951   9.191   5.085   0.963 -0.3513 -0.8767 -0.5467
 6212SOL     OW20952   3.238   9.486   6.517  0.1716 -0.8519 -0.4800
 6212SOL    HW120953   3.183   9.545   6.569 -0.0698 -2.3530  1.0641
 6212SOL    HW220954   3.290   9.544   6.462 -0.6661  0.7503  0.3473
 6213SOL     OW20955   4.417   8.785   6.718 -0.3068  0.0178  0.0185
 6213SOL    HW120956   4.379   8.821   6.799  0.4153  0.4497  0.1760
 6213SOL    HW220957   4.460   8.704   6.746  1.1614  0.8863  0.3511
 6214SOL     OW20958   3.583   1.594   3.270  0.0669  0.8362 -0.4098
 6214SOL    HW120959   3.637   1.550   3.204  0.5016 -0.2795  0.6438
 6214SOL    HW220960   3.502   1.543   3.271 -0.1230  1.1405 -0.4203
 6215SOL     OW20961   3.276  10.260   5.861  0.1851  0.1471  0.4095
 6215SOL    HW120962   3.290  10.213   5.779  1.1383  0.3711  0.4343
 6215SOL    HW220963   3.193  10.306   5.848  0.4270  0.3549 -0.5178
 6216SOL     OW20964   9.025   6.208   5.999  0.2585  0.1452  0.1105
 6216SOL    HW120965   8.981   6.200   6.084  1.3643  2.0785  0.9150
 6216SOL    HW220966   9.090   6.138   5.999 -0.6646 -0.7463  0.2292
 6217SOL     OW20967   0.369   1.777   4.802 -0.0384  0.5939 -0.0903
 6217SOL    HW120968   0.328   1.774   4.888 -0.3206  0.4790 -0.2285
 6217SOL    HW220969   0.335   1.857   4.762 -0.2997  0.3849 -0.2893
 6218SOL     OW20970   3.162   5.714   6.441  0.1159 -0.4230  0.2718
 6218SOL    HW120971   3.120   5.753   6.517  0.5659 -1.0187  0.8416
 6218SOL    HW220972   3.208   5.786   6.398  1.1034 -0.3366  1.4170
 6219SOL     OW20973   5.593   9.914   1.538  0.0985  0.5681  0.4514
 6219SOL    HW120974   5.684   9.915   1.508 -0.2245  1.5236 -0.5850
 6219SOL    HW220975   5.597   9.945   1.629  0.7753  0.9746  0.2895
 6220SOL     OW20976   3.588   2.914   0.845 -0.1672  0.0863  0.5734
 6220SOL    HW120977   3.642   2.992   0.831  3.9916 -2.1627  2.3597
 6220SOL    HW220978   3.554   2.892   0.758  2.0121  1.5754 -0.7593
 6221SOL     OW20979   3.279   4.247   4.096 -0.3247 -0.6695 -0.3471
 6221SOL    HW120980   3.250   4.165   4.057 -0.0791 -2.3108  2.6697
 6221SOL    HW220981   3.374   4.239   4.101 -0.1847  0.3257 -0.9865
 6222SOL     OW20982   1.647   3.948   1.753 -0.1610 -0.3376  0.3797
 6222SOL    HW120983   1.703   3.906   1.688  2.1314 -0.6901  2.4386
 6222SOL    HW220984   1.613   3.875   1.806 -0.7966  0.0398  0.5110
 6223SOL     OW20985   1.101   6.797   6.568 -0.5291 -0.6540 -0.2364
 6223SOL    HW120986   1.106   6.868   6.632 -0.9059 -0.9775  0.1564
 6223SOL    HW220987   1.038   6.736   6.605 -0.5501 -0.9752 -0.7921
 6224SOL     OW20988   3.197   9.741   5.735 -0.0535 -0.2793  0.5740
 6224SOL    HW120989   3.192   9.734   5.640  0.3240  0.9771  0.4558
 6224SOL    HW220990   3.164   9.656   5.766 -0.7970 -0.4702 -0.6487
 6225SOL     OW20991   2.690   0.337   8.005 -0.3971  0.1098 -0.5441
 6225SOL    HW120992   2.631   0.354   8.079  0.8861 -0.4183  0.6313
 6225SOL    HW220993   2.713   0.424   7.972 -0.1926  0.3884  0.3194
 6226SOL     OW20994   1.092   4.037   3.183  0.3062 -0.5072  0.1904
 6226SOL    HW120995   1.036   3.994   3.248  1.3055  0.5280  1.8112
 6226SOL    HW220996   1.172   4.059   3.231  0.4618  1.7245 -0.9507
 6227SOL     OW20997   8.780   5.346   8.788 -0.0486  0.5221 -0.7289
 6227SOL    HW120998   8.751   5.255   8.774 -3.9710  1.6196 -0.8177
 6227SOL    HW220999   8.817   5.346   8.876  3.2966 -1.7251 -1.9110
 6228SOL     OW21000   7.473   4.224   8.872 -0.1030 -0.4456 -0.1492
 6228SOL    HW121001   7.437   4.174   8.946 -1.8132 -0.5520 -1.0068
 6228SOL    HW221002   7.423   4.305   8.871  0.3271 -0.1774 -0.8413
 6229SOL     OW21003   9.957   7.018   8.179 -0.1105  0.5517  0.0650
 6229SOL    HW121004  10.039   7.051   8.215 -0.8058  1.3655  0.9527
 6229SOL    HW221005   9.889   7.065   8.227 -1.1216 -1.0318  0.2725
 6230SOL     OW21006   0.837   8.193   4.233  0.5737 -0.8342  0.0161
 6230SOL    HW121007   0.806   8.272   4.189  0.2864  0.2269  1.9851
 6230SOL    HW221008   0.930   8.210   4.250  1.2597 -2.1572 -1.9884
 6231SOL     OW21009   6.841   8.552   1.320 -0.3124 -0.0764 -0.0758
 6231SOL    HW121010   6.864   8.638   1.355  0.2928 -0.8100  1.4309
 6231SOL    HW221011   6.924   8.512   1.295 -0.6118 -0.1287 -1.0083
 6232SOL     OW21012   3.027   7.090   3.229 -0.3519 -0.2613 -0.1949
 6232SOL    HW121013   3.070   7.058   3.309 -0.7151  0.3816  0.2626
 6232SOL    HW221014   2.988   7.173   3.254 -3.1368 -1.4815 -0.2014
 6233SOL     OW21015   6.247   5.344   3.458  0.2537  0.1216  0.1520
 6233SOL    HW121016   6.175   5.395   3.495 -1.2131 -1.7754  0.1239
 6233SOL    HW221017   6.228   5.341   3.365  0.2563 -0.5088  0.1653
 6234SOL     OW21018   3.841   4.823   8.086  0.0421 -0.2820 -0.2912
 6234SOL    HW121019   3.803   4.829   8.173  1.4830 -0.3878  0.3706
 6234SOL    HW221020   3.883   4.907   8.072  1.1305 -0.7987 -0.2304
 6235SOL     OW21021   7.774   6.332   8.262  0.0614  0.0394 -0.0552
 6235SOL    HW121022   7.710   6.393   8.299  0.6408  0.9781 -0.5378
 6235SOL    HW221023   7.858   6.377   8.271  0.9342 -1.8727  2.0877
 6236SOL     OW21024  10.041   0.323   7.433 -0.3453  1.0520  0.2144
 6236SOL    HW121025  10.061   0.411   7.400  2.4445  0.7804  0.8699
 6236SOL    HW221026  10.007   0.337   7.521  1.0149  1.5172  0.7039
 6237SOL     OW21027   0.631   8.676   6.748 -0.5737 -0.2149 -0.5233
 6237SOL    HW121028   0.537   8.656   6.743 -0.6773  0.2223 -0.3318
 6237SOL    HW221029   0.664   8.618   6.816 -1.3613  2.0224  1.9247
 6238SOL     OW21030   7.733   1.526   5.663 -0.1410  0.3556 -0.3976
 6238SOL    HW121031   7.731   1.538   5.758 -0.0814  2.3726 -0.6076
 6238SOL    HW221032   7.826   1.525   5.640 -0.1209  2.2582 -0.6263
 6239SOL     OW21033   5.085   0.014   0.537 -0.0389  0.3771  0.0994
 6239SOL    HW121034   5.126   0.072   0.601 -2.0387  0.0922  1.7542
 6239SOL    HW221035   5.008   0.061   0.508 -0.7696 -0.7376  0.1843
 6240SOL     OW21036   7.952   4.622  10.550  0.3142  0.3497 -0.1150
 6240SOL    HW121037   7.912   4.546  10.508  0.2317  0.9154 -1.0736
 6240SOL    HW221038   8.041   4.624  10.516  0.5985  0.1869  0.5856
 6241SOL     OW21039   9.556   6.742   0.756  0.1972  0.2998  0.0332
 6241SOL    HW121040   9.541   6.812   0.819 -0.2054 -0.2376  0.5396
 6241SOL    HW221041   9.614   6.680   0.801 -2.3599 -1.5479  1.0239
 6242SOL     OW21042   3.719   7.682   4.054 -0.5577 -0.4257  0.1966
 6242SOL    HW121043   3.638   7.675   4.002 -0.3509 -1.0210 -0.0555
 6242SOL    HW221044   3.780   7.728   3.997 -0.7017 -0.0134  0.3712
 6243SOL     OW21045   1.456   0.774   3.944 -0.8213 -0.5790 -0.1295
 6243SOL    HW121046   1.546   0.806   3.937 -0.1460 -1.6473  2.6500
 6243SOL    HW221047   1.465   0.679   3.951 -2.3083 -0.8368 -1.2915
 6244SOL     OW21048   2.246   1.838   2.966 -0.3221  0.3715 -0.7948
 6244SOL    HW121049   2.196   1.779   3.023  1.5354 -1.1635 -0.6592
 6244SOL    HW221050   2.337   1.826   2.993  0.2151  2.7102 -1.3505
 6245SOL     OW21051   4.916  10.010   0.197 -0.1682 -0.2816 -0.5012
 6245SOL    HW121052   4.906  10.024   0.103  0.1133 -0.7374 -0.6034
 6245SOL    HW221053   4.950   9.921   0.205 -0.2803 -0.2820  0.0386
 6246SOL     OW21054   5.839   5.305  10.303  0.1545  0.4239 -0.1724
 6246SOL    HW121055   5.758   5.257  10.285  1.2810 -0.8472 -2.1557
 6246SOL    HW221056   5.904   5.268  10.243  1.6583  2.9877 -0.2815
 6247SOL     OW21057   1.807   9.732   0.321  0.2349 -0.8905  0.2523
 6247SOL    HW121058   1.855   9.677   0.383  1.6947 -0.8174 -0.7846
 6247SOL    HW221059   1.729   9.681   0.299 -0.2775 -0.9619  2.0457
 6248SOL     OW21060   9.414   5.742   2.344  0.0239 -0.0784 -0.2999
 6248SOL    HW121061   9.323   5.753   2.315 -0.5502 -1.8854  0.6678
 6248SOL    HW221062   9.464   5.804   2.290 -1.8729  1.6246 -0.2472
 6249SOL     OW21063   6.470   0.938   5.264 -0.0763 -0.0954 -0.5999
 6249SOL    HW121064   6.421   0.982   5.333  0.6874  1.6267 -1.0914
 6249SOL    HW221065   6.542   0.895   5.309 -1.0897 -1.2485 -0.0552
 6250SOL     OW21066   8.674   9.427   4.314  0.0407 -0.0141 -0.0769
 6250SOL    HW121067   8.650   9.370   4.241  0.7385  1.0177 -1.1493
 6250SOL    HW221068   8.595   9.429   4.369 -1.1432  0.5414 -1.6989
 6251SOL     OW21069   7.593   4.500   6.253  0.0948  0.0252  0.0625
 6251SOL    HW121070   7.653   4.476   6.323  0.8035  1.5775  0.0328
 6251SOL    HW221071   7.639   4.569   6.205 -1.3271  0.5732 -0.5576
 6252SOL     OW21072   0.678   9.212   3.989 -0.0275  0.5670 -0.9072
 6252SOL    HW121073   0.712   9.146   3.928 -0.4123  0.4999 -1.0533
 6252SOL    HW221074   0.595   9.240   3.950 -1.3992 -1.0863  0.6774
 6253SOL     OW21075   1.093   7.514   6.616  0.0792  0.1971  0.2558
 6253SOL    HW121076   1.125   7.541   6.530  0.6821 -1.3448 -0.0334
 6253SOL    HW221077   1.001   7.539   6.616  0.2373  0.8280 -0.5689
 6254SOL     OW21078   0.330   3.535   9.756  0.4369 -0.4359 -0.5207
 6254SOL    HW121079   0.371   3.458   9.797 -0.5554 -1.1101 -0.7623
 6254SOL    HW221080   0.239   3.533   9.787  0.7680  1.5769  0.7644
 6255SOL     OW21081   4.794   2.109   5.956  0.1801 -0.8922 -0.1907
 6255SOL    HW121082   4.786   2.078   6.045 -1.7522 -0.5535 -0.2009
 6255SOL    HW221083   4.709   2.149   5.937  1.0913  0.4665 -1.6333
 6256SOL     OW21084   5.967   4.511   5.661  0.1158 -0.3584 -0.4287
 6256SOL    HW121085   5.889   4.531   5.609  0.0096  0.0474 -0.1150
 6256SOL    HW221086   6.022   4.589   5.652 -1.0071  0.8455  2.1275
 6257SOL     OW21087   2.975   7.627   5.572 -0.2751  0.3283  0.0446
 6257SOL    HW121088   2.976   7.704   5.629 -0.7054 -0.7775  1.6187
 6257SOL    HW221089   2.972   7.552   5.632 -0.9365 -0.9071 -1.4426
 6258SOL     OW21090   2.934   3.941   2.601 -0.2755 -0.0508 -0.3371
 6258SOL    HW121091   2.996   4.002   2.641  2.4617 -2.9193  0.1583
 6258SOL    HW221092   2.953   3.946   2.507 -1.9663  1.7090 -0.6506
 6259SOL     OW21093  10.102   5.312   5.275 -0.3670  0.0050  0.0052
 6259SOL    HW121094  10.103   5.401   5.241 -1.5647 -0.2659 -0.7934
 6259SOL    HW221095  10.036   5.314   5.344  0.0526 -0.1226  0.4144
 6260SOL     OW21096   9.121   4.168   1.593  0.4418 -0.0297  0.2120
 6260SOL    HW121097   9.092   4.095   1.648 -2.1694  1.3209  0.7964
 6260SOL    HW221098   9.040   4.206   1.559  1.8581  0.4796 -2.9892
 6261SOL     OW21099   8.160   6.146   4.075 -0.0947 -0.6282 -0.3089
 6261SOL    HW121100   8.159   6.236   4.045 -1.4670 -0.5439 -0.0960
 6261SOL    HW221101   8.131   6.151   4.167  0.0182 -1.2554 -0.2342
 6262SOL     OW21102   0.404   8.411   1.753  0.1491 -0.3467 -0.3099
 6262SOL    HW121103   0.396   8.458   1.670  0.6634 -1.7950 -1.2294
 6262SOL    HW221104   0.318   8.372   1.767  0.4302 -1.2030 -0.8833
 6263SOL     OW21105   3.998   9.449   4.801  0.1090  0.5428 -0.6308
 6263SOL    HW121106   4.032   9.405   4.722  0.3521  0.2096 -0.3435
 6263SOL    HW221107   3.914   9.406   4.817 -0.1839  0.9674 -1.0044
 6264SOL     OW21108   7.092   2.787   6.852 -0.1433  0.2663  0.1627
 6264SOL    HW121109   7.103   2.728   6.927 -0.3788  0.7454  0.5805
 6264SOL    HW221110   7.103   2.875   6.889  0.8967  0.4657 -0.5708
 6265SOL     OW21111   4.803   0.024   5.059  0.2506  0.0999 -0.6034
 6265SOL    HW121112   4.719   0.053   5.024  0.8816  1.0862 -1.3588
 6265SOL    HW221113   4.814   0.073   5.140 -1.7519 -3.0348  1.7751
 6266SOL     OW21114   8.560   1.243   7.945 -0.2366 -0.7967 -0.0857
 6266SOL    HW121115   8.548   1.336   7.961  1.3795 -0.2348 -1.7595
 6266SOL    HW221116   8.514   1.226   7.863  2.1122 -0.6453 -1.5599
 6267SOL     OW21117   3.117   1.989   7.142 -0.5271 -0.4690  0.2395
 6267SOL    HW121118   3.066   2.065   7.170 -0.8649 -0.8429  0.6486
 6267SOL    HW221119   3.056   1.916   7.150  0.0063 -0.8856  0.5050
 6268SOL     OW21120   7.490   3.610   9.279  0.3966  0.3900 -0.4449
 6268SOL    HW121121   7.427   3.538   9.268  0.0537  0.4103  1.1474
 6268SOL    HW221122   7.505   3.642   9.190 -1.8287  0.3593 -0.8819
 6269SOL     OW21123   0.481   1.321   1.875 -0.0293  0.5610  0.1715
 6269SOL    HW121124   0.505   1.343   1.966  0.0620 -1.8776  0.8141
 6269SOL    HW221125   0.388   1.340   1.870 -0.2389 -0.1090  1.1041
 6270SOL     OW21126   9.222   5.992   9.686 -0.0192 -0.6195 -0.5566
 6270SOL    HW121127   9.306   6.004   9.641  1.6007  3.6382  2.8745
 6270SOL    HW221128   9.236   5.915   9.742 -0.1641 -2.6196 -3.0874
 6271SOL     OW21129   4.288   9.400   5.626  0.0033  0.3206  0.3702
 6271SOL    HW121130   4.192   9.392   5.628  0.0631 -0.7904 -0.4348
 6271SOL    HW221131   4.309   9.405   5.533  0.8241 -0.9029  0.4755
 6272SOL     OW21132   2.635   1.415   3.922  0.7620 -0.3494  0.0612
 6272SOL    HW121133   2.686   1.495   3.914  1.3383 -0.5173  1.7234
 6272SOL    HW221134   2.546   1.445   3.943  0.6121 -0.1171 -0.8646
 6273SOL     OW21135   8.017   0.335   1.760 -0.1484  0.2062  0.2595
 6273SOL    HW121136   8.107   0.304   1.763 -0.4457 -0.8171 -0.6358
 6273SOL    HW221137   7.993   0.330   1.667 -1.3037 -0.0788  0.5531
 6274SOL     OW21138   2.983   9.773   3.567 -0.6252  0.3701 -0.0635
 6274SOL    HW121139   2.960   9.841   3.504 -0.0310  0.6657  0.0302
 6274SOL    HW221140   2.899   9.735   3.593 -0.8993  0.4597 -0.7888
 6275SOL     OW21141   8.678   4.614   9.410 -0.4018  0.2136  0.2132
 6275SOL    HW121142   8.750   4.610   9.473 -0.0271  0.7463 -0.1728
 6275SOL    HW221143   8.705   4.681   9.348 -2.1803  1.9784  1.2359
 6276SOL     OW21144  10.366   5.440   0.168 -0.0108 -0.6082 -0.4107
 6276SOL    HW121145  10.406   5.357   0.143 -0.5352 -0.9442 -0.1376
 6276SOL    HW221146  10.306   5.418   0.239  0.8978  0.2166  0.6428
 6277SOL     OW21147   3.061   9.353   0.960 -0.2555  0.5276  0.0595
 6277SOL    HW121148   3.108   9.272   0.977  1.3400  1.4586  0.3145
 6277SOL    HW221149   3.003   9.364   1.036 -0.0861 -0.0833  0.2775
 6278SOL     OW21150   7.991   8.459  10.245 -0.6086  0.1594 -0.9568
 6278SOL    HW121151   7.940   8.535  10.219 -3.1749 -0.4800  1.6951
 6278SOL    HW221152   8.003   8.469  10.339  1.6211 -1.2823 -1.0037
 6279SOL     OW21153   1.570   6.625   8.644 -0.1654  0.3168 -0.0345
 6279SOL    HW121154   1.630   6.582   8.582 -0.5481  0.4719 -0.5205
 6279SOL    HW221155   1.525   6.690   8.591 -0.6633  0.2988  0.3640
 6280SOL     OW21156   4.305   9.555   6.493 -0.0564 -0.1383  0.1245
 6280SOL    HW121157   4.247   9.546   6.569  0.2731 -1.1095  0.2797
 6280SOL    HW221158   4.255   9.609   6.432 -1.2831 -1.1950  0.1314
 6281SOL     OW21159   3.321   6.428   9.053  0.2228  0.4742  0.4274
 6281SOL    HW121160   3.245   6.455   9.105  0.6101 -3.1898  3.2957
 6281SOL    HW221161   3.287   6.361   8.994  0.8075  0.6125 -0.0771
 6282SOL     OW21162   9.605   4.141   9.800  0.1914 -0.0652 -0.0962
 6282SOL    HW121163   9.636   4.212   9.857  0.6501 -0.8085  0.6043
 6282SOL    HW221164   9.641   4.061   9.839 -1.4437 -0.8310 -0.0698
 6283SOL     OW21165   1.051   0.033   1.598  0.0130  0.0127 -0.0494
 6283SOL    HW121166   1.041  -0.019   1.518  2.5520 -1.2021  0.3268
 6283SOL    HW221167   1.061   0.123   1.567  1.9351 -0.5491 -1.2302
 6284SOL     OW21168   0.697   8.381   6.592 -0.6268  0.9310 -0.0106
 6284SOL    HW121169   0.753   8.459   6.583  0.7175  0.0120  0.1159
 6284SOL    HW221170   0.704   8.357   6.684  1.2670 -0.9492 -0.5743
 6285SOL     OW21171   4.258   6.775   8.253  0.0635 -0.1530 -0.4412
 6285SOL    HW121172   4.347   6.740   8.251 -0.0293 -0.4254 -2.3364
 6285SOL    HW221173   4.222   6.746   8.337  1.5715 -0.5187  0.1025
 6286SOL     OW21174   4.092   6.403   7.181 -0.8089 -0.1162 -0.3444
 6286SOL    HW121175   4.086   6.455   7.101  2.5862  1.7129  0.4142
 6286SOL    HW221176   4.125   6.464   7.247 -1.5252 -2.0641  1.9694
 6287SOL     OW21177   5.047   0.244   9.102  0.5320  0.0345  0.1712
 6287SOL    HW121178   5.038   0.165   9.155 -0.6674 -0.0867 -0.1846
 6287SOL    HW221179   5.119   0.225   9.042  0.0582 -0.9289 -0.1188
 6288SOL     OW21180   2.921   6.405   0.929  0.5820 -0.3540 -0.6382
 6288SOL    HW121181   2.999   6.461   0.936  1.2452 -1.2588 -0.5723
 6288SOL    HW221182   2.850   6.457   0.965  1.2936  0.2339 -0.0660
 6289SOL     OW21183   1.961   0.825   0.087 -0.6795  0.0052  0.0820
 6289SOL    HW121184   2.048   0.786   0.085 -0.1885  1.0835 -0.7970
 6289SOL    HW221185   1.906   0.759   0.129  0.2444 -1.3468 -0.7417
 6290SOL     OW21186   2.319   9.841   9.984 -0.3447 -0.2867  0.3067
 6290SOL    HW121187   2.252   9.792   9.936 -2.1246  0.4889  1.8965
 6290SOL    HW221188   2.307   9.815  10.075  4.1413 -3.1413  0.3806
 6291SOL     OW21189   1.873   2.438   7.747  0.2906 -0.1190 -0.2234
 6291SOL    HW121190   1.967   2.439   7.764 -0.0796 -1.8533  2.5772
 6291SOL    HW221191   1.833   2.460   7.831 -1.8217 -0.1768 -1.1514
 6292SOL     OW21192   4.780   8.972   1.696 -0.1593 -0.1082 -0.3134
 6292SOL    HW121193   4.690   9.004   1.696 -0.0741  0.1334 -0.1293
 6292SOL    HW221194   4.832   9.047   1.669 -0.0316 -0.3014 -0.6007
 6293SOL     OW21195   2.854   9.664   4.744 -0.4455 -0.5771 -0.3063
 6293SOL    HW121196   2.818   9.576   4.744 -2.1125  0.0652 -1.1666
 6293SOL    HW221197   2.802   9.712   4.809 -1.0900  0.3211 -1.4440
 6294SOL     OW21198   5.977   0.901   2.441  0.0267 -0.2167 -0.4481
 6294SOL    HW121199   5.910   0.889   2.374  0.4058  0.4934 -0.9728
 6294SOL    HW221200   6.045   0.954   2.398  0.6625 -0.4479  0.2420
 6295SOL     OW21201   8.985   1.106   4.087 -0.3547 -0.6634 -0.3429
 6295SOL    HW121202   8.968   1.061   4.170  1.0274 -0.5352  0.0398
 6295SOL    HW221203   9.018   1.037   4.029  0.0319 -0.4968 -0.3279
 6296SOL     OW21204   4.052   4.188   9.865  0.4527  0.3366  0.4379
 6296SOL    HW121205   4.075   4.280   9.881 -0.2202  0.4080  1.0768
 6296SOL    HW221206   3.963   4.192   9.828 -0.0659 -0.1008  1.5842
 6297SOL     OW21207   1.654   8.438   6.690  0.1922  0.3308 -0.5885
 6297SOL    HW121208   1.723   8.493   6.727 -0.4119 -0.0410  1.2022
 6297SOL    HW221209   1.574   8.468   6.733 -0.2918 -1.2850 -0.2911
 6298SOL     OW21210   7.153   3.353   4.235 -0.6213 -0.3301 -0.2474
 6298SOL    HW121211   7.094   3.335   4.162 -0.6149  1.1122 -0.6404
 6298SOL    HW221212   7.190   3.439   4.216  2.0341 -1.3715 -0.2797
 6299SOL     OW21213   4.501   3.826   6.943 -0.3247  0.0142 -0.3727
 6299SOL    HW121214   4.431   3.769   6.911  0.1324  0.6674 -2.7198
 6299SOL    HW221215   4.577   3.768   6.950 -0.6629 -0.3307  0.4304
 6300SOL     OW21216   8.992   0.180  10.396  0.1599  0.1985  0.5903
 6300SOL    HW121217   8.904   0.173  10.435  0.0641  1.3811  0.6031
 6300SOL    HW221218   8.983   0.136  10.311 -0.3759  0.0971  0.6939
 6301SOL     OW21219   8.575   9.145   6.208  0.3464  0.3203  0.9639
 6301SOL    HW121220   8.659   9.101   6.224 -0.9249 -2.1370  1.4671
 6301SOL    HW221221   8.531   9.089   6.144  0.2745  3.2523 -1.7658
 6302SOL     OW21222   9.459   5.607   8.693  0.1511 -0.8405 -0.0322
 6302SOL    HW121223   9.382   5.581   8.642 -0.7373  2.1245 -0.4089
 6302SOL    HW221224   9.516   5.651   8.629 -0.7202  2.4200  1.2518
 6303SOL     OW21225   2.516   0.379  10.407  0.1983  0.7926  0.3896
 6303SOL    HW121226   2.528   0.287  10.430 -2.2865  0.2621 -0.2316
 6303SOL    HW221227   2.488   0.421  10.489 -0.5037  0.6094  0.2444
 6304SOL     OW21228   0.556   3.245   1.242  0.7808  0.0311  0.7439
 6304SOL    HW121229   0.624   3.281   1.184  0.1810 -0.4092 -0.2702
 6304SOL    HW221230   0.569   3.150   1.236 -0.4980 -0.1148 -0.2303
 6305SOL     OW21231   5.147   9.831  10.054 -0.0715 -0.7762 -0.2971
 6305SOL    HW121232   5.062   9.869  10.033  0.3018  1.0146  1.1830
 6305SOL    HW221233   5.166   9.862  10.143  3.1675  0.8225 -1.3985
 6306SOL     OW21234   4.107   3.347   2.555  0.2117 -0.1197 -0.3270
 6306SOL    HW121235   4.199   3.320   2.554  0.1228 -0.4273 -0.9569
 6306SOL    HW221236   4.106   3.433   2.512  0.2798  0.1604  0.2224
 6307SOL     OW21237  10.091   9.209  10.496 -0.0078  0.0141  0.2446
 6307SOL    HW121238  10.044   9.212  10.579  0.0228  0.7883  0.2373
 6307SOL    HW221239  10.116   9.117  10.486  0.0601 -0.0665  1.1293
 6308SOL     OW21240   0.665   8.511   1.173  0.4917  0.1259 -0.1318
 6308SOL    HW121241   0.594   8.464   1.130 -0.2519  0.2613  0.9129
 6308SOL    HW221242   0.744   8.460   1.154 -0.0292 -0.5321 -0.5216
 6309SOL     OW21243   3.069   9.253   4.093  0.0831 -0.8705 -0.2320
 6309SOL    HW121244   3.077   9.299   4.177 -0.8328  0.5839 -0.9157
 6309SOL    HW221245   3.090   9.318   4.027 -3.9575 -0.4756 -1.3863
 6310SOL     OW21246   2.208   5.115   6.699  0.1345  0.7534 -0.1811
 6310SOL    HW121247   2.253   5.199   6.699 -1.4122  1.6206 -0.9286
 6310SOL    HW221248   2.123   5.133   6.739 -0.3261 -0.3927 -0.5957
 6311SOL     OW21249   2.537   6.794   0.727 -0.1555  0.4892  0.1083
 6311SOL    HW121250   2.599   6.784   0.655 -1.2957  2.2863 -1.2336
 6311SOL    HW221251   2.482   6.716   0.722  1.7494 -1.0047  1.1687
 6312SOL     OW21252   0.962   5.540   7.797 -0.3170  0.2556  0.7284
 6312SOL    HW121253   0.988   5.529   7.705 -0.5124  0.9062  0.5927
 6312SOL    HW221254   0.981   5.631   7.816 -0.1892  0.0980  1.3686
 6313SOL     OW21255   2.645   8.534   2.120 -0.4032  0.3946 -0.0992
 6313SOL    HW121256   2.607   8.619   2.096  0.3885  0.6539 -0.4891
 6313SOL    HW221257   2.642   8.533   2.216 -0.1317  1.0130 -0.0742
 6314SOL     OW21258   4.689   1.562   1.559 -0.2344 -0.0304  0.0097
 6314SOL    HW121259   4.683   1.470   1.535  2.5897 -0.1447 -0.5612
 6314SOL    HW221260   4.722   1.562   1.649  0.3177  0.3902 -0.1826
 6315SOL     OW21261  10.523   1.013   7.845 -0.4131 -0.1202 -0.4454
 6315SOL    HW121262  10.487   0.978   7.763  0.4451 -0.1773 -0.8038
 6315SOL    HW221263  10.603   0.962   7.860 -1.3825 -1.2719  1.3073
 6316SOL     OW21264   4.145  10.483   0.484 -0.0914  0.6700  0.5686
 6316SOL    HW121265   4.190  10.398   0.481  1.2739  1.3667  0.8046
 6316SOL    HW221266   4.128  10.497   0.577 -2.1198 -0.2294  0.3887
 6317SOL     OW21267   2.369  10.585   0.831  0.1167 -0.5219  0.8495
 6317SOL    HW121268   2.335  10.505   0.790 -0.3608  0.3239 -0.4452
 6317SOL    HW221269   2.320  10.656   0.789  0.5989  0.4616  1.9227
 6318SOL     OW21270   4.267   3.087   0.851  0.1925  0.1311 -0.2258
 6318SOL    HW121271   4.362   3.076   0.851  0.0538 -1.1397 -0.1123
 6318SOL    HW221272   4.250   3.140   0.929  0.6924 -0.7260  0.4807
 6319SOL     OW21273   7.679   9.594   6.964  0.0305 -0.2199  0.3989
 6319SOL    HW121274   7.626   9.530   6.916 -1.2015  0.1042  1.2756
 6319SOL    HW221275   7.749   9.542   7.003  0.9830 -0.5189 -1.5594
 6320SOL     OW21276   6.934   6.651  10.397  0.2279  0.1379 -0.8786
 6320SOL    HW121277   6.938   6.588  10.469  0.5234 -0.9174 -1.8044
 6320SOL    HW221278   6.843   6.649  10.368  0.0714  0.6800 -0.4610
 6321SOL     OW21279   4.990   7.306   1.875  0.2541 -0.0325 -0.7337
 6321SOL    HW121280   4.943   7.377   1.831  1.3896  1.5726  0.5387
 6321SOL    HW221281   5.080   7.337   1.882  0.5588 -1.1253  0.8563
 6322SOL     OW21282   0.655   1.260   4.364 -0.1860 -0.4242 -0.3544
 6322SOL    HW121283   0.640   1.182   4.418 -1.0208  0.0423  0.0931
 6322SOL    HW221284   0.692   1.325   4.425 -3.0400  0.8030  0.1954
 6323SOL     OW21285   4.461   0.664   5.687 -0.0488  0.5591  0.2145
 6323SOL    HW121286   4.501   0.699   5.767  0.3671 -0.1781  0.3338
 6323SOL    HW221287   4.448   0.571   5.705 -1.7483  0.7414  0.1442
 6324SOL     OW21288   1.973   5.324   5.707  0.1993 -0.1337  0.1629
 6324SOL    HW121289   1.928   5.408   5.720  1.8762  0.9904 -0.8223
 6324SOL    HW221290   1.903   5.259   5.711 -1.0086  1.1742  2.0886
 6325SOL     OW21291   2.478   7.334   6.859 -0.0996  0.0452 -0.0721
 6325SOL    HW121292   2.545   7.274   6.827 -1.7701 -2.7704  1.3483
 6325SOL    HW221293   2.395   7.291   6.838 -1.3862  1.4242  1.8207
 6326SOL     OW21294   5.482   9.428   0.939  0.4361  0.0607 -0.4935
 6326SOL    HW121295   5.419   9.448   1.008  0.6051  0.7351 -0.5185
 6326SOL    HW221296   5.429   9.407   0.862  0.2479 -0.5813 -0.1916
 6327SOL     OW21297   5.094  10.348   0.639 -0.7439 -0.2774  0.2087
 6327SOL    HW121298   5.104  10.357   0.734 -0.7373  0.3014  0.1582
 6327SOL    HW221299   5.095  10.438   0.606  2.4048 -0.5262 -0.6788
 6328SOL     OW21300   8.796   6.646   0.131 -0.0367  0.5004 -0.2114
 6328SOL    HW121301   8.776   6.656   0.224  0.2704 -0.3642 -0.0383
 6328SOL    HW221302   8.750   6.718   0.088 -0.5250  0.6603  0.5661
 6329SOL     OW21303   1.004   9.820  10.193  0.1246 -0.1408 -0.8567
 6329SOL    HW121304   0.966   9.907  10.183 -0.2675 -0.3572 -1.2806
 6329SOL    HW221305   0.977   9.772  10.115  1.4737 -0.2319 -1.2863
 6330SOL     OW21306   3.649   0.466   4.615 -0.4519 -0.5016 -0.2586
 6330SOL    HW121307   3.695   0.454   4.532 -0.1369 -0.9148 -0.0287
 6330SOL    HW221308   3.595   0.544   4.602 -0.9803 -1.0113 -1.0989
 6331SOL     OW21309   3.661   9.668   9.806  0.3701  0.0765 -0.4163
 6331SOL    HW121310   3.614   9.721   9.742  0.7222  1.2900  0.2942
 6331SOL    HW221311   3.753   9.685   9.788  0.5844 -1.9794 -1.5447
 6332SOL     OW21312   5.642   9.832   9.625  0.0006  0.7891  0.0102
 6332SOL    HW121313   5.642   9.860   9.533 -0.8590  1.5507  0.2336
 6332SOL    HW221314   5.560   9.866   9.661  0.4809  0.7844  1.1545
 6333SOL     OW21315   3.555   1.523   9.938 -0.5405 -0.2630  0.0702
 6333SOL    HW121316   3.478   1.505   9.883 -0.2825 -0.2229 -0.3030
 6333SOL    HW221317   3.518   1.540  10.025 -0.9655 -0.1452 -0.1289
 6334SOL     OW21318   1.379   4.407   4.822 -0.0365 -0.0150 -0.1662
 6334SOL    HW121319   1.438   4.477   4.848 -1.3667  1.1611 -0.1894
 6334SOL    HW221320   1.362   4.358   4.902  0.1998  0.2399  0.0406
 6335SOL     OW21321   9.705   3.905   9.910 -0.2628 -0.4059 -0.0023
 6335SOL    HW121322   9.733   3.915  10.001  0.5776 -1.1968 -0.1529
 6335SOL    HW221323   9.760   3.834   9.876  1.1488  1.4454 -1.8224
 6336SOL     OW21324   7.928   6.804   5.459  0.7300  0.2927 -0.0274
 6336SOL    HW121325   7.928   6.765   5.372  3.1806  1.1203 -0.4730
 6336SOL    HW221326   7.893   6.892   5.447  0.7226  0.2752 -0.1274
 6337SOL     OW21327   7.217   5.982   4.682 -0.0560  0.3475  0.2581
 6337SOL    HW121328   7.303   6.001   4.646 -0.3809 -1.1363 -1.4248
 6337SOL    HW221329   7.233   5.919   4.752  0.2082 -0.3496 -0.4131
 6338SOL     OW21330   0.387   0.520   6.734  0.1108  0.1708  0.1233
 6338SOL    HW121331   0.318   0.517   6.668 -1.3337 -0.1152  1.5838
 6338SOL    HW221332   0.452   0.456   6.705 -1.1120 -0.8888 -0.3525
 6339SOL     OW21333   1.347   6.791   2.216  0.2998  0.5817 -0.5241
 6339SOL    HW121334   1.401   6.801   2.138 -1.1137 -0.7059 -1.7332
 6339SOL    HW221335   1.391   6.723   2.267  1.0472  1.1958 -0.3195
 6340SOL     OW21336   5.271   4.281   8.965  0.2562  0.5786  0.6760
 6340SOL    HW121337   5.205   4.344   8.936 -1.0344 -2.0139 -2.6768
 6340SOL    HW221338   5.224   4.221   9.024 -0.6409 -1.3946 -1.8791
 6341SOL     OW21339   6.112   2.820   5.757 -0.2562  0.2898 -0.0608
 6341SOL    HW121340   6.180   2.761   5.723 -0.3427 -1.4913  2.5760
 6341SOL    HW221341   6.030   2.779   5.733 -0.3454  0.4570 -0.0419
 6342SOL     OW21342   5.436   5.218   3.809 -0.0187  0.7728  0.1331
 6342SOL    HW121343   5.433   5.229   3.904  0.5582  2.5399 -0.0010
 6342SOL    HW221344   5.375   5.147   3.790 -0.1546  0.4100  1.8201
 6343SOL     OW21345   6.294   6.148   2.347  0.4627 -0.3070 -0.0057
 6343SOL    HW121346   6.306   6.243   2.353 -0.6293 -0.2223  1.0871
 6343SOL    HW221347   6.307   6.116   2.436 -1.2606 -0.9061  0.0697
 6344SOL     OW21348   5.602   1.839   0.956 -0.1443  0.4570 -0.1476
 6344SOL    HW121349   5.686   1.793   0.956 -1.0112 -1.2226  1.2709
 6344SOL    HW221350   5.572   1.835   1.047 -2.2448  0.1144 -0.8060
 6345SOL     OW21351   4.418   6.703   1.215  0.0661  0.2217 -0.7952
 6345SOL    HW121352   4.507   6.668   1.208  0.2614  0.8093 -1.3821
 6345SOL    HW221353   4.406   6.754   1.134 -0.5400  0.7358 -0.3885
 6346SOL     OW21354   5.628   1.150   5.672  0.0119  0.1584 -0.1839
 6346SOL    HW121355   5.570   1.189   5.737  0.8399  0.1449  0.5814
 6346SOL    HW221356   5.635   1.216   5.603 -0.4732  0.3803 -0.0234
 6347SOL     OW21357   2.226   4.686   7.855 -0.2180  0.2866 -0.1172
 6347SOL    HW121358   2.183   4.628   7.792 -0.7388  0.5881 -0.0383
 6347SOL    HW221359   2.269   4.626   7.916 -0.8611 -0.0214  0.0413
 6348SOL     OW21360   0.235   3.696   4.651 -0.5165  0.9763 -0.3487
 6348SOL    HW121361   0.317   3.662   4.688 -1.5333 -0.6372  0.5491
 6348SOL    HW221362   0.190   3.735   4.726 -1.6861 -0.4680 -0.2668
 6349SOL     OW21363   6.158   0.302   0.794 -0.3729 -0.1971  0.3192
 6349SOL    HW121364   6.220   0.372   0.778 -0.4505 -0.0960  0.4580
 6349SOL    HW221365   6.198   0.249   0.863 -0.3558 -0.2386  0.2779
 6350SOL     OW21366   4.357   4.854   9.266  0.4783  0.2236  0.1352
 6350SOL    HW121367   4.265   4.881   9.271  0.4138  0.2769 -1.0166
 6350SOL    HW221368   4.356   4.776   9.209  1.0389 -0.3213  0.8512
 6351SOL     OW21369   5.079   1.718   5.664 -0.2654  0.0366 -0.0462
 6351SOL    HW121370   5.024   1.698   5.739  0.1873  0.2054  0.3361
 6351SOL    HW221371   5.057   1.651   5.600 -0.5445 -0.2034  0.2967
 6352SOL     OW21372   1.322   5.869   9.181  0.2273 -0.5441 -0.2205
 6352SOL    HW121373   1.368   5.900   9.259 -0.7786 -0.0513  0.1960
 6352SOL    HW221374   1.324   5.944   9.122 -1.6583  0.1683  0.5429
 6353SOL     OW21375  10.241   0.581   7.981  0.5215  0.2071  0.0466
 6353SOL    HW121376  10.193   0.628   8.050  1.4899  0.9337  0.2425
 6353SOL    HW221377  10.193   0.601   7.901  0.1653  0.4537  0.3171
 6354SOL     OW21378   1.821   1.379   9.364  0.9345 -0.0222 -0.1751
 6354SOL    HW121379   1.741   1.327   9.373 -0.9212  2.9136  2.0422
 6354SOL    HW221380   1.796   1.453   9.309  1.8047  1.3959  1.2496
 6355SOL     OW21381   8.586   0.880   6.375  0.1004 -0.2651  0.7060
 6355SOL    HW121382   8.617   0.955   6.325 -0.8377  1.2733  2.3048
 6355SOL    HW221383   8.651   0.867   6.443  0.0275 -0.6157  0.7124
 6356SOL     OW21384   6.607  10.219   5.273  0.0254  0.5893  0.6120
 6356SOL    HW121385   6.539  10.214   5.206  0.6249 -0.0050  0.0357
 6356SOL    HW221386   6.607  10.132   5.313 -1.5146  1.4234  2.6060
 6357SOL     OW21387   5.556   1.442   4.721  0.2671 -0.1886  0.4466
 6357SOL    HW121388   5.499   1.373   4.754 -0.4632 -0.4840 -1.3472
 6357SOL    HW221389   5.623   1.452   4.789 -0.0845 -2.0617  1.1180
 6358SOL     OW21390   8.307   4.296   5.922  0.3036  0.2082 -0.0233
 6358SOL    HW121391   8.399   4.303   5.897  0.3852  1.4276  0.5590
 6358SOL    HW221392   8.305   4.320   6.015 -0.3769 -1.4893  0.4348
 6359SOL     OW21393   2.136   6.021   3.700  0.0290  0.4307 -0.0339
 6359SOL    HW121394   2.125   5.956   3.769 -1.1170 -0.1557 -0.7363
 6359SOL    HW221395   2.169   5.971   3.625 -0.7678  0.6600 -0.5481
 6360SOL     OW21396   7.147   7.942   7.107  0.1900 -0.6626  0.2612
 6360SOL    HW121397   7.232   7.921   7.144  0.7450  0.5862 -0.2426
 6360SOL    HW221398   7.127   8.030   7.141 -1.3011 -1.2692  1.0708
 6361SOL     OW21399   4.860   4.986   7.888  0.6602 -0.2867 -0.2824
 6361SOL    HW121400   4.800   5.048   7.846  0.8871  0.2584  0.1802
 6361SOL    HW221401   4.863   4.911   7.828 -1.0514 -0.6568  0.0345
 6362SOL     OW21402   8.121   7.140   4.402  0.4559 -0.3548 -0.0380
 6362SOL    HW121403   8.194   7.087   4.368 -0.8783 -2.0306 -0.4530
 6362SOL    HW221404   8.057   7.075   4.432 -1.0878  1.0468 -0.1641
 6363SOL     OW21405   9.803   1.026   2.186 -0.4671 -0.5701  0.2236
 6363SOL    HW121406   9.746   1.095   2.223 -1.2947 -1.2033  0.1590
 6363SOL    HW221407   9.879   1.025   2.244 -0.2909  0.6132  0.0447
 6364SOL     OW21408   6.638   7.221   0.023  0.2560  0.5377  0.5298
 6364SOL    HW121409   6.716   7.213   0.078  0.9638  1.4502 -0.3075
 6364SOL    HW221410   6.644   7.309  -0.015  0.2356 -0.3440 -1.6630
 6365SOL     OW21411   8.788   1.743   4.513 -0.5033  0.4840  0.1037
 6365SOL    HW121412   8.792   1.823   4.565 -3.7202  0.9146 -0.1422
 6365SOL    HW221413   8.812   1.674   4.574  0.5342  1.4235  0.8028
 6366SOL     OW21414   7.953   9.328   3.253  0.1005  0.8663  0.3767
 6366SOL    HW121415   7.887   9.370   3.197  0.2530  0.3071 -0.2271
 6366SOL    HW221416   8.013   9.287   3.192  2.0504  2.8552  0.8288
 6367SOL     OW21417   5.111   3.224   5.900  0.3008  0.0185 -0.0962
 6367SOL    HW121418   5.117   3.214   5.995  1.4723 -0.0522 -0.1640
 6367SOL    HW221419   5.017   3.228   5.883  0.0438  2.4675  1.3091
 6368SOL     OW21420   5.550   0.824   2.975  0.0399  0.0343  0.0480
 6368SOL    HW121421   5.524   0.915   2.992 -1.2243 -0.4934  1.0943
 6368SOL    HW221422   5.485   0.793   2.911 -0.0869 -0.3995  0.3889
 6369SOL     OW21423  10.084  10.557   8.230  0.5184  0.4677  0.6196
 6369SOL    HW121424  10.103  10.508   8.151  2.8915 -0.4984  1.6922
 6369SOL    HW221425  10.031  10.498   8.284 -2.4239  1.6658 -0.7119
 6370SOL     OW21426   7.548   7.710   1.629  0.2954 -0.4955  0.1588
 6370SOL    HW121427   7.467   7.721   1.679 -0.0190  0.1698 -0.4865
 6370SOL    HW221428   7.611   7.678   1.694 -0.6472 -1.7177  0.5364
 6371SOL     OW21429   4.327   8.620  10.084 -0.1578  0.7137 -0.7125
 6371SOL    HW121430   4.240   8.659  10.083 -0.6775 -0.3957 -0.3709
 6371SOL    HW221431   4.373   8.665  10.155 -0.4466  1.3009 -0.8933
 6372SOL     OW21432   8.681   2.383   5.292 -0.3915  0.3977  0.4039
 6372SOL    HW121433   8.757   2.377   5.234 -0.0120  1.3262  0.7891
 6372SOL    HW221434   8.608   2.403   5.234  0.0664  1.7909  0.2759
 6373SOL     OW21435   2.283   0.362   8.398  0.0606  0.2669  0.0816
 6373SOL    HW121436   2.219   0.293   8.411  0.0478  0.6542  2.4550
 6373SOL    HW221437   2.336   0.362   8.478  1.4518  1.5708 -0.7794
 6374SOL     OW21438   5.971   4.674   1.705 -0.2915 -0.6020  0.0495
 6374SOL    HW121439   5.996   4.602   1.646 -0.3648  0.9577 -1.9980
 6374SOL    HW221440   5.935   4.630   1.782  1.2651 -2.7762 -0.3660
 6375SOL     OW21441   2.409   6.921   7.986  0.2378  0.0641  0.3414
 6375SOL    HW121442   2.343   6.981   8.019  0.1606 -1.0595  2.4059
 6375SOL    HW221443   2.379   6.834   8.014  1.8174 -0.6212  0.0450
 6376SOL     OW21444   7.348   9.006   0.798 -0.2392 -0.0474 -0.3196
 6376SOL    HW121445   7.390   8.940   0.743  0.1127  0.4645 -0.6652
 6376SOL    HW221446   7.274   9.037   0.746 -0.3974 -0.1526 -0.1622
 6377SOL     OW21447  10.284   5.299   4.849  0.0495  0.1141 -0.1215
 6377SOL    HW121448  10.281   5.221   4.794  1.1983 -1.2647  1.6727
 6377SOL    HW221449  10.280   5.266   4.939 -0.0307  2.1659  0.6888
 6378SOL     OW21450   9.175   2.174   7.730  0.3273 -0.2263  0.1617
 6378SOL    HW121451   9.121   2.246   7.699  0.7529  0.7128  1.5372
 6378SOL    HW221452   9.117   2.122   7.787  0.6220  0.3062  0.9612
 6379SOL     OW21453   1.994   1.061   6.953 -0.5035  0.4671 -0.0715
 6379SOL    HW121454   2.032   1.149   6.949 -0.3999  0.3647 -2.7096
 6379SOL    HW221455   2.065   1.005   6.983 -0.6871  1.2780  2.0669
 6380SOL     OW21456   2.014   3.302   3.835 -0.4137 -0.1415 -0.1303
 6380SOL    HW121457   2.056   3.291   3.920 -2.6862  1.5714  1.3366
 6380SOL    HW221458   2.008   3.396   3.823 -2.2423 -0.3173 -1.0201
 6381SOL     OW21459   2.031   7.370   9.447  0.2173 -0.0583  0.0747
 6381SOL    HW121460   1.994   7.307   9.509 -0.4350  1.2358  1.0237
 6381SOL    HW221461   2.049   7.318   9.369 -1.3096 -1.2219  0.4563
 6382SOL     OW21462   5.145   3.396   8.965 -0.6081  0.0849 -0.4456
 6382SOL    HW121463   5.127   3.344   9.044  0.4847 -1.0225 -0.8867
 6382SOL    HW221464   5.062   3.396   8.917 -1.5590  1.5233  1.0710
 6383SOL     OW21465   4.716   4.570   2.675  0.0355 -0.2518  0.8176
 6383SOL    HW121466   4.756   4.535   2.754  0.8586 -4.4454 -1.1972
 6383SOL    HW221467   4.790   4.595   2.619 -0.4526  0.1547  0.3318
 6384SOL     OW21468   7.211   8.530  10.596  0.1583 -0.0788  0.2003
 6384SOL    HW121469   7.224   8.624  10.604  0.8754 -0.1590  0.0587
 6384SOL    HW221470   7.299   8.493  10.602 -0.3540 -1.0107  3.4249
 6385SOL     OW21471   7.376   2.692   8.650  0.1793  0.2779 -0.5795
 6385SOL    HW121472   7.386   2.607   8.694 -0.5447  0.3600 -0.2442
 6385SOL    HW221473   7.425   2.753   8.705 -1.7185  0.6139  0.8557
 6386SOL     OW21474   4.099   4.481   2.836 -0.1835 -0.2106 -0.1483
 6386SOL    HW121475   4.135   4.464   2.749 -0.6610 -1.4807 -0.1271
 6386SOL    HW221476   4.171   4.522   2.885 -0.2900  1.6643 -1.4694
 6387SOL     OW21477   5.275   4.656  10.448  0.1287 -0.3955 -0.9984
 6387SOL    HW121478   5.365   4.627  10.465  0.3098  0.3615 -0.6174
 6387SOL    HW221479   5.281   4.751  10.444 -0.8604 -0.2541  0.2636
 6388SOL     OW21480   2.256   4.120   1.102  0.5413 -0.2912  0.2770
 6388SOL    HW121481   2.181   4.098   1.157  0.3547  0.7968  0.4667
 6388SOL    HW221482   2.332   4.102   1.157  0.3367  1.6288  1.2332
 6389SOL     OW21483   5.847   3.489   2.422 -0.6050  0.2695  0.3058
 6389SOL    HW121484   5.783   3.457   2.486  0.3150 -1.5379  0.3765
 6389SOL    HW221485   5.812   3.461   2.338  0.4045 -1.3944  0.3977
 6390SOL     OW21486   3.645  10.419   3.542 -0.3179  0.5599 -0.2725
 6390SOL    HW121487   3.634  10.327   3.568  0.8942  0.6819  0.7804
 6390SOL    HW221488   3.556  10.453   3.535 -0.8076 -0.9029 -1.4725
 6391SOL     OW21489   6.125   7.038   3.353 -0.3801 -0.9230  0.1809
 6391SOL    HW121490   6.055   7.104   3.346 -0.4089 -0.8949  0.7603
 6391SOL    HW221491   6.191   7.078   3.410 -0.3830 -1.3834  0.5103
 6392SOL     OW21492   9.218  10.522   1.225  0.2057  0.3510 -0.3805
 6392SOL    HW121493   9.301  10.478   1.206 -0.2421 -0.3188 -0.8129
 6392SOL    HW221494   9.243  10.611   1.251  1.1316 -0.1501  0.5081
 6393SOL     OW21495   4.129   9.984   3.285 -0.3557  0.2218 -0.2652
 6393SOL    HW121496   4.052  10.041   3.289  0.2820  1.0490  0.8583
 6393SOL    HW221497   4.093   9.895   3.290 -1.1903  0.6130  1.1603
 6394SOL     OW21498   0.591   4.504   9.065  0.0327 -0.4272 -0.0820
 6394SOL    HW121499   0.622   4.591   9.087  0.7234 -0.6124 -0.2817
 6394SOL    HW221500   0.609   4.451   9.143  0.0826 -0.5003 -0.1421
 6395SOL     OW21501   7.558   3.067   1.137  0.1188  0.4537  0.5093
 6395SOL    HW121502   7.602   3.069   1.052 -0.5059  2.1432  0.1765
 6395SOL    HW221503   7.594   3.143   1.184 -1.6020  1.2115  0.6476
 6396SOL     OW21504   6.989   2.952  10.532  0.3450 -0.4070 -0.4051
 6396SOL    HW121505   6.977   2.944  10.626 -1.1907  0.8643 -0.4496
 6396SOL    HW221506   7.060   3.015  10.522 -0.0226  0.0582 -0.0952
 6397SOL     OW21507   3.991   5.522   3.923 -0.4013 -0.5086  0.6323
 6397SOL    HW121508   3.959   5.611   3.907 -0.4703 -0.6503 -0.0214
 6397SOL    HW221509   4.051   5.505   3.851  0.6294 -0.5095  1.4724
 6398SOL     OW21510   8.752   4.984   5.004 -0.1309 -0.0016 -0.1349
 6398SOL    HW121511   8.709   4.908   5.044  0.0288 -0.5018 -0.8910
 6398SOL    HW221512   8.823   4.947   4.953  0.8218  0.7779  0.5936
 6399SOL     OW21513   2.460   2.628   5.180 -0.1609 -0.0123 -0.2624
 6399SOL    HW121514   2.477   2.605   5.272 -2.0912 -1.3752 -0.1744
 6399SOL    HW221515   2.433   2.720   5.183  2.5595  0.8742  0.0888
 6400SOL     OW21516   6.867   0.370   7.772  1.0356  0.0765  0.9263
 6400SOL    HW121517   6.864   0.465   7.757 -2.3553 -0.0665 -0.3212
 6400SOL    HW221518   6.936   0.339   7.715  2.0529  1.7509  1.1675
 6401SOL     OW21519   3.806   9.982  10.428 -0.2207  0.1292 -0.7051
 6401SOL    HW121520   3.748  10.028  10.367 -0.1632  0.9136 -0.1815
 6401SOL    HW221521   3.759   9.902  10.451  0.1881 -0.6956 -2.5583
 6402SOL     OW21522   9.369   5.811   0.212 -0.2600 -0.6779 -0.4989
 6402SOL    HW121523   9.438   5.859   0.166  0.3531 -1.0159  0.0521
 6402SOL    HW221524   9.415   5.740   0.256 -1.0237 -1.1548 -0.4550
 6403SOL     OW21525   7.054   8.259   6.125 -0.0167 -0.6605  0.2074
 6403SOL    HW121526   6.959   8.271   6.118  0.0197  0.6819  1.5584
 6403SOL    HW221527   7.069   8.237   6.217  0.8886 -2.2445 -0.2774
 6404SOL     OW21528   0.845   7.828  10.123  0.2025  0.4449  0.6904
 6404SOL    HW121529   0.894   7.765  10.176  0.5897  0.1689  0.0164
 6404SOL    HW221530   0.911   7.868  10.066 -0.5022 -0.7885 -1.0702
 6405SOL     OW21531   6.456   2.658   7.322 -0.2654  0.5804 -0.0494
 6405SOL    HW121532   6.366   2.627   7.326 -0.5869  1.3124 -1.1325
 6405SOL    HW221533   6.478   2.679   7.413 -1.1742  0.3579  0.2302
 6406SOL     OW21534   5.277   6.512   7.371 -0.0085  0.2480  0.0122
 6406SOL    HW121535   5.333   6.477   7.440  1.4977  1.3989 -0.5790
 6406SOL    HW221536   5.192   6.472   7.387  0.0855  1.0048  2.9577
 6407SOL     OW21537   1.334   4.963   6.089  0.1296  0.6529 -0.4018
 6407SOL    HW121538   1.415   4.977   6.039 -0.1743 -2.0962 -1.8551
 6407SOL    HW221539   1.355   4.892   6.149 -1.3457 -0.5799 -1.2789
 6408SOL     OW21540   2.118   1.283   5.539  0.0201 -0.4152  0.2532
 6408SOL    HW121541   2.041   1.231   5.562 -0.1579 -1.8016 -2.9982
 6408SOL    HW221542   2.082   1.357   5.490  0.5055  1.3820  2.4733
 6409SOL     OW21543   9.245   2.494   9.550  0.3615  0.5505 -0.6903
 6409SOL    HW121544   9.208   2.568   9.598 -2.0494 -0.9144 -0.1077
 6409SOL    HW221545   9.324   2.529   9.509 -0.3683  3.2659  0.0083
 6410SOL     OW21546  10.008   4.814   1.900 -0.0700 -0.5195 -0.1347
 6410SOL    HW121547   9.941   4.846   1.962  1.1939  1.3012  0.3947
 6410SOL    HW221548  10.035   4.729   1.935  0.7328  0.5370  2.0055
 6411SOL     OW21549   5.230   8.667   1.791  0.1022  0.0380  0.0790
 6411SOL    HW121550   5.150   8.703   1.831  0.1068 -0.7345  0.7998
 6411SOL    HW221551   5.230   8.704   1.702 -0.2818  1.2169  0.5426
 6412SOL     OW21552   2.104   1.204   0.662  0.3962  0.6910 -0.3233
 6412SOL    HW121553   2.155   1.254   0.599  1.1660  0.3219 -0.0084
 6412SOL    HW221554   2.047   1.149   0.608  1.0163  0.4079 -0.7002
 6413SOL     OW21555   8.403  10.517   4.612  0.3286  0.2260 -0.1659
 6413SOL    HW121556   8.410  10.425   4.588  0.0668  0.0004  0.5999
 6413SOL    HW221557   8.483  10.534   4.662  0.5693  0.5278 -0.6421
 6414SOL     OW21558   1.540   2.476   8.120  0.2461  0.3375  0.1153
 6414SOL    HW121559   1.545   2.384   8.145 -2.8537  0.2831  0.8936
 6414SOL    HW221560   1.550   2.524   8.203  1.8383  0.7638 -0.2845
 6415SOL     OW21561   7.570   8.731   7.897  0.2080 -0.0126  0.2859
 6415SOL    HW121562   7.592   8.702   7.808 -2.2474  1.6161 -0.9751
 6415SOL    HW221563   7.636   8.797   7.918  0.5343 -0.0568 -0.5483
 6416SOL     OW21564   2.647   2.708   5.907 -0.3264  0.2463  0.6378
 6416SOL    HW121565   2.653   2.614   5.889 -0.4196  0.1493  1.0956
 6416SOL    HW221566   2.712   2.723   5.975 -0.3049  0.5164  0.5562
 6417SOL     OW21567   6.147   1.732   8.478  0.1409 -0.9966  0.2135
 6417SOL    HW121568   6.218   1.788   8.449 -0.4114 -0.3208  0.1265
 6417SOL    HW221569   6.187   1.646   8.491  1.2502 -0.3173  1.4816
 6418SOL     OW21570   3.604   5.046  10.354 -0.0108  0.4295 -0.4260
 6418SOL    HW121571   3.583   5.038  10.261 -1.1322  0.0036 -0.1635
 6418SOL    HW221572   3.539   5.107  10.388 -2.6627 -2.7740  0.8999
 6419SOL     OW21573   7.150   9.209   1.135  0.4430 -0.6699 -0.0065
 6419SOL    HW121574   7.136   9.145   1.205  1.2461  0.5740  1.3527
 6419SOL    HW221575   7.093   9.283   1.157 -0.0750 -0.6744 -1.2567
 6420SOL     OW21576  10.206   3.998  10.484 -0.0467  0.5715  0.0913
 6420SOL    HW121577  10.191   4.093  10.490  1.7423  1.1185 -2.2603
 6420SOL    HW221578  10.146   3.969  10.415  0.7696  0.3983 -0.5592
 6421SOL     OW21579   8.234   5.305   0.637 -0.3781  0.0374  0.2301
 6421SOL    HW121580   8.286   5.265   0.567  1.2654  3.8966 -1.0293
 6421SOL    HW221581   8.284   5.288   0.717 -0.0421 -0.7911 -0.1378
 6422SOL     OW21582   7.977   7.399   2.647 -0.1784 -0.2652  0.0111
 6422SOL    HW121583   7.906   7.386   2.711 -1.4638  0.5571 -1.1955
 6422SOL    HW221584   8.045   7.444   2.696 -0.8985 -0.1727  0.9615
 6423SOL     OW21585   8.159   8.288   8.864  0.2137  0.4768  0.1627
 6423SOL    HW121586   8.247   8.292   8.902  0.5319 -1.4384 -0.2934
 6423SOL    HW221587   8.173   8.309   8.771 -0.1919  2.5177  0.5115
 6424SOL     OW21588   2.797   2.471   4.290  0.3743  0.8001 -0.0572
 6424SOL    HW121589   2.713   2.509   4.265  0.0387  0.5129  0.6068
 6424SOL    HW221590   2.862   2.537   4.266 -0.0924  1.2671 -0.0435
 6425SOL     OW21591   1.568   9.452   2.999 -0.2572  0.4759  0.9568
 6425SOL    HW121592   1.648   9.434   2.948  0.2759  3.3132  0.6624
 6425SOL    HW221593   1.498   9.448   2.935 -0.1441 -0.1612  0.8583
 6426SOL     OW21594   0.815   7.174   6.881 -0.2103 -0.1562  0.5021
 6426SOL    HW121595   0.720   7.164   6.875 -0.1174 -0.4133 -0.6927
 6426SOL    HW221596   0.838   7.231   6.807  0.9288 -2.7926 -1.3064
 6427SOL     OW21597   0.261   1.639   3.716 -0.3776 -0.1656 -0.0844
 6427SOL    HW121598   0.235   1.683   3.798 -3.0445 -0.2271 -0.7876
 6427SOL    HW221599   0.272   1.547   3.741 -0.5219 -0.0719  0.3358
 6428SOL     OW21600   2.289   4.706   6.344  0.2251  0.7798 -0.7229
 6428SOL    HW121601   2.275   4.791   6.386  1.4358 -0.0933  1.6256
 6428SOL    HW221602   2.201   4.676   6.321 -0.2445  2.4940 -1.2670
 6429SOL     OW21603   7.896   0.483  10.373  0.0206 -0.1763 -0.1279
 6429SOL    HW121604   7.826   0.547  10.384  0.9535  0.6523  1.1827
 6429SOL    HW221605   7.918   0.455  10.461 -0.1617 -2.1264 -0.6524
 6430SOL     OW21606   8.783   4.180   9.397 -0.4305 -0.0615 -0.3073
 6430SOL    HW121607   8.805   4.220   9.312 -0.6864  1.1027  0.1451
 6430SOL    HW221608   8.841   4.105   9.404  0.5944  0.6423 -0.9003
 6431SOL     OW21609   4.682   5.080   1.378  0.0609  0.3674  0.3357
 6431SOL    HW121610   4.758   5.121   1.338 -0.8983  1.2362 -0.6564
 6431SOL    HW221611   4.673   4.997   1.331  1.5372 -0.6784  1.8106
 6432SOL     OW21612   3.225   2.432   3.085 -0.4443 -0.3932  0.1505
 6432SOL    HW121613   3.159   2.426   3.155  0.4458 -0.5978  1.0004
 6432SOL    HW221614   3.196   2.369   3.020 -0.6109 -1.1576  0.9428
 6433SOL     OW21615   6.960   5.778  10.362  0.0560  0.0315  0.0566
 6433SOL    HW121616   6.917   5.709  10.413  0.9443 -0.9283 -0.4675
 6433SOL    HW221617   6.896   5.802  10.295  0.0959 -0.9807 -0.3601
 6434SOL     OW21618   5.827   6.021   6.151 -0.2289  0.1349 -0.2933
 6434SOL    HW121619   5.770   6.045   6.224 -0.8850  0.4722 -0.9041
 6434SOL    HW221620   5.901   5.976   6.192 -0.7249  0.0674  0.5510
 6435SOL     OW21621   0.598   4.790   4.178 -0.0539  0.2897  0.1794
 6435SOL    HW121622   0.595   4.806   4.272 -0.0385  0.4543  0.1513
 6435SOL    HW221623   0.675   4.734   4.166 -1.7204 -2.2502  0.6460
 6436SOL     OW21624   4.683   5.214  10.503 -0.1347 -0.1377  0.1764
 6436SOL    HW121625   4.683   5.165  10.421  0.3795 -0.6389  0.4755
 6436SOL    HW221626   4.684   5.147  10.571  1.5335  0.2769  0.5893
 6437SOL     OW21627   6.879   2.432  10.205  0.0753  0.7729 -0.2052
 6437SOL    HW121628   6.948   2.421  10.141 -0.1303  1.3488 -0.5306
 6437SOL    HW221629   6.920   2.410  10.289 -0.0963 -1.6825 -0.6895
 6438SOL     OW21630   4.573   5.894   3.731  0.5406 -0.0691 -0.0165
 6438SOL    HW121631   4.602   5.983   3.712  0.3175 -0.1271 -0.6452
 6438SOL    HW221632   4.477   5.898   3.728  0.4730 -0.0461  1.2980
 6439SOL     OW21633   2.992   4.768   1.925  0.4069  0.2851 -0.2926
 6439SOL    HW121634   2.976   4.675   1.936  1.3825 -0.0031 -1.1570
 6439SOL    HW221635   3.077   4.783   1.966  1.4607  0.2694 -2.3542
 6440SOL     OW21636   2.528   0.658   3.332 -0.6756  0.1166 -0.6019
 6440SOL    HW121637   2.548   0.564   3.334  2.0774  0.6176 -0.7656
 6440SOL    HW221638   2.470   0.672   3.408 -0.1259 -1.5192  0.1616
 6441SOL     OW21639   9.186  10.280   0.726 -0.0201  0.1534  0.2288
 6441SOL    HW121640   9.222  10.362   0.759  0.3789  1.0134 -2.1387
 6441SOL    HW221641   9.253  10.215   0.746  1.1825  1.0409 -0.7308
 6442SOL     OW21642   2.530   5.740   7.602 -0.0923  0.1591  0.1019
 6442SOL    HW121643   2.559   5.831   7.602 -0.2809  0.2237 -0.5709
 6442SOL    HW221644   2.570   5.702   7.525 -0.5336 -0.1604  0.0258
 6443SOL     OW21645   7.629   5.010   1.559  0.5120 -0.4785  0.5207
 6443SOL    HW121646   7.542   4.991   1.524  0.4423 -0.2337  0.5584
 6443SOL    HW221647   7.662   5.082   1.506  1.1537 -1.2900 -0.2163
 6444SOL     OW21648   2.024   6.374   1.492  0.1572  0.1452 -0.8343
 6444SOL    HW121649   1.992   6.432   1.561 -0.9617 -0.4557 -0.8254
 6444SOL    HW221650   1.949   6.364   1.433  1.1016  0.6900 -2.1852
 6445SOL     OW21651   1.479   1.049   4.367  0.2679 -0.5711 -0.7080
 6445SOL    HW121652   1.409   1.055   4.302 -0.0682 -0.7589 -0.3679
 6445SOL    HW221653   1.532   1.127   4.353  0.6895 -1.0289 -1.7703
 6446SOL     OW21654   4.556   8.115   1.165 -0.3793  0.8884 -0.1191
 6446SOL    HW121655   4.588   8.064   1.239  0.1018  1.0940 -0.1746
 6446SOL    HW221656   4.636   8.138   1.116 -0.5770  1.7050 -0.0785
 6447SOL     OW21657   4.530   7.064   5.296 -0.0233  0.0724  0.2643
 6447SOL    HW121658   4.435   7.069   5.289 -0.0397  1.9485  1.1779
 6447SOL    HW221659   4.548   7.067   5.390  0.9360 -0.4776  0.1140
 6448SOL     OW21660  10.161   7.422   7.660 -0.1651 -0.7498  0.4216
 6448SOL    HW121661  10.137   7.356   7.725 -1.7854 -0.7463 -0.1166
 6448SOL    HW221662  10.173   7.372   7.579 -2.8724 -0.3361 -0.3499
 6449SOL     OW21663   1.033   1.350   5.401  0.1563 -0.1745 -0.3419
 6449SOL    HW121664   1.096   1.291   5.443  0.5077  0.2597 -0.2548
 6449SOL    HW221665   0.954   1.340   5.453  0.5776  0.3376  0.4226
 6450SOL     OW21666   8.854   0.927   8.096  0.1862 -0.3264 -0.3267
 6450SOL    HW121667   8.782   0.898   8.153 -2.1183  2.2409 -1.7319
 6450SOL    HW221668   8.811   0.978   8.027  3.4335  2.2740 -0.6529
 6451SOL     OW21669   6.658   8.253   7.772 -0.0138  0.5538  0.3078
 6451SOL    HW121670   6.607   8.181   7.735  2.4009 -2.6787  2.7017
 6451SOL    HW221671   6.595   8.302   7.825 -1.4280 -0.7381 -0.1060
 6452SOL     OW21672   2.760   0.740   7.492 -0.4430 -0.3991  0.1169
 6452SOL    HW121673   2.736   0.696   7.411 -2.3208 -0.0462  0.4387
 6452SOL    HW221674   2.800   0.822   7.464  0.0324 -0.8148 -0.4426
 6453SOL     OW21675   7.665   7.859   7.050 -0.8859  0.0091 -0.2473
 6453SOL    HW121676   7.615   7.940   7.055  0.7977  1.0685  0.7785
 6453SOL    HW221677   7.698   7.857   6.960 -0.8819  0.5289 -0.2653
 6454SOL     OW21678   9.947   5.527   2.515  0.0178  0.2236 -0.2849
 6454SOL    HW121679   9.873   5.534   2.454  0.4068 -1.7772 -1.0769
 6454SOL    HW221680  10.000   5.455   2.481  1.7958  0.9164  0.8589
 6455SOL     OW21681   1.697   0.909   6.358 -0.6258 -0.3280 -0.1492
 6455SOL    HW121682   1.632   0.885   6.293 -0.7439  0.9199 -0.5033
 6455SOL    HW221683   1.673   0.997   6.387 -0.4577 -0.7680  1.4429
 6456SOL     OW21684   1.608   6.184   2.688 -0.4713 -0.6688  0.0819
 6456SOL    HW121685   1.668   6.220   2.754 -2.7320  2.1726  0.8186
 6456SOL    HW221686   1.524   6.175   2.735 -1.3161 -1.8668 -1.5609
 6457SOL     OW21687   7.344   9.739   5.024 -0.3199  0.2175  0.3239
 6457SOL    HW121688   7.352   9.718   5.117 -1.0624  0.7109  0.5068
 6457SOL    HW221689   7.347   9.654   4.980 -0.8210 -0.0908  0.8683
 6458SOL     OW21690   5.884   3.069   4.218  0.7879  0.1480 -0.2455
 6458SOL    HW121691   5.943   3.011   4.265 -0.6296 -1.7142 -0.6537
 6458SOL    HW221692   5.822   3.011   4.174 -1.0664  1.9762 -0.2371
 6459SOL     OW21693   8.089   4.426   6.496 -0.0406  0.0431 -0.3323
 6459SOL    HW121694   8.057   4.433   6.586 -0.6936 -1.2806 -0.4457
 6459SOL    HW221695   8.093   4.332   6.479  2.1014  0.1966 -0.9797
 6460SOL     OW21696   7.174   6.398   5.417 -0.3523 -0.2489  0.1602
 6460SOL    HW121697   7.187   6.326   5.355  3.0286  0.2965  0.0512
 6460SOL    HW221698   7.245   6.458   5.398 -1.7839  2.0778  1.7499
 6461SOL     OW21699   8.263   0.486   0.215  0.5676  0.4214  0.3483
 6461SOL    HW121700   8.194   0.544   0.183 -0.6482 -0.7754  0.6900
 6461SOL    HW221701   8.265   0.501   0.309 -1.1308 -1.4181  0.7462
 6462SOL     OW21702   7.887   6.073   4.345 -0.1261 -0.3607  0.7262
 6462SOL    HW121703   7.875   5.986   4.384  1.2575 -2.6902 -3.4753
 6462SOL    HW221704   7.840   6.070   4.262  1.6327  2.1793 -0.5071
 6463SOL     OW21705   2.588   0.848   4.450 -0.2786  0.1585 -0.6348
 6463SOL    HW121706   2.511   0.887   4.408 -0.6951 -0.3964 -0.4046
 6463SOL    HW221707   2.648   0.921   4.462 -0.9979  0.7141 -0.3171
 6464SOL     OW21708   4.472   7.260   4.482 -0.1560  0.2867 -0.2819
 6464SOL    HW121709   4.378   7.281   4.485 -0.4619 -0.7844 -1.4517
 6464SOL    HW221710   4.492   7.254   4.389  0.7200 -0.9503 -0.0367
 6465SOL     OW21711   0.824   4.619   1.093 -0.6342  0.4077 -0.4306
 6465SOL    HW121712   0.860   4.697   1.136  0.7156  0.3241 -1.3202
 6465SOL    HW221713   0.870   4.616   1.009  0.1314 -1.9481  0.0102
 6466SOL     OW21714   2.132   3.499   7.714  0.4792  0.0052 -0.1313
 6466SOL    HW121715   2.222   3.528   7.729  0.3030  0.4206  0.1599
 6466SOL    HW221716   2.124   3.495   7.618  0.6159  0.5945 -0.1720
 6467SOL     OW21717   7.425   9.241   5.045 -0.1958 -0.4268  0.5392
 6467SOL    HW121718   7.515   9.231   5.076 -0.0305  1.3939  0.7812
 6467SOL    HW221719   7.375   9.265   5.123 -0.6924 -0.4498  0.2336
 6468SOL     OW21720   8.840   4.820  10.245 -0.0941  0.3537 -0.2356
 6468SOL    HW121721   8.789   4.886  10.198 -1.5245  0.3953  1.2875
 6468SOL    HW221722   8.927   4.859  10.253  0.9455 -0.5512 -4.6172
 6469SOL     OW21723   7.086   5.396   5.139 -0.2798 -0.4594 -0.0096
 6469SOL    HW121724   7.175   5.367   5.120 -0.2664 -0.3855 -0.0579
 6469SOL    HW221725   7.040   5.316   5.163 -0.2637 -0.5361 -0.2266
 6470SOL     OW21726   5.404  10.302   2.492  0.3270 -0.0241 -0.6297
 6470SOL    HW121727   5.389  10.233   2.557  2.1803  0.8999  0.8664
 6470SOL    HW221728   5.343  10.372   2.517  0.6472  0.1084 -0.2031
 6471SOL     OW21729   3.896   0.137  10.500  0.6888 -0.0983 -0.4744
 6471SOL    HW121730   3.816   0.140  10.447  0.6322  0.0842 -0.3813
 6471SOL    HW221731   3.948   0.066  10.462  0.5988 -0.0422 -0.7045
 6472SOL     OW21732   4.876   3.264   6.307 -0.0517 -0.1940 -0.3755
 6472SOL    HW121733   4.944   3.201   6.284 -1.6037 -2.4364  0.8479
 6472SOL    HW221734   4.795   3.214   6.302 -1.3720  1.7449  0.6219
 6473SOL     OW21735   0.824   6.926   4.862 -0.0440 -0.1562 -0.0016
 6473SOL    HW121736   0.907   6.960   4.893 -0.3778  0.8424 -0.1623
 6473SOL    HW221737   0.801   6.857   4.924  0.3970  0.2665  0.6434
 6474SOL     OW21738   2.559   1.701   9.383 -0.0669  0.4103  0.3437
 6474SOL    HW121739   2.501   1.768   9.420  0.0628  0.2103  0.9135
 6474SOL    HW221740   2.595   1.742   9.304  2.0178  2.0405  2.0117
 6475SOL     OW21741   8.310   9.325   0.644 -0.0462 -0.5773 -0.2079
 6475SOL    HW121742   8.287   9.341   0.552 -0.2258  0.6573  0.0362
 6475SOL    HW221743   8.253   9.383   0.694  1.3591  0.2050  0.5667
 6476SOL     OW21744   9.886   5.607   5.910 -0.2383 -0.3932  0.2193
 6476SOL    HW121745   9.975   5.571   5.905 -0.0231  0.0845  0.4759
 6476SOL    HW221746   9.892   5.673   5.979 -0.7973 -0.3639  0.2391
 6477SOL     OW21747   1.064   9.010   6.716 -0.0946  0.3874 -0.3091
 6477SOL    HW121748   1.086   9.098   6.747  0.1698  0.5059 -0.8175
 6477SOL    HW221749   1.125   8.952   6.760  0.9749  0.6646 -1.3613
 6478SOL     OW21750   3.736   3.838   2.264  0.2098  0.0785  0.4471
 6478SOL    HW121751   3.740   3.746   2.236  0.2207  0.5477 -1.2036
 6478SOL    HW221752   3.648   3.867   2.240 -0.1317  0.2668  1.8300
 6479SOL     OW21753   3.184   7.457   7.589 -0.4204  0.0941  0.2968
 6479SOL    HW121754   3.271   7.424   7.568 -0.0050  0.4165  1.4809
 6479SOL    HW221755   3.188   7.480   7.681 -2.1754 -1.1555  0.7293
 6480SOL     OW21756   0.195   2.988   6.244 -0.3355  0.0259  0.0302
 6480SOL    HW121757   0.162   2.964   6.330 -0.9116  1.0602  0.1213
 6480SOL    HW221758   0.116   3.010   6.193 -0.0516 -1.1365 -0.9543
 6481SOL     OW21759   1.028   9.099   3.807 -0.0816 -0.1135  0.3370
 6481SOL    HW121760   1.013   9.163   3.877 -0.9836 -0.8354  0.8206
 6481SOL    HW221761   1.082   9.032   3.848  0.3125  0.0051  0.0165
 6482SOL     OW21762   7.403   4.060   4.844  0.4259  0.0455  0.3433
 6482SOL    HW121763   7.436   3.994   4.783 -0.5677  2.7243 -3.4503
 6482SOL    HW221764   7.312   4.033   4.861  0.1653  0.1568 -0.8153
 6483SOL     OW21765   3.696   2.507   8.457  0.4141 -0.2110 -0.2745
 6483SOL    HW121766   3.630   2.461   8.406  1.5365 -0.5249 -1.5099
 6483SOL    HW221767   3.707   2.453   8.536  0.1678 -0.8967 -0.6993
 6484SOL     OW21768   1.505   9.076   4.900  0.1461 -0.1567  0.1128
 6484SOL    HW121769   1.543   9.084   4.987  0.4765  1.7057 -0.1749
 6484SOL    HW221770   1.428   9.133   4.902 -0.6713 -1.2104 -0.3849
 6485SOL     OW21771   3.418   8.224   0.054  0.4307  0.7012 -0.2460
 6485SOL    HW121772   3.398   8.220  -0.040  1.1175  1.1526 -0.4287
 6485SOL    HW221773   3.352   8.169   0.096  0.4540  0.0424 -1.0500
 6486SOL     OW21774   6.618   9.515   4.022  0.0598 -0.2646  0.0308
 6486SOL    HW121775   6.560   9.465   3.964 -0.3320 -1.5244  1.4586
 6486SOL    HW221776   6.706   9.484   4.000  0.1432  0.8672 -1.3848
 6487SOL     OW21777   0.872   4.274   0.216 -0.1756 -0.2989  0.3730
 6487SOL    HW121778   0.834   4.204   0.270 -1.0738 -1.0886 -1.2374
 6487SOL    HW221779   0.894   4.231   0.133 -0.7724  1.3270 -0.6615
 6488SOL     OW21780  10.271   5.868   2.009 -0.2071 -0.1537 -0.3898
 6488SOL    HW121781  10.285   5.796   2.072 -0.3785 -0.9848 -1.2775
 6488SOL    HW221782  10.242   5.941   2.063  2.2656 -0.0060  0.8507
 6489SOL     OW21783   7.073   6.588   9.820 -0.0476 -0.1338 -0.6172
 6489SOL    HW121784   7.162   6.591   9.856 -0.6831  0.1695  1.0430
 6489SOL    HW221785   7.046   6.497   9.831  0.2451 -0.3548 -1.6487
 6490SOL     OW21786   7.509   6.862   6.389 -0.2951  0.1067 -0.3398
 6490SOL    HW121787   7.478   6.879   6.300  0.8352  2.8331 -0.3209
 6490SOL    HW221788   7.595   6.822   6.377 -0.4048 -0.1023 -0.4473
 6491SOL     OW21789   9.657   1.660   2.195 -0.0946  0.1337 -0.5660
 6491SOL    HW121790   9.713   1.587   2.167 -0.5064 -0.5820  0.4085
 6491SOL    HW221791   9.568   1.631   2.175 -0.1805  1.0432 -1.6136
 6492SOL     OW21792  10.332   3.423   4.597  0.2024 -0.0902  1.0465
 6492SOL    HW121793  10.366   3.474   4.670  0.1548  1.4294  0.0437
 6492SOL    HW221794  10.409   3.404   4.543 -0.3006  3.0126 -1.0159
 6493SOL     OW21795   6.000   9.820   6.968 -0.0796 -0.5087  0.5652
 6493SOL    HW121796   6.050   9.740   6.949 -1.0000 -1.0578  0.4369
 6493SOL    HW221797   5.946   9.834   6.891  0.1813  0.3265  0.5291
 6494SOL     OW21798   0.996   5.962   4.899  0.5089 -0.5863  0.4976
 6494SOL    HW121799   1.051   5.905   4.845 -0.2735 -1.3923  0.5191
 6494SOL    HW221800   1.027   6.050   4.880  1.9161 -1.0176  0.6341
 6495SOL     OW21801  10.447   2.664   3.646 -0.2187 -0.2655  0.5337
 6495SOL    HW121802  10.430   2.753   3.676  0.3463 -0.4474  1.4175
 6495SOL    HW221803  10.392   2.609   3.701  1.7486 -0.7086  2.1923
 6496SOL     OW21804   6.107   3.979   5.860  0.0840  0.3258 -0.3767
 6496SOL    HW121805   6.058   3.980   5.778 -0.2957 -0.5959 -0.1796
 6496SOL    HW221806   6.096   4.067   5.895 -0.6146  0.4313 -0.8218
 6497SOL     OW21807   9.062   6.165   8.380  0.4490 -0.1712  0.0054
 6497SOL    HW121808   9.054   6.249   8.333  0.1577 -0.8519 -1.2083
 6497SOL    HW221809   9.100   6.189   8.464  0.0181  1.2359 -0.1632
 6498SOL     OW21810   0.523  10.010   1.137 -0.1229  0.3811  0.0112
 6498SOL    HW121811   0.429  10.012   1.118 -0.1400 -1.0283 -0.1968
 6498SOL    HW221812   0.533   9.935   1.195  0.9525  0.1744 -0.4199
 6499SOL     OW21813   7.163   3.723   5.596  0.4873 -0.2243  0.1211
 6499SOL    HW121814   7.156   3.814   5.625  0.2299 -0.6776  1.5862
 6499SOL    HW221815   7.077   3.703   5.558 -0.0297 -0.3279  1.3036
 6500SOL     OW21816   4.916   1.752   3.724  0.4070 -0.7297 -0.1247
 6500SOL    HW121817   4.940   1.723   3.635  1.4330  0.9726 -0.4562
 6500SOL    HW221818   4.868   1.833   3.710  0.5041 -0.4952  0.8786
 6501SOL     OW21819   0.893   7.179   8.270  0.0707  0.3134 -0.5102
 6501SOL    HW121820   0.970   7.217   8.312  0.3332  1.7211 -2.1758
 6501SOL    HW221821   0.925   7.097   8.231  0.1653 -0.2420  0.6756
 6502SOL     OW21822   4.936   9.969   1.369  0.4899 -0.2880 -0.1616
 6502SOL    HW121823   5.014   9.923   1.340 -0.0432 -1.1643 -0.2327
 6502SOL    HW221824   4.933   9.956   1.464  0.8411  0.4019 -0.0485
 6503SOL     OW21825   0.043   9.103   9.127 -0.2746  0.0262 -0.2672
 6503SOL    HW121826   0.116   9.125   9.068 -0.1125  0.1190 -0.0357
 6503SOL    HW221827   0.080   9.037   9.186 -0.9856 -1.4994 -1.4550
 6504SOL     OW21828   6.570   9.343   2.237  0.0078 -0.0269 -0.2062
 6504SOL    HW121829   6.493   9.341   2.180 -1.7437  1.2109  1.9464
 6504SOL    HW221830   6.623   9.416   2.204 -0.5954  0.1811 -0.7310
 6505SOL     OW21831   0.779   3.895   8.980  0.2915  0.4163 -0.9330
 6505SOL    HW121832   0.762   3.812   9.025 -0.9970  0.0555 -1.9984
 6505SOL    HW221833   0.765   3.962   9.046 -1.8767 -0.0785 -0.8056
 6506SOL     OW21834   1.317   2.904   0.996 -0.2072  0.2813 -0.2013
 6506SOL    HW121835   1.321   2.998   1.012  1.5566  0.3490 -0.7923
 6506SOL    HW221836   1.234   2.891   0.949 -0.4422  1.5342 -0.1561
 6507SOL     OW21837   3.089   4.898   5.042  0.6233  0.2274 -0.7171
 6507SOL    HW121838   3.082   4.958   5.117  0.5848 -1.5340  0.7691
 6507SOL    HW221839   3.042   4.942   4.971 -0.6876  1.3032  0.7478
 6508SOL     OW21840   7.614  10.335   4.668  0.3282  0.5849 -0.4058
 6508SOL    HW121841   7.551  10.380   4.611 -2.1175  1.2392  2.5101
 6508SOL    HW221842   7.597  10.242   4.654  0.4031  0.7123 -1.3788
 6509SOL     OW21843   5.484   0.402   2.657  0.2354 -0.3062  0.5943
 6509SOL    HW121844   5.509   0.485   2.617 -1.2525 -0.8990 -1.7372
 6509SOL    HW221845   5.553   0.385   2.721  1.8013  1.5772 -0.4785
 6510SOL     OW21846   1.184   6.311   0.943  0.1706 -0.1748 -0.0178
 6510SOL    HW121847   1.096   6.283   0.971  0.3412 -0.2878  0.4167
 6510SOL    HW221848   1.175   6.329   0.850 -0.0450 -1.3135 -0.2361
 6511SOL     OW21849   5.853   6.615   2.271  0.4509  0.0159 -0.2255
 6511SOL    HW121850   5.836   6.570   2.354 -1.3166 -1.8349 -1.4851
 6511SOL    HW221851   5.946   6.636   2.274  0.0656  1.9691  3.0729
 6512SOL     OW21852   9.468   3.781   0.019 -0.0345 -0.0957 -0.1068
 6512SOL    HW121853   9.474   3.711   0.084  0.2823  0.0301  0.0042
 6512SOL    HW221854   9.458   3.861   0.070  0.7421  0.0614 -0.1867
 6513SOL     OW21855   7.006   3.543   8.949  0.3470 -0.4813  0.3748
 6513SOL    HW121856   6.922   3.516   8.985  0.7332 -1.3287  0.6588
 6513SOL    HW221857   7.053   3.461   8.932  0.9061 -0.0374 -0.2862
 6514SOL     OW21858   6.028   9.986   0.956  0.2883 -0.0426  0.2277
 6514SOL    HW121859   6.070  10.071   0.967  1.0035 -0.3768  0.1573
 6514SOL    HW221860   6.072   9.930   1.021  0.5259 -0.6022 -0.4038
 6515SOL     OW21861   4.181   9.931   6.990  0.3075  0.3185  0.1604
 6515SOL    HW121862   4.091   9.951   6.963 -0.0498 -0.3734  0.8139
 6515SOL    HW221863   4.219  10.017   7.008 -0.3964  0.5930  0.4145
 6516SOL     OW21864   7.943   6.449   2.732  0.3424 -0.0794 -0.6292
 6516SOL    HW121865   7.909   6.398   2.658 -1.0284 -2.2265  1.3338
 6516SOL    HW221866   7.875   6.513   2.750 -1.1312 -1.9697  0.9789
 6517SOL     OW21867   7.361   9.758   8.863 -0.0655 -0.4898 -0.8989
 6517SOL    HW121868   7.439   9.705   8.845  0.4623  0.6689 -2.2386
 6517SOL    HW221869   7.325   9.777   8.776 -1.2598 -0.1252 -0.3510
 6518SOL     OW21870   1.452   9.059   1.125  0.3794 -0.2752  0.4088
 6518SOL    HW121871   1.506   8.984   1.150  1.1076  0.3729  0.8145
 6518SOL    HW221872   1.415   9.034   1.040 -0.6814 -1.7561  1.2441
 6519SOL     OW21873   2.016   6.458   2.515  0.2034 -0.2061  0.0158
 6519SOL    HW121874   2.046   6.534   2.565 -0.0325 -0.0354 -0.1020
 6519SOL    HW221875   1.937   6.488   2.472 -0.0978 -0.6341  0.2673
 6520SOL     OW21876   8.818   8.225   1.681 -0.0345  0.3713 -0.4314
 6520SOL    HW121877   8.750   8.219   1.613  1.2809  0.1531 -1.7685
 6520SOL    HW221878   8.842   8.134   1.699  0.7884  0.4933 -0.8906
 6521SOL     OW21879   5.328   8.992   9.025 -0.5088 -0.7728 -0.6632
 6521SOL    HW121880   5.275   9.004   8.947 -2.2458  1.2121  0.7158
 6521SOL    HW221881   5.411   9.036   9.005 -1.3943  0.8076 -0.9785
 6522SOL     OW21882   1.684   1.447   6.302  0.4183 -0.1421  0.3889
 6522SOL    HW121883   1.690   1.450   6.397 -0.5791  0.3302  0.4446
 6522SOL    HW221884   1.647   1.531   6.277 -2.0390 -1.2861 -0.1650
 6523SOL     OW21885   0.986   5.347   7.023 -0.1132 -0.1873  0.0637
 6523SOL    HW121886   0.923   5.419   7.025 -0.1078 -0.1954  0.6054
 6523SOL    HW221887   1.054   5.376   6.962 -1.7687 -1.1287 -2.3899
 6524SOL     OW21888   5.811   9.076   8.216  0.1036  0.4249 -0.0068
 6524SOL    HW121889   5.874   9.021   8.264 -0.2242 -1.5314 -1.7030
 6524SOL    HW221890   5.747   9.101   8.282  1.1116  0.0762  1.1504
 6525SOL     OW21891   7.759   1.978   1.153 -0.1087 -0.2832 -0.3353
 6525SOL    HW121892   7.748   1.939   1.067 -0.7293  1.6714 -1.1959
 6525SOL    HW221893   7.683   1.948   1.203  0.1640 -1.2799 -0.4887
 6526SOL     OW21894   4.345   5.400   9.803  0.3629  0.6743 -0.8986
 6526SOL    HW121895   4.259   5.370   9.831  0.8202  1.6768  1.9668
 6526SOL    HW221896   4.356   5.364   9.715 -1.8169 -1.7809 -0.2951
 6527SOL     OW21897   4.734   9.659   3.518 -0.2573 -0.3357  0.1182
 6527SOL    HW121898   4.655   9.699   3.482  0.2418  0.1990 -0.4084
 6527SOL    HW221899   4.720   9.565   3.509  0.2848 -0.2423 -2.5595
 6528SOL     OW21900  10.081   8.267   3.108  0.2371 -0.1526  0.0768
 6528SOL    HW121901  10.044   8.295   3.024 -1.5093  0.8742  1.1081
 6528SOL    HW221902  10.073   8.345   3.164  1.5394 -0.7533  1.1412
 6529SOL     OW21903   3.287   3.411   5.936 -0.1262 -0.1177  0.2611
 6529SOL    HW121904   3.195   3.383   5.943 -0.0203 -0.4642  0.2894
 6529SOL    HW221905   3.311   3.391   5.846 -0.9634  2.7345 -0.6980
 6530SOL     OW21906   4.403   0.817   8.242 -0.0205 -0.2598 -0.6359
 6530SOL    HW121907   4.492   0.849   8.248 -0.3364  0.2900  3.1548
 6530SOL    HW221908   4.348   0.892   8.264 -1.4542 -0.6900 -2.4896
 6531SOL     OW21909   4.253   6.895   6.873 -0.3136  0.1427  0.8380
 6531SOL    HW121910   4.205   6.913   6.954 -0.3918  1.2351  0.5702
 6531SOL    HW221911   4.234   6.971   6.817 -0.7615 -0.8867 -0.4393
 6532SOL     OW21912   5.938   3.847  10.443  0.1782 -0.5140 -0.4972
 6532SOL    HW121913   5.990   3.768  10.432 -1.0598 -1.1707 -2.0019
 6532SOL    HW221914   6.002   3.916  10.460  1.2395 -1.9717  2.0890
 6533SOL     OW21915   8.097   0.324  10.523  0.0880 -0.7113 -0.4754
 6533SOL    HW121916   8.176   0.363  10.560 -0.9947  4.0078 -2.4407
 6533SOL    HW221917   8.117   0.313  10.430 -0.7146 -2.2271 -0.5029
 6534SOL     OW21918   3.525  10.502   1.197  0.2129  0.0485  0.6235
 6534SOL    HW121919   3.545  10.413   1.168  0.9243  0.1651  0.7299
 6534SOL    HW221920   3.439  10.521   1.160  0.3856 -0.4082 -0.0380
 6535SOL     OW21921   7.718   2.233   2.258 -0.2843 -0.5212  0.3774
 6535SOL    HW121922   7.711   2.266   2.168  0.2210 -0.8324  0.2172
 6535SOL    HW221923   7.661   2.291   2.309  0.4957  0.5593  0.0844
 6536SOL     OW21924   6.278   9.436   4.101  0.0951 -0.0579 -0.4956
 6536SOL    HW121925   6.348   9.409   4.041 -0.6486 -2.0684 -0.5470
 6536SOL    HW221926   6.238   9.512   4.059  3.5181  2.5728  0.5740
 6537SOL     OW21927   6.428   4.838   8.379  0.2808 -0.2061  0.3050
 6537SOL    HW121928   6.401   4.912   8.433  0.6324  0.0694  0.1093
 6537SOL    HW221929   6.362   4.771   8.395 -0.0425  0.1503  0.4809
 6538SOL     OW21930   1.251   4.829   2.131 -0.0779 -0.3961 -0.1020
 6538SOL    HW121931   1.157   4.844   2.120 -0.3155 -1.7552 -0.0687
 6538SOL    HW221932   1.275   4.886   2.204 -1.5442 -2.3048  2.0001
 6539SOL     OW21933   5.284   4.186   0.204 -0.0133  0.4881  0.0235
 6539SOL    HW121934   5.240   4.243   0.140 -0.5535 -0.8281 -0.8353
 6539SOL    HW221935   5.312   4.110   0.152  0.2415 -0.2594  1.2202
 6540SOL     OW21936   9.006   2.153   7.225  0.0668  0.2207 -0.0101
 6540SOL    HW121937   8.976   2.211   7.155 -1.9995 -0.6174  0.0989
 6540SOL    HW221938   8.971   2.193   7.305 -0.7547 -0.7353  0.1354
 6541SOL     OW21939   5.255   3.364   5.458  0.6228 -0.5615 -0.2230
 6541SOL    HW121940   5.243   3.444   5.509 -0.1464 -0.8714  0.1019
 6541SOL    HW221941   5.222   3.294   5.514 -1.4657 -0.7732 -1.5856
 6542SOL     OW21942   9.442   0.387   1.690 -0.2728 -0.0887  0.0809
 6542SOL    HW121943   9.475   0.346   1.770 -0.1058  0.4758  0.3034
 6542SOL    HW221944   9.379   0.452   1.721 -0.2874  0.0556 -0.2518
 6543SOL     OW21945  10.124   5.003   2.796  0.0254 -0.4546 -0.0754
 6543SOL    HW121946  10.190   5.071   2.806  1.0669 -1.5512  0.9033
 6543SOL    HW221947  10.054   5.044   2.746  1.7301  0.5647 -1.7697
 6544SOL     OW21948   4.604   9.625   9.767  0.2951  0.1616 -0.2904
 6544SOL    HW121949   4.531   9.571   9.738 -0.0289 -0.3163  1.2958
 6544SOL    HW221950   4.671   9.563   9.796  0.4506  0.5902  0.3052
 6545SOL     OW21951   7.195   3.688   0.466 -0.1713  0.1557  0.2387
 6545SOL    HW121952   7.275   3.710   0.418  0.1398  0.0819  0.7224
 6545SOL    HW221953   7.180   3.595   0.446 -0.0996  0.1517  0.2014
 6546SOL     OW21954   9.407   6.807   2.412 -0.4513  0.9524 -0.1213
 6546SOL    HW121955   9.392   6.807   2.506  1.3550 -2.3577  0.3102
 6546SOL    HW221956   9.348   6.740   2.378  1.1269 -0.1391 -0.8278
 6547SOL     OW21957   2.610   1.843   4.558 -0.2211 -0.2430  0.1985
 6547SOL    HW121958   2.664   1.773   4.595  0.6196  1.0086  1.4565
 6547SOL    HW221959   2.584   1.896   4.634 -0.0855  1.3018 -0.7892
 6548SOL     OW21960   2.919   6.970   0.421 -0.8546  0.4782  0.1115
 6548SOL    HW121961   2.826   6.987   0.408 -0.9794 -0.2485  0.0057
 6548SOL    HW221962   2.922   6.914   0.499 -0.4932  0.6117  0.1962
 6549SOL     OW21963   4.381   6.252   2.736  0.3412 -0.3067 -0.4425
 6549SOL    HW121964   4.430   6.234   2.656  0.5909  0.0572 -0.3728
 6549SOL    HW221965   4.362   6.165   2.772  0.7748 -0.4607 -0.5723
 6550SOL     OW21966   2.310   4.536   8.386 -0.2739  0.2532 -0.0001
 6550SOL    HW121967   2.301   4.562   8.294 -2.3829 -1.6274 -0.4105
 6550SOL    HW221968   2.230   4.486   8.404  0.4022  0.0270  2.6826
 6551SOL     OW21969   9.836   2.462   8.697  0.6099 -0.0925 -0.5305
 6551SOL    HW121970   9.918   2.444   8.745 -0.0028  1.2774  1.1177
 6551SOL    HW221971   9.788   2.379   8.701  0.6466 -0.0689  1.1512
 6552SOL     OW21972   9.031   4.391   9.887 -0.1362 -0.2818 -0.1719
 6552SOL    HW121973   8.997   4.395   9.798 -1.5419  1.3182  0.3736
 6552SOL    HW221974   8.996   4.470   9.929  0.4600 -1.0200  1.8101
 6553SOL     OW21975   4.639   1.466   5.510 -0.5885  0.0024 -0.6997
 6553SOL    HW121976   4.583   1.391   5.529 -3.1770  1.3065 -2.5097
 6553SOL    HW221977   4.667   1.497   5.597  0.1922 -2.6715  0.1021
 6554SOL     OW21978   5.639   6.847   9.943 -0.5570  0.7787  0.4639
 6554SOL    HW121979   5.722   6.893   9.936  0.5449 -1.3357 -1.9009
 6554SOL    HW221980   5.581   6.893   9.882  0.7809 -1.2116 -2.5302
 6555SOL     OW21981   5.276   9.682   1.377 -0.2876 -0.5489 -0.0372
 6555SOL    HW121982   5.255   9.714   1.465 -0.4845 -0.2636 -0.1849
 6555SOL    HW221983   5.251   9.590   1.378 -1.8362 -0.1529 -0.2891
 6556SOL     OW21984   0.842   8.834   8.504  0.4696 -0.1451  0.3926
 6556SOL    HW121985   0.763   8.781   8.511 -0.4617  1.0868 -0.3216
 6556SOL    HW221986   0.816   8.910   8.452  2.1992  0.1638 -0.1108
 6557SOL     OW21987   5.199   9.409   6.074  0.7816 -0.1812 -0.1582
 6557SOL    HW121988   5.241   9.460   6.144 -0.9148  0.3826  0.5004
 6557SOL    HW221989   5.130   9.467   6.040 -1.2596 -1.9836  0.6674
 6558SOL     OW21990   8.732   8.937   0.453 -0.1437 -0.3577  0.4699
 6558SOL    HW121991   8.788   8.883   0.509  1.0123  0.0990 -0.2291
 6558SOL    HW221992   8.759   8.915   0.364  0.2849  1.3005  0.1686
 6559SOL     OW21993   0.514   2.058  10.149  0.6158 -0.3872 -0.4459
 6559SOL    HW121994   0.491   2.080  10.240  2.6050  0.7810 -0.1712
 6559SOL    HW221995   0.430   2.056  10.103 -0.3182  0.3193  1.1425
 6560SOL     OW21996   2.534   1.755   7.585 -0.1734  0.5021  0.1385
 6560SOL    HW121997   2.578   1.685   7.538  0.3185  1.1392 -0.3778
 6560SOL    HW221998   2.444   1.724   7.596  0.3423 -0.7431  1.0663
 6561SOL     OW21999   9.529   4.651   3.904  0.4871 -0.3732 -0.2311
 6561SOL    HW122000   9.488   4.640   3.819  0.8540 -1.1242 -0.3186
 6561SOL    HW222001   9.571   4.567   3.922 -1.1556 -0.8825  1.5499
 6562SOL     OW22002   9.756   9.816   0.700 -0.1864  0.5292 -0.0729
 6562SOL    HW122003   9.689   9.758   0.664 -0.0365 -0.0725  0.6052
 6562SOL    HW222004   9.776   9.876   0.628  0.9591 -1.3557 -1.4177
 6563SOL     OW22005   4.607   8.736   6.121 -0.0060 -0.2010  0.0257
 6563SOL    HW122006   4.597   8.828   6.097  1.2122  0.3404  1.3515
 6563SOL    HW222007   4.702   8.725   6.130 -0.1193 -1.6772 -0.3863
 6564SOL     OW22008   6.381   6.319   3.986  0.0906  0.0035 -0.1487
 6564SOL    HW122009   6.307   6.380   3.989  0.4108  0.3879  0.1642
 6564SOL    HW222010   6.437   6.353   3.916 -0.1501 -0.4333 -0.5562
 6565SOL     OW22011   7.964   9.267   3.510 -0.1774  0.4784  0.7577
 6565SOL    HW122012   7.913   9.324   3.568 -1.7890 -0.8164  0.7089
 6565SOL    HW222013   7.937   9.292   3.422 -0.7749 -0.2245  0.7310
 6566SOL     OW22014   6.166   2.788   7.953  0.3486 -0.7434 -0.6297
 6566SOL    HW122015   6.106   2.863   7.945 -0.1078 -0.6933  2.0801
 6566SOL    HW222016   6.108   2.712   7.957  0.5216 -0.8327  0.5394
 6567SOL     OW22017  10.043   2.532   7.661 -0.6972 -0.2627  0.0424
 6567SOL    HW122018   9.977   2.559   7.597  0.4427 -1.4298 -1.7113
 6567SOL    HW222019  10.070   2.614   7.703 -2.4768  0.3575  0.0715
 6568SOL     OW22020   6.031   1.268   2.851  0.3778 -0.5455  0.1035
 6568SOL    HW122021   6.069   1.350   2.820 -0.3645 -0.6076 -1.0165
 6568SOL    HW222022   5.985   1.232   2.775 -1.1593 -0.9052  1.1466
 6569SOL     OW22023   0.809   8.594   4.185  0.1577 -0.3337  0.0510
 6569SOL    HW122024   0.812   8.533   4.259 -0.2722  0.5880  0.8364
 6569SOL    HW222025   0.839   8.677   4.221 -0.4439  0.2253 -0.7167
 6570SOL     OW22026   1.111   7.076  10.201  0.1117 -0.3344 -0.0575
 6570SOL    HW122027   1.171   7.017  10.246  0.5194  1.1175  1.4099
 6570SOL    HW222028   1.085   7.139  10.269  0.5418  1.7975 -1.7785
 6571SOL     OW22029   7.265   5.846   9.452  0.4879  0.3209  0.3871
 6571SOL    HW122030   7.335   5.783   9.433 -0.1464  0.1582 -1.6978
 6571SOL    HW222031   7.266   5.906   9.377  0.6190  2.4413  1.9748
 6572SOL     OW22032   3.425   5.310   1.150 -0.1556  0.6413  0.5030
 6572SOL    HW122033   3.331   5.328   1.142 -0.5030 -1.1040  0.1219
 6572SOL    HW222034   3.464   5.351   1.074 -0.4452  2.2442  1.1809
 6573SOL     OW22035   7.308   3.869   8.104  0.3010  0.8314  0.0692
 6573SOL    HW122036   7.380   3.818   8.141  1.4824  0.9429 -1.9104
 6573SOL    HW222037   7.343   3.958   8.099 -0.7083  1.2880  0.8563
 6574SOL     OW22038   0.547   0.183   0.400  0.2900  0.3541  0.2881
 6574SOL    HW122039   0.453   0.193   0.415  0.3199  1.9567 -0.4001
 6574SOL    HW222040   0.553   0.137   0.317  0.1042  1.0334 -0.1059
 6575SOL     OW22041   4.186   4.275   2.312 -0.5830 -0.3990 -0.2486
 6575SOL    HW122042   4.158   4.365   2.325  0.1063 -0.3048  0.7485
 6575SOL    HW222043   4.243   4.278   2.235 -1.1289 -0.1244 -0.6493
 6576SOL     OW22044   4.182   3.376   1.913  0.1116 -0.3440 -0.4077
 6576SOL    HW122045   4.164   3.458   1.867  0.4219 -0.3067 -0.4633
 6576SOL    HW222046   4.213   3.403   2.000 -1.6699 -0.4147  0.3078
 6577SOL     OW22047   6.546   0.417   0.292  0.0592 -0.1140  0.3970
 6577SOL    HW122048   6.557   0.398   0.385  0.9421 -1.5277  0.0296
 6577SOL    HW222049   6.603   0.492   0.276  0.1191 -0.0438  0.9189
 6578SOL     OW22050   0.686   8.579   9.120  0.4042 -0.1099  0.8529
 6578SOL    HW122051   0.686   8.510   9.053 -0.4736  1.4077 -0.8026
 6578SOL    HW222052   0.653   8.536   9.199  0.1866 -1.6588 -0.0346
 6579SOL     OW22053   8.216   3.082   1.201  0.6491 -0.4376 -0.2313
 6579SOL    HW122054   8.281   3.105   1.134  2.5847 -0.0521  1.6585
 6579SOL    HW222055   8.216   3.158   1.260  0.5078 -1.5720  1.2730
 6580SOL     OW22056   4.406   9.037   2.244 -0.2080  0.1814 -0.1630
 6580SOL    HW122057   4.353   8.994   2.177 -0.0728 -1.4826  0.7421
 6580SOL    HW222058   4.357   9.116   2.267 -0.1842  0.8644 -2.2805
 6581SOL     OW22059   3.994   5.018   4.378 -0.2068  0.6931  0.3405
 6581SOL    HW122060   3.907   5.024   4.417 -0.3070 -0.2841  0.2709
 6581SOL    HW222061   3.984   5.057   4.291 -0.8147 -0.3009 -0.0473
 6582SOL     OW22062   8.512   5.422   1.869 -0.3816 -0.2385 -0.3922
 6582SOL    HW122063   8.445   5.457   1.810 -0.8222 -1.3525 -0.5741
 6582SOL    HW222064   8.593   5.424   1.817 -0.2140  1.2588 -0.1163
 6583SOL     OW22065   7.738   2.745   3.272 -0.4398 -0.0648 -0.7154
 6583SOL    HW122066   7.714   2.754   3.180  0.4888  1.7953 -0.8279
 6583SOL    HW222067   7.822   2.699   3.271 -0.9238 -0.9706 -0.7097
 6584SOL     OW22068   9.422   1.902   2.612  0.4442 -0.2284  0.0771
 6584SOL    HW122069   9.381   1.962   2.549  1.2809 -0.0967 -0.3610
 6584SOL    HW222070   9.463   1.835   2.558 -0.2521 -1.0695  0.5559
 6585SOL     OW22071   7.539   0.088   4.368  0.4058 -0.4772 -0.0054
 6585SOL    HW122072   7.624   0.130   4.356 -0.1464  0.5224 -0.6504
 6585SOL    HW222073   7.512   0.065   4.279 -1.3567  2.0887 -0.2551
 6586SOL     OW22074   5.253   6.898   6.203 -0.3375 -0.8110  0.5926
 6586SOL    HW122075   5.244   6.982   6.249 -2.9096 -0.9928  0.5572
 6586SOL    HW222076   5.293   6.922   6.120  0.3056  0.1610  1.1512
 6587SOL     OW22077   8.227   6.653   5.474  0.1428 -0.0864 -0.1205
 6587SOL    HW122078   8.237   6.747   5.489  0.6521 -0.2497  0.6362
 6587SOL    HW222079   8.222   6.615   5.562 -0.7763 -0.7021 -0.4284
 6588SOL     OW22080   1.743   7.371   5.428 -0.0196 -0.0163  0.1357
 6588SOL    HW122081   1.755   7.279   5.404 -1.5219 -0.4418  0.8327
 6588SOL    HW222082   1.697   7.368   5.512  0.5988  1.3882  0.5604
 6589SOL     OW22083   7.362   8.675   6.131  0.3865 -0.6180  0.0526
 6589SOL    HW122084   7.378   8.701   6.222 -1.4290  1.2468 -0.0836
 6589SOL    HW222085   7.312   8.594   6.138  0.7109 -0.7686  0.6975
 6590SOL     OW22086   2.061   6.648   4.362 -0.2452 -0.1493 -0.2568
 6590SOL    HW122087   1.970   6.678   4.359 -0.6144 -1.2958 -2.3168
 6590SOL    HW222088   2.055   6.557   4.393 -0.6757 -2.5013 -5.9945
 6591SOL     OW22089   7.837   7.391   4.177 -0.4440 -0.2326  0.1070
 6591SOL    HW122090   7.819   7.302   4.208  1.9140 -0.1830  1.9257
 6591SOL    HW222091   7.854   7.440   4.257 -1.0370  1.7384 -0.9168
 6592SOL     OW22092   0.233   6.151   7.134 -0.5661  0.7666 -0.0132
 6592SOL    HW122093   0.263   6.088   7.068  0.0671 -1.2688  2.0758
 6592SOL    HW222094   0.313   6.194   7.164 -0.8717  1.8238 -0.6840
 6593SOL     OW22095   0.857  10.068   1.988  0.3189 -0.4732 -0.0305
 6593SOL    HW122096   0.818   9.980   1.988 -0.9838 -0.4456  6.6117
 6593SOL    HW222097   0.785  10.126   1.961 -0.0062 -1.2144 -0.7922
 6594SOL     OW22098   2.909   0.915   3.498 -0.4410  1.0835 -0.2764
 6594SOL    HW122099   2.858   0.996   3.503 -0.8233  0.8622 -0.5366
 6594SOL    HW222100   2.946   0.915   3.410 -0.3056  1.0573 -0.2192
 6595SOL     OW22101   3.486   0.844   8.310 -0.4817 -0.2253  0.1013
 6595SOL    HW122102   3.443   0.758   8.315  0.9749 -0.9488  0.8936
 6595SOL    HW222103   3.571   0.826   8.272  0.2144  0.7177  1.1451
 6596SOL     OW22104   8.364   8.869   9.916  0.1398  0.1706  0.8181
 6596SOL    HW122105   8.313   8.944   9.946 -0.7596 -0.3750  0.7084
 6596SOL    HW222106   8.425   8.852   9.988  0.2019  0.8665  0.9363
 6597SOL     OW22107   4.812   5.676   2.347  0.3245 -0.2312  0.3947
 6597SOL    HW122108   4.733   5.714   2.309  0.7359  0.3399  0.0882
 6597SOL    HW222109   4.827   5.596   2.297  0.5613  0.2370 -0.3017
 6598SOL     OW22110   0.642   4.738   5.061  0.0804 -0.2377 -0.1115
 6598SOL    HW122111   0.687   4.654   5.078 -0.8638 -0.3720  2.1473
 6598SOL    HW222112   0.592   4.723   4.981  1.3898 -1.1916 -0.7907
 6599SOL     OW22113   5.094   9.603   1.754  0.4400 -0.5368 -0.5550
 6599SOL    HW122114   5.159   9.656   1.709 -0.6475  1.6062  0.2771
 6599SOL    HW222115   5.106   9.624   1.847 -0.0157 -1.7999 -0.1808
 6600SOL     OW22116   1.555   5.907   1.212  0.2258  0.0044  0.0150
 6600SOL    HW122117   1.629   5.968   1.212  1.1988 -0.9345  3.7881
 6600SOL    HW222118   1.477   5.963   1.215  0.9609  1.0500  0.1467
 6601SOL     OW22119   8.755   6.142   4.584 -0.2721  0.4469  0.7808
 6601SOL    HW122120   8.680   6.186   4.625 -1.1615 -0.4642  0.1728
 6601SOL    HW222121   8.734   6.141   4.491  2.3089  3.6322 -0.0043
 6602SOL     OW22122   5.385   9.272   0.207  0.1783  0.7032  0.1776
 6602SOL    HW122123   5.398   9.327   0.284 -0.8309  1.8203 -0.4097
 6602SOL    HW222124   5.304   9.224   0.225  0.8714 -0.3658  0.5390
 6603SOL     OW22125   2.011   6.903   6.309 -0.4545 -0.4480  0.4338
 6603SOL    HW122126   1.945   6.909   6.378  0.2218 -0.6920  1.1147
 6603SOL    HW222127   2.021   6.809   6.294  1.6866 -0.5913  2.2805
 6604SOL     OW22128   6.232   6.577   1.785  0.1945 -0.0475 -0.2059
 6604SOL    HW122129   6.191   6.605   1.704  2.0994  2.3047 -0.4661
 6604SOL    HW222130   6.323   6.604   1.777  1.0094 -1.8376  1.7962
 6605SOL     OW22131   2.461   7.628   9.548 -0.2464  0.0295  0.5001
 6605SOL    HW122132   2.550   7.619   9.582  0.7771  1.4294 -1.6258
 6605SOL    HW222133   2.463   7.582   9.464 -0.6798  2.3962 -0.8774
 6606SOL     OW22134   1.769   2.280   9.043  0.4798  0.3104  0.2781
 6606SOL    HW122135   1.825   2.353   9.016  1.7624 -0.8204 -0.3120
 6606SOL    HW222136   1.804   2.205   8.994 -3.2833 -0.0043 -2.2762
 6607SOL     OW22137   3.587   7.639   6.244 -0.2886  0.2699  0.2120
 6607SOL    HW122138   3.656   7.703   6.229  0.4925 -0.9764 -2.0834
 6607SOL    HW222139   3.523   7.656   6.174 -0.4075 -0.9915 -0.0132
 6608SOL     OW22140   5.826   3.234   3.440 -0.2208  0.4486  1.0632
 6608SOL    HW122141   5.800   3.160   3.385 -0.4539  0.6717  0.8716
 6608SOL    HW222142   5.881   3.288   3.384  0.1083  0.3207  1.2639
 6609SOL     OW22143   5.599   4.232   3.726 -0.1423  0.3420 -0.8120
 6609SOL    HW122144   5.522   4.188   3.762 -0.2891  1.6058  0.4889
 6609SOL    HW222145   5.564   4.311   3.684  0.3492  0.4541 -1.0172
 6610SOL     OW22146   8.072   1.073   0.475 -0.1845  0.3480  0.0270
 6610SOL    HW122147   8.127   1.004   0.437  1.3611  1.4128  0.2340
 6610SOL    HW222148   7.999   1.026   0.515 -0.5576 -0.9879 -2.0466
 6611SOL     OW22149   4.090   8.982   7.700 -0.2301 -0.0834 -0.4719
 6611SOL    HW122150   4.125   8.909   7.749  1.4091  1.6826  1.1577
 6611SOL    HW222151   4.005   8.951   7.667 -0.4588 -2.0570  1.7196
 6612SOL     OW22152   4.332   3.565   0.035 -0.8354 -0.2709 -0.5700
 6612SOL    HW122153   4.395   3.635   0.053 -0.4921 -1.1823  2.3007
 6612SOL    HW222154   4.368   3.519  -0.041  0.8572  0.4851 -0.2780
 6613SOL     OW22155   2.878   8.409   8.869  0.1005  0.0419 -0.2366
 6613SOL    HW122156   2.971   8.423   8.849  0.0892  0.2259 -0.1604
 6613SOL    HW222157   2.872   8.413   8.964 -0.3217  2.2651 -0.2906
 6614SOL     OW22158   0.972   9.077   1.622 -0.2267 -0.1809  0.0356
 6614SOL    HW122159   1.046   9.035   1.580  1.4981 -1.4515  3.8538
 6614SOL    HW222160   1.009   9.154   1.665 -1.4134 -0.0278  0.8432
 6615SOL     OW22161  10.365   0.264   1.729  0.0347 -0.0041 -0.5830
 6615SOL    HW122162  10.460   0.269   1.721 -0.0700 -0.5193 -2.6763
 6615SOL    HW222163  10.350   0.250   1.822  1.9685  0.5900 -0.1260
 6616SOL     OW22164   2.498   2.055   6.195 -0.3105  0.0077  0.5666
 6616SOL    HW122165   2.430   2.121   6.182 -1.3111 -1.0769  0.0311
 6616SOL    HW222166   2.502   2.042   6.290  1.1513  2.0602  0.8339
 6617SOL     OW22167   2.560   8.837   0.599 -0.2737 -0.1449  0.2918
 6617SOL    HW122168   2.608   8.792   0.529 -0.4105  1.8880 -1.1905
 6617SOL    HW222169   2.485   8.877   0.556  0.1793  2.0291  1.3608
 6618SOL     OW22170   6.204   4.335   2.677  0.0074  0.5824  0.0759
 6618SOL    HW122171   6.127   4.381   2.644  0.9200  1.7938 -0.4617
 6618SOL    HW222172   6.247   4.302   2.597 -0.7368 -1.4656  0.4514
 6619SOL     OW22173  10.122   8.707   3.066  0.0709 -0.6499 -0.0869
 6619SOL    HW122174  10.090   8.650   3.136  1.3405  0.3097  1.3439
 6619SOL    HW222175  10.152   8.647   2.998 -0.0889 -1.6429  0.6973
 6620SOL     OW22176   6.457   0.485   8.946 -0.6616  0.6320  0.4194
 6620SOL    HW122177   6.444   0.445   8.861  1.0839  0.7460  0.0567
 6620SOL    HW222178   6.458   0.579   8.929 -1.1316  0.6907  0.7007
 6621SOL     OW22179   9.932   8.625   7.001  0.4750  0.0972  0.2045
 6621SOL    HW122180   9.865   8.594   7.062 -0.9949 -1.0792 -1.9115
 6621SOL    HW222181   9.911   8.717   6.988 -0.7105 -0.2342 -0.3650
 6622SOL     OW22182   0.465   1.017   1.875  0.0355  0.0436  0.3104
 6622SOL    HW122183   0.444   0.974   1.791 -0.2798 -0.4406  0.6275
 6622SOL    HW222184   0.488   1.106   1.851 -1.4193  0.3201 -0.1761
 6623SOL     OW22185   0.543   2.283   9.923 -0.3459  0.4355 -0.3319
 6623SOL    HW122186   0.467   2.340   9.919 -1.3888 -0.9411 -1.1603
 6623SOL    HW222187   0.509   2.196   9.903  1.3178 -0.3573  0.0901
 6624SOL     OW22188   7.507   9.090   6.002 -0.3396  0.7158 -0.4894
 6624SOL    HW122189   7.536   9.083   5.911 -1.7530  2.3676 -1.1391
 6624SOL    HW222190   7.539   9.176   6.031  0.2480  0.1400  0.6715
 6625SOL     OW22191   5.937   0.324   6.952  0.1694  0.6310 -0.1846
 6625SOL    HW122192   6.032   0.322   6.962  0.1719  0.1047 -0.3114
 6625SOL    HW222193   5.903   0.286   7.033  0.0488  1.2445  0.0617
 6626SOL     OW22194   7.582   6.098   0.224 -0.0766 -0.0841  0.1533
 6626SOL    HW122195   7.560   6.025   0.166 -0.4470 -0.5581  0.8802
 6626SOL    HW222196   7.629   6.059   0.297  0.1063  0.4657  0.3370
 6627SOL     OW22197   6.440   4.888   4.305  0.7999 -0.1124  0.0886
 6627SOL    HW122198   6.364   4.833   4.286  0.4920 -0.1547  1.3508
 6627SOL    HW222199   6.410   4.946   4.375  1.6997  0.3944  0.0646
 6628SOL     OW22200  10.037   9.370   9.404 -0.3186  0.0599 -0.1747
 6628SOL    HW122201  10.127   9.339   9.416 -0.1177  0.7195  0.0532
 6628SOL    HW222202  10.008   9.393   9.492  0.3339  2.6519 -0.5527
 6629SOL     OW22203   8.655   2.948   8.224  0.6503  0.4945 -0.0464
 6629SOL    HW122204   8.659   2.910   8.136  1.9689 -0.9133  0.5803
 6629SOL    HW222205   8.614   2.880   8.277  1.3711  0.6604  0.7366
 6630SOL     OW22206  10.483   4.065   3.548 -0.3267  0.0015  0.6363
 6630SOL    HW122207  10.445   4.099   3.467 -0.1261  0.7159  0.8334
 6630SOL    HW222208  10.416   4.007   3.584 -0.4626 -0.2267  0.0183
 6631SOL     OW22209   0.609   9.886   0.880  0.1878 -0.1335  0.0952
 6631SOL    HW122210   0.560   9.923   0.953  1.0478  1.9607 -0.3236
 6631SOL    HW222211   0.542   9.854   0.820 -0.5845  0.1684  0.7789
 6632SOL     OW22212   9.051   0.937   1.705  0.7471 -0.0124 -0.1976
 6632SOL    HW122213   9.096   0.975   1.780 -0.3519  0.3918  0.2793
 6632SOL    HW222214   9.059   0.842   1.718  0.3650  0.0518  0.5615
 6633SOL     OW22215   1.673   7.999   1.280 -0.2707 -0.0238  0.2606
 6633SOL    HW122216   1.593   8.050   1.283 -0.1216  0.1468  2.5041
 6633SOL    HW222217   1.731   8.040   1.344  0.3234 -2.2023  1.2188
 6634SOL     OW22218   3.736   8.395   4.392  0.0553 -0.0076  0.2510
 6634SOL    HW122219   3.730   8.490   4.382  1.3335  0.0170 -0.4643
 6634SOL    HW222220   3.657   8.362   4.349  0.1432  0.6860 -0.4690
 6635SOL     OW22221   9.227   4.595   5.544  0.1724 -0.5176 -1.1807
 6635SOL    HW122222   9.171   4.519   5.557  1.7222 -1.5258 -0.0698
 6635SOL    HW222223   9.243   4.628   5.632  1.7564 -0.6024 -1.4092
 6636SOL     OW22224   9.628   4.796   1.720  0.4773 -0.5400 -0.0151
 6636SOL    HW122225   9.607   4.746   1.642  0.2965  0.3192 -0.5303
 6636SOL    HW222226   9.644   4.730   1.788  0.9734 -1.3017 -0.8553
 6637SOL     OW22227   6.875   4.264   9.048  0.0862 -0.1111  0.0338
 6637SOL    HW122228   6.902   4.194   9.107  2.1049  1.5419  1.2449
 6637SOL    HW222229   6.786   4.241   9.022 -1.1669 -0.7869  4.1156
 6638SOL     OW22230   0.713  10.102   4.513  0.3667  0.4451 -0.1575
 6638SOL    HW122231   0.700  10.077   4.422 -1.1824  0.4880  0.0357
 6638SOL    HW222232   0.683  10.193   4.518 -0.3045  0.1944  0.5476
 6639SOL     OW22233   9.390   6.990   8.901  0.2881  0.0596  0.3366
 6639SOL    HW122234   9.456   7.059   8.898  0.5481 -0.2059 -0.4787
 6639SOL    HW222235   9.316   7.028   8.947  1.2754  0.1284  1.9815
 6640SOL     OW22236   3.928   6.130   5.961 -0.5703  0.1829 -0.2709
 6640SOL    HW122237   3.970   6.147   6.045  0.4214 -1.8484 -0.2890
 6640SOL    HW222238   3.835   6.130   5.980 -0.5282 -5.9935  2.3467
 6641SOL     OW22239   9.673   2.195   3.768 -0.4566  0.3486  0.4005
 6641SOL    HW122240   9.584   2.189   3.802 -1.7761  0.1154 -2.8285
 6641SOL    HW222241   9.678   2.129   3.700  1.3477  2.0285 -1.2213
 6642SOL     OW22242   3.207   6.994   8.303 -0.0827 -0.5254  0.1303
 6642SOL    HW122243   3.238   7.084   8.312  0.0498 -0.6709  1.2009
 6642SOL    HW222244   3.261   6.958   8.232 -1.3615  0.7408 -1.5551
 6643SOL     OW22245   6.785  10.325   2.821  0.4695  0.2544 -0.1010
 6643SOL    HW122246   6.839  10.247   2.832  0.9747  0.3553 -1.6097
 6643SOL    HW222247   6.847  10.398   2.824  0.6298  0.3144 -2.7848
 6644SOL     OW22248   2.607   7.232   9.874  0.1634  0.7899  0.4962
 6644SOL    HW122249   2.606   7.275   9.959 -1.9015 -0.4152  1.1598
 6644SOL    HW222250   2.548   7.284   9.820 -1.0239 -0.2032  0.7980
 6645SOL     OW22251   3.336   1.557   6.321  0.4071 -0.0873 -0.3811
 6645SOL    HW122252   3.392   1.515   6.386  0.7536 -0.1332 -0.7016
 6645SOL    HW222253   3.296   1.484   6.273 -0.5531 -0.0668  0.3560
 6646SOL     OW22254   3.814   7.413   0.089 -0.1332 -0.7382  0.2047
 6646SOL    HW122255   3.728   7.413   0.131  0.0229 -0.6768  0.5268
 6646SOL    HW222256   3.795   7.417  -0.005 -0.4580  0.3916  0.3129
 6647SOL     OW22257   0.393   3.155   0.947 -0.2369  0.4152 -0.0115
 6647SOL    HW122258   0.423   3.204   0.870 -0.9225  0.3776 -0.3035
 6647SOL    HW222259   0.364   3.222   1.008 -1.7768  0.3722 -0.6598
 6648SOL     OW22260   9.402   8.642   8.339 -0.5040  0.2314 -0.6299
 6648SOL    HW122261   9.408   8.552   8.371 -0.8251  0.7168  0.8656
 6648SOL    HW222262   9.480   8.685   8.374 -1.1872  0.9340  0.0635
 6649SOL     OW22263   6.452   2.867   1.293 -0.1200 -0.3304  0.3342
 6649SOL    HW122264   6.423   2.958   1.291  0.8485 -0.0313 -0.1678
 6649SOL    HW222265   6.371   2.817   1.299 -0.7205  0.5176 -0.4572
 6650SOL     OW22266   1.678   1.178   6.425 -0.3543 -0.5234  0.6126
 6650SOL    HW122267   1.648   1.214   6.342 -1.1436  1.3087  1.6458
 6650SOL    HW222268   1.773   1.194   6.425 -0.3904 -0.2947  0.1936
 6651SOL     OW22269   6.084   8.431   3.501  0.4385  0.0218  0.0386
 6651SOL    HW122270   6.069   8.447   3.595 -1.1646  0.7077 -0.3040
 6651SOL    HW222271   5.998   8.408   3.466  1.0595 -0.4505 -1.2355
 6652SOL     OW22272   0.272   0.472   2.536  0.5240  0.3734  0.2809
 6652SOL    HW122273   0.286   0.558   2.575  2.8074 -0.3706  1.2670
 6652SOL    HW222274   0.352   0.455   2.486  0.6584 -1.6571  1.0874
 6653SOL     OW22275   2.245   4.086   5.259  0.2281  0.0781  0.2236
 6653SOL    HW122276   2.213   4.144   5.189  1.6362  0.8523  0.1949
 6653SOL    HW222277   2.277   4.009   5.213  1.8890  0.9175 -0.1081
 6654SOL     OW22278   5.467   4.034   8.643  0.0269 -0.1463  0.0367
 6654SOL    HW122279   5.399   4.098   8.622 -0.7793 -0.8708  0.4254
 6654SOL    HW222280   5.424   3.970   8.699  1.1934 -0.2733  0.8213
 6655SOL     OW22281   7.915   0.867   1.114  0.6612 -0.0296 -0.4497
 6655SOL    HW122282   7.834   0.816   1.107 -0.2171  1.3321 -0.8036
 6655SOL    HW222283   7.939   0.886   1.023 -0.0150  1.6042 -0.3240
 6656SOL     OW22284   0.055   7.101   7.057  0.1848 -0.2320  0.3540
 6656SOL    HW122285   0.085   7.011   7.045 -1.2017 -1.3780  4.0258
 6656SOL    HW222286  -0.040   7.096   7.042  0.3355  1.1753 -1.4341
 6657SOL     OW22287   8.848   3.433   1.524  0.0866 -0.0536  0.0296
 6657SOL    HW122288   8.840   3.485   1.444  1.6005  1.0377  0.5381
 6657SOL    HW222289   8.940   3.406   1.526 -0.1022 -0.6716  1.0511
 6658SOL     OW22290  10.030   5.973   6.385 -0.1166 -0.5241  0.4965
 6658SOL    HW122291  10.112   5.923   6.377 -1.1438 -2.2883  0.5620
 6658SOL    HW222292  10.026   5.996   6.478  1.2395  1.3163  0.1593
 6659SOL     OW22293  10.428   0.406   2.144  1.0381  0.5621 -0.4029
 6659SOL    HW122294  10.481   0.479   2.112 -0.3244  1.6586 -0.2498
 6659SOL    HW222295  10.466   0.385   2.229  0.5062  2.1599  0.2691
 6660SOL     OW22296   7.569   9.765   4.475 -0.0845  0.4690  0.0870
 6660SOL    HW122297   7.649   9.817   4.480 -1.0719  1.9913  1.1204
 6660SOL    HW222298   7.559   9.728   4.563 -0.0649 -0.4657 -0.2888
 6661SOL     OW22299  10.477   8.014   9.546  0.1396 -0.7299  0.2300
 6661SOL    HW122300  10.487   7.979   9.458  1.4451 -2.2393  0.9229
 6661SOL    HW222301  10.384   8.002   9.566 -0.0951 -0.7194 -0.7970
 6662SOL     OW22302   5.539   5.611   0.799 -0.0704  0.7366  0.0203
 6662SOL    HW122303   5.624   5.629   0.758  0.3566 -1.5040 -0.2190
 6662SOL    HW222304   5.476   5.615   0.727  0.0049  1.1722 -0.0251
 6663SOL     OW22305   5.879   8.020   1.785 -0.0590  0.2670  0.1658
 6663SOL    HW122306   5.887   8.016   1.880  1.1677  1.5985  0.1536
 6663SOL    HW222307   5.884   7.929   1.756 -0.3682 -0.1419  1.3593
 6664SOL     OW22308   0.596   7.802   9.973  0.3972  0.3543  0.0306
 6664SOL    HW122309   0.660   7.780  10.041  1.3910  2.8886  0.0436
 6664SOL    HW222310   0.636   7.875   9.925 -0.3064 -1.2586 -3.2765
 6665SOL     OW22311   8.162   3.386   4.978  0.0304  0.0694 -0.5274
 6665SOL    HW122312   8.081   3.343   4.951  0.1039 -1.5602  1.5668
 6665SOL    HW222313   8.231   3.327   4.949  0.3367  0.3587 -0.3938
 6666SOL     OW22314   1.582   9.756   8.582  0.8825  0.6602 -0.4714
 6666SOL    HW122315   1.592   9.670   8.542 -0.4822  0.5302 -0.5802
 6666SOL    HW222316   1.528   9.805   8.521  1.7570  1.6471 -0.4693
 6667SOL     OW22317   4.586   4.010   4.772 -0.2466 -0.2665  0.4453
 6667SOL    HW122318   4.582   4.051   4.858  1.9268 -0.0953  0.5031
 6667SOL    HW222319   4.675   3.976   4.765 -0.5287 -0.7454 -1.5342
 6668SOL     OW22320   2.184   9.954   5.472  0.0740  0.4025 -0.1272
 6668SOL    HW122321   2.174   9.945   5.377 -2.4306  0.7125  0.0513
 6668SOL    HW222322   2.153   9.871   5.508  2.4370 -0.3196  0.4322
 6669SOL     OW22323   0.119   8.648   8.289 -0.1330  0.1319  0.3504
 6669SOL    HW122324   0.060   8.612   8.355 -2.4769  2.1167 -0.4954
 6669SOL    HW222325   0.131   8.577   8.226 -0.4173 -0.7649  1.2759
 6670SOL     OW22326   2.931   9.724   2.417  0.0015 -0.2877  0.8533
 6670SOL    HW122327   2.910   9.789   2.484 -0.3309 -0.6891  1.1402
 6670SOL    HW222328   2.892   9.643   2.449  1.1016 -0.8178  0.8924
 6671SOL     OW22329   2.213   0.826   5.113  0.6938  0.2414 -0.0818
 6671SOL    HW122330   2.166   0.909   5.114 -0.8713 -0.5257  2.7505
 6671SOL    HW222331   2.150   0.762   5.147  2.9857 -1.3776  1.4439
 6672SOL     OW22332   1.530   0.763   4.811 -0.7590  0.0601 -0.3936
 6672SOL    HW122333   1.485   0.842   4.841 -1.1762 -0.4903  0.4683
 6672SOL    HW222334   1.577   0.791   4.732 -0.3096  1.3468  0.2954
 6673SOL     OW22335   4.111   7.756   6.571 -0.5158  0.4544  0.1547
 6673SOL    HW122336   4.113   7.846   6.538  1.7872 -0.0632 -1.3945
 6673SOL    HW222337   4.069   7.705   6.501 -0.3078  0.1004  0.2813
 6674SOL     OW22338   0.327   7.003   5.280 -0.1697  0.4075 -0.5539
 6674SOL    HW122339   0.401   7.049   5.241  0.4124  0.3288  0.4139
 6674SOL    HW222340   0.325   7.033   5.371  0.4595 -1.7028  0.2168
 6675SOL     OW22341   9.881   0.698  10.505 -0.0944 -0.6064  0.0034
 6675SOL    HW122342   9.854   0.738  10.422 -5.0644  0.7646  1.9363
 6675SOL    HW222343   9.807   0.643  10.531  2.0351 -2.4909  2.7446
 6676SOL     OW22344   7.404   8.407   2.014  0.0348 -0.1438 -0.3364
 6676SOL    HW122345   7.337   8.361   2.066  2.2127 -2.8060  0.3932
 6676SOL    HW222346   7.421   8.488   2.062  0.8075 -1.7644  2.3286
 6677SOL     OW22347   7.318   8.311   5.042 -0.2945 -0.1131  0.0750
 6677SOL    HW122348   7.363   8.357   5.113  2.5643  0.1052 -1.7224
 6677SOL    HW222349   7.304   8.223   5.076  1.3325 -0.1171  0.8317
 6678SOL     OW22350   4.182   5.429   1.886 -0.2933 -0.2436  0.0230
 6678SOL    HW122351   4.198   5.440   1.792  1.3409  0.7304  0.3833
 6678SOL    HW222352   4.123   5.500   1.909 -1.4537 -1.0381 -0.4218
 6679SOL     OW22353   0.323   1.604   7.085 -0.6348 -0.0796 -0.1979
 6679SOL    HW122354   0.362   1.527   7.044 -2.1300 -0.8746 -0.2264
 6679SOL    HW222355   0.232   1.578   7.102 -0.9763  1.4334  0.4662
 6680SOL     OW22356   2.118   0.419   1.348 -0.2445  0.2421 -0.1166
 6680SOL    HW122357   2.087   0.495   1.299 -0.8652  1.3184  1.8160
 6680SOL    HW222358   2.067   0.421   1.429  2.1282 -0.2266  1.4955
 6681SOL     OW22359   7.156   3.977   5.694  0.0118 -0.5280 -0.3111
 6681SOL    HW122360   7.135   4.000   5.785  1.1391 -0.9159  0.0544
 6681SOL    HW222361   7.228   4.035   5.671 -0.9536  0.3117 -1.3299
 6682SOL     OW22362   0.694   2.223  10.358  0.2282 -0.3207  0.3056
 6682SOL    HW122363   0.767   2.274  10.393  2.3088 -0.1587 -3.7847
 6682SOL    HW222364   0.719   2.132  10.372  0.4332 -0.2639  0.3021
 6683SOL     OW22365   9.887   9.596   4.383 -0.2836  0.2731 -0.0417
 6683SOL    HW122366   9.939   9.630   4.311  0.5848 -0.0567  0.4114
 6683SOL    HW222367   9.945   9.533   4.426 -1.1745 -0.3273  0.2915
 6684SOL     OW22368   4.857   4.053   5.383  0.2369  0.6542  0.5538
 6684SOL    HW122369   4.847   4.086   5.293  0.7913 -0.5891  0.0133
 6684SOL    HW222370   4.836   3.960   5.377  1.0322  0.3898  1.5593
 6685SOL     OW22371   1.253   1.493   5.758  0.1556 -0.2393 -0.0957
 6685SOL    HW122372   1.259   1.409   5.804 -1.3233 -0.4935 -0.3257
 6685SOL    HW222373   1.325   1.489   5.694 -0.8712 -2.1081 -1.2648
 6686SOL     OW22374   8.154   4.673   3.907  0.0288 -0.6146  0.1914
 6686SOL    HW122375   8.179   4.765   3.911 -1.1402 -0.1969 -1.2304
 6686SOL    HW222376   8.232   4.625   3.935  1.7020  0.6838 -1.9585
 6687SOL     OW22377   6.667   6.704   7.207  0.1117  0.3706  0.0693
 6687SOL    HW122378   6.748   6.745   7.176 -0.4414  2.4333  1.1703
 6687SOL    HW222379   6.599   6.770   7.192 -0.6122  0.4695  3.1303
 6688SOL     OW22380   8.664   7.475   8.071 -0.1896 -0.0060 -0.4978
 6688SOL    HW122381   8.755   7.494   8.049 -0.7417  0.7647 -2.2938
 6688SOL    HW222382   8.638   7.544   8.132  0.2352  0.1504 -0.4969
 6689SOL     OW22383   2.354   0.096   4.564  0.5282 -0.1938  0.0331
 6689SOL    HW122384   2.300   0.052   4.498  0.9684  0.6495 -0.9058
 6689SOL    HW222385   2.372   0.182   4.527 -0.6522  0.9808  2.0032
 6690SOL     OW22386   6.632   4.124   9.439 -0.1999  0.4938 -0.3119
 6690SOL    HW122387   6.668   4.055   9.495  0.1629  0.8263 -0.1330
 6690SOL    HW222388   6.553   4.085   9.401 -1.8443  1.0318  2.2799
 6691SOL     OW22389   0.900   6.040   6.650  1.1304  0.3772  0.3506
 6691SOL    HW122390   0.826   6.073   6.701 -0.1289  0.8232 -1.6601
 6691SOL    HW222391   0.886   6.073   6.562  2.2511 -1.8245 -0.7537
 6692SOL     OW22392   2.147   6.289   8.889 -0.2006  0.2696 -0.0607
 6692SOL    HW122393   2.228   6.259   8.847 -0.6128 -0.9080 -0.0269
 6692SOL    HW222394   2.144   6.383   8.868  0.6260  0.1157 -0.9703
 6693SOL     OW22395   7.806   3.021   2.732  0.3172  0.0485  0.5197
 6693SOL    HW122396   7.899   3.046   2.736 -0.0498  2.7967 -3.3258
 6693SOL    HW222397   7.803   2.947   2.671 -0.0901  0.1847  0.3731
 6694SOL     OW22398   3.331   0.140   0.381 -0.5940 -0.7251 -0.0440
 6694SOL    HW122399   3.411   0.134   0.329  0.7653 -1.4797  2.0002
 6694SOL    HW222400   3.329   0.231   0.410 -0.1145 -0.8537  0.4100
 6695SOL     OW22401   5.430   1.252   4.384 -0.5670 -0.0399 -0.2736
 6695SOL    HW122402   5.439   1.245   4.289  0.3149  0.7976 -0.2674
 6695SOL    HW222403   5.354   1.310   4.396 -1.4336 -1.1112 -0.4350
 6696SOL     OW22404   4.655   7.373   2.668  0.2478 -0.0881 -0.1401
 6696SOL    HW122405   4.723   7.386   2.602  0.4796 -0.4549  0.0237
 6696SOL    HW222406   4.703   7.351   2.748 -0.0922 -1.0870 -0.2038
 6697SOL     OW22407   4.141   1.339  10.276 -0.1694 -0.2040 -0.4952
 6697SOL    HW122408   4.234   1.354  10.259 -0.2253 -0.6811 -1.2277
 6697SOL    HW222409   4.135   1.333  10.371  0.4359  0.5724 -0.3985
 6698SOL     OW22410   5.833   7.238   7.177  0.0731  0.0643 -0.3222
 6698SOL    HW122411   5.751   7.213   7.135  0.4202 -0.6855 -0.5763
 6698SOL    HW222412   5.835   7.188   7.259  0.8608 -0.9309 -0.9219
 6699SOL     OW22413   5.346   9.177   6.119  0.4739 -0.0094  0.6168
 6699SOL    HW122414   5.372   9.213   6.204  0.6581  0.0901  0.5201
 6699SOL    HW222415   5.284   9.241   6.084  0.6343  0.1086  0.5419
 6700SOL     OW22416   6.367   3.044   0.633  0.2181 -0.4236  0.5708
 6700SOL    HW122417   6.351   3.123   0.685  2.0648 -0.1416  0.7673
 6700SOL    HW222418   6.461   3.046   0.615  0.1615 -2.2002 -0.0601
 6701SOL     OW22419   8.591   7.777   4.140  0.3324  0.8394 -0.1327
 6701SOL    HW122420   8.516   7.793   4.083 -0.6333 -1.4943  0.3933
 6701SOL    HW222421   8.640   7.859   4.137 -1.7044  2.1133 -1.2559
 6702SOL     OW22422   4.561   6.963   1.047 -0.3072  0.5391 -0.3234
 6702SOL    HW122423   4.542   6.946   1.139  1.3296  0.9649  0.1128
 6702SOL    HW222424   4.651   6.932   1.034 -1.1563 -1.3866 -2.2952
 6703SOL     OW22425   4.190   6.753  10.574  0.3309 -0.8204 -0.5783
 6703SOL    HW122426   4.239   6.694  10.631  0.1500 -0.5979 -0.1859
 6703SOL    HW222427   4.220   6.732  10.486  0.4353 -1.3362 -0.4207
 6704SOL     OW22428   0.302   9.357   0.818  0.6097 -1.0699  0.3024
 6704SOL    HW122429   0.263   9.277   0.784  0.3568  0.1903 -2.6517
 6704SOL    HW222430   0.391   9.358   0.782  1.0772 -0.6193  1.4066
 6705SOL     OW22431   5.044   3.061   8.183  0.0030 -0.2066 -0.3435
 6705SOL    HW122432   5.019   3.145   8.221 -0.7957 -0.6269  0.1111
 6705SOL    HW222433   5.097   3.018   8.250 -0.1326 -0.3234 -0.3079
 6706SOL     OW22434   9.536   3.540   6.697 -0.0991  0.8988  0.0540
 6706SOL    HW122435   9.628   3.520   6.683  0.0641  2.1934 -0.9010
 6706SOL    HW222436   9.519   3.617   6.642 -2.1030 -0.1603 -0.9127
 6707SOL     OW22437   5.159   5.039   3.163 -0.0635 -0.0993  0.2359
 6707SOL    HW122438   5.241   5.081   3.139  0.5150 -0.7419  0.9934
 6707SOL    HW222439   5.169   5.018   3.256 -0.9246 -0.5485  0.2441
 6708SOL     OW22440   4.973   7.768   4.270  0.3058 -0.1245  0.2863
 6708SOL    HW122441   4.964   7.678   4.302  1.8864 -0.0511  1.0057
 6708SOL    HW222442   5.003   7.818   4.345  1.6392  0.5530 -0.6594
 6709SOL     OW22443   6.674  10.335   1.086 -0.0384 -0.1923  0.8740
 6709SOL    HW122444   6.645  10.261   1.033 -0.1454  0.7681 -0.4555
 6709SOL    HW222445   6.735  10.297   1.150  1.0729 -1.2185 -0.7423
 6710SOL     OW22446   4.028   2.973   8.142 -0.1229 -0.0132  0.1577
 6710SOL    HW122447   4.090   3.040   8.171 -2.6432  2.1388  0.9113
 6710SOL    HW222448   4.042   2.966   8.048  2.4681 -0.9679  0.5393
 6711SOL     OW22449   5.524   5.980   0.103  0.0081 -0.3798 -0.2481
 6711SOL    HW122450   5.482   6.030   0.173 -2.2002  0.8014 -2.2546
 6711SOL    HW222451   5.508   5.888   0.126  1.3926 -0.1549  1.9036
 6712SOL     OW22452   9.581   3.412   5.990 -0.2690 -0.1366 -0.1917
 6712SOL    HW122453   9.560   3.337   5.936 -0.1332  0.5187 -1.1755
 6712SOL    HW222454   9.632   3.377   6.062 -0.0193 -0.9463 -0.7595
 6713SOL     OW22455   2.831   4.619   9.974  0.5645 -0.1046 -0.1386
 6713SOL    HW122456   2.844   4.704  10.015 -2.8021 -0.1734  1.4167
 6713SOL    HW222457   2.894   4.561  10.016 -0.9025  0.4482  3.0724
 6714SOL     OW22458   7.041   3.036   0.892 -0.5142 -0.0697  0.5127
 6714SOL    HW122459   7.112   3.008   0.950  1.1173 -0.1123 -1.3923
 6714SOL    HW222460   6.990   2.957   0.877  2.0256 -1.3766 -2.0436
 6715SOL     OW22461   6.525   1.366   3.851 -0.4327  0.8732 -0.2256
 6715SOL    HW122462   6.444   1.373   3.901 -0.6387 -0.7292 -0.2728
 6715SOL    HW222463   6.544   1.272   3.849  0.7549  1.1031 -1.2895
 6716SOL     OW22464   3.506   0.859   2.162  0.2754 -0.4580 -0.5251
 6716SOL    HW122465   3.419   0.819   2.172  0.0605 -0.2303 -1.4157
 6716SOL    HW222466   3.491   0.937   2.108  0.8070  0.4300  0.5734
 6717SOL     OW22467   7.596  10.581   5.144 -0.1610  0.6741  0.3855
 6717SOL    HW122468   7.514  10.558   5.187  0.8134  0.5691  2.2690
 6717SOL    HW222469   7.656  10.510   5.167  0.7286  1.2122 -0.2209
 6718SOL     OW22470   8.185   6.110  10.064 -0.0613  0.4241  0.4812
 6718SOL    HW122471   8.141   6.025  10.062  0.3762  0.2084 -0.1253
 6718SOL    HW222472   8.263   6.095  10.117  1.4602 -0.2847 -1.8172
 6719SOL     OW22473   6.829   2.114   7.105 -0.0983  0.0853 -0.3317
 6719SOL    HW122474   6.815   2.107   7.199 -0.2432  0.3858 -0.3290
 6719SOL    HW222475   6.914   2.072   7.090 -0.4001 -0.5962 -0.1660
 6720SOL     OW22476   0.294   2.850   1.568 -0.3157  0.5838  0.2437
 6720SOL    HW122477   0.308   2.944   1.565 -0.2851  0.5699 -0.1663
 6720SOL    HW222478   0.241   2.831   1.490  0.9783  0.0563 -0.5541
 6721SOL     OW22479   7.407   6.628   2.210  0.5891  0.4570  0.2383
 6721SOL    HW122480   7.357   6.557   2.249  0.6402  0.3992  0.1984
 6721SOL    HW222481   7.454   6.668   2.283 -0.0381  0.9364  0.3827
 6722SOL     OW22482   8.335   7.127   9.621  0.0470 -0.0789  0.6090
 6722SOL    HW122483   8.397   7.123   9.548  1.6119  0.2625  1.8641
 6722SOL    HW222484   8.249   7.118   9.579  0.8812 -0.0094 -1.2525
 6723SOL     OW22485   1.708   0.312   3.926 -0.5462 -0.1359  0.2470
 6723SOL    HW122486   1.722   0.343   3.837  1.6837 -1.9232 -0.1341
 6723SOL    HW222487   1.770   0.363   3.979 -0.5241 -0.3757  0.4556
 6724SOL     OW22488  10.347   4.878   8.672 -0.6643 -0.4287  0.0648
 6724SOL    HW122489  10.415   4.815   8.697 -2.5665 -2.7369 -0.1846
 6724SOL    HW222490  10.278   4.865   8.737 -1.9687 -0.1102 -1.2071
 6725SOL     OW22491   3.050   3.764   3.087  0.0410  0.3635 -0.1965
 6725SOL    HW122492   2.999   3.844   3.078  2.7723  2.1119 -1.5344
 6725SOL    HW222493   3.129   3.779   3.034  0.8319 -3.1165 -0.2796
 6726SOL     OW22494   1.657   1.885   8.758 -0.3754 -0.0569 -0.4745
 6726SOL    HW122495   1.720   1.933   8.812 -0.9760 -0.1411  0.3315
 6726SOL    HW222496   1.631   1.947   8.690  0.5749 -0.0271 -0.8310
 6727SOL     OW22497   5.416   8.985   1.877  1.0599  0.0697 -0.1545
 6727SOL    HW122498   5.356   8.959   1.808 -1.6928  1.1273  1.6758
 6727SOL    HW222499   5.435   9.077   1.859  2.2592 -0.2682 -0.7489
 6728SOL     OW22500   3.547   8.711   9.855 -0.0689  0.3925  0.3835
 6728SOL    HW122501   3.612   8.775   9.885  0.4429  0.2879 -0.4696
 6728SOL    HW222502   3.478   8.715   9.921  1.2589 -0.2274  1.8931
 6729SOL     OW22503   7.622   5.166   0.487 -0.4373  0.7860  0.2527
 6729SOL    HW122504   7.678   5.180   0.563  0.9417 -0.1722 -0.5454
 6729SOL    HW222505   7.682   5.164   0.412 -1.5140 -0.3434 -0.6284
 6730SOL     OW22506   4.851   8.532   6.737  0.1323 -0.0814 -0.4780
 6730SOL    HW122507   4.911   8.495   6.801  1.7644  1.6383 -0.9241
 6730SOL    HW222508   4.841   8.463   6.671  2.2395 -0.2057 -0.7585
 6731SOL     OW22509   0.756   4.221   5.479 -0.0474 -0.8591  0.5422
 6731SOL    HW122510   0.800   4.270   5.549  1.6557 -0.0818 -0.9972
 6731SOL    HW222511   0.795   4.254   5.398 -1.0700 -2.6088 -0.7294
 6732SOL     OW22512   4.429   0.140   8.817  0.2083 -0.6722  0.4286
 6732SOL    HW122513   4.501   0.176   8.869  1.3800  1.1452 -2.1786
 6732SOL    HW222514   4.352   0.190   8.844  0.2432 -1.4259  2.0260
 6733SOL     OW22515  10.574   3.179   0.705  0.4774 -0.3519  0.9358
 6733SOL    HW122516  10.485   3.194   0.736  0.1247 -1.3774  0.4559
 6733SOL    HW222517  10.628   3.184   0.784  0.2302  1.8188  1.0401
 6734SOL     OW22518   5.424   7.927   4.176 -0.0970  0.4086  0.2390
 6734SOL    HW122519   5.471   7.856   4.220 -0.5544 -0.0807 -0.0649
 6734SOL    HW222520   5.379   7.974   4.247  0.4189  0.5656  0.4702
 6735SOL     OW22521   2.972   3.068   8.344  0.2221 -0.4454  0.2157
 6735SOL    HW122522   2.977   3.161   8.365  0.4894  0.1452 -2.1089
 6735SOL    HW222523   2.884   3.056   8.309 -0.2039 -1.3567  1.5235
 6736SOL     OW22524   8.005   7.476   5.733 -0.0675 -0.7253 -0.2469
 6736SOL    HW122525   8.004   7.424   5.813  1.9189 -1.2560 -0.5186
 6736SOL    HW222526   7.925   7.449   5.686  0.1309 -2.4117  0.3295
 6737SOL     OW22527   4.416  10.463   9.060 -0.0453  0.5328 -0.1856
 6737SOL    HW122528   4.442  10.555   9.057 -0.0426  0.5499  0.3570
 6737SOL    HW222529   4.387  10.449   9.150  1.5943 -0.4482  0.2342
 6738SOL     OW22530   3.933  10.348   6.970  0.3863 -0.1634  0.0892
 6738SOL    HW122531   3.974  10.402   7.038  1.3941 -0.7253 -0.0538
 6738SOL    HW222532   3.957  10.391   6.888 -0.2770  0.1392  0.0427
 6739SOL     OW22533   2.514   2.300   9.977 -0.2716 -0.3455  0.4556
 6739SOL    HW122534   2.499   2.369   9.912  0.0225 -1.4741 -0.8652
 6739SOL    HW222535   2.492   2.341  10.061 -0.2157  1.3064 -0.2898
 6740SOL     OW22536   4.004   1.568   4.535 -0.3295  0.3478 -0.4364
 6740SOL    HW122537   4.006   1.638   4.469  1.7399  0.5405 -0.2488
 6740SOL    HW222538   3.972   1.611   4.614  0.3981  0.9661 -0.4627
 6741SOL     OW22539   3.385   6.781   0.468 -0.3227 -0.1247  0.4159
 6741SOL    HW122540   3.323   6.732   0.413 -0.0272  0.3704 -0.3648
 6741SOL    HW222541   3.471   6.749   0.441 -0.1902 -0.2008  0.9153
 6742SOL     OW22542  10.009   3.191   6.119 -0.3467 -0.0418  0.5301
 6742SOL    HW122543  10.010   3.182   6.214  0.2491 -1.8892  0.3839
 6742SOL    HW222544  10.016   3.101   6.086  2.5427  0.6785 -1.2304
 6743SOL     OW22545   5.126   1.296  10.522  0.4040  0.0158  0.1044
 6743SOL    HW122546   5.198   1.339  10.477 -0.1816  0.8528 -0.0685
 6743SOL    HW222547   5.083   1.366  10.571 -1.1072 -0.1755 -0.8760
 6744SOL     OW22548   0.090   0.974   6.066  0.4774  0.1872 -0.4178
 6744SOL    HW122549   0.181   0.993   6.091  0.5728  0.3878 -0.9152
 6744SOL    HW222550   0.080   0.880   6.085  0.8613  0.1118 -0.5652
 6745SOL     OW22551   9.102   1.895   7.486  0.4782  0.0423 -0.8194
 6745SOL    HW122552   9.193   1.911   7.509  0.3981 -1.1680  0.4587
 6745SOL    HW222553   9.053   1.915   7.565 -0.0657 -1.8813 -0.6080
 6746SOL     OW22554  10.461   8.985   6.084  0.3310  0.2403 -0.5147
 6746SOL    HW122555  10.383   9.027   6.120  0.4194 -1.2199  1.5616
 6746SOL    HW222556  10.531   9.049   6.096 -0.2134  0.9044 -0.8121
 6747SOL     OW22557  10.293   4.961   8.433  0.0117 -0.1445  0.3012
 6747SOL    HW122558  10.315   4.947   8.525  2.3361  0.3267 -0.1036
 6747SOL    HW222559  10.350   4.900   8.386  0.4147  1.1051 -0.8855
 6748SOL     OW22560  10.535  10.271   2.684 -0.3376 -0.7802  0.2996
 6748SOL    HW122561  10.561  10.185   2.716  0.9782 -0.2594  0.6899
 6748SOL    HW222562  10.606  10.298   2.626 -0.8818 -0.0832 -0.0607
 6749SOL     OW22563   9.896   9.572   6.128  0.1248 -0.1436 -0.1036
 6749SOL    HW122564   9.949   9.500   6.096  0.2280  0.8442 -2.3228
 6749SOL    HW222565   9.958   9.643   6.144  0.1064 -0.6342  2.6375
 6750SOL     OW22566   5.066   9.302   3.391 -0.0102  0.2939  0.7043
 6750SOL    HW122567   5.013   9.270   3.464  0.7680 -0.4305  0.9544
 6750SOL    HW222568   5.045   9.243   3.319 -3.7167  3.1563 -0.9383
 6751SOL     OW22569   2.946   9.931   3.344 -0.2325  0.3759  0.9643
 6751SOL    HW122570   2.884   9.992   3.383 -2.2752 -1.2611  0.4938
 6751SOL    HW222571   2.929   9.937   3.250  1.6422  1.1882  0.6295
 6752SOL     OW22572  10.566   6.221   1.088  0.2356  0.5260 -0.1393
 6752SOL    HW122573  10.523   6.222   1.003  1.8887  1.9230 -1.0236
 6752SOL    HW222574  10.602   6.133   1.096  3.3223  1.3711 -2.7264
 6753SOL     OW22575   8.311   8.779   2.690  0.2710  0.3282  0.2753
 6753SOL    HW122576   8.263   8.697   2.702  2.2889 -1.0894 -0.7525
 6753SOL    HW222577   8.244   8.847   2.696 -1.4607 -1.3682  1.2710
 6754SOL     OW22578   3.170   9.985   0.204  0.2766  0.3206  0.0286
 6754SOL    HW122579   3.257  10.010   0.237  0.4917 -1.2280  0.7281
 6754SOL    HW222580   3.123  10.068   0.195  2.1721  1.3110 -1.4369
 6755SOL     OW22581   2.176   5.719   9.389  0.0170 -0.6168  0.1461
 6755SOL    HW122582   2.088   5.725   9.426  0.6362 -1.2053  1.8484
 6755SOL    HW222583   2.181   5.790   9.325 -1.4321 -0.0936  0.5802
 6756SOL     OW22584   7.872   2.670   6.903  0.4204 -0.1091 -0.5368
 6756SOL    HW122585   7.922   2.623   6.837  2.6871  0.6867  0.5175
 6756SOL    HW222586   7.805   2.718   6.854  0.0275 -1.9667 -1.8962
 6757SOL     OW22587   5.349   9.719   0.924  0.2474  0.1449  0.1164
 6757SOL    HW122588   5.303   9.761   0.852  2.8426  2.8005 -0.1777
 6757SOL    HW222589   5.396   9.646   0.884 -2.4995 -1.8293  0.2155
 6758SOL     OW22590   4.277   7.231   2.557  0.2974  0.3718 -0.1592
 6758SOL    HW122591   4.300   7.310   2.508  0.6149 -0.7464 -1.9194
 6758SOL    HW222592   4.188   7.246   2.586 -0.7737  0.2805 -3.0235
 6759SOL     OW22593   0.892   8.251   7.026  0.1587 -0.5400 -0.0732
 6759SOL    HW122594   0.830   8.261   7.099 -1.4237 -0.0998 -1.4136
 6759SOL    HW222595   0.935   8.167   7.044 -1.2260 -1.1389  0.6389
 6760SOL     OW22596   9.183  10.391   7.302  0.0409 -0.0398 -0.1980
 6760SOL    HW122597   9.160  10.450   7.230  0.3500  1.2945  0.7537
 6760SOL    HW222598   9.276  10.407   7.317  0.1549 -0.8620  0.0133
 6761SOL     OW22599   0.387   6.578  10.383  0.2059 -0.2086  0.6973
 6761SOL    HW122600   0.421   6.649  10.328  0.1304 -0.0183  0.8924
 6761SOL    HW222601   0.417   6.498  10.341 -0.6054 -0.0949 -0.1342
 6762SOL     OW22602   0.946   1.416  10.246  0.6368  0.3176 -0.1740
 6762SOL    HW122603   0.976   1.333  10.208 -1.3636 -1.6617  2.2188
 6762SOL    HW222604   0.979   1.483  10.186  1.6606 -2.2310 -2.6855
 6763SOL     OW22605   7.305   3.522   7.395  0.0706  0.0578 -0.2596
 6763SOL    HW122606   7.375   3.457   7.396  0.8471  0.8883  0.5255
 6763SOL    HW222607   7.302   3.557   7.484 -0.0813  1.3594 -0.7534
 6764SOL     OW22608   3.085   3.096   1.824  0.1462  0.1028 -0.2560
 6764SOL    HW122609   3.036   3.160   1.876  0.1887  1.2305 -1.5330
 6764SOL    HW222610   3.068   3.012   1.867 -1.0872  0.7665  0.6328
 6765SOL     OW22611   6.467   3.181   8.137 -0.2252  0.6373  0.0163
 6765SOL    HW122612   6.521   3.101   8.138 -1.6343 -0.3565  0.1555
 6765SOL    HW222613   6.458   3.203   8.045  0.7322  1.0386  0.0135
 6766SOL     OW22614   6.566   7.134   2.660  0.1127 -0.4410  0.1003
 6766SOL    HW122615   6.549   7.046   2.624 -2.9549  0.1756 -0.2370
 6766SOL    HW222616   6.533   7.194   2.594  2.2331  1.0508  0.2951
 6767SOL     OW22617   9.764   2.723   3.904 -0.4640  0.0394  0.3411
 6767SOL    HW122618   9.822   2.798   3.909  0.1584 -0.3076 -1.1588
 6767SOL    HW222619   9.782   2.674   3.985 -1.0963  1.6054  1.4831
 6768SOL     OW22620   1.505   9.642   2.368 -0.0956  0.1403 -0.2678
 6768SOL    HW122621   1.528   9.635   2.461  0.3017  0.5810 -0.3303
 6768SOL    HW222622   1.442   9.714   2.364 -0.1694  0.0728 -0.3327
 6769SOL     OW22623   5.000   2.018   8.144  0.0871  0.6147 -0.1882
 6769SOL    HW122624   4.976   1.961   8.071 -1.0985  1.6240 -0.6391
 6769SOL    HW222625   5.077   2.066   8.112 -0.5614  1.2183 -0.9042
 6770SOL     OW22626   7.336   5.618   5.182 -0.0118  0.4907  0.0597
 6770SOL    HW122627   7.289   5.650   5.105  1.2848 -0.0631 -1.0188
 6770SOL    HW222628   7.279   5.549   5.218  0.0822 -0.4113 -1.4203
 6771SOL     OW22629   5.524   6.542   4.499 -0.4620  0.6330 -0.1518
 6771SOL    HW122630   5.443   6.500   4.529 -1.4240  2.0922 -0.5841
 6771SOL    HW222631   5.503   6.576   4.412  0.6618  0.9135 -0.3358
 6772SOL     OW22632   0.709   1.643   5.764 -0.1854  0.1987  0.3125
 6772SOL    HW122633   0.789   1.691   5.746  0.1769 -0.5269 -0.0935
 6772SOL    HW222634   0.641   1.710   5.772 -0.0973  0.7058 -2.3385
 6773SOL     OW22635   7.584   2.041   2.592  0.3464 -0.1305  0.0160
 6773SOL    HW122636   7.503   2.083   2.561  0.1271 -1.0410 -0.6677
 6773SOL    HW222637   7.579   2.050   2.687 -1.1665 -1.2209  0.0795
 6774SOL     OW22638   0.317   0.655   7.512 -0.6618  0.4250  0.4634
 6774SOL    HW122639   0.301   0.561   7.520 -1.2406  0.4697 -0.0840
 6774SOL    HW222640   0.373   0.664   7.436 -2.1008  0.6511 -0.6071
 6775SOL     OW22641   3.107   6.466   3.190 -0.3215  0.4673  0.5278
 6775SOL    HW122642   3.077   6.383   3.152 -0.2245  0.8419 -0.3947
 6775SOL    HW222643   3.057   6.474   3.271 -0.6927 -0.2590  0.3860
 6776SOL     OW22644   8.832   9.552   5.000  0.2310 -0.1432  0.1199
 6776SOL    HW122645   8.822   9.478   5.060 -0.3916 -1.1718 -1.2212
 6776SOL    HW222646   8.799   9.627   5.050 -0.3137 -0.9762  1.0506
 6777SOL     OW22647   3.835   2.457   2.637 -0.1377  0.1755  0.0292
 6777SOL    HW122648   3.795   2.414   2.713 -1.2230 -1.4084 -1.3469
 6777SOL    HW222649   3.787   2.539   2.629 -0.1584  0.2614  0.9319
 6778SOL     OW22650   3.139   0.816   5.271 -0.1428  0.1309  0.1990
 6778SOL    HW122651   3.071   0.871   5.232 -2.3242 -1.0544  2.0619
 6778SOL    HW222652   3.163   0.860   5.352 -2.5058 -1.8453  2.1349
 6779SOL     OW22653   8.018   2.526   9.898  0.1609  0.0143 -0.0422
 6779SOL    HW122654   8.054   2.567   9.977  0.7658 -1.2111  0.3453
 6779SOL    HW222655   7.965   2.453   9.931 -3.1392  1.9625 -0.5596
 6780SOL     OW22656   4.646   9.216   4.876 -0.5323 -0.1773  0.0271
 6780SOL    HW122657   4.582   9.154   4.841  0.4650 -1.4035  0.3011
 6780SOL    HW222658   4.644   9.289   4.815  0.6191 -1.9156 -2.2509
 6781SOL     OW22659   2.807   2.862   0.954 -0.5214  0.2821  0.5787
 6781SOL    HW122660   2.737   2.928   0.954 -0.1988  0.6280  0.5420
 6781SOL    HW222661   2.884   2.909   0.922 -0.1554  0.0287  1.0752
 6782SOL     OW22662   7.032   1.171   7.826  0.1240  0.2165 -0.1007
 6782SOL    HW122663   7.118   1.209   7.805  0.3001  0.4435  1.0001
 6782SOL    HW222664   6.970   1.229   7.782  0.5230  0.1315 -0.7908
 6783SOL     OW22665   6.384   1.903   0.088  0.2570 -0.0831  0.5667
 6783SOL    HW122666   6.297   1.940   0.071 -0.2266 -0.9041  1.1657
 6783SOL    HW222667   6.366   1.823   0.139  1.1447 -2.1705 -2.1835
 6784SOL     OW22668   7.751   2.376   6.774 -0.8278  0.2844  0.2598
 6784SOL    HW122669   7.662   2.410   6.777 -0.3484  1.7390 -0.7942
 6784SOL    HW222670   7.764   2.352   6.682  0.0254  0.5775  0.2930
 6785SOL     OW22671   9.085   5.091   5.202 -0.3601 -0.3007 -0.0464
 6785SOL    HW122672   9.032   5.043   5.265 -0.0079 -1.5276 -0.6536
 6785SOL    HW222673   9.028   5.163   5.173 -1.0098 -0.5195  0.6428
 6786SOL     OW22674   9.899   3.335   7.524 -0.5670 -0.0604 -0.2236
 6786SOL    HW122675   9.828   3.313   7.583 -0.4573 -0.7050 -0.3222
 6786SOL    HW222676   9.886   3.428   7.504 -0.5151  0.2122  0.9287
 6787SOL     OW22677   8.963   5.471  10.145 -0.2885  0.0224  0.3935
 6787SOL    HW122678   8.979   5.377  10.136 -0.5825  0.0967 -1.4982
 6787SOL    HW222679   8.868   5.479  10.136 -0.2838  0.4814  0.7662
 6788SOL     OW22680   5.465   8.955   4.770  0.3600  0.2909  0.3779
 6788SOL    HW122681   5.524   9.011   4.819 -1.0317  1.8538  0.3669
 6788SOL    HW222682   5.502   8.950   4.682  0.9180  0.5285  0.6014
 6789SOL     OW22683   4.793   2.406  10.154  0.0447 -0.0148  0.0506
 6789SOL    HW122684   4.868   2.370  10.107  1.8318  0.3038  2.4465
 6789SOL    HW222685   4.818   2.497  10.173 -1.5887  0.5479 -0.2929
 6790SOL     OW22686   8.140   6.198   4.359 -0.1917 -0.0995  0.1101
 6790SOL    HW122687   8.060   6.146   4.368  0.2329 -1.0070 -1.0338
 6790SOL    HW222688   8.110   6.288   4.354 -1.2354 -0.4820 -1.0876
 6791SOL     OW22689   1.861   4.879   0.769 -0.1493 -0.1795  0.3516
 6791SOL    HW122690   1.952   4.891   0.794 -0.0547  0.3250 -0.1953
 6791SOL    HW222691   1.856   4.916   0.680 -1.3794  1.9597  1.2187
 6792SOL     OW22692   1.800   7.809   9.601  0.3927  0.2569 -0.3789
 6792SOL    HW122693   1.838   7.824   9.688  0.1323  1.1916 -0.4139
 6792SOL    HW222694   1.715   7.853   9.605 -0.0938 -0.6334 -0.7533
 6793SOL     OW22695   9.081   9.055   5.402 -0.5105  0.2313  0.4740
 6793SOL    HW122696   9.116   9.115   5.468 -0.9285  0.8825  0.1138
 6793SOL    HW222697   9.153   8.995   5.383 -0.1006  0.5904  0.8742
 6794SOL     OW22698   2.051   7.179   6.121 -0.1909  0.0083  0.0002
 6794SOL    HW122699   1.973   7.232   6.134 -1.1180 -1.5313  0.9769
 6794SOL    HW222700   2.079   7.155   6.209  0.0573 -1.3166 -0.4133
 6795SOL     OW22701   8.171   1.735   3.567  0.6454 -0.1143  0.0779
 6795SOL    HW122702   8.129   1.662   3.612  0.9399  0.0529  0.6254
 6795SOL    HW222703   8.265   1.714   3.570  0.6201 -0.5542 -1.2464
 6796SOL     OW22704   1.260   8.049   9.852  0.2649  0.4676 -0.9410
 6796SOL    HW122705   1.279   8.143   9.843 -1.0017  0.8081 -0.2823
 6796SOL    HW222706   1.334   8.015   9.902 -0.3741  1.5973  0.8898
 6797SOL     OW22707   4.923   4.719   5.321  0.4830  0.1200 -0.5480
 6797SOL    HW122708   4.987   4.749   5.386 -0.3138 -0.8538  0.7391
 6797SOL    HW222709   4.941   4.625   5.312  1.5851  0.4710 -2.9438
 6798SOL     OW22710   3.944   0.610   3.530  0.3252  0.0684  0.5639
 6798SOL    HW122711   4.027   0.563   3.538 -0.3159 -0.9956  1.3527
 6798SOL    HW222712   3.928   0.615   3.436  1.4998  0.7166  0.3801
 6799SOL     OW22713   2.497  10.518   1.968 -0.3114 -0.3285 -0.2372
 6799SOL    HW122714   2.513  10.424   1.968  0.8239 -0.1557  0.8814
 6799SOL    HW222715   2.428  10.531   2.033 -0.3309 -0.3539 -0.2527
 6800SOL     OW22716   9.792  10.272   0.142 -0.4792  0.0290 -0.7652
 6800SOL    HW122717   9.879  10.268   0.100 -0.6738 -0.7471 -1.1169
 6800SOL    HW222718   9.811  10.283   0.235  0.0235 -0.7841 -0.7559
 6801SOL     OW22719   6.526   5.453   1.766 -0.5658 -0.6276  0.2327
 6801SOL    HW122720   6.582   5.500   1.705  0.2901  1.0578  2.2270
 6801SOL    HW222721   6.444   5.503   1.766 -0.2090 -0.0215  1.1784
 6802SOL     OW22722   6.912   0.631   1.865  0.5395 -0.8116  0.1976
 6802SOL    HW122723   6.860   0.711   1.857  0.4976 -0.8250  0.3224
 6802SOL    HW222724   6.857   0.563   1.825 -0.1701 -1.0928  1.5677
 6803SOL     OW22725   9.820   5.199   8.326  0.5139  0.4817  0.4215
 6803SOL    HW122726   9.743   5.254   8.312 -0.1405 -0.6236 -0.4527
 6803SOL    HW222727   9.894   5.252   8.294  0.0365  1.2506  0.5683
 6804SOL     OW22728   7.271   7.327   6.239  0.1201 -0.3933  0.2725
 6804SOL    HW122729   7.252   7.234   6.227 -1.0047 -0.4766  2.2392
 6804SOL    HW222730   7.327   7.330   6.316  1.1859  0.4964 -0.5161
 6805SOL     OW22731   6.844   4.348   1.778 -0.1203 -0.3177 -0.0183
 6805SOL    HW122732   6.886   4.263   1.794 -0.0056 -0.2482  0.0602
 6805SOL    HW222733   6.831   4.384   1.866 -2.0074 -1.1187  0.0811
 6806SOL     OW22734   9.881   4.928   9.511  0.1626 -0.0512  0.2002
 6806SOL    HW122735   9.943   4.883   9.568 -0.5319  0.3804  1.3400
 6806SOL    HW222736   9.831   4.858   9.469 -1.0282 -0.4178  2.0863
 6807SOL     OW22737   0.832   1.830   9.497  0.6105  0.4700  0.7103
 6807SOL    HW122738   0.926   1.813   9.491  0.5641  0.1917  0.7296
 6807SOL    HW222739   0.816   1.841   9.591  1.2607  4.3743  0.5230
 6808SOL     OW22740   5.411   3.542   2.850 -0.2625 -0.0354 -0.1883
 6808SOL    HW122741   5.347   3.475   2.823 -1.7994  0.9307  0.8851
 6808SOL    HW222742   5.438   3.516   2.938 -1.0434  0.8158  0.3318
 6809SOL     OW22743   9.852   4.091   7.935 -0.0442 -0.3920  0.0908
 6809SOL    HW122744   9.757   4.078   7.933 -0.1549  0.3979 -0.2433
 6809SOL    HW222745   9.884   4.024   7.996 -1.0808  0.9347  2.2051
 6810SOL     OW22746   9.929   9.417   2.662 -0.1437  0.2149 -0.2191
 6810SOL    HW122747  10.001   9.368   2.621 -0.2427 -0.5717  0.5152
 6810SOL    HW222748   9.850   9.369   2.636 -0.2279 -0.1456  0.6609
 6811SOL     OW22749   7.847   7.768   9.399  0.0713  0.2298 -0.2652
 6811SOL    HW122750   7.781   7.734   9.461  0.0556  0.0508 -0.3787
 6811SOL    HW222751   7.816   7.855   9.377 -0.6717 -0.2182 -1.0882
 6812SOL     OW22752   0.809   1.215   8.446 -0.5407 -0.2126 -0.4153
 6812SOL    HW122753   0.718   1.218   8.417 -0.1954  0.9284 -1.4462
 6812SOL    HW222754   0.859   1.197   8.366  0.2385  0.4381 -0.0883
 6813SOL     OW22755  10.261   2.853   1.049  0.3085 -0.4208 -0.1306
 6813SOL    HW122756  10.197   2.916   1.082  0.0450 -1.2311  0.9741
 6813SOL    HW222757  10.285   2.801   1.126 -1.4227 -3.3810 -1.4259
 6814SOL     OW22758   5.330   3.694   9.436 -0.2655  0.4032 -0.0094
 6814SOL    HW122759   5.304   3.667   9.348  0.9132  2.0529 -0.9170
 6814SOL    HW222760   5.410   3.644   9.453 -1.2243 -0.9510  0.7443
 6815SOL     OW22761   3.596   3.373   9.190  0.2112  0.5814 -0.2560
 6815SOL    HW122762   3.644   3.441   9.238  0.1402  0.0322  0.6054
 6815SOL    HW222763   3.519   3.355   9.244  0.6173 -0.7300 -0.0804
 6816SOL     OW22764   3.022   1.718   9.192  0.0391 -0.0582  0.2740
 6816SOL    HW122765   3.053   1.809   9.200 -0.1695  0.5109 -3.6963
 6816SOL    HW222766   2.966   1.706   9.269  1.1320  2.6741  1.6558
 6817SOL     OW22767   4.508   1.789   0.307  0.4253  0.2588 -0.3841
 6817SOL    HW122768   4.576   1.844   0.267  1.9905 -0.5621  1.0245
 6817SOL    HW222769   4.548   1.756   0.387 -1.4711 -0.7135  0.2232
 6818SOL     OW22770   0.495   0.432   1.196  0.5341 -0.0772  0.3310
 6818SOL    HW122771   0.415   0.485   1.191  0.7311  0.2573  0.7019
 6818SOL    HW222772   0.477   0.357   1.139  0.2208  0.3401 -0.1239
 6819SOL     OW22773   9.117   8.242  10.106 -0.2244 -0.1090 -0.2816
 6819SOL    HW122774   9.034   8.261  10.064  0.7031  2.2447 -1.2098
 6819SOL    HW222775   9.158   8.327  10.119  1.0550 -1.0003  2.3276
 6820SOL     OW22776   0.381   6.243   4.005  0.0572  0.4519 -0.2004
 6820SOL    HW122777   0.304   6.263   4.059 -0.3265 -1.7331  0.1645
 6820SOL    HW222778   0.347   6.185   3.936  1.2924 -0.2248 -0.2703
 6821SOL     OW22779   2.940   7.180   7.077  0.3850 -0.3609  0.2499
 6821SOL    HW122780   2.900   7.109   7.127  2.8617 -2.1025 -0.0400
 6821SOL    HW222781   3.016   7.206   7.129  0.8571  0.4273 -0.7941
 6822SOL     OW22782   2.057   3.698  10.466 -0.2484  0.5235  0.4370
 6822SOL    HW122783   1.997   3.770  10.444  0.7052  0.7693 -1.6320
 6822SOL    HW222784   2.001   3.630  10.502 -1.8533  0.6488 -1.6196
 6823SOL     OW22785   3.278   2.498   8.056 -0.3319  0.1184  0.1617
 6823SOL    HW122786   3.238   2.523   8.139 -1.3574  0.9379 -0.5547
 6823SOL    HW222787   3.288   2.581   8.008  0.7108 -0.2772 -0.3330
 6824SOL     OW22788   3.555   0.920   9.359  0.3724 -0.4330 -0.1618
 6824SOL    HW122789   3.566   0.998   9.306  1.5360 -0.4546  0.0038
 6824SOL    HW222790   3.598   0.941   9.442 -0.7838 -0.6541  0.5170
 6825SOL     OW22791   8.970   6.601   7.726  0.3566 -0.1673 -0.7199
 6825SOL    HW122792   8.939   6.530   7.782 -0.5746  1.3795  0.8300
 6825SOL    HW222793   9.065   6.588   7.720  0.1470 -1.7672 -0.8497
 6826SOL     OW22794   4.778  10.553   8.023 -0.1207 -0.0044 -0.3703
 6826SOL    HW122795   4.836  10.502   8.078  0.1727  2.1167  1.4293
 6826SOL    HW222796   4.692  10.545   8.064 -0.6463 -1.2001 -1.6454
 6827SOL     OW22797   5.022   2.741   7.273 -0.3442 -0.0173  0.2438
 6827SOL    HW122798   5.034   2.789   7.191 -0.2148 -0.3067  0.0940
 6827SOL    HW222799   4.961   2.795   7.323  0.5690  0.8148  0.4873
 6828SOL     OW22800   4.854   6.833   0.507  0.4460 -0.0145  0.1042
 6828SOL    HW122801   4.940   6.792   0.499  0.6774  0.2616  1.1137
 6828SOL    HW222802   4.867   6.923   0.478  1.1002  0.7507  2.5086
 6829SOL     OW22803   3.385   5.523   9.223  0.2166  0.2196  0.3324
 6829SOL    HW122804   3.350   5.445   9.180  0.9652  0.1985 -0.2667
 6829SOL    HW222805   3.308   5.570   9.255 -0.2684 -0.5195  0.2713
 6830SOL     OW22806  10.417   9.333   5.450  0.2158  1.1724 -0.0038
 6830SOL    HW122807  10.401   9.250   5.405 -1.7711  1.2704  0.4309
 6830SOL    HW222808  10.426   9.310   5.542 -1.2260  1.5015  0.2363
 6831SOL     OW22809   4.497   1.292   6.579 -0.4801 -0.1981 -0.3452
 6831SOL    HW122810   4.432   1.362   6.573  1.3225  1.4582 -1.8807
 6831SOL    HW222811   4.548   1.314   6.658 -1.0902 -0.8945  0.2555
 6832SOL     OW22812   7.019   4.212   1.113  0.0897  0.5101 -0.9093
 6832SOL    HW122813   7.085   4.159   1.069  0.5061  1.6592 -1.7224
 6832SOL    HW222814   6.936   4.167   1.096  0.6838 -1.4602  0.8967
 6833SOL     OW22815   5.879  10.236   7.306  0.4280  0.0696  0.4217
 6833SOL    HW122816   5.808  10.300   7.316  0.6052  0.1675  1.0864
 6833SOL    HW222817   5.834  10.152   7.306  0.1908  0.1827 -0.4858
 6834SOL     OW22818   2.688   0.931   7.735 -0.1984 -0.4417  0.6607
 6834SOL    HW122819   2.689   0.846   7.692  0.7768  0.3396 -0.9410
 6834SOL    HW222820   2.627   0.920   7.808 -2.0778 -1.7809 -0.9965
 6835SOL     OW22821   7.120   0.182   4.379  0.0520 -0.0760 -0.2120
 6835SOL    HW122822   7.160   0.265   4.404  2.1165 -1.0253 -0.2157
 6835SOL    HW222823   7.064   0.159   4.453  1.7378 -0.0948  1.1158
 6836SOL     OW22824   5.117   6.089   5.069  0.4990 -0.0393 -0.2173
 6836SOL    HW122825   5.125   6.090   4.974  2.0730  0.6650 -0.1069
 6836SOL    HW222826   5.197   6.047   5.100  0.3638  0.4332  0.8247
 6837SOL     OW22827   8.336   0.295   3.480  0.0167  0.1088 -0.1646
 6837SOL    HW122828   8.276   0.229   3.516 -1.0856  1.4441  0.5928
 6837SOL    HW222829   8.322   0.372   3.536  1.9186  0.7089 -0.4538
 6838SOL     OW22830   8.392  10.587   7.714 -0.6705  0.3557 -0.6840
 6838SOL    HW122831   8.410  10.673   7.753 -2.2961  1.3693 -2.0077
 6838SOL    HW222832   8.477  10.544   7.711  0.4137  2.3645 -0.9583
 6839SOL     OW22833   2.462   1.148  10.066  0.1935 -0.2346  0.4812
 6839SOL    HW122834   2.442   1.189   9.982  1.0045 -0.1746  0.3147
 6839SOL    HW222835   2.557   1.147  10.071  0.1610 -0.0609  1.4836
 6840SOL     OW22836   8.330   2.764   8.790  0.5194  0.3082  0.7811
 6840SOL    HW122837   8.313   2.677   8.827 -0.6304 -0.1117 -0.6163
 6840SOL    HW222838   8.306   2.825   8.860 -0.4429 -0.4705  1.1584
 6841SOL     OW22839   7.091   6.875   3.845  0.4828 -0.0883  0.6591
 6841SOL    HW122840   7.080   6.797   3.791  2.0397 -2.1473  3.0803
 6841SOL    HW222841   7.006   6.919   3.843 -0.5528 -2.0547 -0.4864
 6842SOL     OW22842   8.929   4.347   1.920  0.5445  0.3930  0.2834
 6842SOL    HW122843   9.008   4.376   1.964  1.5525  0.4195 -1.4502
 6842SOL    HW222844   8.951   4.260   1.886 -1.1126 -0.8082  2.0731
 6843SOL     OW22845   1.124   0.044   4.195  0.2198 -0.2831 -0.2530
 6843SOL    HW122846   1.050   0.105   4.182  2.3488  2.0974 -2.2083
 6843SOL    HW222847   1.155   0.063   4.284 -1.8084 -1.8285  0.8943
 6844SOL     OW22848   1.432   2.224   0.002 -0.1767  0.3958 -0.2027
 6844SOL    HW122849   1.502   2.232  -0.062  1.3315 -0.1628  1.3168
 6844SOL    HW222850   1.419   2.130   0.013  0.7417  0.4265  1.4697
 6845SOL     OW22851  10.348   9.667   7.578  0.3508  0.0082 -0.7647
 6845SOL    HW122852  10.309   9.739   7.527  0.6955 -0.3248 -1.5204
 6845SOL    HW222853  10.353   9.594   7.516 -0.6184 -0.8909  0.1760
 6846SOL     OW22854   5.490  10.164   7.505  0.4134 -0.6222  0.0687
 6846SOL    HW122855   5.413  10.218   7.520 -0.6097 -1.6999 -1.0499
 6846SOL    HW222856   5.458  10.074   7.511  1.9419 -1.1351  1.2584
 6847SOL     OW22857   1.952   9.339   6.537  0.4146  0.3276 -0.2480
 6847SOL    HW122858   1.926   9.297   6.455 -0.0873  1.6271 -0.7871
 6847SOL    HW222859   2.010   9.276   6.580 -0.2770 -0.8692 -1.0371
 6848SOL     OW22860   3.633  10.562   8.880 -0.0486  0.3791  0.1495
 6848SOL    HW122861   3.616  10.631   8.943  1.7493  0.1367  0.9706
 6848SOL    HW222862   3.645  10.483   8.933  0.8713  0.0425 -0.5185
 6849SOL     OW22863   2.987   6.098   7.772  0.0847  0.4105 -0.0918
 6849SOL    HW122864   2.963   6.008   7.753  0.9759  0.4822 -1.6931
 6849SOL    HW222865   2.923   6.151   7.725  0.1233  0.6188  0.0858
 6850SOL     OW22866   1.214   9.706   4.035 -0.1475  0.5491  0.4458
 6850SOL    HW122867   1.193   9.777   4.095  0.4059 -0.9679  2.5587
 6850SOL    HW222868   1.138   9.699   3.978 -0.8628  1.8085  1.2023
 6851SOL     OW22869   5.878   5.709   9.394 -0.0392 -0.2755  0.6844
 6851SOL    HW122870   5.949   5.645   9.404 -0.3406 -0.5777  0.9239
 6851SOL    HW222871   5.831   5.681   9.316 -0.1588 -0.3349  0.7773
 6852SOL     OW22872   0.736   0.645   8.715  0.1451 -0.5570 -0.2502
 6852SOL    HW122873   0.702   0.716   8.660  0.5411 -0.2266 -0.0763
 6852SOL    HW222874   0.787   0.592   8.654 -1.1144 -1.3655 -0.6260
 6853SOL     OW22875   3.383   3.085   0.037 -0.1857 -0.0860  0.5298
 6853SOL    HW122876   3.374   3.155   0.102 -2.9839  1.8441 -1.6862
 6853SOL    HW222877   3.297   3.043   0.036 -0.3289  0.1529 -2.0777
 6854SOL     OW22878   0.008   6.669   1.008  0.0173  0.0314  0.6039
 6854SOL    HW122879  -0.011   6.694   1.098  2.1973  0.9024  0.8908
 6854SOL    HW222880   0.103   6.659   1.005 -0.1972 -2.3214 -1.0538
 6855SOL     OW22881   8.132   9.995   5.299 -0.6613  0.2514  0.3594
 6855SOL    HW122882   8.077   9.916   5.295  2.7826 -2.3842 -2.3627
 6855SOL    HW222883   8.170   9.993   5.387 -0.0595 -1.6850  0.1143
 6856SOL     OW22884   2.504   5.004   9.470  0.4851  0.0847 -0.0820
 6856SOL    HW122885   2.568   4.962   9.528  0.0306 -1.4485 -0.6497
 6856SOL    HW222886   2.431   5.027   9.528  0.2419 -0.9912  0.0581
 6857SOL     OW22887   5.775   5.156   3.933  0.3568 -0.1091 -0.2796
 6857SOL    HW122888   5.708   5.088   3.928 -0.2270  0.3832  0.4751
 6857SOL    HW222889   5.823   5.136   4.013 -0.0339  0.5358  0.1316
 6858SOL     OW22890   1.490   5.425   5.598  0.7805  0.7120 -0.1093
 6858SOL    HW122891   1.430   5.358   5.563  0.2985  0.8670  0.4069
 6858SOL    HW222892   1.522   5.388   5.680 -0.0698  1.4248  0.5594
 6859SOL     OW22893   4.988   7.330   9.952 -0.5467 -0.2178 -0.0125
 6859SOL    HW122894   4.982   7.239   9.980  0.9101 -0.3402  0.0265
 6859SOL    HW222895   4.992   7.326   9.856 -0.7515 -0.1786 -0.0221
 6860SOL     OW22896   9.672  10.103   6.557  0.3390 -0.3602  0.0939
 6860SOL    HW122897   9.756  10.134   6.523  0.6187  0.4113  1.4237
 6860SOL    HW222898   9.610  10.173   6.537  0.4968  0.0806  1.0870
 6861SOL     OW22899   7.024   6.647   3.623  0.0805  0.0054 -0.2729
 6861SOL    HW122900   7.077   6.697   3.560  0.1007  2.4055  1.4987
 6861SOL    HW222901   7.050   6.556   3.608  0.7335  0.5307 -3.0790
 6862SOL     OW22902   9.319  10.503   2.074 -1.2860  0.2266  0.2602
 6862SOL    HW122903   9.311  10.408   2.069  1.4473 -0.0330 -0.8587
 6862SOL    HW222904   9.350  10.530   1.988  1.9998  1.5318  1.6466
 6863SOL     OW22905   1.139   4.875   6.553  0.4538  0.1812 -0.0348
 6863SOL    HW122906   1.091   4.791   6.552 -1.2878  1.0531  2.1603
 6863SOL    HW222907   1.157   4.891   6.645  1.8163  1.6893 -0.5323
 6864SOL     OW22908   7.754   6.027   0.421 -0.1513 -0.6511  0.2274
 6864SOL    HW122909   7.793   6.068   0.498 -2.8381  1.2739  0.6780
 6864SOL    HW222910   7.758   5.933   0.441  1.1223 -0.3420  1.7170
 6865SOL     OW22911  10.135   3.899   0.303 -0.3838  0.7978 -0.8181
 6865SOL    HW122912  10.060   3.895   0.363  1.0506  1.5767  1.1599
 6865SOL    HW222913  10.200   3.952   0.350  1.5701 -0.2093 -2.2375
 6866SOL     OW22914   3.256  10.538   3.928 -0.2845 -0.2328  0.1368
 6866SOL    HW122915   3.277  10.461   3.874 -1.4144 -1.1733  0.9848
 6866SOL    HW222916   3.241  10.503   4.015 -1.9765  0.7763  0.3039
 6867SOL     OW22917   8.475   4.540   0.884  0.0111 -0.3878  0.0167
 6867SOL    HW122918   8.459   4.446   0.875  1.0064 -0.5478 -0.2062
 6867SOL    HW222919   8.561   4.553   0.844 -0.5989  0.8088 -0.9584
 6868SOL     OW22920   8.271   4.917   3.845 -0.2680  0.0682  0.7149
 6868SOL    HW122921   8.269   4.994   3.788  1.5081 -0.5222 -0.2182
 6868SOL    HW222922   8.332   4.941   3.915  0.4703 -0.5413  0.2982
 6869SOL     OW22923   4.094   0.201   9.043 -0.2575 -0.4526  0.0382
 6869SOL    HW122924   4.016   0.190   8.989  0.9675  1.4007 -2.2669
 6869SOL    HW222925   4.077   0.281   9.092 -0.5988 -1.1505  1.0976
 6870SOL     OW22926  10.281   9.256   0.502  0.0254  0.5779 -0.3352
 6870SOL    HW122927  10.331   9.298   0.433 -0.1945  0.4916 -0.5500
 6870SOL    HW222928  10.338   9.257   0.578  0.5668 -0.0264 -0.7268
 6871SOL     OW22929   6.143   9.986   4.701 -0.0296 -0.0051 -0.1908
 6871SOL    HW122930   6.165   9.897   4.675 -0.2341 -0.1067 -0.0229
 6871SOL    HW222931   6.079  10.015   4.635 -0.7145 -0.3418  0.3131
 6872SOL     OW22932   8.628   3.649   9.409  0.8160 -0.1737 -0.1588
 6872SOL    HW122933   8.718   3.630   9.385  1.0966  0.7797  0.1019
 6872SOL    HW222934   8.618   3.743   9.395 -0.3034 -0.3560 -0.7144
 6873SOL     OW22935   6.823   2.627   9.008  0.8898  0.2555  0.4526
 6873SOL    HW122936   6.845   2.719   8.997  1.8097 -0.1279 -1.4751
 6873SOL    HW222937   6.781   2.603   8.925 -0.0086 -0.8828  1.2139
 6874SOL     OW22938   4.339   2.813  10.491 -0.3642 -0.0039  0.3127
 6874SOL    HW122939   4.275   2.742  10.486  0.2801 -0.8783  3.0068
 6874SOL    HW222940   4.424   2.769  10.497  0.2037  1.0502  0.2239
 6875SOL     OW22941   8.755   8.495   3.442  0.3899 -0.1851 -0.0541
 6875SOL    HW122942   8.731   8.563   3.379  0.0090 -0.8895 -0.6826
 6875SOL    HW222943   8.719   8.415   3.405  1.1786 -0.7968  0.4821
 6876SOL     OW22944  10.540   5.955   3.637  0.0912  0.5241 -0.3381
 6876SOL    HW122945  10.446   5.938   3.635  0.1719  0.1794 -1.5944
 6876SOL    HW222946  10.563   5.978   3.548  1.1383  1.0099  0.0421
 6877SOL     OW22947   8.820   9.876   5.911  0.2762  0.6434 -0.0317
 6877SOL    HW122948   8.858   9.949   5.960 -0.4836  0.1368  1.3860
 6877SOL    HW222949   8.861   9.798   5.949  0.2777  0.2677 -0.7888
 6878SOL     OW22950  10.237   6.317   7.048 -0.2155  0.1540  0.5331
 6878SOL    HW122951  10.268   6.384   7.108 -0.7424  0.0079  0.9815
 6878SOL    HW222952  10.156   6.285   7.089 -0.7714  0.3039 -0.4364
 6879SOL     OW22953   5.226   8.378   8.657  0.7942 -0.2387 -0.2131
 6879SOL    HW122954   5.206   8.463   8.620  0.8625  0.1407  0.5930
 6879SOL    HW222955   5.321   8.379   8.670  0.6395  0.0982  1.0343
 6880SOL     OW22956   9.762   2.243  10.192 -0.0295  0.4566  0.0333
 6880SOL    HW122957   9.798   2.300  10.260  1.4964 -0.5987  0.1645
 6880SOL    HW222958   9.791   2.283  10.110  0.4432  0.2792  0.1065
 6881SOL     OW22959   2.395   5.658   2.537 -0.4462 -0.0574  1.1330
 6881SOL    HW122960   2.431   5.571   2.554  0.7441  0.3797  0.9520
 6881SOL    HW222961   2.449   5.692   2.465  0.3773  1.5576  2.4473
 6882SOL     OW22962   6.859   6.821   7.050 -0.0482 -0.1187  0.2140
 6882SOL    HW122963   6.893   6.895   6.999  1.7107 -0.7411  0.3835
 6882SOL    HW222964   6.822   6.762   6.984  1.0406 -0.3214 -0.2470
 6883SOL     OW22965   1.960   8.652   9.398  0.0142  0.4445 -0.1641
 6883SOL    HW122966   1.952   8.559   9.421  0.0178  0.7810  1.2431
 6883SOL    HW222967   1.947   8.654   9.303  1.4011 -1.1660 -0.4331
 6884SOL     OW22968   5.861   0.538   6.545  0.0084  0.2579  0.6645
 6884SOL    HW122969   5.896   0.451   6.566 -2.0409 -0.4732  1.2730
 6884SOL    HW222970   5.825   0.528   6.457  0.6564  0.8004  0.3299
 6885SOL     OW22971   0.131   3.762   4.957 -0.1316 -0.1931  0.3966
 6885SOL    HW122972   0.189   3.834   4.979 -0.7930  0.6671 -0.5409
 6885SOL    HW222973   0.047   3.786   4.996 -0.7708  0.3574 -1.2046
 6886SOL     OW22974   7.104   2.373   3.974 -0.0559 -0.5966  0.1733
 6886SOL    HW122975   7.044   2.326   4.032 -0.3001 -2.6249 -1.5745
 6886SOL    HW222976   7.181   2.317   3.970 -0.6640 -1.3780 -2.6039
 6887SOL     OW22977   8.783   0.332   8.504 -0.3782  0.6669 -0.2971
 6887SOL    HW122978   8.865   0.283   8.499 -0.0943  1.1250 -0.2036
 6887SOL    HW222979   8.734   0.290   8.575 -0.8691 -0.5600 -1.3297
 6888SOL     OW22980   8.213   4.818   9.445  0.5880 -0.0284 -0.1242
 6888SOL    HW122981   8.148   4.748   9.436 -1.4338  1.8738 -1.3742
 6888SOL    HW222982   8.290   4.775   9.482 -0.8116 -2.7302 -0.1199
 6889SOL     OW22983   6.081   9.628   5.160  0.1795 -0.2066 -0.1492
 6889SOL    HW122984   6.149   9.661   5.102  0.8788 -0.6588  0.3942
 6889SOL    HW222985   6.128   9.585   5.231 -0.6121  1.1331  1.2596
 6890SOL     OW22986   2.895   2.940   7.244  0.0294  0.1143  0.8601
 6890SOL    HW122987   2.929   3.026   7.219 -0.1541  0.0173  0.2522
 6890SOL    HW222988   2.811   2.933   7.197 -0.4108 -0.0084  1.6468
 6891SOL     OW22989   8.572   1.287   6.539  0.1354 -0.5206 -0.1495
 6891SOL    HW122990   8.524   1.333   6.608  0.1084 -1.5530  0.5348
 6891SOL    HW222991   8.631   1.229   6.586  0.7081 -0.6390 -1.0045
 6892SOL     OW22992   8.855   6.448   4.282 -0.0333 -0.0456 -0.0284
 6892SOL    HW122993   8.872   6.470   4.191  0.1724 -0.8362 -0.1916
 6892SOL    HW222994   8.941   6.431   4.319 -0.2055 -1.0635 -0.0555
 6893SOL     OW22995   5.839   2.916   1.249 -0.3827 -0.4272 -0.4792
 6893SOL    HW122996   5.856   2.824   1.268  0.9768 -0.2585 -0.7637
 6893SOL    HW222997   5.785   2.946   1.322  1.2085 -0.8443  0.9394
 6894SOL     OW22998   1.036   7.115   2.986  0.3080  0.8778 -0.5587
 6894SOL    HW122999   1.069   7.046   2.928 -0.7072  0.0312 -0.1735
 6894SOL    HW223000   0.972   7.162   2.933 -0.1624  0.5001 -0.3367
 6895SOL     OW23001   2.658   3.891   6.739 -0.1729 -0.7269  1.0232
 6895SOL    HW123002   2.600   3.965   6.755  0.4103 -0.3497  1.4460
 6895SOL    HW223003   2.662   3.883   6.644 -1.8090 -1.4816  0.9738
 6896SOL     OW23004   9.252   3.666   4.701 -0.2601 -0.3900 -0.4318
 6896SOL    HW123005   9.238   3.735   4.636  0.4845 -0.7886 -1.0255
 6896SOL    HW223006   9.345   3.669   4.720 -0.6336  0.4350  1.4506
 6897SOL     OW23007   9.929   4.507   2.940  0.2096 -0.4936  0.8619
 6897SOL    HW123008   9.878   4.566   2.995  2.5606 -0.3728  3.1040
 6897SOL    HW223009   9.980   4.565   2.883 -0.0670 -0.5044  0.6027
 6898SOL     OW23010   5.648   4.808   0.273  0.2667 -0.8846 -0.5649
 6898SOL    HW123011   5.689   4.882   0.318  0.7269 -1.5979  0.2205
 6898SOL    HW223012   5.605   4.847   0.197  1.8729 -0.0270 -1.0698
 6899SOL     OW23013   2.440   5.739   3.434  0.2910  0.0947 -0.3351
 6899SOL    HW123014   2.516   5.723   3.379  0.8170 -0.3301  0.4847
 6899SOL    HW223015   2.477   5.774   3.515 -0.5243  1.4687 -0.5332
 6900SOL     OW23016   1.623   3.978   5.892  0.0626  0.0315 -0.0576
 6900SOL    HW123017   1.714   3.980   5.862  0.3961 -0.0481  0.9180
 6900SOL    HW223018   1.596   3.887   5.880  0.5439 -0.2444  0.8678
 6901SOL     OW23019   0.579   3.725   4.423  0.0644 -0.3546  0.6013
 6901SOL    HW123020   0.508   3.751   4.363 -0.1690 -0.4061  0.8529
 6901SOL    HW223021   0.636   3.801   4.426 -1.0672  0.4832  2.0037
 6902SOL     OW23022   8.707   3.992   1.276 -0.2619 -0.2544 -0.7020
 6902SOL    HW123023   8.653   3.914   1.263 -0.9470  0.1384 -0.2796
 6902SOL    HW223024   8.755   3.974   1.357 -0.4678 -0.2094 -0.5697
 6903SOL     OW23025   2.124   7.443   7.709  0.0541 -0.3325 -0.4045
 6903SOL    HW123026   2.059   7.456   7.641 -0.7863 -3.3850 -0.3018
 6903SOL    HW223027   2.208   7.453   7.665 -0.4645  0.3178 -1.2676
 6904SOL     OW23028   9.745   6.389   2.379  0.0747 -0.6405  0.4702
 6904SOL    HW123029   9.713   6.468   2.423  0.7752  0.0892 -0.3088
 6904SOL    HW223030   9.671   6.361   2.324  0.0781 -0.0860  0.1734
 6905SOL     OW23031   9.134   6.174   8.010 -0.5380 -0.2673 -0.7718
 6905SOL    HW123032   9.127   6.093   7.960 -0.9315  0.0367 -1.2126
 6905SOL    HW223033   9.047   6.188   8.046 -0.3870 -0.2146 -0.4228
 6906SOL     OW23034   2.098   4.428   8.954 -0.2058 -0.2799  0.0614
 6906SOL    HW123035   2.162   4.363   8.985 -0.3890 -1.1447 -1.2908
 6906SOL    HW223036   2.018   4.377   8.938 -0.1991  0.1611 -1.5235
 6907SOL     OW23037   3.293   0.885   6.031 -0.1166  0.1775  0.2550
 6907SOL    HW123038   3.351   0.820   5.992  0.8721  1.0115  0.2689
 6907SOL    HW223039   3.207   0.868   5.993  0.5476  0.1717 -1.3418
 6908SOL     OW23040   4.611   2.474   5.167 -0.8141  0.2006  0.5400
 6908SOL    HW123041   4.524   2.442   5.143  0.2421 -1.8267 -0.9656
 6908SOL    HW223042   4.632   2.540   5.100 -0.9966  0.3427  0.6225
 6909SOL     OW23043   3.502   7.728   1.490  0.3647  0.2943  0.3051
 6909SOL    HW123044   3.527   7.744   1.581  0.6909 -0.0455  0.2813
 6909SOL    HW223045   3.562   7.659   1.461  1.7905  1.9533 -0.8754
 6910SOL     OW23046   1.879   0.240   2.045 -0.1678  0.5410 -0.0300
 6910SOL    HW123047   1.815   0.181   2.005  0.5123 -0.4466  0.2881
 6910SOL    HW223048   1.828   0.297   2.102 -0.9011  0.6130 -0.7493
 6911SOL     OW23049   6.600   7.953   2.521  0.8305  0.4464 -0.5789
 6911SOL    HW123050   6.521   7.899   2.510  1.1812 -0.5366  1.3993
 6911SOL    HW223051   6.648   7.942   2.439  0.3328 -1.3352 -0.6655
 6912SOL     OW23052   2.877   3.799   7.048  0.1865 -0.4558  0.2855
 6912SOL    HW123053   2.912   3.713   7.024  1.3108 -0.6033  2.1994
 6912SOL    HW223054   2.922   3.820   7.130 -2.7636  0.3234  1.8261
 6913SOL     OW23055   0.318   7.729   3.809  0.0203  0.2640  0.4420
 6913SOL    HW123056   0.230   7.767   3.806 -0.3200 -0.4012  1.3922
 6913SOL    HW223057   0.374   7.799   3.842 -0.3717  0.3517  0.9444
 6914SOL     OW23058   7.985   4.317   4.799 -0.1357  0.2323 -0.5634
 6914SOL    HW123059   8.066   4.298   4.846  0.3999  0.9553 -1.1678
 6914SOL    HW223060   8.007   4.308   4.706 -0.1833  2.3525 -0.8412
 6915SOL     OW23061   8.990   6.709   0.673  0.5613  0.3216  0.0089
 6915SOL    HW123062   9.076   6.744   0.649  1.3448 -1.3312  0.2597
 6915SOL    HW223063   9.009   6.639   0.735 -1.0135  0.1808  0.3839
 6916SOL     OW23064   7.966   1.083   2.825  0.0695 -0.5599  0.3937
 6916SOL    HW123065   7.967   0.987   2.828 -1.5233 -0.6237 -0.3448
 6916SOL    HW223066   8.059   1.108   2.824  0.5438 -2.0087  2.3265
 6917SOL     OW23067   4.134   8.368   9.156  0.4043  0.3784  0.6214
 6917SOL    HW123068   4.135   8.463   9.165  1.1556  0.4763 -0.2819
 6917SOL    HW223069   4.112   8.353   9.065  1.1947 -0.2775  0.5241
 6918SOL     OW23070   4.712   3.027   0.624 -0.2742 -0.4032  0.1969
 6918SOL    HW123071   4.704   2.976   0.544  0.5955 -0.7703  0.3286
 6918SOL    HW223072   4.771   2.975   0.680  1.1660  1.0267  0.0774
 6919SOL     OW23073   7.428   1.700   9.708 -0.3427  0.3536  0.2600
 6919SOL    HW123074   7.417   1.722   9.801  1.1985 -0.4200  0.6644
 6919SOL    HW223075   7.343   1.720   9.668 -1.0516  0.6610  1.8381
 6920SOL     OW23076   1.560  10.523   6.026 -0.5566 -0.1479  0.0678
 6920SOL    HW123077   1.485  10.480   6.066  0.1375 -0.2446  1.3306
 6920SOL    HW223078   1.633  10.504   6.085  0.7529 -1.1135 -1.7731
 6921SOL     OW23079   1.800   1.439   1.257 -0.3760  0.2631  0.4385
 6921SOL    HW123080   1.750   1.383   1.316  1.6134  0.9544  2.9345
 6921SOL    HW223081   1.875   1.386   1.231 -0.0851  0.7259  0.3284
 6922SOL     OW23082   8.467   7.825   1.896  0.2387  0.3465  0.4258
 6922SOL    HW123083   8.524   7.798   1.824  1.4610 -0.3043  1.6068
 6922SOL    HW223084   8.477   7.921   1.899  0.6159  0.3221  0.0820
 6923SOL     OW23085   0.631   1.198   3.737 -0.4686  0.0398 -0.4461
 6923SOL    HW123086   0.610   1.167   3.825 -1.3376 -0.2742 -0.7583
 6923SOL    HW223087   0.725   1.218   3.741  0.0178 -2.0450 -0.0362
 6924SOL     OW23088   1.532   7.252   5.652 -0.7006 -0.4905 -0.1148
 6924SOL    HW123089   1.542   7.271   5.746  0.0642  1.0997 -0.4744
 6924SOL    HW223090   1.445   7.286   5.631 -1.1894 -1.5436  0.1589
 6925SOL     OW23091   1.850   0.567   3.551  0.1872 -0.2396 -0.0715
 6925SOL    HW123092   1.803   0.497   3.596  1.9767 -2.1204 -0.9338
 6925SOL    HW223093   1.925   0.585   3.609 -0.4658  1.2884  0.3314
 6926SOL     OW23094   6.103   6.801   0.952  0.2304 -0.1441  0.0472
 6926SOL    HW123095   6.022   6.750   0.951 -0.8823  1.5266  0.5364
 6926SOL    HW223096   6.101   6.847   1.036  2.9571 -1.9517  1.2143
 6927SOL     OW23097   8.213   0.076   4.526  0.1585 -0.4520  0.2721
 6927SOL    HW123098   8.189   0.135   4.597 -0.3746  0.4201 -0.6206
 6927SOL    HW223099   8.287   0.026   4.561  0.1820  0.2642  1.2802
 6928SOL     OW23100   8.655   6.754   4.208  0.1988  0.1748 -0.4720
 6928SOL    HW123101   8.572   6.762   4.162 -0.6371  1.1927  1.1040
 6928SOL    HW223102   8.680   6.662   4.196  0.2023  0.4626 -3.1300
 6929SOL     OW23103   5.657   6.171   1.060 -0.1515  0.2880 -0.1450
 6929SOL    HW123104   5.646   6.185   1.154  0.9878  2.6554 -0.2725
 6929SOL    HW223105   5.677   6.078   1.051  0.6605  0.1857  2.0718
 6930SOL     OW23106   4.369   0.421   3.592 -0.5302  0.0252 -0.6304
 6930SOL    HW123107   4.423   0.342   3.595 -1.4937 -0.6592  1.6091
 6930SOL    HW223108   4.399   0.474   3.666 -2.3149 -0.0140  0.1843
 6931SOL     OW23109   1.057   1.268   1.524  0.5709  0.6354 -0.5812
 6931SOL    HW123110   0.964   1.264   1.502  0.9094 -0.1130 -1.9791
 6931SOL    HW223111   1.058   1.279   1.619 -0.9436  1.1732 -0.5952
 6932SOL     OW23112  10.561   9.811   7.774  0.2808 -0.2691  0.4114
 6932SOL    HW123113  10.538   9.747   7.842 -0.1177  1.1366  1.6677
 6932SOL    HW223114  10.495   9.797   7.706  0.4050 -1.4079  0.4962
 6933SOL     OW23115   5.278   8.781   7.838  0.1214  0.0073 -0.1938
 6933SOL    HW123116   5.361   8.745   7.869 -0.4945 -1.2296  0.0707
 6933SOL    HW223117   5.212   8.721   7.871 -1.0039  1.6244  0.6185
 6934SOL     OW23118   9.815   2.056   9.737  0.5735 -0.7666 -0.6454
 6934SOL    HW123119   9.793   2.065   9.829 -0.8797 -1.0011 -0.9465
 6934SOL    HW223120   9.910   2.069   9.733  0.3771  1.6217  0.5886
 6935SOL     OW23121   9.846   8.270   8.887 -0.6323  0.3581 -0.5535
 6935SOL    HW123122   9.924   8.320   8.862 -2.4649  2.7175 -1.9917
 6935SOL    HW223123   9.798   8.259   8.805 -1.5299 -1.6241  0.1899
 6936SOL     OW23124   8.790   8.542   1.667  0.0584 -0.0162  0.2346
 6936SOL    HW123125   8.719   8.518   1.608 -1.6070 -0.1028  2.1700
 6936SOL    HW223126   8.819   8.458   1.703 -1.4748  0.2658  2.2651
 6937SOL     OW23127   2.243   9.910   6.905 -0.1682 -0.1509 -0.3376
 6937SOL    HW123128   2.289   9.890   6.987 -0.9973  0.1742  0.2212
 6937SOL    HW223129   2.212   9.825   6.874  1.8906 -0.5762 -1.4228
 6938SOL     OW23130   1.631   0.592   7.909  0.4044 -0.3771 -0.7295
 6938SOL    HW123131   1.682   0.526   7.861  1.0834  0.1515 -0.7519
 6938SOL    HW223132   1.576   0.633   7.842 -1.2248 -1.9652 -0.4737
 6939SOL     OW23133   5.861  10.035   5.573 -0.2771  0.0411 -0.0262
 6939SOL    HW123134   5.776   9.991   5.561  0.1186 -1.1780  1.2876
 6939SOL    HW223135   5.869  10.093   5.498 -0.9058 -2.0869 -1.8630
 6940SOL     OW23136   8.155   4.331  10.521 -0.1836  0.4210 -0.2571
 6940SOL    HW123137   8.206   4.323  10.601 -0.0077 -0.0573 -0.4142
 6940SOL    HW223138   8.069   4.363  10.550  0.3688  1.8096 -0.0509
 6941SOL     OW23139   8.124   8.501   4.500 -0.0097 -0.3091  0.3781
 6941SOL    HW123140   8.146   8.498   4.594 -1.5915 -0.0557  0.7802
 6941SOL    HW223141   8.073   8.582   4.491 -1.3544 -1.2232 -0.3613
 6942SOL     OW23142   2.426   6.555   5.786  0.2647  0.3754  0.1090
 6942SOL    HW123143   2.479   6.477   5.772 -0.4712 -0.0432 -0.4597
 6942SOL    HW223144   2.348   6.541   5.732 -0.2415  1.1511  0.6142
 6943SOL     OW23145   2.849  10.329   0.632  0.0814  0.0793  0.2693
 6943SOL    HW123146   2.757  10.318   0.657  0.1602 -0.1768  0.4463
 6943SOL    HW223147   2.868  10.421   0.650 -0.2136  0.2012 -0.0113
 6944SOL     OW23148   3.420   3.375   1.865  0.0209 -0.2227 -0.2516
 6944SOL    HW123149   3.401   3.448   1.924  0.1445 -0.4724  0.1039
 6944SOL    HW223150   3.425   3.299   1.923  1.3012 -0.2956 -0.4399
 6945SOL     OW23151   9.728   6.544   3.255  0.6076  0.2727  0.1749
 6945SOL    HW123152   9.720   6.461   3.207  0.3449 -1.1473  2.5321
 6945SOL    HW223153   9.653   6.544   3.315  1.4384  1.4966  1.2563
 6946SOL     OW23154   1.946   1.097   1.889 -0.0142 -0.1987  0.0395
 6946SOL    HW123155   1.872   1.073   1.833  0.0888 -0.5764  0.0648
 6946SOL    HW223156   1.908   1.158   1.953  0.0994  1.1141 -1.0912
 6947SOL     OW23157   7.452   4.383   3.289  0.0107 -0.2175  0.3590
 6947SOL    HW123158   7.400   4.303   3.298  1.0065 -0.8480  0.6243
 6947SOL    HW223159   7.531   4.367   3.340  2.4780 -0.9655 -3.3034
 6948SOL     OW23160   2.682   0.662   9.434 -0.3839 -0.0052 -0.2609
 6948SOL    HW123161   2.695   0.750   9.399 -2.3388  0.2731 -0.3823
 6948SOL    HW223162   2.661   0.608   9.358 -4.5184  0.5777  0.1997
 6949SOL     OW23163   0.978   4.823   2.216  0.0626  0.2585  0.8960
 6949SOL    HW123164   0.893   4.785   2.193 -0.7079  0.8874  2.5365
 6949SOL    HW223165   1.025   4.751   2.258  0.0495  0.1055  0.6489
 6950SOL     OW23166   6.030  10.382   4.003  0.3151 -0.2963  0.1367
 6950SOL    HW123167   6.017  10.475   4.024  2.5194 -0.2535  1.6265
 6950SOL    HW223168   5.956  10.338   4.045  0.2556  0.6331  1.0487
 6951SOL     OW23169   2.493   1.580   5.229 -0.3462 -0.1555 -0.1086
 6951SOL    HW123170   2.466   1.491   5.206 -1.5283  0.2902 -0.5275
 6951SOL    HW223171   2.585   1.584   5.204  0.0882 -1.6510  1.1180
 6952SOL     OW23172   4.178   4.316   9.535 -0.0730 -0.6801  0.0618
 6952SOL    HW123173   4.151   4.318   9.444 -2.0612 -2.3738  0.5530
 6952SOL    HW223174   4.125   4.384   9.577 -0.0664 -0.7531  0.1892
 6953SOL     OW23175   8.822   1.799   7.978  0.1356 -0.1187 -0.6110
 6953SOL    HW123176   8.821   1.895   7.978  0.4849 -0.1076  0.3192
 6953SOL    HW223177   8.767   1.775   8.053  2.1500 -0.5923  0.8079
 6954SOL     OW23178   1.777   9.430   6.731  0.5890 -0.0180 -0.3977
 6954SOL    HW123179   1.810   9.399   6.647 -2.7202 -1.1811 -1.4251
 6954SOL    HW223180   1.758   9.349   6.780 -0.4316  0.5790  0.2229
 6955SOL     OW23181   7.512   4.290   4.824 -0.0651 -0.1529 -0.3851
 6955SOL    HW123182   7.519   4.322   4.914 -3.1869  0.7765 -0.3582
 6955SOL    HW223183   7.492   4.197   4.834  0.8455 -0.3372 -0.1905
 6956SOL     OW23184   7.925   1.491   8.173  0.2652 -0.0302 -0.1411
 6956SOL    HW123185   7.880   1.469   8.091 -0.7452  1.6530 -0.0838
 6956SOL    HW223186   7.918   1.586   8.179  0.7763 -0.0732  1.6493
 6957SOL     OW23187   3.490   1.663   0.191  0.4239 -0.0160 -0.4976
 6957SOL    HW123188   3.448   1.704   0.266 -1.5734 -1.5184 -0.7306
 6957SOL    HW223189   3.570   1.715   0.177  0.4643  0.7702  2.1412
 6958SOL     OW23190   1.828   4.346   5.655  0.0322  0.4160  0.3760
 6958SOL    HW123191   1.777   4.276   5.614 -0.9979  0.4256  1.5556
 6958SOL    HW223192   1.897   4.366   5.592  0.2994 -1.5831 -0.0392
 6959SOL     OW23193   7.084   9.222   4.285  0.2066  0.2796  0.2784
 6959SOL    HW123194   7.142   9.210   4.361  0.5504 -0.6962 -0.1198
 6959SOL    HW223195   7.051   9.312   4.294 -0.2730 -0.0396  1.9232
 6960SOL     OW23196   6.878   0.332   9.836 -0.1286 -0.1083 -0.3907
 6960SOL    HW123197   6.863   0.420   9.873  0.9174 -0.1712  0.2201
 6960SOL    HW223198   6.794   0.288   9.847 -0.2396  0.3330  0.6966
 6961SOL     OW23199   2.394   8.695   5.321 -0.2686 -0.0077  0.2808
 6961SOL    HW123200   2.398   8.607   5.358  0.0354 -0.1637 -0.1157
 6961SOL    HW223201   2.381   8.681   5.227  1.8640  0.3092 -0.1032
 6962SOL     OW23202   1.604   2.649   7.476  0.0634  0.0032  0.0568
 6962SOL    HW123203   1.519   2.605   7.480  0.0837 -0.0708 -0.3728
 6962SOL    HW223204   1.665   2.587   7.517 -0.3726  0.7465  1.9295
 6963SOL     OW23205   3.651   3.688   4.994 -0.7844 -0.1731 -0.0923
 6963SOL    HW123206   3.633   3.782   4.993 -2.4095 -0.4371 -1.5014
 6963SOL    HW223207   3.637   3.660   4.903 -0.5146 -1.8017  0.3344
 6964SOL     OW23208   9.883   2.936   5.795  0.5116  0.2231 -0.2238
 6964SOL    HW123209   9.930   2.910   5.874  1.0795 -2.0938 -1.2346
 6964SOL    HW223210   9.902   3.029   5.786  3.6875 -0.2369  0.2881
 6965SOL     OW23211   6.604   9.951   5.330 -0.4509 -0.1082 -0.0279
 6965SOL    HW123212   6.694   9.951   5.362  0.2366  2.6519 -1.6525
 6965SOL    HW223213   6.552   9.922   5.405  1.6892 -0.9313  1.2235
 6966SOL     OW23214   8.188   4.851   5.639 -0.0991  0.1757  0.0201
 6966SOL    HW123215   8.277   4.872   5.612  0.3749 -2.9474 -1.2400
 6966SOL    HW223216   8.167   4.771   5.592 -3.0849  0.0363  1.3684
 6967SOL     OW23217   9.351   6.411   9.772 -0.1342  0.1993  0.2187
 6967SOL    HW123218   9.345   6.379   9.862  2.2066 -1.6841 -0.2110
 6967SOL    HW223219   9.360   6.506   9.781  0.4559  0.0078  2.0049
 6968SOL     OW23220   1.857   9.905   5.331 -0.1203 -1.0078 -0.2182
 6968SOL    HW123221   1.944   9.926   5.299  0.0481 -0.7922  0.3701
 6968SOL    HW223222   1.847   9.811   5.314 -0.0759 -0.8756 -0.9867
 6969SOL     OW23223   2.707   8.631   1.393 -0.4157  0.6525 -0.0946
 6969SOL    HW123224   2.748   8.709   1.432 -0.6878  1.0024 -0.4936
 6969SOL    HW223225   2.754   8.618   1.310 -0.9663  0.9439 -0.4649
 6970SOL     OW23226   1.328   6.764   3.320 -0.0283  0.0934  0.0162
 6970SOL    HW123227   1.291   6.822   3.254  0.6771  0.2357 -0.2664
 6970SOL    HW223228   1.253   6.718   3.357 -0.3914 -0.3270 -1.2071
 6971SOL     OW23229   2.695   2.447   5.929 -0.3974 -0.1135 -0.1742
 6971SOL    HW123230   2.709   2.455   6.023  1.4606 -0.3048 -0.4085
 6971SOL    HW223231   2.661   2.358   5.918 -0.7019 -0.0651  0.3146
 6972SOL     OW23232   3.363   5.784   1.467 -0.3830  0.2881 -0.3847
 6972SOL    HW123233   3.427   5.722   1.504 -0.1633  0.3792 -0.6095
 6972SOL    HW223234   3.400   5.870   1.485  0.1981  0.3213 -1.6290
 6973SOL     OW23235   1.311   3.675   9.150  0.2039  0.2044  0.2781
 6973SOL    HW123236   1.406   3.663   9.159  0.1519  0.5658  1.6011
 6973SOL    HW223237   1.301   3.767   9.123  0.1971  0.5942  1.5492
 6974SOL     OW23238   0.697   0.859   2.510  0.1320 -0.2669 -0.4987
 6974SOL    HW123239   0.784   0.862   2.469  0.4669  0.1207  0.2178
 6974SOL    HW223240   0.638   0.896   2.444  0.9065  1.9189 -0.0732
 6975SOL     OW23241   3.955   8.241   9.722  0.3349 -0.6721 -0.0639
 6975SOL    HW123242   4.014   8.308   9.688  0.9757 -0.5058  1.2934
 6975SOL    HW223243   3.940   8.182   9.648  2.0534 -0.6085 -0.5034
 6976SOL     OW23244   7.339   5.365   4.217 -0.1475 -0.0726  0.7742
 6976SOL    HW123245   7.417   5.402   4.176 -0.8501  0.2234 -0.3444
 6976SOL    HW223246   7.359   5.272   4.226 -0.8278 -0.6961 -2.5784
 6977SOL     OW23247   8.648   5.107   8.648  0.3052  0.1136  0.0105
 6977SOL    HW123248   8.620   5.165   8.577 -1.5543 -0.1166  0.5017
 6977SOL    HW223249   8.682   5.029   8.603 -0.6150  0.0726 -0.6413
 6978SOL     OW23250   3.716   7.945   7.707  0.5649  0.5174 -0.8694
 6978SOL    HW123251   3.778   8.016   7.723  0.4651  0.5687 -0.7159
 6978SOL    HW223252   3.632   7.979   7.736  0.4588  0.4556 -1.0980
 6979SOL     OW23253   7.147   1.112   5.338 -0.2059  0.1605 -0.2876
 6979SOL    HW123254   7.064   1.070   5.320 -0.0350  0.1048 -0.9625
 6979SOL    HW223255   7.211   1.065   5.285  0.3744 -0.2285  0.7261
 6980SOL     OW23256   2.635   7.919   1.977 -0.4087  0.0077  0.2826
 6980SOL    HW123257   2.665   8.007   1.953  0.4024 -0.5090 -0.6429
 6980SOL    HW223258   2.553   7.908   1.929 -1.1992  0.7434  1.4248
 6981SOL     OW23259   6.090   7.263   5.325 -0.0908 -0.7337 -0.7019
 6981SOL    HW123260   6.139   7.231   5.400 -0.2924  1.1466  0.2896
 6981SOL    HW223261   6.148   7.326   5.283 -0.7000 -0.3308 -0.9592
 6982SOL     OW23262   9.053   3.835   9.020 -0.0389 -0.0090  0.1582
 6982SOL    HW123263   9.026   3.869   9.105  1.4063  0.3507  0.4997
 6982SOL    HW223264   8.982   3.775   8.994 -1.5953  1.5902  0.5332
 6983SOL     OW23265   1.141   7.438   6.362  0.5165  0.4161  0.4362
 6983SOL    HW123266   1.185   7.518   6.335  2.4124 -0.5688  0.4753
 6983SOL    HW223267   1.078   7.420   6.292  0.5867  1.5262  0.0695
 6984SOL     OW23268   5.724   4.940   9.110 -0.8309 -0.2214  0.2992
 6984SOL    HW123269   5.693   4.875   9.173  1.1472 -0.9745  0.5823
 6984SOL    HW223270   5.800   4.899   9.069 -0.7236  1.1566 -0.9466
 6985SOL     OW23271   7.738  10.480   5.814 -0.1001 -0.8716 -0.1204
 6985SOL    HW123272   7.706  10.415   5.752 -1.8288  2.0637 -2.5768
 6985SOL    HW223273   7.669  10.486   5.880 -1.4670  0.5614 -1.6071
 6986SOL     OW23274   4.642   0.475   1.446 -0.0802 -0.3693 -0.1545
 6986SOL    HW123275   4.614   0.482   1.355  1.1945  1.8621 -0.4661
 6986SOL    HW223276   4.693   0.394   1.450  0.4493 -0.1342 -1.6262
 6987SOL     OW23277   0.339   3.518   5.678  0.1980 -0.0328  0.4732
 6987SOL    HW123278   0.336   3.612   5.696  0.5969 -0.5159  3.4580
 6987SOL    HW223279   0.432   3.496   5.677  0.0822 -0.6716  1.6619
 6988SOL     OW23280   5.616   8.993   9.821 -0.1163 -0.0475 -0.5463
 6988SOL    HW123281   5.543   9.054   9.820  0.3785  0.5721  0.0641
 6988SOL    HW223282   5.606   8.946   9.904  0.6448  0.6421 -0.0428
 6989SOL     OW23283   7.770   8.748   2.871 -0.1839 -0.1560 -0.1757
 6989SOL    HW123284   7.820   8.742   2.952  0.5977  0.6563 -0.5733
 6989SOL    HW223285   7.807   8.680   2.815  1.6948  1.4970 -1.0697
 6990SOL     OW23286   7.141   0.153   1.921 -0.2438 -0.0235  0.4525
 6990SOL    HW123287   7.186   0.223   1.968 -2.7020  1.8478  0.2595
 6990SOL    HW223288   7.137   0.184   1.830 -0.3006 -1.0227  0.0940
 6991SOL     OW23289  10.377   4.432   4.965 -0.2414 -0.2041 -0.2112
 6991SOL    HW123290  10.441   4.409   4.898 -0.2556 -1.2979  0.1304
 6991SOL    HW223291  10.428   4.449   5.044 -0.2233  1.1081 -0.4784
 6992SOL     OW23292   8.162   5.618   0.644 -0.3649 -0.2398 -0.5384
 6992SOL    HW123293   8.110   5.685   0.600 -1.5527 -1.1471 -0.5775
 6992SOL    HW223294   8.176   5.551   0.578  1.1598  0.1232 -0.6168
 6993SOL     OW23295   4.849   6.759   7.387  0.2801  0.3127 -0.2219
 6993SOL    HW123296   4.930   6.746   7.339  0.9844  2.3826  0.3013
 6993SOL    HW223297   4.780   6.736   7.325  1.2180 -2.2799 -0.4041
 6994SOL     OW23298   5.236   0.938  10.223  0.3747 -0.1319  0.2644
 6994SOL    HW123299   5.257   1.022  10.183 -0.1473 -0.4050 -0.5986
 6994SOL    HW223300   5.192   0.961  10.305 -0.1324  0.4433 -0.1631
 6995SOL     OW23301   8.294   7.651   0.456  0.2719 -0.6469 -0.2324
 6995SOL    HW123302   8.235   7.638   0.530  0.4296 -0.3483 -0.0496
 6995SOL    HW223303   8.263   7.732   0.414  0.7382 -0.3153  0.0533
 6996SOL     OW23304   2.131   7.578   9.205  0.2499  0.0208  0.1312
 6996SOL    HW123305   2.064   7.546   9.145  0.1512  3.2940 -1.7466
 6996SOL    HW223306   2.082   7.609   9.281 -0.0979  0.0821 -0.1159
 6997SOL     OW23307  10.399   8.331   9.554  0.1788 -0.6584  0.9060
 6997SOL    HW123308  10.462   8.261   9.567  0.5127 -0.7056 -0.7478
 6997SOL    HW223309  10.378   8.328   9.461 -0.7905  0.6058  1.0486
 6998SOL     OW23310   6.659   2.782   9.811 -0.1366 -0.4417 -0.3722
 6998SOL    HW123311   6.728   2.843   9.839 -0.0913  0.0797 -1.5346
 6998SOL    HW223312   6.672   2.705   9.865  0.1519  0.3737  0.7647
 6999SOL     OW23313   9.093   4.471   6.300  0.5320 -0.0721 -0.1889
 6999SOL    HW123314   9.145   4.470   6.220 -0.2431  0.1199 -0.7077
 6999SOL    HW223315   9.147   4.517   6.364  0.7069  0.7700 -0.9277
 7000SOL     OW23316   0.573   3.925   9.895  0.1553  0.1925  0.4251
 7000SOL    HW123317   0.500   3.881   9.852  0.6894  1.0929 -1.4891
 7000SOL    HW223318   0.643   3.861   9.898 -0.1368 -0.1194  0.7074
 7001SOL     OW23319   8.794   6.912   0.517  0.2464 -0.1487  0.1534
 7001SOL    HW123320   8.771   6.936   0.427 -0.6304  1.1377  0.6867
 7001SOL    HW223321   8.805   6.817   0.515 -0.5598 -0.2343 -1.1424
 7002SOL     OW23322   8.722  10.198   7.339  0.2143  0.1756  0.2713
 7002SOL    HW123323   8.684  10.129   7.394  0.4790  0.3884  0.7242
 7002SOL    HW223324   8.646  10.244   7.303 -0.0820  2.1223  3.0368
 7003SOL     OW23325   3.199   1.567   7.676 -0.5862 -0.4076  0.5768
 7003SOL    HW123326   3.149   1.626   7.619  0.4277 -0.0742  0.0016
 7003SOL    HW223327   3.188   1.603   7.764  1.2098  1.5680  0.0701
 7004SOL     OW23328   6.293   8.988   9.141  0.4842  0.3386 -0.4699
 7004SOL    HW123329   6.227   8.920   9.129  0.8727 -0.4947  1.7036
 7004SOL    HW223330   6.314   9.017   9.052 -1.6409 -0.4605 -1.3034
 7005SOL     OW23331   4.482   9.096   3.865  0.0345 -0.0536 -0.0431
 7005SOL    HW123332   4.510   9.005   3.855  2.0992  0.6726 -1.3479
 7005SOL    HW223333   4.455   9.102   3.957  2.6580 -1.2716  0.8999
 7006SOL     OW23334   7.166   4.184   8.943  0.7131 -0.2259  0.0728
 7006SOL    HW123335   7.076   4.212   8.953  0.7041 -0.3596  0.3488
 7006SOL    HW223336   7.161   4.103   8.891  0.7941  0.7375 -1.5096
 7007SOL     OW23337   6.844   6.440   2.074  0.2782 -0.4729 -0.2709
 7007SOL    HW123338   6.839   6.525   2.029  0.5918 -1.3633 -2.0780
 7007SOL    HW223339   6.806   6.378   2.012 -2.8633 -1.3023  2.2029
 7008SOL     OW23340   4.847   8.567   5.111  0.0383 -0.0717 -0.5151
 7008SOL    HW123341   4.806   8.648   5.083 -0.0239 -0.4358 -1.5195
 7008SOL    HW223342   4.784   8.526   5.170 -0.6638 -0.1840 -1.3230
 7009SOL     OW23343   1.236   8.066   7.237  0.1794  0.4431 -0.1153
 7009SOL    HW123344   1.196   8.127   7.299 -1.8424  0.5539 -1.4582
 7009SOL    HW223345   1.215   8.101   7.151  0.3339 -1.2879 -0.9067
 7010SOL     OW23346  10.091   9.967   4.839  0.0004 -0.1865  0.3966
 7010SOL    HW123347  10.110   9.880   4.876 -1.7847  0.4786  3.1788
 7010SOL    HW223348  10.134  10.028   4.898 -0.1693  0.9002 -0.5626
 7011SOL     OW23349   6.506   1.114   9.996  0.1454 -0.2135 -0.6442
 7011SOL    HW123350   6.438   1.071  10.048  0.7693  0.0184  0.3746
 7011SOL    HW223351   6.538   1.046   9.937  0.1527 -0.7606 -0.0151
 7012SOL     OW23352   0.656   0.937   5.837  0.4595  0.0661 -0.4817
 7012SOL    HW123353   0.664   1.029   5.862  2.6458 -0.1949  0.0557
 7012SOL    HW223354   0.634   0.891   5.919 -0.4921  0.0769 -0.7209
 7013SOL     OW23355   7.414   9.766   6.757 -0.3803  0.0894  0.0683
 7013SOL    HW123356   7.431   9.859   6.747  1.0132  0.0914  1.7588
 7013SOL    HW223357   7.319   9.757   6.752 -0.5485  1.6492  0.1430
 7014SOL     OW23358   0.775   7.767   4.519  0.7515 -0.2550 -0.2564
 7014SOL    HW123359   0.755   7.674   4.528  2.4621 -0.6934 -0.5820
 7014SOL    HW223360   0.860   7.777   4.562  0.6226  1.1479 -0.2929
 7015SOL     OW23361   0.352   2.588   0.649 -0.0403  0.1769 -0.5190
 7015SOL    HW123362   0.323   2.651   0.583 -0.1025 -0.4763 -1.1261
 7015SOL    HW223363   0.273   2.538   0.670  0.2094 -0.2980 -0.7138
 7016SOL     OW23364   7.993   0.389  10.141  0.3115 -0.5907 -0.5327
 7016SOL    HW123365   7.925   0.392  10.074  0.0556  1.1848 -0.2443
 7016SOL    HW223366   7.948   0.415  10.221  1.3689  0.9167 -0.3972
 7017SOL     OW23367   8.035  10.463   0.514 -0.6990  0.2106 -0.2680
 7017SOL    HW123368   8.104  10.473   0.579 -0.5479 -2.1331 -0.0176
 7017SOL    HW223369   8.070  10.403   0.449 -2.4163 -0.9051 -0.2255
 7018SOL     OW23370   8.346   1.834   1.579 -0.3917  0.1651  0.2144
 7018SOL    HW123371   8.260   1.816   1.540  0.4770  0.6659 -2.0471
 7018SOL    HW223372   8.328   1.900   1.646 -1.8913 -0.4615  0.4739
 7019SOL     OW23373  10.081   8.876   4.128  0.7787  0.0540 -0.0623
 7019SOL    HW123374  10.173   8.859   4.109  1.4617  1.6279  1.5468
 7019SOL    HW223375  10.071   8.856   4.221 -0.2361  0.8818  0.0339
 7020SOL     OW23376   1.809   7.334   6.136 -0.1845  0.1195  0.5972
 7020SOL    HW123377   1.798   7.407   6.076 -1.4150  0.1880  0.8787
 7020SOL    HW223378   1.848   7.373   6.214 -0.6841  0.4542  0.6857
 7021SOL     OW23379   0.284   3.185   8.856 -0.0572 -0.0275 -1.1217
 7021SOL    HW123380   0.368   3.148   8.883  0.5373  0.7900 -1.7893
 7021SOL    HW223381   0.305   3.274   8.828 -1.3878  0.7188  0.1063
 7022SOL     OW23382   0.284   1.499   4.837  0.0716  0.5864  0.0579
 7022SOL    HW123383   0.359   1.558   4.828  0.8405 -0.3679 -0.0144
 7022SOL    HW223384   0.323   1.412   4.844 -1.0610 -0.2665 -2.7233
 7023SOL     OW23385   6.593   6.446   4.521 -0.4654 -0.0015 -0.0594
 7023SOL    HW123386   6.613   6.368   4.470 -0.8231  0.3293 -0.7156
 7023SOL    HW223387   6.669   6.503   4.508 -0.4682  0.0013 -0.0631
 7024SOL     OW23388   9.518   4.930   9.172  0.1205 -0.9050 -0.5201
 7024SOL    HW123389   9.505   5.008   9.227  0.5611 -0.6185 -0.8140
 7024SOL    HW223390   9.431   4.909   9.139  0.1503  0.0636 -1.2489
 7025SOL     OW23391  10.158   8.247   6.839 -0.3540  0.1350  0.0794
 7025SOL    HW123392  10.239   8.278   6.878  0.2348 -1.6600  0.3640
 7025SOL    HW223393  10.097   8.239   6.913 -0.5927  0.8029 -0.0332
 7026SOL     OW23394   2.826   8.451   7.897  0.0048  0.0101  0.3497
 7026SOL    HW123395   2.752   8.391   7.890 -0.1762  0.4318 -3.0882
 7026SOL    HW223396   2.903   8.393   7.900 -0.3181 -0.3910  2.3210
 7027SOL     OW23397   7.154  10.143   1.730  0.2768  0.3906  0.0143
 7027SOL    HW123398   7.218  10.205   1.766 -0.2760 -0.2453  2.2594
 7027SOL    HW223399   7.179  10.059   1.768 -2.0414  0.1717  1.2422
 7028SOL     OW23400   0.527  10.364   9.815 -1.0389 -0.1598 -0.6249
 7028SOL    HW123401   0.608  10.405   9.844  1.0842 -3.5531 -1.1311
 7028SOL    HW223402   0.475  10.435   9.778  1.8804  2.1211 -0.6776
 7029SOL     OW23403   9.160   4.968   4.965  0.3183  0.1896  0.2513
 7029SOL    HW123404   9.122   5.007   5.044 -0.4840  0.1865 -0.1207
 7029SOL    HW223405   9.189   5.042   4.912  0.1088  0.2253  0.1861
 7030SOL     OW23406  10.416   0.116   8.770  0.3979 -0.5954 -0.1226
 7030SOL    HW123407  10.412   0.024   8.743  0.5155 -0.6036 -0.1129
 7030SOL    HW223408  10.469   0.159   8.703  1.0115 -0.6902  0.2948
 7031SOL     OW23409   8.941   1.660   8.615 -0.0969 -0.0196  0.7936
 7031SOL    HW123410   8.867   1.692   8.564  0.8445 -0.2308 -0.7653
 7031SOL    HW223411   8.938   1.710   8.697 -0.6491  1.5840 -0.1629
 7032SOL     OW23412   4.333   9.337   4.700  0.4202 -0.6085  0.3888
 7032SOL    HW123413   4.246   9.300   4.686  0.0743  0.5910 -0.9343
 7032SOL    HW223414   4.394   9.268   4.673 -0.1574 -0.9520 -0.0451
 7033SOL     OW23415   5.469   8.810   5.599 -0.0779 -0.1918 -0.2753
 7033SOL    HW123416   5.426   8.850   5.524 -0.9033  0.6279  0.6190
 7033SOL    HW223417   5.441   8.862   5.674  2.0740  0.0839  0.4181
 7034SOL     OW23418   7.896   5.842   4.506  0.7837  0.0733  0.1147
 7034SOL    HW123419   7.964   5.884   4.558  1.3355  1.4779 -1.6367
 7034SOL    HW223420   7.940   5.766   4.467  1.5688  1.1806 -1.3134
 7035SOL     OW23421  10.332   3.475   3.489 -0.3151 -0.0363 -0.2061
 7035SOL    HW123422  10.374   3.399   3.530  1.1761 -0.4495 -2.3448
 7035SOL    HW223423  10.245   3.444   3.465  0.1660 -0.9908 -0.7616
 7036SOL     OW23424   8.162   4.442   8.623  0.4700  0.5675 -0.0804
 7036SOL    HW123425   8.233   4.381   8.642  1.6405  0.8947 -2.8787
 7036SOL    HW223426   8.083   4.397   8.652  1.5155 -1.3247 -0.0252
 7037SOL     OW23427   4.228  10.226   0.503 -0.0606 -0.0696 -0.4928
 7037SOL    HW123428   4.272  10.220   0.588 -1.5444  2.1275  0.5309
 7037SOL    HW223429   4.154  10.166   0.509  0.4320 -0.7138 -0.6799
 7038SOL     OW23430   7.113   6.142   0.169 -0.5273  0.7122 -0.1611
 7038SOL    HW123431   7.019   6.160   0.180 -0.1507  2.9264 -0.0267
 7038SOL    HW223432   7.157   6.214   0.216  1.2925 -1.2640  1.3408
 7039SOL     OW23433   3.818   7.543   4.868 -0.5768  0.8667  0.3678
 7039SOL    HW123434   3.736   7.571   4.826 -0.1965  0.1004 -0.9458
 7039SOL    HW223435   3.868   7.502   4.798  0.6043  0.5909  1.3348
 7040SOL     OW23436   7.961   8.126   9.734  0.3658 -0.5644  0.1230
 7040SOL    HW123437   7.961   8.177   9.653  1.8608 -0.9289 -0.1472
 7040SOL    HW223438   7.958   8.035   9.705  1.0181 -0.7015  0.4656
 7041SOL     OW23439   4.454   2.996   3.865  0.6983  0.0353  0.0742
 7041SOL    HW123440   4.530   2.939   3.852  0.1134 -0.3583 -2.1242
 7041SOL    HW223441   4.380   2.947   3.827  0.0236  1.8597 -1.1354
 7042SOL     OW23442   4.668   3.201  10.102  0.0049  0.0870  0.2113
 7042SOL    HW123443   4.656   3.287  10.142 -2.7727  0.7637 -1.7547
 7042SOL    HW223444   4.701   3.146  10.173  0.1205  2.3404  2.0212
 7043SOL     OW23445   5.357   2.157   6.778 -0.0621 -0.0559 -0.5729
 7043SOL    HW123446   5.275   2.147   6.827 -0.1909 -1.0647 -0.9680
 7043SOL    HW223447   5.392   2.240   6.808 -0.1571 -0.6057  1.2052
 7044SOL     OW23448   9.748   4.573   3.130  0.2347 -0.5386 -0.0816
 7044SOL    HW123449   9.718   4.662   3.111  1.8254  0.6343  2.4372
 7044SOL    HW223450   9.677   4.535   3.182 -0.3648 -0.7291 -1.0032
 7045SOL     OW23451   0.076   4.742   2.448 -0.2500 -0.3704  1.0619
 7045SOL    HW123452   0.128   4.715   2.372  0.2303 -0.2781  1.3556
 7045SOL    HW223453  -0.013   4.713   2.427 -0.1083 -0.4132  0.4987
 7046SOL     OW23454   9.542   2.191   9.204  0.0178 -0.2070  0.2756
 7046SOL    HW123455   9.637   2.187   9.214  0.1623  1.0323 -0.3646
 7046SOL    HW223456   9.510   2.230   9.285 -0.2449 -2.8884  1.5755
 7047SOL     OW23457   0.257   7.168   9.895  0.5807 -0.4913 -0.0471
 7047SOL    HW123458   0.216   7.131   9.973 -0.7510  1.3725  0.2089
 7047SOL    HW223459   0.203   7.137   9.822  0.4599 -0.3975  0.0021
 7048SOL     OW23460   6.803   7.532   7.119 -0.3612 -0.2360  0.0342
 7048SOL    HW123461   6.843   7.617   7.137 -2.1035  0.6632 -0.1552
 7048SOL    HW223462   6.823   7.479   7.197  1.1391  0.1720 -0.0565
 7049SOL     OW23463   2.728   5.934   9.840  0.1497 -0.3382 -0.0767
 7049SOL    HW123464   2.653   5.884   9.871  0.4033 -1.1934 -0.8187
 7049SOL    HW223465   2.793   5.868   9.817  1.4392  0.3974  1.2683
 7050SOL     OW23466   3.406   1.429   7.938  0.1098 -0.4678  0.2311
 7050SOL    HW123467   3.332   1.479   7.971 -0.7356 -1.9688  0.6887
 7050SOL    HW223468   3.435   1.476   7.860 -3.0315 -1.2515 -1.5522
 7051SOL     OW23469   1.915   0.967   8.130  0.4108  0.2243 -0.6243
 7051SOL    HW123470   1.917   0.891   8.071 -1.1004 -1.2752  1.1442
 7051SOL    HW223471   1.996   0.960   8.181 -0.0820 -0.7041  0.0645
 7052SOL     OW23472   6.668   3.241   5.635 -0.0019  0.0084 -0.4259
 7052SOL    HW123473   6.626   3.308   5.580  1.6977  0.8994 -0.7021
 7052SOL    HW223474   6.710   3.182   5.573 -1.0838 -1.0709 -0.1642
 7053SOL     OW23475   6.945   5.432   1.936  0.1926  0.0186  0.1634
 7053SOL    HW123476   7.034   5.442   1.903 -0.2654 -0.4504 -1.2830
 7053SOL    HW223477   6.954   5.438   2.031  1.5139  1.8336 -0.0211
 7054SOL     OW23478   3.709   7.899   2.547 -0.4048  0.3429 -0.1019
 7054SOL    HW123479   3.731   7.898   2.640 -0.7425  1.5348  0.0052
 7054SOL    HW223480   3.665   7.983   2.533  1.9575  1.4029 -1.8577
 7055SOL     OW23481   1.172   4.584   2.687  0.1216 -0.0810 -0.7993
 7055SOL    HW123482   1.137   4.553   2.771 -0.2895 -2.0106 -1.6354
 7055SOL    HW223483   1.096   4.618   2.640  0.5452  2.1936  0.0464
 7056SOL     OW23484  10.430   0.028   4.339 -0.1094  0.6476 -0.5676
 7056SOL    HW123485  10.488  -0.006   4.271 -0.5553  2.0569 -1.7035
 7056SOL    HW223486  10.365   0.080   4.291 -0.9784  0.9385  0.8655
 7057SOL     OW23487   9.873   3.295   4.546 -0.4853 -0.0355 -0.5557
 7057SOL    HW123488   9.810   3.226   4.525  0.2864 -0.2492 -2.4555
 7057SOL    HW223489   9.956   3.249   4.559 -0.2376  0.4137 -0.5000
 7058SOL     OW23490   0.324   2.893   0.872  0.1517 -0.1178  0.1343
 7058SOL    HW123491   0.337   2.976   0.919  0.7528  0.3860 -0.8905
 7058SOL    HW223492   0.321   2.918   0.780  1.0757 -1.3247 -0.2435
 7059SOL     OW23493   1.157   3.854   8.414  0.4761  0.3010 -0.4964
 7059SOL    HW123494   1.149   3.820   8.325 -0.1087  1.0940 -0.7592
 7059SOL    HW223495   1.083   3.913   8.424  0.7855  0.5611  0.3706
 7060SOL     OW23496   8.984   0.912   4.295 -0.7522  0.3600 -0.0496
 7060SOL    HW123497   9.032   0.842   4.253 -0.4228 -0.3729  1.4638
 7060SOL    HW223498   9.035   0.931   4.374  0.6350  4.1004 -1.6067
 7061SOL     OW23499   8.764   3.022   1.584 -0.3315 -0.2853 -0.0299
 7061SOL    HW123500   8.847   2.990   1.550 -0.0490  0.2954  0.0983
 7061SOL    HW223501   8.709   2.944   1.590 -0.9884 -0.2083 -3.3627
 7062SOL     OW23502   2.084   3.729   8.702  0.1377 -0.5295  0.4216
 7062SOL    HW123503   2.157   3.779   8.740  1.7082 -2.5742  0.2252
 7062SOL    HW223504   2.081   3.757   8.611  0.2733 -0.0109  0.5690
 7063SOL     OW23505   1.438   7.628   8.978  0.2355  0.0349 -0.5080
 7063SOL    HW123506   1.398   7.559   9.031 -1.4760  2.0808  0.9903
 7063SOL    HW223507   1.526   7.638   9.015  0.2162 -0.7706 -0.2225
 7064SOL     OW23508  10.316   2.060   5.109 -0.1784 -0.0838 -0.1597
 7064SOL    HW123509  10.333   2.005   5.185 -1.2525 -1.3653 -0.8065
 7064SOL    HW223510  10.401   2.097   5.087  0.3898 -0.7252  0.8765
 7065SOL     OW23511   9.046   4.238   1.035  0.5548  0.0991  0.3472
 7065SOL    HW123512   9.002   4.155   1.058  0.4384  0.1945  0.4688
 7065SOL    HW223513   8.978   4.289   0.991  0.8057 -0.1275 -0.3150
 7066SOL     OW23514   3.740   0.252   3.783 -0.4096 -1.0185 -0.3905
 7066SOL    HW123515   3.730   0.200   3.863 -1.6979 -0.2794 -0.0501
 7066SOL    HW223516   3.653   0.288   3.767  0.3739  0.8306 -0.7565
 7067SOL     OW23517   9.789   9.991   4.983 -0.1145  0.1062  0.0688
 7067SOL    HW123518   9.881   9.994   5.010  0.2700  1.7319 -1.2159
 7067SOL    HW223519   9.779   9.907   4.938  0.5622 -0.3750  0.8009
 7068SOL     OW23520   2.440   7.370   9.723  0.3577 -0.2545 -0.3830
 7068SOL    HW123521   2.440   7.459   9.688  0.5377  0.0449  0.3743
 7068SOL    HW223522   2.414   7.315   9.648  0.4202  0.4078 -0.8974
 7069SOL     OW23523   3.156   8.640   8.589 -0.1778  0.5857  0.3074
 7069SOL    HW123524   3.181   8.731   8.607  2.3842  0.4743 -2.0866
 7069SOL    HW223525   3.120   8.642   8.501  0.7406 -0.8024 -0.1359
 7070SOL     OW23526   1.037   8.614   2.475 -0.3996  0.5989  0.0077
 7070SOL    HW123527   1.023   8.668   2.397  0.0869  0.8448  0.0842
 7070SOL    HW223528   1.108   8.554   2.451  0.2482  1.1524  0.4838
 7071SOL     OW23529   6.191   4.406   4.399  0.2159 -0.0019 -0.2611
 7071SOL    HW123530   6.200   4.499   4.420 -1.7981  0.1511  0.1567
 7071SOL    HW223531   6.273   4.382   4.357  0.9313  1.8625 -0.0014
 7072SOL     OW23532   7.692   1.683   7.378 -0.0391 -0.1938  0.5557
 7072SOL    HW123533   7.700   1.595   7.340 -2.8115 -0.0825 -0.5493
 7072SOL    HW223534   7.697   1.741   7.302 -1.0740  0.3743  0.9098
 7073SOL     OW23535   6.362   3.726   3.042 -0.6433 -0.8657  0.0846
 7073SOL    HW123536   6.342   3.677   2.962 -2.4390 -0.8647  0.5156
 7073SOL    HW223537   6.325   3.813   3.026 -0.1952 -0.5840  0.5605
 7074SOL     OW23538   5.833   4.936   8.431 -0.5435 -0.1843 -0.6494
 7074SOL    HW123539   5.804   4.941   8.340  0.9118 -0.3726 -1.1485
 7074SOL    HW223540   5.928   4.949   8.427 -0.7591  3.0422  1.1608
 7075SOL     OW23541  10.213  10.114   1.807 -0.3539  0.2927  0.1295
 7075SOL    HW123542  10.199  10.205   1.781 -0.3433  0.1081 -0.5317
 7075SOL    HW223543  10.198  10.063   1.727 -0.0865 -0.2637  0.4271
 7076SOL     OW23544   0.528   8.915   5.480 -0.1694 -0.5662  0.0793
 7076SOL    HW123545   0.466   8.940   5.412 -0.8447 -0.5346  0.6983
 7076SOL    HW223546   0.603   8.879   5.432 -0.3969 -0.0270 -0.6956
 7077SOL     OW23547   0.978  10.206   1.776 -0.0628  0.3458 -0.0365
 7077SOL    HW123548   0.915  10.277   1.790 -0.4940 -0.1250  0.4668
 7077SOL    HW223549   0.965  10.148   1.850  1.0036  0.2524  0.0852
 7078SOL     OW23550   8.981   2.586   1.096  0.5376  0.1894 -0.2770
 7078SOL    HW123551   8.963   2.666   1.145  1.9120  0.6045 -0.4132
 7078SOL    HW223552   8.963   2.516   1.158 -2.1633  0.4752 -0.6058
 7079SOL     OW23553   7.795   7.214  10.173  0.7136  0.1010 -0.3236
 7079SOL    HW123554   7.799   7.201  10.268  1.1006 -0.8689 -0.4588
 7079SOL    HW223555   7.872   7.268  10.153  1.4149 -0.8327 -0.2414
 7080SOL     OW23556   8.741   2.545   5.847  0.7191 -0.2134 -0.0498
 7080SOL    HW123557   8.761   2.593   5.766 -1.5304  1.7410  0.4314
 7080SOL    HW223558   8.711   2.459   5.818 -0.8323  0.7292 -1.3980
 7081SOL     OW23559  10.355   1.502   4.289  0.2048  0.4365 -0.4338
 7081SOL    HW123560  10.328   1.593   4.276 -1.6603 -0.0178 -0.0427
 7081SOL    HW223561  10.278   1.450   4.263  0.2365 -0.9051  1.9155
 7082SOL     OW23562   9.121   7.547   6.330  0.7741 -0.1182 -0.1733
 7082SOL    HW123563   9.107   7.623   6.272  0.1518 -1.5547 -1.9963
 7082SOL    HW223564   9.091   7.472   6.279  1.1910 -1.6016  1.6556
 7083SOL     OW23565   1.653   5.371   4.870  0.1281  0.3412 -0.1435
 7083SOL    HW123566   1.695   5.454   4.892  0.5752  0.4544 -1.3654
 7083SOL    HW223567   1.698   5.306   4.923  0.7837  0.6796 -0.2790
 7084SOL     OW23568   2.500   5.405   2.558  0.2567 -0.1546  0.5686
 7084SOL    HW123569   2.433   5.361   2.611  0.2159  0.0091  0.6545
 7084SOL    HW223570   2.473   5.388   2.467 -0.1673  0.3097  0.6067
 7085SOL     OW23571   8.239   5.932   0.248 -0.1844  0.5499  0.0814
 7085SOL    HW123572   8.324   5.901   0.215 -1.2859  0.0683 -2.5908
 7085SOL    HW223573   8.229   6.019   0.208 -0.8526  0.6918  0.5550
 7086SOL     OW23574   7.361   1.959   7.129  0.0991 -0.0958  0.3031
 7086SOL    HW123575   7.417   1.893   7.087 -0.1974  0.4257 -0.9600
 7086SOL    HW223576   7.273   1.942   7.094 -0.0604  0.6764  0.2975
 7087SOL     OW23577   8.009   1.422   6.761 -0.2682 -0.3824 -0.8799
 7087SOL    HW123578   8.030   1.421   6.668  1.8841  0.7148 -0.4655
 7087SOL    HW223579   8.017   1.330   6.789 -0.2723 -0.6134 -1.6355
 7088SOL     OW23580   4.755   2.176   4.934  0.2469  0.0784  0.1560
 7088SOL    HW123581   4.733   2.248   4.874 -0.4238  0.1652  0.4873
 7088SOL    HW223582   4.735   2.097   4.885 -0.2805  0.1489  0.2493
 7089SOL     OW23583   0.239   8.645   6.609  0.0837  0.3423 -0.5890
 7089SOL    HW123584   0.250   8.727   6.657  0.7603  1.5804 -2.6972
 7089SOL    HW223585   0.270   8.578   6.669 -1.6895  1.4266  1.6901
 7090SOL     OW23586   5.125   9.476   3.621  0.0202 -0.5228  0.9895
 7090SOL    HW123587   5.205   9.435   3.654  0.7759 -0.1185 -0.2871
 7090SOL    HW223588   5.102   9.425   3.544  0.8398  1.2112 -0.4865
 7091SOL     OW23589   5.083   2.447   3.840  0.6668 -0.1531  0.2452
 7091SOL    HW123590   5.105   2.533   3.802  1.8471  0.2214  1.6906
 7091SOL    HW223591   5.006   2.465   3.895  0.8199 -0.0563  0.4277
 7092SOL     OW23592   6.465   3.167   2.136 -0.1420 -0.0505  0.3401
 7092SOL    HW123593   6.383   3.203   2.105  0.0512  1.3190  1.3140
 7092SOL    HW223594   6.457   3.167   2.232  0.5680 -0.9453  0.4209
 7093SOL     OW23595   4.823   4.844   5.638 -0.1496  0.3395  0.2632
 7093SOL    HW123596   4.769   4.888   5.572 -0.6217 -0.3199  0.2049
 7093SOL    HW223597   4.900   4.900   5.647 -1.5133  2.0910  1.4585
 7094SOL     OW23598   4.920   4.027   5.628 -0.1887  0.1224 -0.2671
 7094SOL    HW123599   4.936   3.935   5.651 -0.4927  0.0836 -0.1971
 7094SOL    HW223600   4.919   4.028   5.532 -0.7540 -0.0571 -0.2703
 7095SOL     OW23601   4.773   1.870  10.130  0.1358 -0.7960 -0.0817
 7095SOL    HW123602   4.809   1.876  10.041  1.1112 -0.6831  0.3039
 7095SOL    HW223603   4.835   1.813  10.176 -0.1980 -0.6064  0.6035
 7096SOL     OW23604   5.390  10.119   1.857 -0.6518 -0.1418  0.0234
 7096SOL    HW123605   5.441  10.182   1.807 -2.3354  1.0809 -0.2331
 7096SOL    HW223606   5.451  10.083   1.921  0.2359  2.1532  0.5353
 7097SOL     OW23607   0.657   5.091   4.613 -0.2010  0.6005  0.5171
 7097SOL    HW123608   0.653   5.138   4.530  0.9837  2.3800  1.4175
 7097SOL    HW223609   0.750   5.089   4.635 -0.2808 -1.5234  0.9337
 7098SOL     OW23610   5.783   2.129   2.730  0.1664  0.4525 -0.0200
 7098SOL    HW123611   5.689   2.122   2.744  0.4459 -0.7504  1.4523
 7098SOL    HW223612   5.799   2.079   2.650 -0.3609  0.0123  0.1401
 7099SOL     OW23613   7.166   1.667   5.081  0.0558  0.0405 -0.7911
 7099SOL    HW123614   7.212   1.699   5.158 -0.0370  0.5445 -0.9421
 7099SOL    HW223615   7.180   1.734   5.014 -1.8365  0.7756 -0.5152
 7100SOL     OW23616   9.718   4.009   5.422  0.0520 -0.0925  0.3215
 7100SOL    HW123617   9.629   3.990   5.453  0.0849 -1.1408 -0.1645
 7100SOL    HW223618   9.774   3.952   5.475  0.3055 -0.3434 -0.2031
 7101SOL     OW23619   2.276   3.802   8.370  0.0066 -0.6212  0.5846
 7101SOL    HW123620   2.280   3.877   8.311 -1.0793 -1.1559 -0.1905
 7101SOL    HW223621   2.324   3.830   8.448  2.1503 -0.1532 -0.8198
 7102SOL     OW23622   4.306   9.083   5.062  0.0854  0.1839  0.5522
 7102SOL    HW123623   4.302   9.179   5.053  0.9911  0.1298 -0.6783
 7102SOL    HW223624   4.360   9.054   4.988  0.2930 -1.2359  1.2259
 7103SOL     OW23625   8.607   1.373   5.030 -0.0985  0.1489 -0.3987
 7103SOL    HW123626   8.663   1.406   4.960 -2.3716  2.6896 -1.2171
 7103SOL    HW223627   8.523   1.357   4.987 -0.1396 -3.6474  0.7409
 7104SOL     OW23628   5.452   3.677   0.214 -0.0053 -0.0476 -0.1940
 7104SOL    HW123629   5.399   3.700   0.138  0.5118  0.3171 -0.4483
 7104SOL    HW223630   5.446   3.753   0.272  0.7508  0.2679 -0.5116
 7105SOL     OW23631   1.182   4.106   8.997 -0.3005  0.3759  0.5130
 7105SOL    HW123632   1.251   4.169   9.020  0.5362 -0.1270 -0.5543
 7105SOL    HW223633   1.127   4.152   8.934  0.1624  0.1363 -0.0722
 7106SOL     OW23634   1.384   0.251   0.297 -0.1791 -0.2354 -1.0988
 7106SOL    HW123635   1.335   0.328   0.326 -1.4799 -0.8810 -1.4976
 7106SOL    HW223636   1.453   0.287   0.241  0.8464  0.8204  0.7599
 7107SOL     OW23637   5.749   4.102   1.877  0.2923 -0.0834 -0.0701
 7107SOL    HW123638   5.685   4.103   1.806  0.1916 -2.5815 -0.0751
 7107SOL    HW223639   5.817   4.041   1.848 -1.0962 -3.4296  3.0076
 7108SOL     OW23640   0.635   9.378  10.356 -0.3755  0.5210  0.1268
 7108SOL    HW123641   0.707   9.433  10.323 -1.1426  1.2850 -0.3327
 7108SOL    HW223642   0.588   9.351  10.277  0.5009 -1.6044  0.2610
 7109SOL     OW23643   0.155   8.723   9.738 -0.2266  0.1082 -0.2975
 7109SOL    HW123644   0.237   8.719   9.787  0.1435  1.0314 -0.8209
 7109SOL    HW223645   0.093   8.673   9.792  1.1564 -2.4674 -0.9161
 7110SOL     OW23646  10.225   2.002   8.677 -0.4676 -0.5532 -0.2971
 7110SOL    HW123647  10.130   2.003   8.684 -0.4971  2.4829  0.1304
 7110SOL    HW223648  10.242   1.955   8.595 -2.3287 -0.9460 -0.5044
 7111SOL     OW23649   7.811   4.545   7.405  0.1874 -0.1233 -0.0797
 7111SOL    HW123650   7.851   4.499   7.331  2.0784  1.7922 -0.3465
 7111SOL    HW223651   7.862   4.518   7.481 -0.6687 -0.7797  0.2793
 7112SOL     OW23652   2.822   6.332   2.141 -0.2503 -0.1312 -0.2938
 7112SOL    HW123653   2.873   6.331   2.222 -0.4378 -0.7291 -0.1749
 7112SOL    HW223654   2.867   6.395   2.085  0.5750 -0.5878 -0.1609
 7113SOL     OW23655   1.834   4.072   7.322 -0.5050 -0.2845 -0.0227
 7113SOL    HW123656   1.868   4.086   7.411  0.2486 -1.0375 -0.1780
 7113SOL    HW223657   1.912   4.054   7.269 -1.1223 -2.1496 -0.3730
 7114SOL     OW23658   9.657   4.780   8.061 -0.1294 -0.1093 -0.0030
 7114SOL    HW123659   9.702   4.837   8.123  0.4411 -0.6820  0.1175
 7114SOL    HW223660   9.587   4.739   8.112 -0.7588  0.7203 -0.1717
 7115SOL     OW23661   9.215   0.930   6.852  0.2016 -0.4030  0.0472
 7115SOL    HW123662   9.262   0.979   6.919 -2.0895  1.7807  0.2048
 7115SOL    HW223663   9.220   0.983   6.773 -2.1102  0.0752  0.1426
 7116SOL     OW23664   9.801   9.733   8.435 -0.5081 -0.0800  0.2274
 7116SOL    HW123665   9.792   9.659   8.375 -1.2199 -0.8891  1.3003
 7116SOL    HW223666   9.771   9.700   8.519  2.1929  0.4476  1.5253
 7117SOL     OW23667   0.625   3.075   9.991  0.1229 -0.3562 -0.4146
 7117SOL    HW123668   0.597   3.107  10.077  0.4477 -0.3040 -0.3268
 7117SOL    HW223669   0.685   3.143   9.958 -0.5920 -0.0035 -1.0193
 7118SOL     OW23670  10.129   6.381   6.246 -0.5152 -0.0124 -0.5532
 7118SOL    HW123671  10.204   6.416   6.294  0.8702 -0.8934 -1.9923
 7118SOL    HW223672  10.062   6.366   6.314  0.7452  0.3928  0.8253
 7119SOL     OW23673   7.057   9.875   0.944  0.0043 -0.2186  0.1428
 7119SOL    HW123674   7.105   9.820   1.006  0.2790  3.4102  3.5672
 7119SOL    HW223675   7.102   9.959   0.948 -1.4055  0.8852 -3.4450
 7120SOL     OW23676   6.021   1.042   5.328  0.1160 -0.1326  1.1132
 7120SOL    HW123677   6.021   1.095   5.248  0.0768 -1.4693  0.1999
 7120SOL    HW223678   5.928   1.030   5.349  0.1222  0.0770  1.2588
 7121SOL     OW23679   9.656   3.334   3.893  0.2824 -0.4761 -0.4262
 7121SOL    HW123680   9.694   3.417   3.863 -0.6725  0.4634  0.8284
 7121SOL    HW223681   9.600   3.305   3.822  2.5537 -1.4390 -1.9654
 7122SOL     OW23682  10.326   5.669   2.172  0.1696 -0.2625 -0.0384
 7122SOL    HW123683  10.404   5.613   2.166 -0.4460 -1.2122  0.6317
 7122SOL    HW223684  10.291   5.652   2.259  0.3832  1.7578  0.4874
 7123SOL     OW23685   1.629   0.832  10.555  0.2362 -0.4590  0.4449
 7123SOL    HW123686   1.696   0.832  10.487 -1.7686 -1.8232 -1.6517
 7123SOL    HW223687   1.554   0.875  10.515 -0.8486 -0.8215  2.0027
 7124SOL     OW23688   1.973   8.288   1.742 -0.8214  0.6227  0.5559
 7124SOL    HW123689   1.953   8.277   1.835 -0.6393 -1.7603  0.3518
 7124SOL    HW223690   2.029   8.214   1.720 -1.4815  0.7003 -1.6330
 7125SOL     OW23691   8.081   4.431   2.648 -0.3264  0.4413 -0.3728
 7125SOL    HW123692   8.016   4.481   2.696 -0.3990  1.3231 -1.3524
 7125SOL    HW223693   8.049   4.430   2.558 -1.2876 -2.9598 -0.1355
 7126SOL     OW23694   6.118   6.359   6.064 -0.0101  0.3386 -0.0113
 7126SOL    HW123695   6.036   6.370   6.111  0.2463  0.1642  0.4787
 7126SOL    HW223696   6.181   6.411   6.113 -0.0181  1.2317 -0.9119
 7127SOL     OW23697   7.204   2.423   2.637  0.4258 -0.1789 -0.0121
 7127SOL    HW123698   7.247   2.379   2.710 -0.3928  0.1886  0.7072
 7127SOL    HW223699   7.159   2.352   2.590  1.9671 -0.5957 -0.9004
 7128SOL     OW23700   7.398   1.282   2.392  0.3311 -0.1176 -0.0486
 7128SOL    HW123701   7.422   1.374   2.382 -0.3285  0.1972  1.1312
 7128SOL    HW223702   7.412   1.263   2.485  1.4130 -1.4938 -0.4518
 7129SOL     OW23703   4.888   3.054   9.760  0.2308  0.1857  0.0868
 7129SOL    HW123704   4.824   3.014   9.819 -0.3091  1.1144  0.1603
 7129SOL    HW223705   4.945   2.982   9.733 -1.5250 -0.9265 -0.8919
 7130SOL     OW23706   3.722   3.833   8.641 -0.5732 -0.2001  0.3410
 7130SOL    HW123707   3.787   3.849   8.573 -0.8289  1.0383  0.3694
 7130SOL    HW223708   3.740   3.899   8.708 -1.0156 -0.7043  0.9740
 7131SOL     OW23709   9.427   8.890   9.042  0.5830  0.3434 -0.4528
 7131SOL    HW123710   9.483   8.818   9.012  0.7576 -1.1045  2.9434
 7131SOL    HW223711   9.343   8.850   9.059  0.6662  0.8967  1.4640
 7132SOL     OW23712   7.587   2.900   5.895 -0.0586 -0.2139  0.5749
 7132SOL    HW123713   7.576   2.954   5.817 -1.0730 -0.7030  0.3617
 7132SOL    HW223714   7.669   2.930   5.934 -0.1086  0.8053 -0.0701
 7133SOL     OW23715   6.348   4.792   3.941 -0.4061  0.7109 -0.3128
 7133SOL    HW123716   6.312   4.879   3.954 -1.4791  0.2800 -0.2766
 7133SOL    HW223717   6.441   4.806   3.924 -0.2472  1.7610  1.2196
 7134SOL     OW23718   0.204   5.095   9.911 -0.1049  0.3726 -0.5464
 7134SOL    HW123719   0.175   5.120   9.823 -0.5748 -1.5820 -0.9997
 7134SOL    HW223720   0.148   5.145   9.970 -1.7911 -0.4094 -1.4023
 7135SOL     OW23721   1.839   9.142   3.459 -0.2557 -0.0292 -0.6480
 7135SOL    HW123722   1.758   9.185   3.431 -0.4380 -0.9630 -1.6629
 7135SOL    HW223723   1.827   9.050   3.433  1.4309 -0.0467 -1.5194
 7136SOL     OW23724   3.331   1.644   7.147 -0.1631  0.6478  0.2180
 7136SOL    HW123725   3.348   1.600   7.230 -1.4780 -0.0158  0.1622
 7136SOL    HW223726   3.346   1.737   7.164  0.4831  0.4167  0.9386
 7137SOL     OW23727   4.021   2.828   4.967 -0.2996 -0.4203 -0.2278
 7137SOL    HW123728   4.040   2.896   5.031 -1.0889 -0.1640 -0.2554
 7137SOL    HW223729   4.058   2.860   4.885 -3.1726  1.3957 -0.9410
 7138SOL     OW23730   0.252   9.470   0.285 -0.2195  0.1220  0.2203
 7138SOL    HW123731   0.227   9.450   0.376  1.0763  1.0221  0.8047
 7138SOL    HW223732   0.322   9.408   0.266  0.7372  1.0978  0.4790
 7139SOL     OW23733   8.399   5.619   6.005 -0.1977  0.2618 -0.1897
 7139SOL    HW123734   8.441   5.601   5.921 -0.5234  0.2036 -0.3418
 7139SOL    HW223735   8.308   5.637   5.983 -0.2832  0.2552  0.1516
 7140SOL     OW23736   2.144   4.985   4.413 -0.7372  0.0025  0.3972
 7140SOL    HW123737   2.210   5.053   4.425  0.7224 -1.5532  1.5900
 7140SOL    HW223738   2.127   4.985   4.319  0.2401  1.0737  0.1959
 7141SOL     OW23739   0.493   4.659   6.624 -0.5088 -0.6286  0.1014
 7141SOL    HW123740   0.544   4.612   6.689 -0.2569  0.6598  0.8717
 7141SOL    HW223741   0.460   4.591   6.565  0.5318 -1.6598  0.6799
 7142SOL     OW23742   3.214  10.394   6.315  0.4711 -0.0251 -0.0123
 7142SOL    HW123743   3.202  10.300   6.323  1.1531 -0.2658 -1.5753
 7142SOL    HW223744   3.283  10.405   6.250 -0.2273  1.5650 -0.5544
 7143SOL     OW23745   8.878   3.507   6.124  0.2525 -0.4058 -0.1986
 7143SOL    HW123746   8.928   3.531   6.046 -0.8009  0.7276 -0.5651
 7143SOL    HW223747   8.930   3.540   6.197 -0.3131  1.5530 -0.6128
 7144SOL     OW23748   3.948   7.996   6.426 -0.2882  0.3450  0.2994
 7144SOL    HW123749   3.934   7.977   6.334 -0.3595 -0.3678  0.4470
 7144SOL    HW223750   4.002   8.075   6.427 -1.1875  0.9824 -0.3331
 7145SOL     OW23751   0.112   4.927   1.068  0.8934  0.2226 -0.2827
 7145SOL    HW123752   0.145   4.864   1.132 -0.7841 -0.3923  0.0298
 7145SOL    HW223753   0.076   4.874   0.997 -1.6785  0.7009  0.5556
 7146SOL     OW23754   9.008   0.374   5.949 -0.1883  0.1629 -0.0451
 7146SOL    HW123755   9.074   0.441   5.967 -0.7639  0.7613 -0.1238
 7146SOL    HW223756   8.934   0.398   6.005 -1.0782  0.6344 -1.3806
 7147SOL     OW23757   8.058   6.261   8.626 -0.0389  0.2153 -0.3231
 7147SOL    HW123758   8.043   6.215   8.708  1.5839  2.4185  1.3247
 7147SOL    HW223759   8.149   6.240   8.603 -0.6644 -0.9213 -2.0176
 7148SOL     OW23760   2.240   5.804   0.365  0.7842 -0.4313 -0.5343
 7148SOL    HW123761   2.269   5.745   0.296 -0.5638 -1.7202 -0.0441
 7148SOL    HW223762   2.172   5.756   0.411  1.2115  0.6394  1.3186
 7149SOL     OW23763  10.419   3.606   0.394  0.4101 -0.6427 -0.2780
 7149SOL    HW123764  10.342   3.549   0.395  1.0629 -1.5545  1.0838
 7149SOL    HW223765  10.433   3.626   0.302 -1.8112  0.0585 -0.5167
 7150SOL     OW23766   1.822  10.518   7.969  0.3165  0.2663  0.4020
 7150SOL    HW123767   1.896  10.568   8.001  0.1610  0.8054 -0.0648
 7150SOL    HW223768   1.745  10.568   7.996  0.0464 -0.8505  1.8639
 7151SOL     OW23769   7.626   8.058   5.234 -0.0969 -0.0512  0.5414
 7151SOL    HW123770   7.626   8.000   5.159 -0.9819  1.4578 -0.6936
 7151SOL    HW223771   7.703   8.113   5.223  0.3295 -0.4765  1.3031
 7152SOL     OW23772   8.080   8.934   1.081 -0.4761 -0.0837  0.0770
 7152SOL    HW123773   8.166   8.949   1.042 -0.5542 -1.3985 -0.6483
 7152SOL    HW223774   8.048   8.855   1.038 -0.6632 -1.5024  2.6266
 7153SOL     OW23775   4.822   3.199   3.242  0.0804 -0.2460  0.2458
 7153SOL    HW123776   4.917   3.212   3.240 -0.0627  0.8079 -0.5443
 7153SOL    HW223777   4.792   3.247   3.319 -0.0437  1.3990 -0.7664
 7154SOL     OW23778  10.275   2.666   5.263 -0.5022 -0.1571  0.3198
 7154SOL    HW123779  10.238   2.582   5.233  1.7075 -0.2764 -2.5174
 7154SOL    HW223780  10.280   2.718   5.183  2.6679  0.8656  1.0777
 7155SOL     OW23781   9.492   6.269   6.596 -0.5797  0.4532 -0.1274
 7155SOL    HW123782   9.436   6.341   6.564 -1.3117  1.5823  3.2378
 7155SOL    HW223783   9.572   6.313   6.626  0.6922 -0.7237 -1.6432
 7156SOL     OW23784   8.134   5.053   3.037  0.5967  0.1816  0.0266
 7156SOL    HW123785   8.042   5.066   3.058  0.4737  1.6685 -1.2826
 7156SOL    HW223786   8.172   5.018   3.118 -1.2366 -1.2265  0.3442
 7157SOL     OW23787   9.187   8.983   2.718  0.0054  0.0926  0.1194
 7157SOL    HW123788   9.185   9.046   2.646 -0.4564 -2.1065 -1.9142
 7157SOL    HW223789   9.248   8.915   2.688 -2.2139 -2.2223  0.5462
 7158SOL     OW23790   5.591   5.233   2.838  0.7181 -0.2937 -0.4368
 7158SOL    HW123791   5.572   5.186   2.756 -0.4126 -2.5730  1.0276
 7158SOL    HW223792   5.652   5.176   2.884  1.3433  0.9684  0.3430
 7159SOL     OW23793  10.371   4.156   3.310 -0.3676 -0.3060  0.2142
 7159SOL    HW123794  10.342   4.244   3.336 -1.4376  0.1617 -2.3085
 7159SOL    HW223795  10.383   4.161   3.215 -0.7067 -2.9487 -0.0582
 7160SOL     OW23796   9.229   4.842   8.819  0.3062  0.5994 -0.1404
 7160SOL    HW123797   9.148   4.827   8.770  0.4931  0.5612 -0.4371
 7160SOL    HW223798   9.289   4.775   8.788  1.7892  2.9363 -2.8573
 7161SOL     OW23799   2.108   1.316   1.785  0.6013 -0.3587  0.2812
 7161SOL    HW123800   2.118   1.335   1.692 -0.8125 -0.4959  0.0812
 7161SOL    HW223801   2.085   1.223   1.788 -1.3421  0.1102  0.6063
 7162SOL     OW23802   8.357   9.913   1.574 -0.8210  0.1457 -0.2738
 7162SOL    HW123803   8.446   9.947   1.579 -0.0866 -1.7553  1.0627
 7162SOL    HW223804   8.354   9.864   1.492 -0.1709 -0.8796  0.2957
 7163SOL     OW23805   1.455  10.479   1.125  0.4064 -0.2870 -0.4154
 7163SOL    HW123806   1.455  10.572   1.149  1.0099 -0.0497 -1.2641
 7163SOL    HW223807   1.546  10.452   1.134  0.1394 -0.9532  0.3683
 7164SOL     OW23808   8.113  10.269   4.662 -0.8546  0.0610 -0.2670
 7164SOL    HW123809   8.125  10.243   4.570 -2.1539 -0.6343 -0.2654
 7164SOL    HW223810   8.068  10.354   4.657  1.8781  1.6353 -0.2529
 7165SOL     OW23811   8.347   0.436   5.788  0.0334 -0.2574  0.3263
 7165SOL    HW123812   8.311   0.432   5.877  2.4392 -1.6635  1.3560
 7165SOL    HW223813   8.302   0.366   5.741 -1.5262  0.7354  0.2747
 7166SOL     OW23814   3.168   8.058   5.155 -0.3383  0.1473 -0.0319
 7166SOL    HW123815   3.161   7.994   5.085 -1.1754  0.6524 -0.4208
 7166SOL    HW223816   3.256   8.045   5.191  0.2525  0.1650 -1.4330
 7167SOL     OW23817   4.507   2.753   5.441  0.4978 -0.5930  0.0005
 7167SOL    HW123818   4.412   2.741   5.435  0.4046  0.6150 -1.5721
 7167SOL    HW223819   4.518   2.848   5.449  1.5809 -0.7076 -0.0718
 7168SOL     OW23820   0.862   0.650   6.173  0.1555 -0.2450  0.0703
 7168SOL    HW123821   0.828   0.702   6.245  1.6988  0.3070  0.4462
 7168SOL    HW223822   0.798   0.580   6.161 -0.0336 -0.4636  2.1062
 7169SOL     OW23823   6.548   3.152   6.360 -0.2794 -0.0325 -0.0027
 7169SOL    HW123824   6.540   3.087   6.430  3.5340  0.1247  0.8076
 7169SOL    HW223825   6.559   3.100   6.281  2.9096 -0.6068  0.6591
 7170SOL     OW23826   4.252   8.559   8.348  0.2978  0.0964  0.1795
 7170SOL    HW123827   4.270   8.557   8.254  0.2542 -0.9919  0.1770
 7170SOL    HW223828   4.175   8.503   8.358 -0.0221  0.6362  0.8033
 7171SOL     OW23829   6.584   3.411   6.265  0.5712  0.0911  0.1666
 7171SOL    HW123830   6.615   3.388   6.177  1.8309  0.9175  0.3676
 7171SOL    HW223831   6.595   3.330   6.316 -1.6360 -0.8694 -0.7560
 7172SOL     OW23832   2.447   8.533   3.464 -0.1694 -0.2987  0.2065
 7172SOL    HW123833   2.423   8.539   3.372 -1.0212 -0.1970  0.4318
 7172SOL    HW223834   2.474   8.442   3.475  1.6719  0.1073 -0.5414
 7173SOL     OW23835   6.269   8.305   5.053 -0.4512 -1.0066 -0.2382
 7173SOL    HW123836   6.212   8.317   5.129  0.2974  0.0821  0.1790
 7173SOL    HW223837   6.267   8.389   5.008  0.4651 -1.1039 -0.4731
 7174SOL     OW23838   4.394   4.616   0.896  0.0287 -0.2244  0.4588
 7174SOL    HW123839   4.461   4.623   0.828 -0.9655  0.2303 -0.5182
 7174SOL    HW223840   4.315   4.590   0.849 -0.7230  0.2344  1.4236
 7175SOL     OW23841   0.629   2.780  10.024 -0.3847 -0.1227 -0.1887
 7175SOL    HW123842   0.687   2.769  10.100 -0.0374 -0.5475 -0.5133
 7175SOL    HW223843   0.652   2.866   9.989 -1.2017  0.4950  0.7357
 7176SOL     OW23844   6.342   3.239   2.881  0.1848 -0.2811  0.0362
 7176SOL    HW123845   6.332   3.308   2.816 -3.8080  0.7215  1.4191
 7176SOL    HW223846   6.382   3.283   2.956  0.6039 -0.3167 -0.1612
 7177SOL     OW23847   3.120   1.776  10.129  0.2640  0.4633 -0.2722
 7177SOL    HW123848   3.059   1.816  10.067 -0.6848  1.4232  1.2289
 7177SOL    HW223849   3.093   1.684  10.133  1.1779  0.0555 -2.2252
 7178SOL     OW23850   2.204   3.210   1.826 -0.0176  0.7570 -0.0057
 7178SOL    HW123851   2.115   3.198   1.859  0.1537  1.5482  0.7724
 7178SOL    HW223852   2.196   3.196   1.731 -0.3061 -2.6970  0.3765
 7179SOL     OW23853   5.459   9.465   1.547 -0.3050  0.1660 -0.1023
 7179SOL    HW123854   5.402   9.476   1.471  1.5258  1.0377 -1.4265
 7179SOL    HW223855   5.459   9.371   1.564 -0.4814 -0.0989 -1.4393
 7180SOL     OW23856   5.335   5.570   7.442 -0.1403 -0.3455 -0.0153
 7180SOL    HW123857   5.312   5.480   7.463 -0.2177 -0.3327 -0.0438
 7180SOL    HW223858   5.281   5.591   7.366  0.6243 -0.6206 -0.6600
 7181SOL     OW23859   5.398   7.983   3.214 -0.4659 -0.0147  0.3812
 7181SOL    HW123860   5.328   8.040   3.180 -0.2841 -0.0391 -0.0475
 7181SOL    HW223861   5.357   7.897   3.222  0.3559 -0.9175 -3.2445
 7182SOL     OW23862  10.164   7.384   6.475 -0.3483  0.3028 -0.1013
 7182SOL    HW123863  10.209   7.336   6.405 -3.4578 -0.8075 -1.5337
 7182SOL    HW223864  10.230   7.445   6.508  2.2886 -1.4494 -1.6754
 7183SOL     OW23865   4.051   5.792   7.732  0.3300  0.6224  0.7980
 7183SOL    HW123866   4.143   5.817   7.724  0.2842  1.0294  1.4225
 7183SOL    HW223867   4.053   5.697   7.740  0.6359  0.5596  0.0602
 7184SOL     OW23868   5.534   5.588   8.375 -0.2220 -0.3558 -0.4045
 7184SOL    HW123869   5.602   5.546   8.323  0.5009 -0.4420  0.5924
 7184SOL    HW223870   5.578   5.617   8.455 -1.0474  0.8535 -0.3517
 7185SOL     OW23871   0.755   1.968  10.029 -0.1815  0.1307 -0.1523
 7185SOL    HW123872   0.824   2.018  10.072  0.3500 -0.3622 -0.4226
 7185SOL    HW223873   0.673   2.010  10.059  0.1843  0.1063  0.9428
 7186SOL     OW23874   2.869   2.146   1.337  0.0290  0.1350 -0.3207
 7186SOL    HW123875   2.932   2.203   1.294 -0.3084  0.1978 -0.7398
 7186SOL    HW223876   2.876   2.167   1.430 -1.8652  2.7182 -0.6378
 7187SOL     OW23877   2.178   6.696   2.245 -0.3792 -0.3342  0.3474
 7187SOL    HW123878   2.233   6.674   2.170 -1.1539 -1.3612  0.0586
 7187SOL    HW223879   2.229   6.667   2.321 -0.0589 -0.2653  0.1641
 7188SOL     OW23880   0.739   7.260   1.770  0.0781 -0.5961  0.5127
 7188SOL    HW123881   0.682   7.220   1.835 -1.1766  0.2611 -0.0261
 7188SOL    HW223882   0.774   7.337   1.814 -0.3310 -0.3256  0.3721
 7189SOL     OW23883   5.679   6.687   3.125 -0.1491 -0.2545 -0.0105
 7189SOL    HW123884   5.752   6.664   3.183  1.3796  2.5007 -0.7044
 7189SOL    HW223885   5.700   6.646   3.042  0.2859  0.0144 -0.0323
 7190SOL     OW23886   3.749   4.082   6.471  0.0122  0.1933  0.0203
 7190SOL    HW123887   3.734   4.054   6.381  1.5273  2.0337 -0.8707
 7190SOL    HW223888   3.838   4.055   6.490  0.2807  1.2678  0.3650
 7191SOL     OW23889   7.649   7.441   9.637  0.7766  0.1263 -0.2512
 7191SOL    HW123890   7.599   7.410   9.711 -2.2501  0.5982 -1.9331
 7191SOL    HW223891   7.728   7.387   9.636  0.6259 -0.2956  2.8658
 7192SOL     OW23892   3.189   0.149   3.777 -0.3740 -0.0565 -0.0001
 7192SOL    HW123893   3.219   0.085   3.841 -0.7345  0.3885  0.6176
 7192SOL    HW223894   3.205   0.234   3.818 -0.0016  0.2548 -0.7681
 7193SOL     OW23895   3.550   5.709  10.075 -0.0498 -0.4047 -0.3489
 7193SOL    HW123896   3.547   5.672   9.987 -0.4169 -0.6862 -0.2199
 7193SOL    HW223897   3.458   5.718  10.101  0.0603 -1.0133  0.2871
 7194SOL     OW23898   6.049   3.365   3.339  0.3644 -0.2763  0.1329
 7194SOL    HW123899   6.116   3.335   3.277 -0.2462  0.0952 -0.7408
 7194SOL    HW223900   6.097   3.384   3.419  1.5368  1.1127 -0.8257
 7195SOL     OW23901   0.030   2.916   3.073 -0.1541  0.2640 -0.0726
 7195SOL    HW123902   0.101   2.959   3.025  1.0979  0.7131  2.0783
 7195SOL    HW223903   0.029   2.827   3.039  0.1245  0.7729 -1.5029
 7196SOL     OW23904   9.156   6.025   0.932  0.1806  0.0978 -0.0727
 7196SOL    HW123905   9.101   5.948   0.918 -0.8551  0.7626  0.1894
 7196SOL    HW223906   9.239   5.990   0.963 -0.1607 -0.9315 -0.2820
 7197SOL     OW23907   6.110   5.214   4.349 -0.3668  0.1722  0.0492
 7197SOL    HW123908   6.093   5.308   4.342 -0.3346  0.2655  1.0471
 7197SOL    HW223909   6.202   5.204   4.323 -0.1502  0.5295  0.6455
 7198SOL     OW23910   9.522   1.350   5.242 -0.2008  0.1563 -0.0118
 7198SOL    HW123911   9.431   1.321   5.255  0.2503 -1.2902  0.1249
 7198SOL    HW223912   9.572   1.303   5.309  0.4720  2.0670  0.8927
 7199SOL     OW23913   8.323  10.048   0.888  0.1866  0.0879  0.2011
 7199SOL    HW123914   8.324   9.961   0.848 -0.5827  0.7494 -1.3894
 7199SOL    HW223915   8.286  10.035   0.975 -0.9179 -1.0536 -0.4062
 7200SOL     OW23916   1.533   7.130   4.785 -0.2282 -0.0834 -0.4727
 7200SOL    HW123917   1.448   7.151   4.747 -0.6990  0.8296  0.9618
 7200SOL    HW223918   1.532   7.035   4.797 -1.3143 -0.0157  0.0934
 7201SOL     OW23919   9.074   1.203   1.217  0.7751  0.2240 -0.3007
 7201SOL    HW123920   9.111   1.139   1.157  2.9649  0.1815  0.9916
 7201SOL    HW223921   9.066   1.156   1.300 -0.6073  0.7505 -0.1096
 7202SOL     OW23922   2.499   5.231   6.681  0.1706  0.6188  0.2422
 7202SOL    HW123923   2.484   5.263   6.592 -2.0658  0.5585  0.5538
 7202SOL    HW223924   2.541   5.146   6.669  0.3535  0.8351 -0.7351
 7203SOL     OW23925   4.263   5.000   5.137 -0.5432 -0.0010  0.1952
 7203SOL    HW123926   4.350   4.962   5.131 -1.0165 -1.0206 -0.5801
 7203SOL    HW223927   4.230   4.970   5.222 -0.5343 -0.4827  0.0282
 7204SOL     OW23928   0.577   6.678   9.346  0.9034 -0.4441 -0.6780
 7204SOL    HW123929   0.553   6.722   9.265  1.5133  0.8073 -0.2111
 7204SOL    HW223930   0.659   6.719   9.372 -0.3290  0.7308  1.6837
 7205SOL     OW23931   8.475   2.453   7.721 -0.1098  0.1269  0.3275
 7205SOL    HW123932   8.385   2.452   7.755 -1.2756  0.5211 -2.4891
 7205SOL    HW223933   8.480   2.533   7.669  1.6473 -0.2618 -0.1557
 7206SOL     OW23934   5.197   6.593   4.133  0.0261 -0.0831 -0.6763
 7206SOL    HW123935   5.126   6.573   4.194  0.0266 -1.2538 -1.0245
 7206SOL    HW223936   5.221   6.508   4.096  1.6927  0.2711 -0.4933
 7207SOL     OW23937   8.468   9.756   6.106 -0.0435 -0.0322 -0.5214
 7207SOL    HW123938   8.407   9.830   6.106  1.0859  0.9649  0.9630
 7207SOL    HW223939   8.525   9.772   6.181  1.3931 -1.4725 -1.2450
 7208SOL     OW23940   8.203   2.097   1.032 -0.0394 -0.0507 -0.0694
 7208SOL    HW123941   8.127   2.081   0.975  1.3143 -1.1510 -1.6690
 7208SOL    HW223942   8.165   2.103   1.120 -1.8397 -2.6168 -0.5281
 7209SOL     OW23943   7.379   8.629   5.740  0.3122  0.2049  0.3158
 7209SOL    HW123944   7.387   8.683   5.661  1.5769 -1.5109 -0.8041
 7209SOL    HW223945   7.359   8.692   5.810 -0.6586  1.8065 -1.3094
 7210SOL     OW23946   1.686   3.512   9.018 -0.4025 -0.0878  0.1507
 7210SOL    HW123947   1.720   3.522   9.106 -1.9937  1.3584  0.6500
 7210SOL    HW223948   1.732   3.578   8.966  1.6116 -1.8900 -0.5189
 7211SOL     OW23949   5.757   2.010   6.044  0.1451  0.5716 -0.4562
 7211SOL    HW123950   5.756   2.048   6.132  0.8408  0.0923 -0.2328
 7211SOL    HW223951   5.707   2.072   5.991 -1.1392  0.3589  0.4634
 7212SOL     OW23952   4.713   1.039  10.114 -0.0127  0.1827 -0.3223
 7212SOL    HW123953   4.656   1.058  10.039 -0.7525 -0.2491  0.1185
 7212SOL    HW223954   4.726   0.944  10.110  0.2590  0.2091 -0.1105
 7213SOL     OW23955   0.566   7.456   8.535 -0.0497 -0.7667  0.4573
 7213SOL    HW123956   0.575   7.367   8.569  1.9841 -0.8485 -0.1207
 7213SOL    HW223957   0.655   7.480   8.509 -0.4001  1.7517  1.3382
 7214SOL     OW23958   9.353   0.498   0.277  0.1477 -0.0409 -0.2448
 7214SOL    HW123959   9.389   0.413   0.303  1.2223  0.6371  0.5791
 7214SOL    HW223960   9.281   0.513   0.339  0.2081 -0.1738 -0.1398
 7215SOL     OW23961   6.639   9.500   9.148  0.3388  0.0995 -0.1240
 7215SOL    HW123962   6.558   9.525   9.194 -0.9624 -2.0345 -1.0681
 7215SOL    HW223963   6.691   9.456   9.215 -0.4268 -0.7321 -0.0441
 7216SOL     OW23964   6.909   4.395   7.293  0.3778  0.4334 -0.2316
 7216SOL    HW123965   6.862   4.318   7.327  0.2299  0.8843  0.6177
 7216SOL    HW223966   6.944   4.366   7.209  2.8274 -1.5619  1.3169
 7217SOL     OW23967   0.505   9.757   9.332  0.4185 -0.0996  0.1638
 7217SOL    HW123968   0.535   9.666   9.336  0.0716 -0.1773  1.4958
 7217SOL    HW223969   0.558   9.803   9.397 -0.4613  0.3299  0.5955
 7218SOL     OW23970   8.532   8.469   3.644  0.7508  0.3167  0.1601
 7218SOL    HW123971   8.622   8.462   3.613  1.2021  1.3679  1.1513
 7218SOL    HW223972   8.518   8.563   3.659 -1.3468  0.4912 -2.2826
 7219SOL     OW23973   9.838   2.100   2.394  0.3447  0.0916  0.4396
 7219SOL    HW123974   9.743   2.094   2.402  0.3595 -1.3149 -0.1708
 7219SOL    HW223975   9.856   2.081   2.302  1.1838  1.0150  0.3860
 7220SOL     OW23976   0.847   0.013   5.708 -0.1517  0.4037 -0.0760
 7220SOL    HW123977   0.781  -0.056   5.715 -0.6809  0.8620 -0.5075
 7220SOL    HW223978   0.897   0.007   5.790  1.2755 -1.9476 -1.0381
 7221SOL     OW23979   5.817   5.973   3.451 -0.0471  0.3598  0.2542
 7221SOL    HW123980   5.737   5.939   3.412 -0.2579 -0.2151  1.1556
 7221SOL    HW223981   5.833   6.056   3.406  0.2104 -0.6829 -1.6616
 7222SOL     OW23982   2.713  10.118   9.627  0.4736 -0.3688  0.6187
 7222SOL    HW123983   2.663  10.091   9.704  0.4312 -0.9571  0.3846
 7222SOL    HW223984   2.801  10.134   9.661  0.3194 -0.0586  0.8922
 7223SOL     OW23985   5.120   2.199   3.980  0.7882  0.2128  0.1513
 7223SOL    HW123986   5.041   2.191   4.033  1.1362  0.3154  0.6966
 7223SOL    HW223987   5.112   2.285   3.938 -0.1023 -0.4044 -0.9912
 7224SOL     OW23988   1.940   8.073   8.044  0.1879  0.3160 -0.5005
 7224SOL    HW123989   1.890   8.032   8.115  0.3410 -0.1171 -0.6371
 7224SOL    HW223990   1.874   8.113   7.988 -0.0518 -0.6198 -0.9131
 7225SOL     OW23991   4.349   9.397   3.874 -0.6192 -0.1155  0.1862
 7225SOL    HW123992   4.371   9.341   3.948 -0.6772  0.5479  0.7219
 7225SOL    HW223993   4.338   9.337   3.800  0.8595 -0.6645  0.3867
 7226SOL     OW23994   5.349   1.144   6.384  0.2052  0.0987 -0.8717
 7226SOL    HW123995   5.310   1.088   6.317  0.1327 -0.7883 -0.1169
 7226SOL    HW223996   5.441   1.116   6.386  0.0611 -0.3461 -0.1574
 7227SOL     OW23997   6.229   1.603   7.828  0.1037  0.2033  0.7315
 7227SOL    HW123998   6.180   1.665   7.881  1.8649  0.3150  2.3159
 7227SOL    HW223999   6.290   1.657   7.778 -0.6136 -0.0175 -0.4301
 7228SOL     OW24000   1.562   2.602   0.350 -0.5527  0.0591  0.6598
 7228SOL    HW124001   1.473   2.606   0.385 -0.9525 -1.4158 -0.1149
 7228SOL    HW224002   1.553   2.615   0.256  0.2650  1.5449  0.7376
 7229SOL     OW24003   7.780   2.924   5.327  0.0114 -0.0908  0.0038
 7229SOL    HW124004   7.719   2.993   5.351  0.6050  0.8336 -1.0448
 7229SOL    HW224005   7.860   2.970   5.301 -0.1786 -1.0172 -2.5092
 7230SOL     OW24006   3.303   8.471   9.353 -0.6452  0.1999  0.4100
 7230SOL    HW124007   3.243   8.484   9.279 -0.3255  0.5808  0.2148
 7230SOL    HW224008   3.382   8.434   9.314 -0.1616  1.1740  0.4278
 7231SOL     OW24009   9.065   9.183   8.817 -0.2123 -0.1781 -0.1225
 7231SOL    HW124010   9.062   9.205   8.724 -1.8388  1.9874  0.3846
 7231SOL    HW224011   9.019   9.254   8.861 -1.0414 -2.0106  2.1965
 7232SOL     OW24012   3.982   7.550   3.207  0.5510  0.0772 -0.7085
 7232SOL    HW124013   4.018   7.609   3.140  1.5572  0.9282  0.5398
 7232SOL    HW224014   4.051   7.485   3.222  0.0955 -0.4580 -0.9047
 7233SOL     OW24015   2.881   9.577   1.621  0.3742 -0.0555  0.4074
 7233SOL    HW124016   2.796   9.603   1.585 -0.5531 -0.4765  2.1884
 7233SOL    HW224017   2.929   9.659   1.632 -0.0671  0.2543  0.0675
 7234SOL     OW24018   9.484   5.356   7.497 -0.3576 -0.1457 -0.1856
 7234SOL    HW124019   9.522   5.274   7.529  0.4114  0.6657  1.0643
 7234SOL    HW224020   9.555   5.420   7.507 -1.1113  0.7748 -0.6465
 7235SOL     OW24021   9.056   6.973  10.195 -0.7450  0.3545 -0.3236
 7235SOL    HW124022   9.004   6.906  10.239 -0.1587  0.4743  0.5743
 7235SOL    HW224023   9.129   6.989  10.254  0.1776  0.3785 -1.4504
 7236SOL     OW24024   1.175   3.411   6.224 -0.0151 -0.1082 -0.0885
 7236SOL    HW124025   1.180   3.453   6.139  1.3551  0.1376  0.0889
 7236SOL    HW224026   1.265   3.411   6.257 -0.3517 -1.0866  0.9305
 7237SOL     OW24027   3.253   1.742   5.682  0.2345 -0.2689 -0.1583
 7237SOL    HW124028   3.294   1.717   5.765  0.9407  1.9887  0.2344
 7237SOL    HW224029   3.319   1.796   5.638 -0.4028 -0.8193 -1.8972
 7238SOL     OW24030   8.460   7.433   0.732  0.3443  0.3284 -0.5985
 7238SOL    HW124031   8.370   7.414   0.757  0.7309  0.3080  0.8464
 7238SOL    HW224032   8.505   7.451   0.814  1.2779  2.0727 -1.4290
 7239SOL     OW24033   6.475   3.343   3.683 -0.5087 -0.2865  0.3597
 7239SOL    HW124034   6.461   3.402   3.757 -1.2056 -0.8402  0.6799
 7239SOL    HW224035   6.523   3.395   3.619 -0.3617  0.3601  0.9846
 7240SOL     OW24036   9.236   5.401  10.096  0.1505 -0.2762 -0.3465
 7240SOL    HW124037   9.170   5.390  10.164  0.1279  2.2551  0.1308
 7240SOL    HW224038   9.222   5.490  10.062  2.1093 -0.3465 -1.5340
 7241SOL     OW24039   8.595   6.878   8.903  0.0530  0.0181 -0.2614
 7241SOL    HW124040   8.670   6.825   8.930  0.5620  0.6465 -0.3939
 7241SOL    HW224041   8.554   6.904   8.985  0.8122  0.8221 -0.1202
 7242SOL     OW24042   4.026   4.874   8.463 -0.2031 -0.0451  0.0534
 7242SOL    HW124043   3.958   4.809   8.480 -0.4208 -0.4653 -2.0878
 7242SOL    HW224044   4.101   4.846   8.516  0.3529 -3.2086 -2.1777
 7243SOL     OW24045   9.260   4.822   8.216  0.3749 -0.9249  0.1301
 7243SOL    HW124046   9.263   4.868   8.132 -0.5191  0.8997  1.0235
 7243SOL    HW224047   9.317   4.746   8.205  0.5589 -0.5221 -1.9889
 7244SOL     OW24048   2.757   0.757   5.873  0.1522  0.2968  0.1650
 7244SOL    HW124049   2.778   0.773   5.781  0.7102 -1.5265 -0.0578
 7244SOL    HW224050   2.732   0.665   5.876  1.0301  0.0812  1.9938
 7245SOL     OW24051   1.321   0.344   4.296  0.0504 -0.3435  0.2435
 7245SOL    HW124052   1.346   0.261   4.336 -0.0890 -0.7790 -0.5579
 7245SOL    HW224053   1.260   0.383   4.359 -1.1018 -1.5646 -0.0597
 7246SOL     OW24054   9.014   4.190   8.780 -0.5834 -0.6508  0.1976
 7246SOL    HW124055   9.012   4.269   8.835 -0.5890 -1.1044  0.8702
 7246SOL    HW224056   8.946   4.134   8.818  0.2579 -1.4842  0.5129
 7247SOL     OW24057   5.252   3.515   3.243 -0.0210 -0.1368 -0.0457
 7247SOL    HW124058   5.195   3.532   3.168 -0.8319 -3.5074 -0.3729
 7247SOL    HW224059   5.265   3.420   3.242  0.9448 -0.1821  3.3777
 7248SOL     OW24060   9.015   1.223   2.762 -0.2335  0.6268 -0.9155
 7248SOL    HW124061   8.951   1.268   2.707 -1.6953  0.9274  0.9472
 7248SOL    HW224062   8.978   1.136   2.777  0.4810  0.3095 -0.9242
 7249SOL     OW24063   2.990   1.039   3.744  0.1328  0.4852  0.2893
 7249SOL    HW124064   3.044   1.107   3.704  2.2040 -0.7939  0.7594
 7249SOL    HW224065   2.975   0.975   3.673  1.5778 -0.4859  0.8229
 7250SOL     OW24066   8.949   3.130   5.255 -0.0338 -0.1647 -0.0235
 7250SOL    HW124067   8.953   3.034   5.245  0.9978 -0.1123 -0.1217
 7250SOL    HW224068   8.856   3.150   5.243 -0.5564 -1.3380  1.7251
 7251SOL     OW24069   3.968   7.208   0.915 -0.1698 -0.1281  0.5850
 7251SOL    HW124070   3.885   7.161   0.919  1.0987 -2.4345  1.3817
 7251SOL    HW224071   3.987   7.216   0.821 -1.2994  0.5157  0.3950
 7252SOL     OW24072   4.332   9.467   8.827  0.1396 -0.0300  0.2516
 7252SOL    HW124073   4.268   9.537   8.811 -0.1453 -0.2731  0.3262
 7252SOL    HW224074   4.416   9.505   8.800  0.1592  0.7333  1.3050
 7253SOL     OW24075   0.839   9.977   1.626  0.1598 -0.2099  0.1082
 7253SOL    HW124076   0.841  10.073   1.627 -0.5198 -0.1597  2.8693
 7253SOL    HW224077   0.750   9.956   1.597 -0.0108  0.0318  0.4412
 7254SOL     OW24078   3.654   9.160  10.570  0.0806 -0.1022  0.3516
 7254SOL    HW124079   3.657   9.196  10.481  0.0609 -0.5994  0.1450
 7254SOL    HW224080   3.564   9.176  10.599 -0.0552 -0.3847  0.0914
 7255SOL     OW24081   7.326   1.740   3.382 -0.3272  0.1848  0.9122
 7255SOL    HW124082   7.322   1.813   3.444 -0.3952  0.8410  0.1577
 7255SOL    HW224083   7.367   1.778   3.304 -0.9200 -0.4251  0.2919
 7256SOL     OW24084   5.915  10.401  10.209 -0.0984  0.1665 -0.0657
 7256SOL    HW124085   5.883  10.333  10.149 -0.7098  1.5395 -1.3662
 7256SOL    HW224086   5.881  10.376  10.294 -0.1806 -1.2382 -0.4870
 7257SOL     OW24087   8.496   6.558   2.291 -0.0206 -0.2395  0.2405
 7257SOL    HW124088   8.587   6.533   2.304 -1.1860 -4.9125  1.2858
 7257SOL    HW224089   8.478   6.539   2.199 -0.0645  0.3692  0.1171
 7258SOL     OW24090   6.861   5.803   3.213 -0.1792  0.2548  0.1396
 7258SOL    HW124091   6.947   5.802   3.254 -0.2990  1.6707  0.4845
 7258SOL    HW224092   6.854   5.719   3.169  1.8022  0.5344 -0.7862
 7259SOL     OW24093   5.625   0.309   4.439  0.4863 -0.5162 -0.2901
 7259SOL    HW124094   5.673   0.267   4.368  2.5549  0.5721  0.3510
 7259SOL    HW224095   5.666   0.396   4.447 -1.9133  0.6589  0.0765
 7260SOL     OW24096   2.272   4.967   5.927 -0.6687 -0.1078  0.1520
 7260SOL    HW124097   2.313   4.966   5.841 -1.1671  0.8549 -0.1153
 7260SOL    HW224098   2.345   4.964   5.989 -0.2985 -0.6055 -0.3011
 7261SOL     OW24099   9.816   2.724  10.086 -0.1454  0.0732  0.0081
 7261SOL    HW124100   9.834   2.636  10.118 -0.7088 -0.6168 -1.4884
 7261SOL    HW224101   9.740   2.753  10.137 -1.7299 -1.4420 -1.3840
 7262SOL     OW24102   9.462   9.453   5.966 -0.5758  0.2104  0.6407
 7262SOL    HW124103   9.422   9.441   6.052 -0.7725  2.5130  0.9509
 7262SOL    HW224104   9.399   9.415   5.905 -1.2199  0.0121  1.4081
 7263SOL     OW24105   7.108   0.196   9.808  0.0862  0.0078 -0.4771
 7263SOL    HW124106   7.014   0.214   9.803  0.3190  1.2332 -0.7996
 7263SOL    HW224107   7.149   0.272   9.767  1.2093 -0.7144 -0.7417
 7264SOL     OW24108  10.507   8.366   5.041  0.4723  0.0120  0.0876
 7264SOL    HW124109  10.447   8.356   4.968 -0.8724 -1.6102  1.3257
 7264SOL    HW224110  10.467   8.434   5.096  0.4310 -0.1799  0.2966
 7265SOL     OW24111   5.911   6.178  10.084  0.3895 -0.5615  0.1100
 7265SOL    HW124112   5.866   6.151  10.164 -0.5799  0.5275 -0.0451
 7265SOL    HW224113   5.932   6.271  10.099  1.7533 -0.7887 -0.2110
 7266SOL     OW24114   6.806   9.495   1.439 -0.4932  0.0438  0.3064
 7266SOL    HW124115   6.762   9.522   1.520 -0.7951 -1.0961  0.5336
 7266SOL    HW224116   6.745   9.519   1.370 -0.3364  0.8066  0.4134
 7267SOL     OW24117   8.993   1.024   2.382  0.2763  0.5087  0.3010
 7267SOL    HW124118   9.039   1.106   2.364  0.5500  0.1830 -0.5984
 7267SOL    HW224119   8.967   0.992   2.295  0.3777 -0.4566  0.6080
 7268SOL     OW24120   3.209   4.909   8.839 -0.0675  0.5832 -0.2407
 7268SOL    HW124121   3.114   4.915   8.830 -0.1179  0.2257  0.0478
 7268SOL    HW224122   3.231   4.975   8.906 -0.2053  0.1184  0.2679
 7269SOL     OW24123   6.643   2.890   3.509 -0.0202 -0.6009  0.1800
 7269SOL    HW124124   6.654   2.864   3.417  1.3223 -2.1106  0.7090
 7269SOL    HW224125   6.664   2.984   3.510 -1.0841 -0.3140 -1.1923
 7270SOL     OW24126   6.558   6.877   2.591 -0.2298  0.4171 -0.8864
 7270SOL    HW124127   6.474   6.835   2.606  1.0632 -1.7906  0.7154
 7270SOL    HW224128   6.581   6.854   2.501 -0.8405  0.1560 -0.9803
 7271SOL     OW24129   8.841   8.849   8.664  0.4837 -0.4847 -0.0443
 7271SOL    HW124130   8.837   8.759   8.630 -0.3179 -1.3906  2.2197
 7271SOL    HW224131   8.873   8.839   8.754  0.2654  1.4957  0.2937
 7272SOL     OW24132   3.270   9.028   8.073 -0.1340 -0.0967  0.3040
 7272SOL    HW124133   3.300   9.038   7.982 -3.3672  1.2740 -0.7604
 7272SOL    HW224134   3.244   9.117   8.099 -0.8374 -0.7541  1.9654
 7273SOL     OW24135   4.693   5.184   5.470  0.3559  0.6561  0.9398
 7273SOL    HW124136   4.712   5.235   5.391 -1.0805 -0.2994 -0.0959
 7273SOL    HW224137   4.717   5.094   5.447 -0.6286  0.2643  1.3527
 7274SOL     OW24138   8.559   2.197   7.619  0.2839 -0.0265  0.5327
 7274SOL    HW124139   8.542   2.276   7.670 -1.9898 -0.4241  0.4902
 7274SOL    HW224140   8.491   2.136   7.645 -0.6209 -0.4712 -2.4786
 7275SOL     OW24141   2.954   2.677   8.057 -0.3644  0.4044  0.1592
 7275SOL    HW124142   3.024   2.722   8.104 -0.0263  1.3320 -1.1677
 7275SOL    HW224143   2.999   2.620   7.995 -0.7496  1.0729 -0.7689
 7276SOL     OW24144  10.464   6.187   4.483 -0.1683 -0.9246  0.0643
 7276SOL    HW124145  10.501   6.099   4.478  2.3329  0.0505  0.1995
 7276SOL    HW224146  10.511   6.229   4.555 -1.4585  0.4739  0.1304
 7277SOL     OW24147   2.691   7.483   2.582 -0.1719 -0.4316 -0.1804
 7277SOL    HW124148   2.628   7.419   2.549 -0.8771  0.4885 -0.6885
 7277SOL    HW224149   2.638   7.542   2.635  0.5218 -0.4471  0.5312
 7278SOL     OW24150  10.139   8.322   0.151  0.5685 -0.1689 -0.4234
 7278SOL    HW124151  10.140   8.230   0.122  1.6141 -0.3835  0.2195
 7278SOL    HW224152  10.164   8.318   0.243  0.6308  0.7665 -0.3907
 7279SOL     OW24153   7.270   2.986   0.215 -0.5150  0.1770  0.0686
 7279SOL    HW124154   7.239   2.911   0.267  0.3438  0.1041  0.4861
 7279SOL    HW224155   7.302   2.947   0.134 -0.9575  0.1956 -0.1200
 7280SOL     OW24156   7.540   7.934  10.358  0.1292  0.1216  0.1177
 7280SOL    HW124157   7.510   7.851  10.323  1.4798  0.8270 -3.0575
 7280SOL    HW224158   7.531   7.996  10.286  0.9663  2.3059  1.7620
 7281SOL     OW24159   6.839  10.186   5.129 -0.7304  0.4072 -0.4884
 7281SOL    HW124160   6.760  10.203   5.180  1.1839  1.2962  2.4586
 7281SOL    HW224161   6.861  10.270   5.090 -1.5124  0.0184 -1.8181
 7282SOL     OW24162   0.790   9.129   3.146 -0.4514 -0.3544  0.1620
 7282SOL    HW124163   0.781   9.210   3.096  0.3948 -0.5859 -0.3866
 7282SOL    HW224164   0.738   9.144   3.225  2.4956  2.1867  1.8806
 7283SOL     OW24165   1.838   8.158   5.078  0.2335 -0.4308 -0.9036
 7283SOL    HW124166   1.835   8.065   5.100 -0.6534 -0.0422  0.7703
 7283SOL    HW224167   1.748   8.180   5.052  0.2649  0.1125 -0.5799
 7284SOL     OW24168  10.529   9.669   5.467 -0.8293 -0.0987 -0.1145
 7284SOL    HW124169  10.563   9.592   5.513 -2.4287  0.6460  2.4630
 7284SOL    HW224170  10.443   9.685   5.505 -1.1310  2.1817 -1.5505
 7285SOL     OW24171   8.680   3.181   7.364  0.0499  0.3224 -0.5145
 7285SOL    HW124172   8.588   3.169   7.341  0.0081  0.5966 -0.4909
 7285SOL    HW224173   8.716   3.092   7.365 -0.1577  0.2328 -0.7550
 7286SOL     OW24174   1.099   6.736   0.049  0.3860  0.2146 -0.5898
 7286SOL    HW124175   1.133   6.822   0.071  1.0925  0.1053 -1.1923
 7286SOL    HW224176   1.019   6.727   0.100 -0.2380  1.6255 -1.2643
 7287SOL     OW24177   2.932   6.511   7.533 -0.3018  0.1704 -0.1883
 7287SOL    HW124178   2.907   6.586   7.587  0.9785 -0.3008  1.1266
 7287SOL    HW224179   2.949   6.548   7.446 -0.0631  1.3388  0.3408
 7288SOL     OW24180   1.604   5.980   7.266  0.4480  0.6714  0.5784
 7288SOL    HW124181   1.660   6.031   7.207 -0.0761  0.2270 -0.3235
 7288SOL    HW224182   1.665   5.925   7.315  0.9826  1.8169  1.2515
 7289SOL     OW24183   5.602  10.309   8.172 -0.6183  0.2417  0.0052
 7289SOL    HW124184   5.621  10.362   8.094 -0.8516  1.6200  0.8430
 7289SOL    HW224185   5.552  10.234   8.139 -1.5945  1.3173 -1.0725
 7290SOL     OW24186   2.402   8.156   2.193 -0.1661 -0.1945  0.7287
 7290SOL    HW124187   2.346   8.082   2.215 -0.8856  0.0444 -0.2161
 7290SOL    HW224188   2.390   8.169   2.099  1.3135  0.0074  0.5308
 7291SOL     OW24189   3.388   1.272   4.477  0.2877 -0.2788 -0.0744
 7291SOL    HW124190   3.386   1.345   4.416 -2.9872  0.2696  0.4967
 7291SOL    HW224191   3.469   1.283   4.526  0.0811  2.7706 -0.2615
 7292SOL     OW24192   2.822   4.425   2.966  0.7511  0.1443 -0.3569
 7292SOL    HW124193   2.786   4.336   2.966  3.5541 -1.1955 -3.9614
 7292SOL    HW224194   2.818   4.453   2.875  1.6321  3.0337  0.3891
 7293SOL     OW24195   6.287   2.804   9.298 -0.0916 -0.3002  0.1984
 7293SOL    HW124196   6.282   2.796   9.203 -0.9640 -0.1302  0.2183
 7293SOL    HW224197   6.292   2.714   9.329  2.5529 -0.3382 -0.0738
 7294SOL     OW24198   1.392   6.308   7.297  0.2759  0.8118 -0.1741
 7294SOL    HW124199   1.371   6.401   7.305  0.3926  0.8227  0.0137
 7294SOL    HW224200   1.394   6.276   7.387  1.4300  0.8915 -0.1604
 7295SOL     OW24201   0.115   2.322   7.614 -0.3931 -0.3832  0.6357
 7295SOL    HW124202   0.099   2.242   7.664  1.2672 -0.7523  0.6435
 7295SOL    HW224203   0.188   2.300   7.556 -1.9799  0.1546 -1.7143
 7296SOL     OW24204   5.519   1.243  10.125 -0.0701  0.2611  0.0322
 7296SOL    HW124205   5.503   1.327  10.169 -0.6740  0.9383 -1.4250
 7296SOL    HW224206   5.490   1.177  10.188 -0.7158  1.1917  0.7284
 7297SOL     OW24207   9.898   7.831  10.155 -0.2135  0.0331  0.2809
 7297SOL    HW124208   9.928   7.883  10.229  3.4733 -0.4250 -0.7258
 7297SOL    HW224209   9.955   7.754  10.156  0.8120  0.5674 -3.6463
 7298SOL     OW24210   0.722   2.761   7.845  0.0654  0.3158  0.1081
 7298SOL    HW124211   0.676   2.831   7.799 -2.0340 -0.8699  0.2671
 7298SOL    HW224212   0.767   2.806   7.917 -1.8267  1.4734  0.6606
 7299SOL     OW24213   8.343   6.188   2.386  0.1166 -0.0533 -0.5485
 7299SOL    HW124214   8.337   6.147   2.472 -0.9879 -1.4264 -1.2377
 7299SOL    HW224215   8.293   6.269   2.394  0.6048  0.1821  0.2716
 7300SOL     OW24216   1.268   7.678   4.846 -0.5496  0.1037  0.1174
 7300SOL    HW124217   1.284   7.634   4.763 -0.4030 -1.4176  0.9052
 7300SOL    HW224218   1.177   7.657   4.868 -0.8766  1.2625 -0.0873
 7301SOL     OW24219   4.148   6.574   6.098  0.4423 -0.1087 -0.0730
 7301SOL    HW124220   4.222   6.526   6.134 -0.5465 -1.8224 -0.1959
 7301SOL    HW224221   4.074   6.549   6.153 -0.7428 -1.3394 -2.0733
 7302SOL     OW24222   0.309   4.270   1.195  0.6548  0.2484  0.6925
 7302SOL    HW124223   0.345   4.358   1.186 -0.1507  0.5994  0.8085
 7302SOL    HW224224   0.365   4.215   1.141  0.4402  1.0414 -0.3626
 7303SOL     OW24225   6.190   3.613   4.114  0.4105  0.1898 -0.1988
 7303SOL    HW124226   6.175   3.555   4.039 -2.2877  2.9405 -2.0002
 7303SOL    HW224227   6.132   3.578   4.182 -0.0147 -0.1349 -0.7137
 7304SOL     OW24228   0.591   0.575   4.609 -0.4719  0.6442 -0.0826
 7304SOL    HW124229   0.630   0.631   4.675 -2.1353 -1.1699  2.6345
 7304SOL    HW224230   0.657   0.507   4.593 -0.4261  0.5571  0.4703
 7305SOL     OW24231   9.473   0.658   8.377  0.0498 -0.0601 -0.5133
 7305SOL    HW124232   9.509   0.624   8.295 -1.0793 -3.6916  0.3148
 7305SOL    HW224233   9.378   0.646   8.368 -0.1605  0.3755  0.9487
 7306SOL     OW24234   4.190   4.081   5.723  0.6404 -0.4671  0.4475
 7306SOL    HW124235   4.176   4.173   5.744 -1.0011 -0.4046 -0.6849
 7306SOL    HW224236   4.284   4.072   5.714  0.8479  1.0408  0.8588
 7307SOL     OW24237   4.471   2.212   3.009 -0.0292 -0.0830  0.3611
 7307SOL    HW124238   4.465   2.298   2.968 -0.8468  1.1201  2.7570
 7307SOL    HW224239   4.381   2.192   3.036  0.7380  0.7757  4.2469
 7308SOL     OW24240   1.885   6.484   0.660 -0.2106  0.2907 -0.0856
 7308SOL    HW124241   1.902   6.578   0.654 -1.0909  0.4535 -0.1639
 7308SOL    HW224242   1.870   6.457   0.570 -0.3837  0.1584 -0.0176
 7309SOL     OW24243   0.168   8.251   1.750 -0.8612  0.4436 -0.6443
 7309SOL    HW124244   0.166   8.179   1.813  1.6982  0.3575 -0.5344
 7309SOL    HW224245   0.109   8.317   1.786 -2.5239 -1.1662 -0.2569
 7310SOL     OW24246   3.098   1.625   0.598 -0.2329  0.2966 -0.3654
 7310SOL    HW124247   3.002   1.624   0.595 -0.3811 -2.5498  1.6409
 7310SOL    HW224248   3.125   1.539   0.568  1.8170  1.3690 -1.8200
 7311SOL     OW24249   9.631   5.416   6.904 -0.5154 -0.1929  0.0639
 7311SOL    HW124250   9.696   5.486   6.913 -1.9449  1.0999  0.7184
 7311SOL    HW224251   9.656   5.370   6.825  1.5523 -0.1236  0.6270
 7312SOL     OW24252   5.757   2.700   9.524 -0.1010  0.4837  0.7591
 7312SOL    HW124253   5.768   2.605   9.536  0.4904  0.5856  1.0557
 7312SOL    HW224254   5.799   2.719   9.440  0.3027  0.5770  0.9836
 7313SOL     OW24255   8.326   5.680   8.041  0.0446 -0.3345  0.2014
 7313SOL    HW124256   8.356   5.716   8.124 -0.2482  0.7370 -0.1392
 7313SOL    HW224257   8.383   5.721   7.975  0.9919 -1.9893 -0.0683
 7314SOL     OW24258   2.933   0.679   7.971  0.2392 -0.4068  0.0807
 7314SOL    HW124259   2.861   0.631   7.928 -1.5636  2.5230 -0.4437
 7314SOL    HW224260   2.963   0.741   7.905  1.5427  0.1405  1.1512
 7315SOL     OW24261  10.119   2.100   3.493  0.5316 -0.1892 -0.5960
 7315SOL    HW124262  10.214   2.109   3.501  0.3556  2.6314 -0.6324
 7315SOL    HW224263  10.107   2.021   3.440  3.0202  0.9578 -3.1469
 7316SOL     OW24264   8.596   0.759   0.257 -0.1971 -0.2306 -0.1013
 7316SOL    HW124265   8.686   0.760   0.226 -0.3012  0.0330 -0.3990
 7316SOL    HW224266   8.598   0.813   0.337 -0.1672  0.1209 -0.3344
 7317SOL     OW24267   5.489   6.300   0.113  0.5428  0.0783  0.3828
 7317SOL    HW124268   5.408   6.341   0.085  1.3647  0.9188 -0.8870
 7317SOL    HW224269   5.467   6.254   0.194 -1.0668  0.6805  0.3100
 7318SOL     OW24270   9.927   3.246   3.825  0.2791  0.6265  0.0710
 7318SOL    HW124271   9.984   3.284   3.893 -0.0737 -2.4432  2.3076
 7318SOL    HW224272   9.840   3.279   3.846  0.2410  0.0347  0.9242
 7319SOL     OW24273   8.032  10.280   1.073 -0.4084 -0.2258 -0.6561
 7319SOL    HW124274   8.108  10.322   1.032  0.7054 -1.2834  0.2473
 7319SOL    HW224275   8.068  10.239   1.152 -1.8897 -0.9434 -0.3351
 7320SOL     OW24276   2.291   1.824   3.406 -0.5093  0.6359  0.8863
 7320SOL    HW124277   2.377   1.867   3.412  0.1600 -0.4380 -0.3949
 7320SOL    HW224278   2.228   1.895   3.417  0.5461  1.5609  1.1871
 7321SOL     OW24279   8.528   3.823   1.675 -0.3897  0.3346 -0.0905
 7321SOL    HW124280   8.518   3.756   1.742  0.6822 -0.6444 -0.8689
 7321SOL    HW224281   8.506   3.905   1.719 -0.5279 -0.3803  1.2161
 7322SOL     OW24282   7.621   8.417   4.678  0.2792  0.1255  0.1449
 7322SOL    HW124283   7.693   8.356   4.692 -0.0369 -0.5796 -1.2124
 7322SOL    HW224284   7.663   8.495   4.642  0.3769 -0.2707 -0.6110
 7323SOL     OW24285   2.724   9.817   4.939 -0.1880  0.1604 -0.0634
 7323SOL    HW124286   2.731   9.903   4.896 -0.6529 -0.0025 -0.4809
 7323SOL    HW224287   2.633   9.813   4.969  0.2084  0.3930  1.2274
 7324SOL     OW24288   5.976   6.610   3.734 -0.2389  0.0555 -0.4058
 7324SOL    HW124289   5.910   6.624   3.801  0.5861 -1.8662  0.8942
 7324SOL    HW224290   5.933   6.555   3.669 -0.8271  1.3538 -1.1461
 7325SOL     OW24291   8.881   6.758  10.263 -0.1112 -0.0531  0.7841
 7325SOL    HW124292   8.881   6.738  10.169 -1.1446  0.1302  0.7369
 7325SOL    HW224293   8.820   6.695  10.301 -0.7723  0.7768  1.1229
 7326SOL     OW24294   2.648   3.046   4.999 -0.0912  0.1505 -0.1001
 7326SOL    HW124295   2.660   2.957   5.033 -1.6576 -0.6226 -1.4256
 7326SOL    HW224296   2.586   3.086   5.059 -1.4267 -0.5934 -0.9156
 7327SOL     OW24297   2.701   7.528   8.159  0.1985  0.0856  0.4465
 7327SOL    HW124298   2.763   7.601   8.160  1.1791 -0.7289  0.6366
 7327SOL    HW224299   2.658   7.531   8.245 -0.5176  1.0461  0.0708
 7328SOL     OW24300   7.723  10.119   1.900 -0.1160 -0.0900  0.0247
 7328SOL    HW124301   7.744  10.096   1.991 -1.1542 -0.9443  0.0646
 7328SOL    HW224302   7.733  10.214   1.897 -0.1134 -0.0450  1.0535
 7329SOL     OW24303   1.138   4.359   0.809 -0.4751 -0.7228 -0.4155
 7329SOL    HW124304   1.168   4.282   0.760 -0.6575 -1.1013  0.0604
 7329SOL    HW224305   1.139   4.331   0.901  0.1296  0.0690 -0.1755
 7330SOL     OW24306   4.989   3.641  10.182 -0.0185 -0.2323 -0.0662
 7330SOL    HW124307   4.902   3.653  10.144  0.1315  2.8420  0.2523
 7330SOL    HW224308   4.972   3.612  10.272 -0.7763  0.5980  0.0786
 7331SOL     OW24309   6.230   1.903   6.658 -0.1684 -0.0124 -0.4089
 7331SOL    HW124310   6.175   1.838   6.614  1.9827 -2.8953  0.8389
 7331SOL    HW224311   6.277   1.946   6.586  0.0558 -1.5220 -1.2202
 7332SOL     OW24312   6.159   0.112   8.197 -0.4348 -0.0235 -0.1357
 7332SOL    HW124313   6.173   0.202   8.168 -2.5934  1.0316  1.8023
 7332SOL    HW224314   6.246   0.083   8.227  0.3082  1.3636 -0.8387
 7333SOL     OW24315   2.354   4.921   7.184  0.1047  0.0558 -0.1062
 7333SOL    HW124316   2.268   4.879   7.191 -1.0295  1.8752 -2.0538
 7333SOL    HW224317   2.354   4.960   7.097  3.5298 -1.0931 -0.7572
 7334SOL     OW24318   2.195  10.159   8.292 -0.5324  0.4053  0.1806
 7334SOL    HW124319   2.157  10.105   8.361 -1.1583  1.3874  0.6308
 7334SOL    HW224320   2.120  10.191   8.242 -0.0561 -0.8180 -1.3946
 7335SOL     OW24321   4.664   7.555   0.534  0.7921 -0.5203 -0.0707
 7335SOL    HW124322   4.631   7.588   0.618  0.7894  0.9632 -0.6135
 7335SOL    HW224323   4.753   7.589   0.529  0.3722  0.4917 -1.2020
 7336SOL     OW24324   0.093   0.778   6.916  0.1247 -0.4992 -1.0974
 7336SOL    HW124325   0.116   0.751   7.005 -1.9830  0.4790 -0.1851
 7336SOL    HW224326  -0.002   0.772   6.912  0.0847  0.4013 -2.9920
 7337SOL     OW24327   0.707   8.927   0.678 -0.2964  0.1903  0.0129
 7337SOL    HW124328   0.674   8.998   0.623  0.0446  0.4652  0.1545
 7337SOL    HW224329   0.639   8.913   0.743 -0.9892 -0.5628 -0.8381
 7338SOL     OW24330   6.505   9.469   8.162  0.1143 -0.6332 -0.6009
 7338SOL    HW124331   6.425   9.514   8.188  1.2885  1.3638 -0.2363
 7338SOL    HW224332   6.511   9.481   8.068 -1.6685 -3.7356 -1.2541
 7339SOL     OW24333   2.230   3.256   8.552  0.0202  0.1593  0.0148
 7339SOL    HW124334   2.301   3.217   8.501 -0.2852  1.1380 -1.1943
 7339SOL    HW224335   2.273   3.294   8.628  0.3284 -2.5615  1.3279
 7340SOL     OW24336   5.124   3.534   9.534  0.5128 -0.3015 -0.3861
 7340SOL    HW124337   5.079   3.557   9.615 -0.8038 -2.0820 -0.5471
 7340SOL    HW224338   5.189   3.603   9.523 -0.1195  0.6898  1.4975
 7341SOL     OW24339   3.443   1.957   3.108  0.2437  0.6304 -0.5775
 7341SOL    HW124340   3.468   1.882   3.053 -1.3713  0.4985 -1.1722
 7341SOL    HW224341   3.470   1.932   3.196  0.2409 -0.4186 -0.8607
 7342SOL     OW24342  10.091   9.059   1.167  0.1267 -0.1238  0.4106
 7342SOL    HW124343  10.019   9.005   1.200  0.8088  0.1104  2.4540
 7342SOL    HW224344  10.071   9.072   1.075 -0.6500 -2.9402  0.0724
 7343SOL     OW24345   7.057   0.387   8.890  0.2418  0.2300  0.0190
 7343SOL    HW124346   7.073   0.480   8.907 -0.2466  0.3193 -0.0061
 7343SOL    HW224347   6.962   0.380   8.883 -0.0728 -0.8286  3.5325
 7344SOL     OW24348   7.521   0.391  10.392 -0.4944  0.0836  0.1796
 7344SOL    HW124349   7.555   0.331  10.458 -2.4687 -1.7764 -0.3509
 7344SOL    HW224350   7.474   0.458  10.441 -2.3808 -1.5651  0.7582
 7345SOL     OW24351   5.671   9.846   5.146  0.1793  0.1092  0.3800
 7345SOL    HW124352   5.631   9.885   5.224 -0.8967 -0.3267  0.0704
 7345SOL    HW224353   5.733   9.781   5.180 -1.5884 -1.3873  0.9242
 7346SOL     OW24354   8.779   6.307   0.347 -0.1986 -0.0760 -0.3814
 7346SOL    HW124355   8.731   6.388   0.367  1.1690  0.6644 -0.0139
 7346SOL    HW224356   8.825   6.285   0.427 -0.7127 -1.3696 -0.4093
 7347SOL     OW24357   7.167   2.670   1.177  0.3669 -0.3381  0.0974
 7347SOL    HW124358   7.144   2.763   1.173  0.5687 -0.2749  0.3704
 7347SOL    HW224359   7.144   2.644   1.266  0.1875 -0.5831 -0.0203
 7348SOL     OW24360   6.349   1.114   7.665 -0.0172  0.4002 -0.2906
 7348SOL    HW124361   6.340   1.148   7.754  1.6469 -1.5238  0.6847
 7348SOL    HW224362   6.283   1.045   7.659  1.0567 -0.6945  0.1255
 7349SOL     OW24363   4.169   9.770   0.595 -0.0623 -0.3069  0.0179
 7349SOL    HW124364   4.216   9.716   0.532  1.4572  0.0567  0.7817
 7349SOL    HW224365   4.141   9.710   0.663 -1.4243 -0.6492 -0.8215
 7350SOL     OW24366   2.059   2.487   5.753  0.2801  0.2768 -0.0846
 7350SOL    HW124367   1.965   2.480   5.770 -0.2768  2.8532 -1.4790
 7350SOL    HW224368   2.100   2.427   5.815 -2.2610 -0.7452  0.7208
 7351SOL     OW24369   8.498   1.213   9.624  0.4301  0.0193 -0.0894
 7351SOL    HW124370   8.543   1.201   9.708 -0.3692  0.9669  0.4958
 7351SOL    HW224371   8.569   1.211   9.559  1.0174 -1.1375  0.5405
 7352SOL     OW24372   2.149   2.482   2.409 -0.1863  0.7086  0.2271
 7352SOL    HW124373   2.133   2.397   2.450 -0.3277 -0.1282 -1.4605
 7352SOL    HW224374   2.062   2.521   2.402 -0.2082  0.6884  0.3807
 7353SOL     OW24375   5.978   7.871   0.979  0.4507 -0.0119 -0.3496
 7353SOL    HW124376   5.886   7.846   0.984  0.4979 -0.2983 -0.8317
 7353SOL    HW224377   6.025   7.795   1.012  0.6059 -0.7064 -2.0259
 7354SOL     OW24378   8.754   6.048   5.918 -0.3784 -0.5328 -0.3263
 7354SOL    HW124379   8.794   5.961   5.923 -1.4153 -1.2257 -2.5875
 7354SOL    HW224380   8.814   6.099   5.863 -0.1300 -0.0176  0.4082
 7355SOL     OW24381   9.135   2.271   6.132 -0.0639 -0.5934 -0.0508
 7355SOL    HW124382   9.047   2.307   6.148  0.7104  1.8020 -0.7855
 7355SOL    HW224383   9.124   2.219   6.052 -0.7851 -0.2123 -0.2112
 7356SOL     OW24384   4.248   2.435   3.089 -0.0134 -0.0114 -0.0462
 7356SOL    HW124385   4.317   2.477   3.037  0.2393 -0.4012 -0.0224
 7356SOL    HW224386   4.172   2.491   3.075  0.9573  2.0328  2.1060
 7357SOL     OW24387   5.183   4.093   7.769 -0.2739 -0.5786 -0.4976
 7357SOL    HW124388   5.147   4.034   7.836 -0.2297 -1.2663 -1.0600
 7357SOL    HW224389   5.241   4.151   7.817 -1.0843 -0.3420  0.2229
 7358SOL     OW24390   4.439  10.037   8.314  0.1536 -0.3068 -0.2394
 7358SOL    HW124391   4.363  10.036   8.372 -0.7250 -0.0499 -1.3331
 7358SOL    HW224392   4.509   9.994   8.364 -1.2655 -2.4022  0.0657
 7359SOL     OW24393  10.142   4.893   0.111  0.4139  0.2121 -0.5256
 7359SOL    HW124394  10.136   4.950   0.188 -0.5051  0.1025 -0.5064
 7359SOL    HW224395  10.052   4.887   0.079  0.0355 -3.1642  0.8438
 7360SOL     OW24396   0.924   3.463   2.647 -0.5670 -0.0250 -0.1778
 7360SOL    HW124397   0.966   3.434   2.566  0.7750  0.5041  0.2943
 7360SOL    HW224398   0.872   3.540   2.620 -0.8359 -0.3749 -0.6801
 7361SOL     OW24399   5.523  10.136   4.182  0.6841 -0.5400  0.3177
 7361SOL    HW124400   5.477  10.220   4.184  2.3295  0.4284  0.0212
 7361SOL    HW224401   5.494  10.094   4.101  0.6303  0.2441 -0.0801
 7362SOL     OW24402   9.520   5.197   6.468  0.0422 -0.1387 -0.0281
 7362SOL    HW124403   9.459   5.124   6.466 -0.1845 -0.0411  1.7580
 7362SOL    HW224404   9.468   5.273   6.444 -0.2124 -0.2615  0.1352
 7363SOL     OW24405   4.713   1.673   4.897 -0.0966  0.2669  0.0979
 7363SOL    HW124406   4.803   1.669   4.864  0.1451  1.2062  0.6096
 7363SOL    HW224407   4.689   1.765   4.893 -0.5938  0.2007  1.1260
 7364SOL     OW24408   2.034   5.486   2.247 -0.3481 -0.6235 -0.5095
 7364SOL    HW124409   1.990   5.449   2.170 -0.9096  0.7175 -0.8793
 7364SOL    HW224410   2.003   5.433   2.320  0.2426 -1.9622 -1.1955
 7365SOL     OW24411   2.637   2.313   1.134  0.1031 -0.0768  0.2068
 7365SOL    HW124412   2.617   2.392   1.083  0.1013 -0.8665 -1.0654
 7365SOL    HW224413   2.729   2.295   1.114  0.7900  0.8120  2.2451
 7366SOL     OW24414   4.052   0.360   3.649 -0.3739 -0.2865  0.3102
 7366SOL    HW124415   3.989   0.302   3.606  0.8926 -0.9315 -0.7544
 7366SOL    HW224416   4.135   0.341   3.606  0.3472  1.3535  0.8913
 7367SOL     OW24417   2.032   2.984   0.299 -0.0283 -0.4072 -0.3608
 7367SOL    HW124418   1.967   3.050   0.275 -0.3063 -0.1629  0.9971
 7367SOL    HW224419   1.986   2.900   0.289  0.1798 -0.3880 -1.6293
 7368SOL     OW24420   4.298   4.053   1.691  0.3809  0.3114 -0.0700
 7368SOL    HW124421   4.254   4.101   1.621 -0.8784 -0.3904  0.2036
 7368SOL    HW224422   4.234   3.986   1.717  1.2593 -0.1299  1.0028
 7369SOL     OW24423   2.661   7.018   6.293  0.1511  0.1026  0.4670
 7369SOL    HW124424   2.696   7.105   6.272 -0.7208  0.2483 -0.4619
 7369SOL    HW224425   2.667   6.969   6.211  0.1564 -0.5602  0.8517
 7370SOL     OW24426   4.498   2.777   7.277 -0.1180 -0.3381  0.4221
 7370SOL    HW124427   4.523   2.869   7.271 -0.6698 -0.2018  0.0653
 7370SOL    HW224428   4.403   2.780   7.286 -0.1063 -0.8639  0.6864
 7371SOL     OW24429   3.461   1.014   1.081 -0.1013  0.0446 -0.7389
 7371SOL    HW124430   3.435   0.959   1.007  0.5796 -0.1990 -0.8010
 7371SOL    HW224431   3.529   1.071   1.045 -0.0599  0.2079 -0.4057
 7372SOL     OW24432  10.257   7.057   3.131 -0.2014 -0.0961  0.5549
 7372SOL    HW124433  10.256   7.081   3.038  1.1712  2.4213  1.1253
 7372SOL    HW224434  10.224   6.966   3.132 -0.4270 -0.1429 -2.3353
 7373SOL     OW24435   2.207   0.389   7.517 -0.0159  0.4643  0.2770
 7373SOL    HW124436   2.270   0.376   7.588  0.1173  0.8401  0.2305
 7373SOL    HW224437   2.243   0.340   7.443  0.0980  0.4812  0.3215
 7374SOL     OW24438   8.020   3.257   0.949  0.2105 -0.1699  0.3644
 7374SOL    HW124439   8.030   3.193   0.879 -1.0263  0.7842 -0.7333
 7374SOL    HW224440   8.109   3.270   0.983  0.9433 -0.2115 -1.4474
 7375SOL     OW24441   8.418   9.316   2.447  0.1782  0.2391  0.2041
 7375SOL    HW124442   8.424   9.242   2.507  1.3302  0.0054 -0.1714
 7375SOL    HW224443   8.488   9.301   2.383 -1.0086  0.4781 -1.2114
 7376SOL     OW24444   2.741   0.563   7.830 -0.6084  0.1817 -0.4789
 7376SOL    HW124445   2.664   0.611   7.800 -0.7093  1.2005  1.3091
 7376SOL    HW224446   2.776   0.523   7.751 -2.2799  0.6851 -1.5255
 7377SOL     OW24447   2.388   1.218   9.807 -0.2712  0.3176  0.2428
 7377SOL    HW124448   2.339   1.300   9.795 -0.4355  0.1536 -0.2236
 7377SOL    HW224449   2.369   1.167   9.728 -0.0888 -0.1306  0.4864
 7378SOL     OW24450   3.661   6.663   3.951  0.3895 -0.7283 -0.4314
 7378SOL    HW124451   3.635   6.602   4.020  0.2343 -1.1442 -0.8460
 7378SOL    HW224452   3.738   6.707   3.986 -0.4551  0.0197  0.5301
 7379SOL     OW24453   0.782   6.065  10.168 -0.1715  0.6482 -0.3147
 7379SOL    HW124454   0.716   5.999  10.148  1.7379 -1.5198  0.1051
 7379SOL    HW224455   0.763   6.092  10.258  0.0637 -0.7247  0.1750
 7380SOL     OW24456  10.328   0.576   5.358 -0.1084  0.1911  0.1426
 7380SOL    HW124457  10.318   0.568   5.453  0.4735 -1.7905  0.0828
 7380SOL    HW224458  10.338   0.486   5.327  0.5742  0.8519 -1.7098
 7381SOL     OW24459   2.266  10.248   6.259 -0.0592 -0.0496 -0.6137
 7381SOL    HW124460   2.316  10.171   6.234 -1.4808 -0.9795 -0.7085
 7381SOL    HW224461   2.267  10.248   6.355  1.8063  1.1168 -0.5762
 7382SOL     OW24462   6.685   1.078   4.871 -0.0691 -0.1068  0.1730
 7382SOL    HW124463   6.714   1.144   4.808 -1.5676  0.3871 -0.0459
 7382SOL    HW224464   6.749   1.082   4.942  1.7073 -0.7261 -1.3247
 7383SOL     OW24465   3.555   2.942   4.783 -0.0648  0.6067 -0.3860
 7383SOL    HW124466   3.479   2.939   4.726  1.4811  1.5150 -2.6530
 7383SOL    HW224467   3.568   2.851   4.810 -1.3431  0.2893 -0.7703
 7384SOL     OW24468   3.751   8.626   3.129 -0.9220 -0.3506  0.1787
 7384SOL    HW124469   3.749   8.560   3.059 -0.3114  0.1663 -0.3364
 7384SOL    HW224470   3.835   8.613   3.172 -0.0627  1.1186 -0.9598
 7385SOL     OW24471   0.514   1.077   5.559  0.1416 -0.1070 -0.1263
 7385SOL    HW124472   0.534   1.001   5.612 -1.5894  0.5513  1.5731
 7385SOL    HW224473   0.450   1.046   5.495  1.2385 -0.5893 -1.0296
 7386SOL     OW24474   6.826   6.019   2.937 -0.5477  0.0267  0.6729
 7386SOL    HW124475   6.817   6.080   2.864 -1.4678 -0.5596  0.2692
 7386SOL    HW224476   6.865   5.940   2.899 -2.3608 -0.8250  0.4494
 7387SOL     OW24477   1.722   6.119   0.621  0.5806 -0.0846 -0.2618
 7387SOL    HW124478   1.693   6.182   0.686 -0.6626 -0.1079 -0.7696
 7387SOL    HW224479   1.791   6.069   0.665 -0.4531 -0.3217  1.1608
 7388SOL     OW24480   0.747   0.255   4.541  0.1448  0.1946 -0.6206
 7388SOL    HW124481   0.743   0.286   4.632 -0.1527  0.8846 -0.8551
 7388SOL    HW224482   0.804   0.318   4.497 -2.8162  2.3037 -1.7914
 7389SOL     OW24483   2.719   1.292   3.105 -0.0084 -0.4512 -0.1538
 7389SOL    HW124484   2.689   1.225   3.166 -2.5485  0.8335  0.1185
 7389SOL    HW224485   2.757   1.360   3.160 -0.6100 -0.1167 -0.1516
 7390SOL     OW24486   5.394   9.210   9.832  0.2593  0.2969  0.6805
 7390SOL    HW124487   5.356   9.249   9.754 -1.4944 -0.1019  1.2908
 7390SOL    HW224488   5.319   9.187   9.887  1.3799 -0.7220  1.8665
 7391SOL     OW24489   4.715   9.797   1.039 -0.4249  0.3198  0.3460
 7391SOL    HW124490   4.797   9.770   1.000 -0.2383 -0.2795  1.1214
 7391SOL    HW224491   4.738   9.870   1.097  0.0101 -1.3641  2.4129
 7392SOL     OW24492   3.064   0.879   2.098  0.2080 -0.3673 -0.1174
 7392SOL    HW124493   2.973   0.860   2.074 -0.0219 -0.8310  1.0343
 7392SOL    HW224494   3.073   0.973   2.086 -0.8854 -0.0699  1.1388
 7393SOL     OW24495   1.280   0.609   3.581 -0.6252  0.3735  0.1964
 7393SOL    HW124496   1.256   0.516   3.590 -0.6634  0.3420 -0.1908
 7393SOL    HW224497   1.238   0.636   3.499 -0.8134  0.7989  0.4358
 7394SOL     OW24498   9.691   2.868   2.311 -0.4610 -0.4205 -0.1601
 7394SOL    HW124499   9.649   2.949   2.282 -0.4502 -0.3342  0.0646
 7394SOL    HW224500   9.734   2.834   2.232  2.8780  1.7901  0.4610
 7395SOL     OW24501   2.349   6.930   1.364 -0.1484  0.3499 -0.3974
 7395SOL    HW124502   2.416   6.872   1.329 -0.1566 -0.1546  0.4188
 7395SOL    HW224503   2.324   6.985   1.289  1.1001  0.4919 -0.7309
 7396SOL     OW24504   6.185   3.470   2.232  0.0276 -0.1522  0.3680
 7396SOL    HW124505   6.121   3.423   2.285 -1.4483  3.1537  1.7907
 7396SOL    HW224506   6.260   3.482   2.291  0.6330 -1.0648 -0.1760
 7397SOL     OW24507   8.716   8.473   9.757  0.0710 -0.2226  0.3052
 7397SOL    HW124508   8.654   8.407   9.726 -0.1642 -0.7912  1.8727
 7397SOL    HW224509   8.663   8.533   9.810  0.5310  0.4008  0.0654
 7398SOL     OW24510   9.247   6.753  10.141  0.6420  0.2692  0.3147
 7398SOL    HW124511   9.221   6.678  10.195 -0.8244 -0.1708 -0.9162
 7398SOL    HW224512   9.245   6.827  10.201  0.0571 -0.3523  1.0960
 7399SOL     OW24513   8.190   4.520   0.495 -0.4287 -0.2367  0.4751
 7399SOL    HW124514   8.119   4.476   0.448 -0.1036 -0.8545  0.5632
 7399SOL    HW224515   8.192   4.608   0.456 -0.8082 -0.4234  0.0155
 7400SOL     OW24516   3.678   3.939  10.140  0.7466  0.4900 -0.9236
 7400SOL    HW124517   3.690   3.988  10.221  1.0084  0.6062 -1.0328
 7400SOL    HW224518   3.765   3.906  10.118  0.2016 -1.9879  0.3695
 7401SOL     OW24519   5.974   0.805   4.191  0.1528 -0.1469 -0.4943
 7401SOL    HW124520   5.982   0.743   4.263  2.3513 -0.1272 -0.6383
 7401SOL    HW224521   6.012   0.760   4.116  0.3851  0.8024 -0.9669
 7402SOL     OW24522   7.907   9.285   2.782  0.4427 -0.0693  0.2141
 7402SOL    HW124523   7.981   9.266   2.724 -0.5822  0.2530 -1.2673
 7402SOL    HW224524   7.895   9.379   2.776 -0.3098 -0.1577  0.1289
 7403SOL     OW24525   0.819   6.949   3.131  0.1109  0.5244 -0.2868
 7403SOL    HW124526   0.868   7.008   3.073 -0.9760  1.1088 -0.6352
 7403SOL    HW224527   0.741   6.927   3.081  0.6956 -1.6091 -0.3538
 7404SOL     OW24528   5.892   4.225   3.037  0.1226 -0.2219  0.2171
 7404SOL    HW124529   5.859   4.147   3.083  0.3049 -1.2161 -1.2746
 7404SOL    HW224530   5.846   4.298   3.079 -0.1909 -1.1306  1.5349
 7405SOL     OW24531   5.346   3.638  10.152 -0.0125 -0.1970 -0.5043
 7405SOL    HW124532   5.282   3.638  10.223  1.1206 -0.7445  0.5474
 7405SOL    HW224533   5.300   3.681  10.079 -0.6711  1.8998  1.0209
 7406SOL     OW24534   3.643   7.150   6.744 -0.2237  0.1353 -0.1875
 7406SOL    HW124535   3.725   7.116   6.709  1.0207 -0.7423  3.1618
 7406SOL    HW224536   3.598   7.072   6.778 -1.7637  0.7922 -0.6536
 7407SOL     OW24537   4.178   6.757   1.348 -0.1203  0.0917 -0.3530
 7407SOL    HW124538   4.255   6.729   1.298 -0.3017  0.0432 -0.6093
 7407SOL    HW224539   4.112   6.774   1.281  0.0306  1.2884 -0.2178
 7408SOL     OW24540   1.386   6.718   0.629 -0.6631 -0.1691 -0.3673
 7408SOL    HW124541   1.351   6.715   0.539 -0.9404  0.8430 -0.3046
 7408SOL    HW224542   1.480   6.704   0.619 -0.8977 -1.6528 -0.6610
 7409SOL     OW24543   5.856   9.551  10.216 -0.0411  0.0754 -0.0073
 7409SOL    HW124544   5.913   9.475  10.225 -0.0143  0.3115  2.7656
 7409SOL    HW224545   5.773   9.523  10.253 -0.1271  1.2683  0.7612
 7410SOL     OW24546   0.324   4.507   6.872 -0.4479  0.0907  0.1066
 7410SOL    HW124547   0.324   4.480   6.964 -1.5976  1.7189  0.6268
 7410SOL    HW224548   0.415   4.527   6.853 -0.2124 -0.1547  0.9198
 7411SOL     OW24549   9.612   4.561  10.114  0.1469  0.4161 -0.2455
 7411SOL    HW124550   9.520   4.588  10.122  0.0894  0.5338 -1.2369
 7411SOL    HW224551   9.626   4.505  10.190 -0.1570  2.0153  1.0570
 7412SOL     OW24552   9.342   4.076   0.413 -0.2348  0.0947 -0.2534
 7412SOL    HW124553   9.328   4.006   0.349  0.4147 -0.6277  0.3765
 7412SOL    HW224554   9.425   4.115   0.387  0.4242 -0.6993  0.5625
 7413SOL     OW24555   8.069   3.275   9.745 -0.0868  0.2569  0.3436
 7413SOL    HW124556   8.036   3.344   9.687 -2.3602 -0.1083  1.1069
 7413SOL    HW224557   8.027   3.195   9.714 -0.0838 -0.2075  1.4774
 7414SOL     OW24558   9.284   4.049   1.835 -0.4358  0.3228  0.1202
 7414SOL    HW124559   9.294   3.989   1.761  0.4971  0.7999 -0.1582
 7414SOL    HW224560   9.372   4.054   1.874 -0.9665 -0.1117  1.4141
 7415SOL     OW24561   3.466   1.390   6.078  0.1887 -0.3394 -0.0125
 7415SOL    HW124562   3.418   1.313   6.050  0.5144 -0.8743  0.8682
 7415SOL    HW224563   3.534   1.357   6.136  1.5818  0.4082 -1.1467
 7416SOL     OW24564   6.236   1.396   3.911  0.0176  0.4916  0.7518
 7416SOL    HW124565   6.213   1.487   3.925 -0.6268  0.5256 -0.3642
 7416SOL    HW224566   6.216   1.380   3.818  0.0820 -0.7814  0.9303
 7417SOL     OW24567   1.962   8.158   7.463  0.3462  0.2782  0.6257
 7417SOL    HW124568   1.963   8.132   7.555  0.1878 -0.4094  0.4453
 7417SOL    HW224569   1.993   8.080   7.416  0.9566  0.8049  0.1391
 7418SOL     OW24570   9.634   7.201  10.212 -0.0426 -0.2008  0.3665
 7418SOL    HW124571   9.657   7.294  10.214 -0.5607 -0.0607  0.0849
 7418SOL    HW224572   9.538   7.201  10.208 -0.0249 -0.7353 -0.2052
 7419SOL     OW24573   9.020   4.420   5.571 -0.3896  0.4189 -0.3364
 7419SOL    HW124574   8.963   4.466   5.632  2.0340  0.3125  2.2048
 7419SOL    HW224575   9.021   4.329   5.602  1.6708  0.5644  0.1786
 7420SOL     OW24576   2.187   6.807   9.070 -0.3518 -0.3546 -0.4942
 7420SOL    HW124577   2.263   6.846   9.026 -0.4968 -1.8061 -2.1455
 7420SOL    HW224578   2.112   6.846   9.027 -0.4974 -1.9847 -1.8123
 7421SOL     OW24579   6.621   2.561   0.217 -0.1056  0.0149 -0.4149
 7421SOL    HW124580   6.683   2.611   0.165 -0.1063 -0.5850 -1.0019
 7421SOL    HW224581   6.636   2.470   0.192  0.2161 -0.3458  0.9671
 7422SOL     OW24582   1.227   5.252   6.268 -0.0517 -0.1478  0.2717
 7422SOL    HW124583   1.165   5.321   6.294 -1.9333 -1.1052 -1.3764
 7422SOL    HW224584   1.225   5.253   6.173  1.7394 -0.9333  0.1816
 7423SOL     OW24585   1.623   9.039   5.162 -0.3035 -0.3095 -0.0933
 7423SOL    HW124586   1.565   8.998   5.226  1.0782  0.8839  2.0205
 7423SOL    HW224587   1.684   8.969   5.137 -0.1180 -0.4763  0.8096
 7424SOL     OW24588   3.520   5.373   4.016 -0.4933  0.5004  0.5444
 7424SOL    HW124589   3.480   5.389   3.931 -0.7677 -0.3234  0.5051
 7424SOL    HW224590   3.452   5.328   4.067  0.2168 -0.5438  0.6181
 7425SOL     OW24591   4.802   9.573   5.028  0.7307  0.3292  0.4271
 7425SOL    HW124592   4.883   9.522   5.020  0.0618 -0.6551 -0.1847
 7425SOL    HW224593   4.779   9.596   4.938 -1.6256 -2.5627  0.1499
 7426SOL     OW24594   9.943   2.499   8.341 -0.3036  0.1053 -0.2002
 7426SOL    HW124595   9.855   2.536   8.353 -0.8596 -1.1813 -0.1206
 7426SOL    HW224596   9.988   2.561   8.285 -0.4411  2.0519  1.7372
 7427SOL     OW24597   4.559   5.425   0.057 -0.1564 -0.2099 -0.6216
 7427SOL    HW124598   4.588   5.360  -0.007  3.1041 -0.4188  0.8810
 7427SOL    HW224599   4.593   5.393   0.141 -2.9869  0.8137  1.0777
 7428SOL     OW24600   4.480   3.782   3.045  0.0774  0.0885 -0.5032
 7428SOL    HW124601   4.426   3.707   3.072  0.8059 -0.4832 -0.6190
 7428SOL    HW224602   4.433   3.818   2.969  0.2087 -0.8332 -1.0424
 7429SOL     OW24603   7.360   0.705   9.635  0.2220  0.2153 -0.2832
 7429SOL    HW124604   7.318   0.767   9.576  0.3141 -0.2500 -0.8544
 7429SOL    HW224605   7.448   0.693   9.597  0.2320 -0.1916 -0.1349
 7430SOL     OW24606   4.949   7.166   3.037  0.4222 -0.0717 -0.0450
 7430SOL    HW124607   4.975   7.092   2.982 -1.7546 -0.6265 -0.4257
 7430SOL    HW224608   5.028   7.188   3.087  1.8512 -0.9433 -1.8130
 7431SOL     OW24609   7.956   5.047   1.876  0.0236  0.4665  0.2303
 7431SOL    HW124610   7.998   5.130   1.852  1.8789 -0.2017  0.9531
 7431SOL    HW224611   7.986   4.985   1.809 -2.6494  0.6538 -1.2580
 7432SOL     OW24612   9.854   7.902   4.005 -0.3562 -0.4150 -0.0355
 7432SOL    HW124613   9.917   7.833   3.986 -0.1475 -0.0435 -0.7288
 7432SOL    HW224614   9.869   7.968   3.938 -1.9571 -0.6246 -0.6663
 7433SOL     OW24615   5.085   3.501   7.154 -0.0591 -0.5748  0.4069
 7433SOL    HW124616   5.062   3.460   7.237  2.0748 -0.0138  1.3552
 7433SOL    HW224617   5.141   3.575   7.178  0.6695 -0.4290 -1.5273
 7434SOL     OW24618   6.312   8.425   5.363 -0.2972 -0.1407 -0.1031
 7434SOL    HW124619   6.359   8.354   5.318 -2.0045 -1.5758  0.2582
 7434SOL    HW224620   6.225   8.425   5.324 -0.5644  1.2746  0.4451
 7435SOL     OW24621   9.282   8.936   3.106 -0.2120  0.0435  0.0038
 7435SOL    HW124622   9.284   8.993   3.030 -0.0197 -0.4473 -0.3636
 7435SOL    HW224623   9.256   8.850   3.071  0.9021 -0.4427  0.3158
 7436SOL     OW24624   3.362   6.362   3.119  0.0884 -0.9154 -0.5586
 7436SOL    HW124625   3.274   6.397   3.131  0.1849 -0.6051 -0.7354
 7436SOL    HW224626   3.354   6.303   3.044  0.7677  1.9158 -3.0248
 7437SOL     OW24627   2.610   1.794   3.324 -0.1458 -0.8446  0.4176
 7437SOL    HW124628   2.627   1.865   3.385  2.9422 -1.1425  0.0278
 7437SOL    HW224629   2.670   1.724   3.349  2.1090 -0.6023 -3.4702
 7438SOL     OW24630   7.222   2.677   3.174 -0.1628 -0.4185  0.0516
 7438SOL    HW124631   7.190   2.667   3.264 -0.1209 -1.3019 -0.0213
 7438SOL    HW224632   7.271   2.759   3.175 -2.1314  0.8236  0.2516
 7439SOL     OW24633   7.246   8.090  10.363 -0.0410 -0.0046  0.5083
 7439SOL    HW124634   7.265   8.144  10.440  0.0099  2.5405 -1.2000
 7439SOL    HW224635   7.247   8.000  10.397 -1.5553  1.0515  3.7837
 7440SOL     OW24636   6.286   0.102   8.813 -0.1361  0.1175 -0.1679
 7440SOL    HW124637   6.319   0.014   8.832 -0.3805  0.0754  0.0611
 7440SOL    HW224638   6.257   0.135   8.898  0.1010  0.4814 -0.2267
 7441SOL     OW24639   2.255   3.809   0.030  0.1422  0.2579  0.1916
 7441SOL    HW124640   2.239   3.904   0.031 -0.4568  0.1640  0.2508
 7441SOL    HW224641   2.188   3.775  -0.030 -0.7003 -0.3053  1.4042
 7442SOL     OW24642   9.203   1.807   1.921  0.2911  0.7361  0.8405
 7442SOL    HW124643   9.228   1.768   2.005  0.7938  1.6056  1.1078
 7442SOL    HW224644   9.283   1.848   1.889  0.8498 -1.7980 -1.3763
 7443SOL     OW24645   4.315   2.297   2.081 -0.6195  0.6547 -0.0302
 7443SOL    HW124646   4.246   2.291   2.014  0.0413  1.0137 -0.7645
 7443SOL    HW224647   4.269   2.324   2.160 -1.1741  2.0979 -0.8063
 7444SOL     OW24648   0.955   9.396   5.583  0.0191 -0.1722 -0.2637
 7444SOL    HW124649   1.031   9.435   5.627 -0.0140 -1.3947  0.9604
 7444SOL    HW224650   0.944   9.448   5.504  4.0700 -1.7207 -2.1779
 7445SOL     OW24651   8.470   4.078   1.856  0.4239 -0.5181  0.3197
 7445SOL    HW124652   8.381   4.113   1.858  0.3703 -0.5280 -0.8603
 7445SOL    HW224653   8.525   4.148   1.889  0.0119 -0.3997  0.7626
 7446SOL     OW24654   5.380   3.070   4.746  0.0056  0.2512 -0.0328
 7446SOL    HW124655   5.363   3.122   4.824 -0.6885  1.2871 -0.8533
 7446SOL    HW224656   5.311   3.004   4.745 -0.5537  0.8379 -0.2809
 7447SOL     OW24657   4.166   8.897   2.154  0.3402 -0.5605  0.1433
 7447SOL    HW124658   4.076   8.916   2.179  1.1607 -0.3991  3.4111
 7447SOL    HW224659   4.186   8.813   2.196  1.6896 -0.6748 -0.6440
 7448SOL     OW24660   6.884   8.182   3.489 -0.0768 -0.2041 -0.2489
 7448SOL    HW124661   6.946   8.255   3.496  0.7683 -0.9749  0.5126
 7448SOL    HW224662   6.858   8.182   3.397  1.2268 -0.0006 -0.6322
 7449SOL     OW24663   2.339   1.412   3.837  0.2100  0.4861  0.4853
 7449SOL    HW124664   2.355   1.351   3.765  0.5508 -1.2452  1.9638
 7449SOL    HW224665   2.275   1.367   3.892 -1.3216  2.5022  0.4478
 7450SOL     OW24666   8.683   2.967   5.736  0.0379 -0.3531  0.5804
 7450SOL    HW124667   8.720   3.052   5.714  1.2359 -1.2988 -1.2882
 7450SOL    HW224668   8.735   2.904   5.685 -0.6557 -2.2300  2.0854
 7451SOL     OW24669   5.665   0.195   8.307  0.4572  0.6490  0.2473
 7451SOL    HW124670   5.711   0.195   8.223  1.6148  1.1337  0.8544
 7451SOL    HW224671   5.680   0.107   8.342 -1.0301  0.0390 -0.5481
 7452SOL     OW24672   9.881   2.174   6.506  0.6067  0.3348  0.2170
 7452SOL    HW124673   9.912   2.084   6.510 -2.2341 -0.7129  0.7870
 7452SOL    HW224674   9.821   2.175   6.431 -1.9418  0.7752  2.1156
 7453SOL     OW24675   3.140   7.265   9.988  0.3771 -0.3127 -0.3293
 7453SOL    HW124676   3.061   7.281   9.937  0.7751 -0.6306 -1.0696
 7453SOL    HW224677   3.176   7.352  10.005 -1.5946  0.0783  2.4833
 7454SOL     OW24678   3.224   2.758   2.747  0.2330 -0.5149 -0.3219
 7454SOL    HW124679   3.237   2.802   2.663 -0.8057 -0.6628 -0.5801
 7454SOL    HW224680   3.185   2.674   2.724  1.5494 -1.2953  0.2151
 7455SOL     OW24681   7.870   1.424   1.699 -0.2897  0.4826 -0.2200
 7455SOL    HW124682   7.798   1.473   1.740 -0.7814 -0.6032  0.2534
 7455SOL    HW224683   7.828   1.371   1.632  0.4541  1.8903 -1.8846
 7456SOL     OW24684   8.146   4.197   6.784 -0.6928  0.2959 -0.4595
 7456SOL    HW124685   8.138   4.109   6.746 -2.1029 -0.2984  1.0498
 7456SOL    HW224686   8.113   4.186   6.874  2.7488  1.5239  1.1021
 7457SOL     OW24687   8.592   7.169   5.839 -0.2182  0.0531  0.0265
 7457SOL    HW124688   8.626   7.242   5.891 -0.7433  0.0878  0.3237
 7457SOL    HW224689   8.596   7.200   5.749 -0.5477  0.4980  0.1594
 7458SOL     OW24690   5.261   0.447   6.006  0.1077 -0.0064  0.5876
 7458SOL    HW124691   5.174   0.414   6.031  0.2514 -0.7666  0.1046
 7458SOL    HW224692   5.244   0.533   5.968 -0.3913  0.0263  0.8756
 7459SOL     OW24693   7.451   1.138   1.207 -0.5139  0.0929 -0.1337
 7459SOL    HW124694   7.427   1.046   1.211  0.3711 -0.1388  0.0798
 7459SOL    HW224695   7.381   1.179   1.157 -0.6992 -0.7657 -0.5969
 7460SOL     OW24696   2.299   0.674   2.706 -0.5805  0.2733  0.0539
 7460SOL    HW124697   2.368   0.712   2.761 -0.9719  0.1776  0.6165
 7460SOL    HW224698   2.220   0.722   2.730 -0.6730  0.5341 -0.7522
 7461SOL     OW24699   3.600   1.343   4.657 -0.2321 -0.0140 -0.1940
 7461SOL    HW124700   3.691   1.320   4.637  0.0260  0.2435  0.6504
 7461SOL    HW224701   3.596   1.345   4.753 -0.6203  1.9661 -0.2130
 7462SOL     OW24702   4.184   8.621   2.961  0.1036  0.3055 -0.1409
 7462SOL    HW124703   4.138   8.611   3.044  1.1345  0.3662  0.4465
 7462SOL    HW224704   4.240   8.544   2.955 -0.0420  0.2447 -0.8370
 7463SOL     OW24705   7.523   3.657  10.225 -0.1534  0.3033  0.3799
 7463SOL    HW124706   7.519   3.565  10.199  1.2247  0.2461  0.2930
 7463SOL    HW224707   7.542   3.704  10.144  0.2214  0.5439  0.6047
 7464SOL     OW24708   7.881   5.615   3.679 -0.5546  0.3935  0.5790
 7464SOL    HW124709   7.943   5.614   3.752  0.7385  0.4751 -0.4822
 7464SOL    HW224710   7.927   5.571   3.607 -1.7448  0.4144 -0.2307
 7465SOL     OW24711   8.659   3.421   8.121  0.0389 -0.1003 -0.1127
 7465SOL    HW124712   8.600   3.407   8.047 -3.0239  3.0076  1.4606
 7465SOL    HW224713   8.640   3.349   8.181 -0.6076 -0.3029 -0.5482
 7466SOL     OW24714   7.860   4.289   2.934  0.6677 -0.1646 -0.6311
 7466SOL    HW124715   7.784   4.313   2.987  0.1691 -2.5885 -0.1407
 7466SOL    HW224716   7.862   4.354   2.864 -0.9393  0.8548  0.2185
 7467SOL     OW24717   7.425   0.033   7.021 -0.0782  0.2193 -0.1817
 7467SOL    HW124718   7.381  -0.033   6.968 -1.3074  2.4068 -2.0848
 7467SOL    HW224719   7.501   0.059   6.969 -0.5242  1.4189 -0.2672
 7468SOL     OW24720   7.609   3.450   5.878  0.0636  0.0609 -0.4230
 7468SOL    HW124721   7.633   3.372   5.929 -0.3665 -1.3578 -2.2823
 7468SOL    HW224722   7.691   3.478   5.837 -0.4450 -2.0629 -3.1538
 7469SOL     OW24723   0.130   8.724   7.325 -0.4769  0.0378 -0.3858
 7469SOL    HW124724   0.185   8.802   7.313  0.3024 -0.4045  0.2061
 7469SOL    HW224725   0.170   8.657   7.269  0.6219 -0.7773  1.2912
 7470SOL     OW24726   8.388   7.128   2.702  0.2017  0.8354  0.1923
 7470SOL    HW124727   8.406   7.117   2.608 -0.8614 -1.5970  0.2089
 7470SOL    HW224728   8.407   7.220   2.719  1.5605  1.0705 -2.1462
 7471SOL     OW24729   3.285   7.315   9.083  0.6179 -0.7256  0.0156
 7471SOL    HW124730   3.365   7.282   9.043  1.1149 -0.4917  0.7837
 7471SOL    HW224731   3.240   7.363   9.013  1.9183  0.4694 -0.0346
 7472SOL     OW24732   6.190   0.994   1.837  0.6540 -0.0426  0.1662
 7472SOL    HW124733   6.132   0.991   1.913 -2.1860  1.0135 -1.7961
 7472SOL    HW224734   6.148   0.937   1.772  1.2858  1.4415 -1.6516
 7473SOL     OW24735   1.714   4.808   2.746  0.1991  0.4392  0.5040
 7473SOL    HW124736   1.657   4.731   2.749 -1.1639  1.3231 -0.8073
 7473SOL    HW224737   1.679   4.867   2.813 -1.3737  1.5181 -1.1462
 7474SOL     OW24738   4.312   0.209   5.742 -0.0645  0.7558  0.2703
 7474SOL    HW124739   4.228   0.254   5.731 -1.6776 -1.9803  0.3318
 7474SOL    HW224740   4.304   0.130   5.689  1.6390 -0.6398  1.9205
 7475SOL     OW24741   5.016   8.602   7.661 -0.2676 -0.2669  0.0251
 7475SOL    HW124742   4.960   8.525   7.660 -0.8122  0.1047  0.9391
 7475SOL    HW224743   4.978   8.660   7.596  0.0114 -0.6663 -0.5026
 7476SOL     OW24744   4.692   6.152   3.742  0.3334  0.0862 -0.4370
 7476SOL    HW124745   4.659   6.233   3.705 -0.1299  0.3839  0.6059
 7476SOL    HW224746   4.748   6.179   3.815  0.0594 -0.5305  0.0094
 7477SOL     OW24747  10.017   3.856   7.584  0.3930 -0.1159 -0.4109
 7477SOL    HW124748  10.081   3.861   7.655 -1.6541  0.8878  1.4848
 7477SOL    HW224749  10.046   3.783   7.530  2.3361 -0.5787  1.1523
 7478SOL     OW24750   3.194   2.590   9.580  0.5295  0.1516 -0.4188
 7478SOL    HW124751   3.181   2.669   9.632  2.9302  1.3375 -1.4701
 7478SOL    HW224752   3.253   2.617   9.510  1.3539 -2.5493 -0.8769
 7479SOL     OW24753   5.543   0.981   5.449  0.2416  0.2582 -0.3201
 7479SOL    HW124754   5.578   1.005   5.535  1.3062  1.7347 -1.1084
 7479SOL    HW224755   5.602   0.912   5.418 -0.0252 -0.1374  0.0435
 7480SOL     OW24756   1.786   0.411   1.122  0.0123 -1.0236 -0.2717
 7480SOL    HW124757   1.881   0.405   1.111 -0.0222  0.1850 -1.4106
 7480SOL    HW224758   1.773   0.407   1.217  1.3774  0.8230  0.0478
 7481SOL     OW24759   8.283   6.892   5.620  0.1302  0.0145 -0.5609
 7481SOL    HW124760   8.304   6.956   5.552  0.0403 -0.4256 -1.0120
 7481SOL    HW224761   8.275   6.943   5.700  1.5940  0.3748 -0.6254
 7482SOL     OW24762   7.044   5.515   4.885  0.0210 -0.2224  0.4465
 7482SOL    HW124763   7.017   5.515   4.793 -0.9825  0.4735  0.7311
 7482SOL    HW224764   6.986   5.451   4.927 -0.2965  0.2972  0.8086
 7483SOL     OW24765  10.238   4.576   5.351  0.0899 -0.3215 -0.5464
 7483SOL    HW124766  10.248   4.604   5.442 -0.5664 -1.5118 -0.0899
 7483SOL    HW224767  10.182   4.499   5.356  0.1918 -0.5018 -1.9509
 7484SOL     OW24768   1.021   0.597   9.956 -0.3688 -0.1867 -0.1248
 7484SOL    HW124769   0.928   0.608   9.974 -0.6836 -1.2777 -0.9629
 7484SOL    HW224770   1.037   0.648   9.877  0.3111  1.9718  1.3128
 7485SOL     OW24771   3.069   8.445   0.963 -0.4574 -0.2541 -0.1830
 7485SOL    HW124772   3.098   8.433   1.053  0.2181  1.5242 -0.1276
 7485SOL    HW224773   3.147   8.429   0.910 -0.6235 -0.3748 -0.3938
 7486SOL     OW24774   2.785   0.409   0.485 -0.6169 -0.1926 -0.0765
 7486SOL    HW124775   2.736   0.366   0.555 -2.3191  0.9901 -0.4963
 7486SOL    HW224776   2.751   0.370   0.405 -1.9686  1.6155 -0.4501
 7487SOL     OW24777   9.682   4.427   5.605 -0.1567 -0.0413 -0.3701
 7487SOL    HW124778   9.701   4.410   5.512  0.4084  1.1686 -0.4996
 7487SOL    HW224779   9.768   4.424   5.647 -0.3864 -0.3484  0.0841
 7488SOL     OW24780   9.548   4.015   4.544  0.0174 -0.5962  0.1039
 7488SOL    HW124781   9.512   4.031   4.632 -0.1922 -0.9751  0.0878
 7488SOL    HW224782   9.628   3.965   4.560  1.0838  1.0418  0.2048
 7489SOL     OW24783   8.876   7.283   3.292  0.7271 -0.1430  0.1865
 7489SOL    HW124784   8.845   7.260   3.204  1.2078  1.3195 -0.3888
 7489SOL    HW224785   8.845   7.372   3.306  1.1293 -0.1641  1.2948
 7490SOL     OW24786   5.404   2.290   8.330  0.3207 -0.3695  0.3830
 7490SOL    HW124787   5.363   2.204   8.335 -0.9931  0.2340  0.5524
 7490SOL    HW224788   5.330   2.352   8.336  1.1754  0.7570 -0.2785
 7491SOL     OW24789   7.119   3.388   0.439 -0.5155  0.2503  0.2760
 7491SOL    HW124790   7.049   3.328   0.414 -0.9702  0.5842  0.7300
 7491SOL    HW224791   7.200   3.340   0.422 -0.8513 -0.0926 -0.3706
 7492SOL     OW24792   7.965   2.179   6.013 -0.4157  0.0365 -0.6010
 7492SOL    HW124793   7.912   2.250   6.051  1.6667  1.1519  0.3494
 7492SOL    HW224794   7.925   2.165   5.927 -1.8754  1.2404 -0.1823
 7493SOL     OW24795   2.563   9.481   4.224 -0.2263 -0.1162 -0.0285
 7493SOL    HW124796   2.571   9.543   4.151  1.4776  1.0871  1.1120
 7493SOL    HW224797   2.570   9.395   4.184  1.5474  0.5340 -1.2051
 7494SOL     OW24798   2.804   8.207   3.925  0.3102 -0.3598 -0.0022
 7494SOL    HW124799   2.743   8.159   3.869  0.5910 -1.5978  0.7121
 7494SOL    HW224800   2.768   8.198   4.013  1.2948 -0.7582  0.3726
 7495SOL     OW24801   5.236   4.548   6.678  0.0756  0.7056 -0.0995
 7495SOL    HW124802   5.206   4.466   6.637  1.8306  0.2218 -0.5197
 7495SOL    HW224803   5.250   4.607   6.604  1.0100  0.6012 -0.0204
 7496SOL     OW24804   0.731   5.321   6.294  0.5421  0.7221 -0.0967
 7496SOL    HW124805   0.760   5.240   6.252 -0.7535  0.3074 -0.2469
 7496SOL    HW224806   0.698   5.293   6.380  0.0843  1.0768 -0.1489
 7497SOL     OW24807   8.114   8.859   8.088  0.2944  0.4169  0.2225
 7497SOL    HW124808   8.152   8.946   8.080 -1.3718  1.1930  0.3125
 7497SOL    HW224809   8.086   8.836   7.999 -0.8714  0.7692  0.4776
 7498SOL     OW24810   1.685   7.362   8.797 -0.2805 -0.4467 -0.8482
 7498SOL    HW124811   1.670   7.268   8.811  0.1838 -0.4424 -0.2961
 7498SOL    HW224812   1.747   7.386   8.865 -0.4660  0.2859 -0.9386
 7499SOL     OW24813  10.137   2.508   9.604 -0.1305 -0.9642 -0.1419
 7499SOL    HW124814  10.193   2.530   9.530  0.9660 -0.2199  0.8667
 7499SOL    HW224815  10.051   2.493   9.566  0.7549 -2.3069 -1.7701
 7500SOL     OW24816   7.023   7.538   2.455  0.0586 -0.4514 -0.6097
 7500SOL    HW124817   6.998   7.583   2.536  0.3933  1.8411 -1.6741
 7500SOL    HW224818   7.112   7.507   2.471  0.3469  0.5099 -0.2582
 7501SOL     OW24819   2.304   0.086   6.417  0.4230 -0.3166 -0.1038
 7501SOL    HW124820   2.388   0.111   6.379  0.0818 -0.2463 -0.8180
 7501SOL    HW224821   2.270   0.166   6.456 -0.4212  0.2456 -1.9184
 7502SOL     OW24822   9.571  10.445   3.570  0.0342 -0.3424  0.5653
 7502SOL    HW124823   9.557  10.374   3.507  0.2047  1.6752 -1.9443
 7502SOL    HW224824   9.484  10.461   3.607  0.1021 -2.1780  1.6351
 7503SOL     OW24825   5.219   1.133   0.987 -0.2928  0.0666  0.2650
 7503SOL    HW124826   5.241   1.220   1.021  3.4306 -1.1479  1.4615
 7503SOL    HW224827   5.297   1.105   0.940 -0.7077 -3.2217  1.2688
 7504SOL     OW24828   0.354   7.954   8.396 -0.6030  0.1591  0.3612
 7504SOL    HW124829   0.409   7.901   8.453  0.1847  1.8515  1.2468
 7504SOL    HW224830   0.295   8.001   8.455 -0.5757  1.0423 -0.2878
 7505SOL     OW24831   4.181   1.005   5.875 -0.7840 -0.0739 -0.5204
 7505SOL    HW124832   4.130   1.084   5.856  1.0471  1.0232 -1.2046
 7505SOL    HW224833   4.254   1.010   5.814  0.3619 -1.3391  0.6992
 7506SOL     OW24834   3.769   3.118   8.025  0.1624 -0.1543 -0.1312
 7506SOL    HW124835   3.805   3.201   7.994 -0.7464  0.3820  0.2078
 7506SOL    HW224836   3.823   3.051   7.984  1.0981  0.6108 -0.1747
 7507SOL     OW24837   3.282   6.819   5.654 -0.3843 -0.3321  0.0065
 7507SOL    HW124838   3.205   6.762   5.644 -0.3483 -0.3561 -0.1455
 7507SOL    HW224839   3.258   6.900   5.608 -0.4961 -0.1644  0.3606
 7508SOL     OW24840   1.049   6.640   2.178 -0.1666 -0.2642 -0.0601
 7508SOL    HW124841   1.064   6.735   2.182 -2.1822  0.0539  2.8953
 7508SOL    HW224842   0.963   6.631   2.137  0.8209 -1.0308 -2.1188
 7509SOL     OW24843   0.182   8.056   3.646  0.2230 -0.2497  0.4554
 7509SOL    HW124844   0.255   8.049   3.585 -1.2288  1.7637 -1.6610
 7509SOL    HW224845   0.179   8.148   3.670 -1.4777 -0.3232  0.6704
 7510SOL     OW24846   5.886   6.717   8.276 -0.3606 -0.2647 -0.1630
 7510SOL    HW124847   5.919   6.630   8.298 -0.3498 -0.2160  0.0209
 7510SOL    HW224848   5.914   6.732   8.186  1.6001  0.4566  0.5057
 7511SOL     OW24849   0.988   7.728   0.141  0.7120 -0.2029  0.6843
 7511SOL    HW124850   0.928   7.704   0.071 -1.3129 -0.5434  2.4086
 7511SOL    HW224851   1.074   7.731   0.100 -0.6777  2.7564 -2.5339
 7512SOL     OW24852   4.058   9.726   4.307  0.2886 -0.0430  0.0202
 7512SOL    HW124853   4.121   9.798   4.314  1.2175 -0.8228 -0.1236
 7512SOL    HW224854   4.046   9.714   4.213  0.3611 -0.2713  0.0398
 7513SOL     OW24855   7.260   3.979   3.458 -0.4479  0.4614  0.1202
 7513SOL    HW124856   7.308   4.057   3.429  0.2803 -0.2943 -0.7696
 7513SOL    HW224857   7.329   3.915   3.475 -1.1356 -0.7386 -1.4337
 7514SOL     OW24858   1.630   7.888   6.399  0.4427  0.0437 -0.4407
 7514SOL    HW124859   1.537   7.883   6.421 -0.2251 -0.2723 -2.9677
 7514SOL    HW224860   1.660   7.971   6.438 -1.3393  0.9721 -0.9291
 7515SOL     OW24861   1.884   4.214   6.899  0.1443  0.1133  0.7975
 7515SOL    HW124862   1.867   4.252   6.813 -1.1093  1.3536  1.5477
 7515SOL    HW224863   1.821   4.142   6.907 -0.9465  1.0917  1.3232
 7516SOL     OW24864   0.316   7.817   9.903  0.1231  0.0950 -0.2899
 7516SOL    HW124865   0.410   7.818   9.919  0.1358  0.5619 -0.3808
 7516SOL    HW224866   0.278   7.870   9.973 -0.2474 -1.4599  0.7400
 7517SOL     OW24867   9.157   2.832   5.501  0.0150 -0.0154  0.3033
 7517SOL    HW124868   9.185   2.920   5.477  0.5809 -0.4657 -0.7433
 7517SOL    HW224869   9.236   2.779   5.496 -0.5457 -0.8297 -0.3133
 7518SOL     OW24870   4.570  10.253   2.983  0.6111  0.0442  0.6878
 7518SOL    HW124871   4.597  10.183   2.923  0.9052  1.0521 -0.4029
 7518SOL    HW224872   4.578  10.215   3.070  0.7351 -1.2833  0.1176
 7519SOL     OW24873   6.503   2.559   3.266 -0.3995  0.6203 -0.4789
 7519SOL    HW124874   6.565   2.508   3.319  0.3130  2.0120  0.0745
 7519SOL    HW224875   6.526   2.538   3.176  1.0175  1.2079 -0.2877
 7520SOL     OW24876   1.313   3.318   2.235  0.4506  0.5705 -0.3818
 7520SOL    HW124877   1.318   3.409   2.205 -1.8665  0.3490 -1.6562
 7520SOL    HW224878   1.270   3.272   2.163 -0.4822 -1.0657  1.1521
 7521SOL     OW24879   4.126   4.400   1.809  0.0412 -0.1652  0.3137
 7521SOL    HW124880   4.066   4.325   1.807 -1.9720  1.3215 -2.5532
 7521SOL    HW224881   4.213   4.361   1.816 -0.7947 -2.9419 -2.4312
 7522SOL     OW24882   2.360   5.035   2.510 -0.4665  0.4226 -0.4379
 7522SOL    HW124883   2.420   5.079   2.450 -0.4569  0.9557 -0.0413
 7522SOL    HW224884   2.322   5.106   2.562  0.1747 -0.1044  0.7843
 7523SOL     OW24885   4.462   8.872   0.625 -0.1179 -0.4944  0.6518
 7523SOL    HW124886   4.471   8.961   0.660 -0.3173 -0.1123 -0.2474
 7523SOL    HW224887   4.522   8.870   0.550  0.1758 -1.2473  0.8969
 7524SOL     OW24888   6.786   4.719   3.108  0.4208 -0.0267  0.0346
 7524SOL    HW124889   6.872   4.714   3.150  0.1057 -2.2909  0.5275
 7524SOL    HW224890   6.725   4.736   3.180  0.3490  0.8605 -0.2183
 7525SOL     OW24891   7.964   7.431   0.562  0.2196 -1.0519  1.0858
 7525SOL    HW124892   7.899   7.365   0.539 -0.6039  0.8131 -2.7452
 7525SOL    HW224893   8.029   7.426   0.493  2.0624 -0.1717  2.6605
 7526SOL     OW24894   5.857   2.231   8.586  0.2758 -0.3738  0.4938
 7526SOL    HW124895   5.902   2.306   8.548  1.6481 -0.8843  1.0338
 7526SOL    HW224896   5.774   2.266   8.619  0.0829  0.5208 -0.8649
 7527SOL     OW24897   4.697   6.155   5.935  0.3907  0.2320  0.1100
 7527SOL    HW124898   4.747   6.131   5.857 -0.4605 -0.5898 -0.1939
 7527SOL    HW224899   4.761   6.200   5.991  0.8646  1.4071 -1.3113
 7528SOL     OW24900   5.865   2.861   6.928 -0.1926 -0.2745 -0.3831
 7528SOL    HW124901   5.936   2.837   6.869  0.1415  1.6188 -0.8377
 7528SOL    HW224902   5.902   2.930   6.984 -0.9986 -0.8653  0.9520
 7529SOL     OW24903   8.327   2.865   7.852  0.4261 -0.2053  0.0353
 7529SOL    HW124904   8.313   2.949   7.810  0.4651  1.3934  2.9468
 7529SOL    HW224905   8.419   2.864   7.876  0.5273 -1.2823 -0.3256
 7530SOL     OW24906  10.204   4.484   6.400  0.0879  0.2980 -0.1767
 7530SOL    HW124907  10.241   4.511   6.316  1.5134 -3.0872 -0.7889
 7530SOL    HW224908  10.124   4.437   6.377 -0.6777  1.1920  0.5752
 7531SOL     OW24909   7.286   7.223   3.576  1.2458 -0.4472 -0.0551
 7531SOL    HW124910   7.380   7.202   3.580  1.5902  1.0830  0.6660
 7531SOL    HW224911   7.283   7.301   3.521  0.8276  1.5926  2.6719
 7532SOL     OW24912   9.116   8.633   3.332  0.4146  0.1703 -0.0805
 7532SOL    HW124913   9.100   8.727   3.337 -1.3317 -0.0805 -0.2843
 7532SOL    HW224914   9.202   8.626   3.292  0.4804  1.6870 -0.2799
 7533SOL     OW24915   9.668   5.608   1.239  0.1454  0.0001  0.1401
 7533SOL    HW124916   9.732   5.607   1.311 -1.3996 -0.0399  1.5615
 7533SOL    HW224917   9.633   5.520   1.238 -0.9002  0.4039  0.3319
 7534SOL     OW24918   0.982   8.033   5.316 -0.0123 -0.4460 -0.0610
 7534SOL    HW124919   1.049   8.042   5.249  0.3211 -0.0270  0.3245
 7534SOL    HW224920   0.920   8.104   5.298 -1.7935 -2.3560 -2.0167
 7535SOL     OW24921   2.768   1.892   1.384 -0.1643 -0.2362 -0.3859
 7535SOL    HW124922   2.811   1.977   1.386  0.3823 -0.5251  1.2862
 7535SOL    HW224923   2.835   1.831   1.416 -1.0423 -1.0665 -0.1009
 7536SOL     OW24924   1.399   1.849   7.810  0.9177  0.3356 -0.2196
 7536SOL    HW124925   1.426   1.821   7.723  1.4180 -2.3202  0.7195
 7536SOL    HW224926   1.303   1.842   7.809  0.8657  1.0134 -0.7453
 7537SOL     OW24927   4.531   3.039   1.157 -0.2444 -0.2198 -0.0395
 7537SOL    HW124928   4.519   3.124   1.200 -0.6805 -0.7438  0.9215
 7537SOL    HW224929   4.569   2.983   1.225  2.1405 -0.2297 -1.2834
 7538SOL     OW24930   3.089   6.933   4.876 -0.3760  0.4282 -0.3164
 7538SOL    HW124931   3.036   6.855   4.893 -0.6557  0.5744 -0.5099
 7538SOL    HW224932   3.083   6.984   4.956  2.4948 -1.2595  1.1367
 7539SOL     OW24933   6.738   9.143   4.654  0.4623  0.3151  0.2132
 7539SOL    HW124934   6.757   9.110   4.566 -0.5714  1.2010 -0.3633
 7539SOL    HW224935   6.822   9.141   4.699  0.3049 -5.1585  0.9896
 7540SOL     OW24936   8.916   3.995   2.170 -0.0235 -0.7653  0.5672
 7540SOL    HW124937   8.933   4.064   2.233  1.6007 -1.3584  0.8435
 7540SOL    HW224938   8.930   4.036   2.085  0.1984 -0.5713  0.6975
 7541SOL     OW24939   8.110   8.239   5.929  0.1514 -0.4177  0.4318
 7541SOL    HW124940   8.051   8.303   5.890 -0.6908  0.0890  2.4536
 7541SOL    HW224941   8.064   8.156   5.922  0.4939 -0.5449 -0.5969
 7542SOL     OW24942   3.913   4.316   7.997  0.3435 -0.5062 -0.2744
 7542SOL    HW124943   3.839   4.340   8.054 -0.3177  0.4714 -1.4827
 7542SOL    HW224944   3.885   4.235   7.955 -0.2924  0.1252 -1.1082
 7543SOL     OW24945   0.383   9.123   5.815 -0.6857  0.2297 -0.2311
 7543SOL    HW124946   0.406   9.058   5.882  1.8649  1.4257  0.1772
 7543SOL    HW224947   0.323   9.183   5.859 -1.1888 -0.5220  0.1182
 7544SOL     OW24948   8.392   4.761   7.805 -0.2445  0.3322  0.2353
 7544SOL    HW124949   8.383   4.746   7.712  0.9451 -0.8263  0.2872
 7544SOL    HW224950   8.339   4.839   7.822 -1.4489 -0.1447 -1.1727
 7545SOL     OW24951  10.070  10.205   2.200 -0.0497  0.7430 -0.0659
 7545SOL    HW124952  10.019  10.124   2.204 -2.1691  2.0125 -0.4782
 7545SOL    HW224953  10.035  10.259   2.271 -0.1824  2.1496 -1.1735
 7546SOL     OW24954   7.873   7.926   1.929  0.6119  0.0407  0.2200
 7546SOL    HW124955   7.806   7.939   1.862  0.4892 -2.0627 -0.1295
 7546SOL    HW224956   7.942   7.877   1.885  1.2828  0.0803  1.1969
 7547SOL     OW24957   5.437   1.321   1.372 -0.0655  0.1681 -0.2224
 7547SOL    HW124958   5.348   1.306   1.405  0.6218  0.4518  1.8941
 7547SOL    HW224959   5.467   1.398   1.418  1.5325 -0.3111 -0.4129
 7548SOL     OW24960   8.670   3.035   3.863 -0.1541 -0.0541  0.1882
 7548SOL    HW124961   8.636   3.066   3.948 -0.1428  0.6949 -0.0709
 7548SOL    HW224962   8.678   3.114   3.811 -1.8786 -0.7099 -1.1461
 7549SOL     OW24963   7.070   3.773   4.099 -0.1745 -0.5375 -0.6667
 7549SOL    HW124964   7.115   3.688   4.101  0.0303 -0.4329 -0.7532
 7549SOL    HW224965   6.989   3.756   4.052 -0.5800 -0.8971  0.1446
 7550SOL     OW24966   9.696   3.018   5.006  0.1469 -0.1622  0.0980
 7550SOL    HW124967   9.678   2.926   5.027 -2.0513  0.0654 -0.5413
 7550SOL    HW224968   9.735   3.015   4.919  0.7496 -0.5058  0.3682
 7551SOL     OW24969   4.983   8.179   4.157  0.0535  0.1793 -0.1084
 7551SOL    HW124970   4.887   8.175   4.158  0.0712 -0.2091  0.4364
 7551SOL    HW224971   5.007   8.118   4.086 -0.0834 -0.3211  0.2660
 7552SOL     OW24972   6.353   9.447   7.826  0.0065 -0.6015  0.3248
 7552SOL    HW124973   6.261   9.422   7.826 -0.3914  0.7292 -0.7963
 7552SOL    HW224974   6.377   9.452   7.734  0.5197  1.3317  0.5089
 7553SOL     OW24975   3.590   9.439   9.332  0.5086  0.0424 -0.7084
 7553SOL    HW124976   3.648   9.469   9.261  0.3843  0.5832 -0.5871
 7553SOL    HW224977   3.645   9.440   9.410  0.3941  0.3595 -0.6299
 7554SOL     OW24978   6.444   0.513   7.278  0.8195 -0.5515 -0.0040
 7554SOL    HW124979   6.453   0.575   7.351 -0.0858 -1.3022  0.7666
 7554SOL    HW224980   6.454   0.427   7.319  0.4988 -0.9744 -0.8063
 7555SOL     OW24981   5.612   2.060   7.865  0.2309 -0.0221  0.2241
 7555SOL    HW124982   5.642   1.970   7.863 -0.7926 -0.3574 -0.4386
 7555SOL    HW224983   5.518   2.055   7.850  0.1136  1.1373  0.4445
 7556SOL     OW24984   4.649   5.403   0.982 -0.5030 -0.2093 -0.0823
 7556SOL    HW124985   4.651   5.308   0.992  0.0958 -0.1721  0.2216
 7556SOL    HW224986   4.682   5.436   1.066  0.9071  0.2173 -0.7651
 7557SOL     OW24987   3.408  10.344   1.778 -0.0839  0.2295  0.0002
 7557SOL    HW124988   3.474  10.280   1.803  1.5178  1.2524 -1.3416
 7557SOL    HW224989   3.332  10.292   1.752  0.6885 -1.0633  0.2424
 7558SOL     OW24990   4.040   3.242   9.645  0.3807  0.5119 -0.8029
 7558SOL    HW124991   3.971   3.296   9.604 -0.7589 -0.3567 -0.0802
 7558SOL    HW224992   4.003   3.215   9.729  0.9392 -1.3094 -1.0907
 7559SOL     OW24993   4.379   2.411   9.747 -0.4903 -0.1204  0.1521
 7559SOL    HW124994   4.383   2.356   9.669  0.9961  0.1490  0.0050
 7559SOL    HW224995   4.286   2.432   9.758 -0.6790  0.1928 -1.8005
 7560SOL     OW24996  10.107   0.273   2.934  0.4755 -0.6324 -0.1673
 7560SOL    HW124997  10.144   0.289   2.847 -1.6705  0.3544 -0.9792
 7560SOL    HW224998  10.104   0.178   2.943  1.3662 -0.7357 -0.8665
 7561SOL     OW24999   4.028   7.223   2.175 -0.6978  0.0192  0.2471
 7561SOL    HW125000   3.956   7.168   2.145 -1.0664 -0.0207  1.1642
 7561SOL    HW225001   4.092   7.221   2.104  0.2073 -3.2303  1.0111
 7562SOL     OW25002   3.378   7.983   0.667 -0.1538 -0.0147  0.0397
 7562SOL    HW125003   3.349   7.893   0.655  0.6150 -0.2800  0.0663
 7562SOL    HW225004   3.313   8.023   0.724 -1.4597 -0.0312 -1.3916
 7563SOL     OW25005   5.158   3.819   0.218  0.3464 -0.1091 -0.0216
 7563SOL    HW125006   5.197   3.735   0.193  1.8055 -0.2668  2.5141
 7563SOL    HW225007   5.190   3.835   0.306  0.0568  3.1267 -0.4001
 7564SOL     OW25008   8.804   2.115   6.349 -0.3769 -0.2140  0.4518
 7564SOL    HW125009   8.852   2.050   6.400  1.5255 -0.2508 -1.2480
 7564SOL    HW225010   8.742   2.064   6.298 -1.5189 -0.2811  1.8621
 7565SOL     OW25011  10.400   8.526   3.554 -0.2054  0.2351 -0.8656
 7565SOL    HW125012  10.332   8.593   3.549 -1.6270 -1.0714 -0.0088
 7565SOL    HW225013  10.474   8.570   3.595 -1.5489  0.9879  0.8944
 7566SOL     OW25014   4.536  10.442   0.248 -0.0217  0.1224 -0.9623
 7566SOL    HW125015   4.470  10.377   0.270  0.9768 -0.6977 -0.3453
 7566SOL    HW225016   4.615  10.392   0.230  1.3034  1.2233  1.4173
 7567SOL     OW25017   9.703   0.059   3.734 -0.0610  0.1313 -0.7106
 7567SOL    HW125018   9.751   0.012   3.666  0.4632 -0.1804 -0.1391
 7567SOL    HW225019   9.756   0.138   3.750 -0.3414  0.3526 -0.8754
 7568SOL     OW25020   5.937   3.771   2.965  0.2505  0.4145 -0.1473
 7568SOL    HW125021   5.986   3.691   2.983 -0.5969  0.0660  0.6343
 7568SOL    HW225022   5.915   3.806   3.052 -0.7946  0.6251 -0.4866
 7569SOL     OW25023   8.393   0.136   4.028  0.0723  0.0996 -0.3269
 7569SOL    HW125024   8.480   0.100   4.046  0.2796  1.1440  0.9434
 7569SOL    HW225025   8.409   0.216   3.978 -0.1607  0.2389 -0.1828
 7570SOL     OW25026   4.975   2.139   6.565 -0.4092 -0.1993  0.0620
 7570SOL    HW125027   4.978   2.232   6.586 -0.7896  0.5144 -2.6616
 7570SOL    HW225028   5.055   2.123   6.514  0.6866 -1.8962  2.1308
 7571SOL     OW25029  10.006   4.623   1.473 -0.1433  0.2049  0.2776
 7571SOL    HW125030   9.974   4.553   1.416 -0.5390  0.8071 -0.2499
 7571SOL    HW225031   9.928   4.655   1.518 -0.0421  0.6565  0.1320
 7572SOL     OW25032   1.887   8.933   9.032  0.0481  0.9282  0.6358
 7572SOL    HW125033   1.816   8.943   8.968 -2.0978 -0.4073  2.6661
 7572SOL    HW225034   1.877   9.008   9.090  1.4564  1.6762 -0.0381
 7573SOL     OW25035   1.320   7.320   2.845  0.0756 -0.4202  0.3296
 7573SOL    HW125036   1.225   7.317   2.833  0.0022  0.6822  0.5190
 7573SOL    HW225037   1.336   7.406   2.884  1.3420  0.2530 -1.5592
 7574SOL     OW25038   6.013   0.491   0.910  0.3769 -0.1161  0.4850
 7574SOL    HW125039   6.072   0.417   0.895 -0.7723 -0.8092 -0.8156
 7574SOL    HW225040   5.999   0.528   0.823  0.1878  1.0626  0.9977
 7575SOL     OW25041   5.342   8.396   5.534  0.2139 -0.1730 -0.0967
 7575SOL    HW125042   5.426   8.435   5.559 -0.2483  1.1046 -0.4464
 7575SOL    HW225043   5.284   8.413   5.609 -0.2277  0.6242 -0.5976
 7576SOL     OW25044   2.078   5.833   2.768  0.2422  0.5341  0.0287
 7576SOL    HW125045   2.114   5.749   2.739  0.0868 -0.2585  1.9585
 7576SOL    HW225046   2.101   5.895   2.698  2.7908 -0.5269 -0.1773
 7577SOL     OW25047   1.030   1.767   1.259 -0.3746  0.1046  0.1068
 7577SOL    HW125048   1.033   1.681   1.300  0.7427  0.6416  1.2196
 7577SOL    HW225049   0.971   1.756   1.185 -0.4985 -1.5312  0.4092
 7578SOL     OW25050   5.436   2.371   1.282 -0.0932  0.2599 -0.6704
 7578SOL    HW125051   5.506   2.436   1.276  0.3438 -0.1936 -0.5297
 7578SOL    HW225052   5.479   2.287   1.266 -0.9475  0.1385 -2.6864
 7579SOL     OW25053   5.936   2.461   6.981 -0.5017 -0.1052  0.4639
 7579SOL    HW125054   5.953   2.400   7.053 -0.1855 -1.0219 -0.3695
 7579SOL    HW225055   5.969   2.545   7.013  0.2862 -0.6479  1.1214
 7580SOL     OW25056   2.040   1.812   4.799  0.8158 -0.5398  0.2711
 7580SOL    HW125057   2.127   1.782   4.773  1.2883  0.1887  0.9853
 7580SOL    HW225058   2.043   1.814   4.894  0.0935 -0.2878  0.2932
 7581SOL     OW25059   3.002   7.628   6.153 -0.3563 -0.4411  0.2734
 7581SOL    HW125060   2.966   7.600   6.069 -0.7292 -0.6431  0.5025
 7581SOL    HW225061   2.951   7.582   6.219  0.6423 -1.1206  0.5998
 7582SOL     OW25062   1.229   7.362   1.575 -0.3189  0.3766 -0.2952
 7582SOL    HW125063   1.175   7.292   1.539 -0.2582  0.3345 -0.3057
 7582SOL    HW225064   1.231   7.345   1.669  1.8746 -1.2262 -0.5294
 7583SOL     OW25065   5.007   8.643   4.873 -0.4498  0.0240  0.1477
 7583SOL    HW125066   5.050   8.598   4.946  0.6833  0.8042  0.0020
 7583SOL    HW225067   5.029   8.736   4.887 -0.5589  0.2298 -0.9467
 7584SOL     OW25068   3.408   2.090   3.612  0.4568  0.0873 -0.5492
 7584SOL    HW125069   3.453   2.079   3.696 -0.4920  2.4443  0.3564
 7584SOL    HW225070   3.465   2.148   3.562 -0.1018  0.6208 -0.5815
 7585SOL     OW25071   5.290   9.334   4.947 -0.1129 -0.5084  0.9751
 7585SOL    HW125072   5.351   9.369   5.012  0.2091 -2.0778  1.5569
 7585SOL    HW225073   5.329   9.357   4.863  0.7348 -0.5780  1.3399
 7586SOL     OW25074  10.036   1.936  10.523  0.0250 -0.1132 -0.3014
 7586SOL    HW125075  10.033   1.854  10.572  0.4286 -0.5927 -1.0578
 7586SOL    HW225076   9.968   1.990  10.562 -0.8994 -1.1631 -0.4071
 7587SOL     OW25077   4.887   6.787   4.621 -0.0669  0.1325 -0.1035
 7587SOL    HW125078   4.891   6.692   4.619  0.7669  0.1568  0.0644
 7587SOL    HW225079   4.803   6.808   4.579  0.5434 -0.6147 -1.8024
 7588SOL     OW25080   6.762   0.406   8.278  0.3779 -0.5969 -0.0057
 7588SOL    HW125081   6.785   0.443   8.363 -0.3489  0.4600 -0.2442
 7588SOL    HW225082   6.786   0.474   8.215 -1.2577 -0.3912 -0.4401
 7589SOL     OW25083   1.865   7.990   1.883  0.3850 -0.5806 -0.0400
 7589SOL    HW125084   1.921   7.915   1.906 -1.2997 -1.6575  0.7352
 7589SOL    HW225085   1.927   8.061   1.864  2.0302 -2.0047 -0.2764
 7590SOL     OW25086   0.397   4.437   9.338 -0.5502  0.9257  0.1270
 7590SOL    HW125087   0.428   4.527   9.348 -1.3236  1.1899  0.2625
 7590SOL    HW225088   0.441   4.388   9.407 -1.8551  1.6743  1.5738
 7591SOL     OW25089   3.715   9.336   4.842 -0.4064  0.3859 -0.1475
 7591SOL    HW125090   3.729   9.242   4.855  1.7675  0.7432  0.5665
 7591SOL    HW225091   3.635   9.341   4.789 -0.8845 -1.8214  0.2377
 7592SOL     OW25092   6.119   0.388   2.992 -0.1643  0.3066  0.0435
 7592SOL    HW125093   6.176   0.415   2.920  1.3350 -1.2398  0.5655
 7592SOL    HW225094   6.159   0.427   3.070 -1.3466  1.3504  0.1510
 7593SOL     OW25095   5.652   3.207   0.140  0.1533 -0.0186  0.2444
 7593SOL    HW125096   5.557   3.200   0.151 -0.2201  0.8843 -1.8189
 7593SOL    HW225097   5.689   3.159   0.214 -1.9082 -1.0472  0.6785
 7594SOL     OW25098   1.666  10.526   3.302 -0.3122  0.1543 -0.0703
 7594SOL    HW125099   1.702  10.437   3.312 -1.9618 -0.3517  2.0687
 7594SOL    HW225100   1.742  10.583   3.307  0.4685 -0.9556  2.6775
 7595SOL     OW25101  10.242   3.026   7.919 -0.1326  0.4645 -0.3163
 7595SOL    HW125102  10.233   3.086   7.845  1.0366 -0.5195 -1.3026
 7595SOL    HW225103  10.174   2.960   7.904  0.6602 -0.2164 -1.0257
 7596SOL     OW25104   0.831   1.514   4.839 -0.0349 -0.0753 -0.3798
 7596SOL    HW125105   0.798   1.603   4.828 -0.0536 -0.1051 -0.5817
 7596SOL    HW225106   0.773   1.474   4.903 -0.8104 -0.3333 -1.2169
 7597SOL     OW25107   3.732   8.001   6.107 -0.0511 -0.3467 -0.4320
 7597SOL    HW125108   3.733   7.960   6.020  1.5731  1.4837 -1.3713
 7597SOL    HW225109   3.823   8.030   6.120 -0.6088  0.7985  1.1900
 7598SOL     OW25110   7.344   3.367   0.763  0.7654  0.4532  0.2649
 7598SOL    HW125111   7.395   3.444   0.741  1.5379  0.0847  0.7373
 7598SOL    HW225112   7.253   3.397   0.760  1.0114  1.1499 -0.4381
 7599SOL     OW25113   8.365   2.901   1.361 -0.5100  0.0292 -0.1986
 7599SOL    HW125114   8.455   2.915   1.329 -1.0495 -0.7040 -2.1681
 7599SOL    HW225115   8.313   2.964   1.312 -1.3714 -1.1011 -0.7664
 7600SOL     OW25116   2.954   1.619   6.725 -0.0318 -0.8739  0.6397
 7600SOL    HW125117   2.993   1.706   6.719  0.8948 -1.3021  0.0846
 7600SOL    HW225118   2.925   1.611   6.816 -0.3602  0.1030  0.6263
 7601SOL     OW25119   9.201   5.966   6.049 -0.3810  0.2468  0.7551
 7601SOL    HW125120   9.157   5.914   6.116 -1.0361  0.0032  0.1443
 7601SOL    HW225121   9.236   5.901   5.988 -2.5230  0.5269 -0.8439
 7602SOL     OW25122   0.484   6.821   0.225 -0.3354 -0.6133 -0.2503
 7602SOL    HW125123   0.521   6.903   0.258  1.4039 -0.3050 -2.6949
 7602SOL    HW225124   0.411   6.848   0.170  0.0563 -0.7063 -0.8240
 7603SOL     OW25125   9.903   3.348   5.545 -0.0017  0.2162 -0.2809
 7603SOL    HW125126   9.829   3.292   5.520 -1.6739  2.7355 -1.3169
 7603SOL    HW225127   9.884   3.375   5.635 -0.5892  1.1658 -0.6754
 7604SOL     OW25128   5.657   9.342  10.240  0.0998  0.1887  0.1238
 7604SOL    HW125129   5.565   9.365  10.234  0.2634  0.5285 -1.6329
 7604SOL    HW225130   5.666   9.301  10.326 -1.3321  1.6220  0.9946
 7605SOL     OW25131   7.421   4.786   8.754 -0.2469 -0.1886 -0.3827
 7605SOL    HW125132   7.409   4.855   8.688  1.1091 -1.3408 -1.9397
 7605SOL    HW225133   7.350   4.799   8.816 -3.1474 -0.4561 -3.3565
 7606SOL     OW25134   0.093   3.475   9.908  0.4713 -0.1842 -0.2039
 7606SOL    HW125135   0.037   3.398   9.899 -0.5169  0.5929 -0.9990
 7606SOL    HW225136   0.092   3.495  10.002 -0.0135 -0.6008 -0.1178
 7607SOL     OW25137   4.146   1.098   9.899 -0.8549  0.3110  0.8479
 7607SOL    HW125138   4.199   1.139   9.967 -1.1624  2.3189 -0.0318
 7607SOL    HW225139   4.062   1.144   9.902 -1.2439 -0.2821 -0.1757
 7608SOL     OW25140   9.287   6.135   6.670  0.4761  0.3410  0.0573
 7608SOL    HW125141   9.303   6.077   6.744  0.3185  2.3539  1.7625
 7608SOL    HW225142   9.368   6.185   6.659 -0.0833  1.2819  0.0535
 7609SOL     OW25143   8.379  10.451   1.772 -0.7216 -0.5551 -0.0307
 7609SOL    HW125144   8.431  10.493   1.841 -1.6571  0.2734  0.1975
 7609SOL    HW225145   8.441  10.434   1.702 -0.1712  0.6209  0.1467
 7610SOL     OW25146   3.480   1.852   1.112  0.1616  0.3489 -0.2143
 7610SOL    HW125147   3.421   1.806   1.052  0.7761  1.1955 -1.5191
 7610SOL    HW225148   3.456   1.945   1.103  0.1650  0.4825  0.9829
 7611SOL     OW25149   2.421   4.828   0.303 -0.1192  0.2347 -0.2296
 7611SOL    HW125150   2.340   4.843   0.254  0.0481  0.3706 -0.4715
 7611SOL    HW225151   2.464   4.756   0.256  0.1738  0.5484 -0.4551
 7612SOL     OW25152   1.321   6.995   8.232 -0.5568 -0.3335  0.0804
 7612SOL    HW125153   1.325   6.982   8.137 -0.3860  0.0254  0.0357
 7612SOL    HW225154   1.351   6.912   8.269 -0.6515 -0.4856 -0.1771
 7613SOL     OW25155   6.464   6.866   1.744 -0.3079  0.1807 -0.4769
 7613SOL    HW125156   6.478   6.772   1.736  0.2588  0.2236 -0.0901
 7613SOL    HW225157   6.444   6.880   1.837 -2.6675  0.1793 -0.9204
 7614SOL     OW25158   0.369   6.846   5.060  0.0277 -0.3313 -0.0638
 7614SOL    HW125159   0.410   6.895   4.988 -0.9513  1.6125  0.6057
 7614SOL    HW225160   0.382   6.902   5.137 -1.6429 -0.8630  0.6521
 7615SOL     OW25161   9.271   0.110   3.629 -0.6307 -0.2504 -0.3445
 7615SOL    HW125162   9.312   0.174   3.687 -0.6405 -1.1180  0.6470
 7615SOL    HW225163   9.183   0.146   3.614  0.1425  1.1586 -1.7586
 7616SOL     OW25164   7.377   2.232   6.552  0.2320  0.8042 -0.2212
 7616SOL    HW125165   7.413   2.144   6.547  0.3554  0.9135 -1.7340
 7616SOL    HW225166   7.283   2.221   6.538  0.0790  0.8077  0.7651
 7617SOL     OW25167   8.546   9.920   4.421 -0.8013 -0.2248 -0.1328
 7617SOL    HW125168   8.513   9.983   4.356  0.0657  0.0584 -0.3050
 7617SOL    HW225169   8.469   9.899   4.475 -1.3570  0.1068 -0.7827
 7618SOL     OW25170  10.041   3.508   4.667 -0.6315 -0.3971 -0.3726
 7618SOL    HW125171  10.001   3.455   4.735 -1.9113 -0.1845 -0.9379
 7618SOL    HW225172  10.122   3.462   4.645  1.0518  0.6912  2.8359
 7619SOL     OW25173  10.093   6.711   8.674  0.0797 -0.1547 -0.0946
 7619SOL    HW125174  10.115   6.737   8.764  0.3697  0.0107 -0.2104
 7619SOL    HW225175  10.008   6.751   8.657 -0.2428 -0.6508  0.3003
 7620SOL     OW25176   9.337   3.168   7.654 -0.1708 -0.2879  0.1701
 7620SOL    HW125177   9.374   3.248   7.617  0.3518 -1.0930 -1.1372
 7620SOL    HW225178   9.360   3.171   7.746  2.4548 -0.2896 -0.3986
 7621SOL     OW25179   7.775   4.647   5.200  0.2774  0.0726 -0.4108
 7621SOL    HW125180   7.840   4.713   5.178  0.2008  0.5622  0.7600
 7621SOL    HW225181   7.695   4.676   5.157  0.2826  0.6677 -0.0203
 7622SOL     OW25182   5.347   9.472   6.301 -0.8131  0.1151 -0.0337
 7622SOL    HW125183   5.426   9.430   6.335 -0.5474  0.4735 -0.1983
 7622SOL    HW225184   5.345   9.557   6.345 -0.2874  0.7214 -1.1318
 7623SOL     OW25185   6.125   2.046   2.526 -0.3813 -0.1166  0.1163
 7623SOL    HW125186   6.086   2.106   2.462 -2.2308 -1.0468  0.2922
 7623SOL    HW225187   6.214   2.031   2.494 -1.3086 -0.7938 -2.4737
 7624SOL     OW25188   2.889   2.409   9.753  0.0144  0.4480 -0.2317
 7624SOL    HW125189   2.930   2.386   9.836 -0.6121  0.3790  0.0684
 7624SOL    HW225190   2.873   2.503   9.759  2.5707  1.0309 -1.4555
 7625SOL     OW25191   1.357   0.364   6.075  0.1739 -0.6494  0.0694
 7625SOL    HW125192   1.409   0.398   6.002  0.3800 -2.9136 -0.9225
 7625SOL    HW225193   1.292   0.433   6.092  0.6348  0.2849 -1.7084
 7626SOL     OW25194   8.218   2.126   5.852 -0.0860  0.1385  0.0875
 7626SOL    HW125195   8.267   2.063   5.905 -1.0849 -0.0847  0.7823
 7626SOL    HW225196   8.210   2.203   5.908  0.7057  0.7292 -0.5755
 7627SOL     OW25197   6.319   7.903   7.900 -0.7727  0.0035 -0.2137
 7627SOL    HW125198   6.281   7.873   7.817  0.0287 -0.0873 -0.5491
 7627SOL    HW225199   6.406   7.934   7.877 -1.0167  1.1892  0.3846
 7628SOL     OW25200   0.824   4.072  10.165  0.0001 -0.8221  0.5715
 7628SOL    HW125201   0.873   4.005  10.213  0.4439  0.7766  2.4762
 7628SOL    HW225202   0.890   4.138  10.144 -0.4097 -0.9699 -1.3786
 7629SOL     OW25203   3.739   0.021   9.277  0.3257  0.6311 -0.1660
 7629SOL    HW125204   3.647   0.004   9.296 -0.0728  0.9793 -1.6536
 7629SOL    HW225205   3.771  -0.060   9.238  0.8833  0.2447  1.0328
 7630SOL     OW25206   6.758   4.767   5.843  0.2453  0.3571 -0.1128
 7630SOL    HW125207   6.747   4.754   5.749 -0.8184  2.5032 -0.3449
 7630SOL    HW225208   6.675   4.740   5.882  0.6019 -0.3123  0.2076
 7631SOL     OW25209   9.296   5.636   1.575 -0.0676  0.0595 -0.4903
 7631SOL    HW125210   9.272   5.560   1.628  1.2834  1.2339  1.9758
 7631SOL    HW225211   9.265   5.615   1.487 -0.4942 -2.9432  0.2822
 7632SOL     OW25212   1.664  10.485   1.585  0.8243 -0.5015  0.1850
 7632SOL    HW125213   1.569  10.478   1.576  0.6838 -1.6372  1.9457
 7632SOL    HW225214   1.696  10.489   1.495 -0.7413 -2.6632 -0.5739
 7633SOL     OW25215   5.068   2.302   2.213  0.2673  0.1476  0.1330
 7633SOL    HW125216   5.078   2.311   2.308 -1.2112 -1.3583  0.4791
 7633SOL    HW225217   4.974   2.306   2.199  0.4987  0.9761 -1.3800
 7634SOL     OW25218   4.230   0.791   9.905  0.3184 -0.0660 -0.1469
 7634SOL    HW125219   4.218   0.878   9.943 -1.6697  0.0839 -1.0127
 7634SOL    HW225220   4.324   0.774   9.914  0.7262  2.0811  0.1833
 7635SOL     OW25221   0.728   9.688   8.101 -0.1661  0.4139 -0.2721
 7635SOL    HW125222   0.796   9.755   8.107  1.2900 -0.8532 -1.6244
 7635SOL    HW225223   0.756   9.620   8.162  0.8381 -0.9513 -2.1825
 7636SOL     OW25224   9.123   3.958   2.849  0.4886  0.1164 -0.2500
 7636SOL    HW125225   9.218   3.969   2.846  0.2245  2.4835 -1.9771
 7636SOL    HW225226   9.108   3.873   2.807  1.9751 -2.6996  4.1199
 7637SOL     OW25227   5.066   4.508   9.022 -0.3222  0.5799 -0.3817
 7637SOL    HW125228   5.078   4.602   9.031  0.7232  0.4278 -0.1108
 7637SOL    HW225229   5.062   4.475   9.111 -0.7665  0.3695 -0.4747
 7638SOL     OW25230   2.557   2.828   4.714 -0.2798 -0.1166  0.5022
 7638SOL    HW125231   2.603   2.910   4.735  1.2510  0.2304 -3.4593
 7638SOL    HW225232   2.619   2.760   4.739  0.5922  0.1932 -0.7102
 7639SOL     OW25233   1.430   5.869   3.307 -0.0959  0.3359 -0.2096
 7639SOL    HW125234   1.516   5.895   3.275  0.4941 -0.5722  0.5504
 7639SOL    HW225235   1.370   5.884   3.234  0.6927  1.0648 -0.7142
 7640SOL     OW25236   6.694   3.836   5.245 -0.5981  0.5238 -0.2734
 7640SOL    HW125237   6.712   3.919   5.289  1.3551  0.1940 -0.3687
 7640SOL    HW225238   6.705   3.770   5.313 -0.8401  0.2438 -0.5025
 7641SOL     OW25239   6.600   6.298   6.941 -0.0089 -0.0885 -0.3174
 7641SOL    HW125240   6.564   6.361   7.003  0.3668  0.4405 -0.6300
 7641SOL    HW225241   6.526   6.241   6.919 -0.0921 -0.4181  0.7769
 7642SOL     OW25242   7.789   4.192   1.995  0.2804  0.0857 -0.0988
 7642SOL    HW125243   7.739   4.113   2.017  0.2442  0.4949  1.3851
 7642SOL    HW225244   7.762   4.214   1.906 -0.1418 -1.2437 -0.3174
 7643SOL     OW25245   6.119   9.251   5.875 -0.3522 -0.1950 -0.5438
 7643SOL    HW125246   6.210   9.229   5.853 -0.0650 -0.4701  0.7985
 7643SOL    HW225247   6.072   9.248   5.791  0.6983 -0.9375 -1.1268
 7644SOL     OW25248   0.777   3.464   8.707 -0.7405 -0.1694 -0.2214
 7644SOL    HW125249   0.813   3.448   8.794  1.1942 -0.5112 -1.0425
 7644SOL    HW225250   0.811   3.550   8.682 -1.2257 -0.1001 -0.6721
 7645SOL     OW25251   8.797   4.044   6.310  0.0539  0.3663 -0.0728
 7645SOL    HW125252   8.836   3.964   6.276 -2.1959 -0.9475  0.2858
 7645SOL    HW225253   8.834   4.053   6.398  1.0980  0.3355 -0.4904
 7646SOL     OW25254   9.624   4.929   1.314 -0.1850  0.2204 -0.6800
 7646SOL    HW125255   9.646   4.836   1.306 -0.9634 -0.1690  1.2069
 7646SOL    HW225256   9.702   4.969   1.352  0.5147  0.5656 -2.3835
 7647SOL     OW25257   9.854   3.735   5.425  0.7638  0.2264  0.7255
 7647SOL    HW125258   9.938   3.775   5.401  1.0483 -0.5245  0.4177
 7647SOL    HW225259   9.818   3.703   5.342 -0.7683  2.2389  0.5671
 7648SOL     OW25260   8.997   8.251   9.748 -0.3882  0.3816  0.0557
 7648SOL    HW125261   9.015   8.162   9.778 -0.8299 -0.6387 -2.4451
 7648SOL    HW225262   9.082   8.284   9.717 -0.5688  0.0260 -0.8666
 7649SOL     OW25263   9.989   5.369   8.173  0.0126  0.0238  0.4494
 7649SOL    HW125264  10.057   5.401   8.231 -0.3218 -0.1436  0.9450
 7649SOL    HW225265  10.035   5.344   8.093  0.7017 -1.1171  1.1604
 7650SOL     OW25266   1.879   4.887   9.660 -0.3441 -0.2475  0.4247
 7650SOL    HW125267   1.865   4.894   9.565 -1.4354 -0.6464  0.5343
 7650SOL    HW225268   1.951   4.825   9.670  0.3993  0.5064 -0.1649
 7651SOL     OW25269   5.019   1.650   9.215  0.0275 -0.2015 -0.3450
 7651SOL    HW125270   4.984   1.664   9.127  1.2371  0.5482 -0.7245
 7651SOL    HW225271   4.993   1.727   9.264  1.7105  0.7436 -0.8401
 7652SOL     OW25272   7.333   0.736   2.298 -0.0319  0.2512 -0.3761
 7652SOL    HW125273   7.241   0.723   2.322 -0.5241  1.0336 -1.7590
 7652SOL    HW225274   7.338   0.708   2.207  0.4773  2.6715 -1.1526
 7653SOL     OW25275   5.437   0.098   2.685  0.0240 -0.0136  0.3561
 7653SOL    HW125276   5.419   0.192   2.690 -0.8629 -0.0651 -1.1707
 7653SOL    HW225277   5.461   0.083   2.593  0.9363 -1.1516  0.7582
 7654SOL     OW25278   7.731   1.126   5.013  0.3003 -0.6940  0.4663
 7654SOL    HW125279   7.733   1.217   5.042  0.8261 -1.2362  2.2453
 7654SOL    HW225280   7.687   1.129   4.928  0.4743  1.2288  0.4005
 7655SOL     OW25281   2.525   6.844   9.221  0.4387  0.5574 -0.0721
 7655SOL    HW125282   2.538   6.929   9.180 -0.5183  0.5251 -0.4476
 7655SOL    HW225283   2.566   6.781   9.161  0.5405  0.6787 -0.1292
 7656SOL     OW25284   5.497   0.117   3.411  0.2025  0.2751  0.2133
 7656SOL    HW125285   5.456   0.061   3.345 -1.6096  0.3754  1.1650
 7656SOL    HW225286   5.557   0.060   3.458 -2.0355 -1.1308  1.5484
 7657SOL     OW25287   8.559  10.104   1.272  0.1425 -0.2709  0.1826
 7657SOL    HW125288   8.563  10.035   1.338 -0.0271  1.2370  1.8541
 7657SOL    HW225289   8.480  10.085   1.222 -0.7869 -0.4152  1.6512
 7658SOL     OW25290   8.442   3.952   2.478  0.7107  0.1817  0.4836
 7658SOL    HW125291   8.406   3.872   2.442  1.2404  0.3790 -0.5040
 7658SOL    HW225292   8.366   3.998   2.514  0.3870 -0.6866  0.9525
 7659SOL     OW25293   7.271   8.717   2.559 -0.3199  0.2723  0.6342
 7659SOL    HW125294   7.255   8.730   2.466 -0.5097 -0.7064  0.5127
 7659SOL    HW225295   7.343   8.777   2.580  1.3690 -1.1516 -0.7103
 7660SOL     OW25296   8.471   8.596   4.957 -0.2687 -0.3305  0.4141
 7660SOL    HW125297   8.445   8.504   4.956 -0.6576 -0.2697 -2.4888
 7660SOL    HW225298   8.404   8.640   4.905  0.7670  1.3354  0.4381
 7661SOL     OW25299   2.334   2.116   2.686 -0.3469 -0.0813 -0.0413
 7661SOL    HW125300   2.285   2.035   2.672 -0.3789  0.0771 -0.9296
 7661SOL    HW225301   2.269   2.177   2.721 -0.9927  0.3313 -1.8499
 7662SOL     OW25302   6.433   0.055   8.196  0.6764 -0.2749  0.2517
 7662SOL    HW125303   6.467   0.141   8.221  0.6213  0.1445 -1.0104
 7662SOL    HW225304   6.436   0.055   8.100  1.6611 -2.0897  0.2327
 7663SOL     OW25305   4.595   5.568   2.957 -0.4070 -0.0723 -0.0122
 7663SOL    HW125306   4.635   5.517   3.027 -2.3779  0.4492  1.5763
 7663SOL    HW225307   4.662   5.632   2.933  0.9971 -1.4796  0.0313
 7664SOL     OW25308   3.628   5.499   6.418  0.3874 -0.1572 -0.0789
 7664SOL    HW125309   3.701   5.475   6.360 -0.2112 -0.8364 -0.5566
 7664SOL    HW225310   3.551   5.460   6.378 -0.2094  0.3236  0.5766
 7665SOL     OW25311   7.450   2.388   3.570  0.9862 -0.0104 -0.2096
 7665SOL    HW125312   7.513   2.455   3.545 -0.7267  1.7630  0.0555
 7665SOL    HW225313   7.421   2.413   3.657  1.3387 -1.9373  0.5232
 7666SOL     OW25314   4.973   9.783  10.554 -0.6729 -0.0112  0.7271
 7666SOL    HW125315   4.961   9.793  10.459 -0.4442 -0.1806  0.6785
 7666SOL    HW225316   5.063   9.811  10.570 -0.3560 -0.9837  0.7361
 7667SOL     OW25317   7.332  10.125  10.496  0.0118 -0.0771  1.0517
 7667SOL    HW125318   7.317  10.065  10.422  1.6905  0.1166  0.5076
 7667SOL    HW225319   7.264  10.103  10.559  0.1455 -2.0894  0.5717
 7668SOL     OW25320   8.407   0.211   0.559  0.1303 -0.2827  0.1464
 7668SOL    HW125321   8.501   0.197   0.551  0.5307  2.7046 -1.8015
 7668SOL    HW225322   8.398   0.299   0.596 -1.7915  0.4205 -1.7444
 7669SOL     OW25323   0.813   1.801   5.412 -0.0708 -0.0669 -0.3519
 7669SOL    HW125324   0.851   1.796   5.500 -0.1567 -0.1199 -0.3172
 7669SOL    HW225325   0.743   1.735   5.413  0.9176 -1.1606 -0.9627
 7670SOL     OW25326   5.742   0.747   0.728 -0.7288  0.2296  0.3569
 7670SOL    HW125327   5.719   0.819   0.670 -0.1528  0.7521  0.7634
 7670SOL    HW225328   5.677   0.679   0.709  0.3281 -0.2329 -1.9767
 7671SOL     OW25329   4.440   5.185   5.534 -0.4641 -0.0469 -0.2630
 7671SOL    HW125330   4.417   5.278   5.540 -1.3792 -0.3267  0.8018
 7671SOL    HW225331   4.535   5.184   5.532 -0.4307  0.8833  0.3543
 7672SOL     OW25332   5.663   5.230   7.629 -0.1077  0.4650 -0.2635
 7672SOL    HW125333   5.706   5.184   7.700 -1.4004 -0.9755 -0.3596
 7672SOL    HW225334   5.666   5.322   7.654  3.7807  0.6235 -0.7088
 7673SOL     OW25335   7.831   7.646   4.325 -0.2158 -0.2480 -0.3996
 7673SOL    HW125336   7.795   7.659   4.413 -1.3518  3.8844 -1.2464
 7673SOL    HW225337   7.887   7.722   4.311 -0.4816 -0.4850 -3.4029
 7674SOL     OW25338   8.850   2.661   0.128 -0.2455 -0.1785 -0.0605
 7674SOL    HW125339   8.910   2.632   0.059 -1.5452 -1.1876 -0.8403
 7674SOL    HW225340   8.835   2.754   0.110 -1.0825 -0.5778 -1.5948
 7675SOL     OW25341   3.891   0.075   6.117 -0.8449  0.0933 -0.5313
 7675SOL    HW125342   3.890   0.049   6.209 -1.5154  1.4875 -0.1298
 7675SOL    HW225343   3.944   0.154   6.115 -1.9434  0.8249 -1.1212
 7676SOL     OW25344   6.656   1.126   9.240 -0.5080  0.6128  0.2350
 7676SOL    HW125345   6.691   1.096   9.324  0.2882 -0.8447 -0.5854
 7676SOL    HW225346   6.722   1.186   9.206 -0.5152  0.6758  0.3311
 7677SOL     OW25347   3.439   5.826   0.555  0.3747 -0.2351 -0.1543
 7677SOL    HW125348   3.432   5.779   0.472  1.9573  0.7610 -0.8983
 7677SOL    HW225349   3.356   5.873   0.564  0.1177 -0.5014 -1.0660
 7678SOL     OW25350   5.749   1.851   0.150 -0.0322  0.0119  0.1568
 7678SOL    HW125351   5.696   1.773   0.131 -0.9391  0.8947 -1.0982
 7678SOL    HW225352   5.823   1.845   0.089 -1.1670  1.1091 -1.4323
 7679SOL     OW25353   8.993   5.818   7.616  0.2462  0.2703 -0.2095
 7679SOL    HW125354   9.078   5.856   7.594  0.2176  0.1820 -0.4793
 7679SOL    HW225355   8.992   5.734   7.569 -0.6537  0.9935 -1.5486
 7680SOL     OW25356   7.630   0.578  10.156  0.7222 -0.1823 -0.1100
 7680SOL    HW125357   7.566   0.549  10.222  0.3305 -0.3989 -0.5831
 7680SOL    HW225358   7.673   0.653  10.196  0.5681 -0.3837  0.4445
 7681SOL     OW25359   9.221   5.039   9.996 -0.0076 -0.0232 -1.1835
 7681SOL    HW125360   9.168   5.073  10.068 -0.5918 -0.7046 -1.2839
 7681SOL    HW225361   9.220   5.109   9.930  0.2476  0.4629 -0.6769
 7682SOL     OW25362   9.457   8.740   6.770  0.1174 -0.2426 -0.0765
 7682SOL    HW125363   9.397   8.785   6.711 -0.4685 -1.3313 -0.3521
 7682SOL    HW225364   9.543   8.778   6.752 -0.3223  0.5649 -0.4682
 7683SOL     OW25365   3.070   1.297   5.317 -0.8963 -0.7000  0.0582
 7683SOL    HW125366   3.009   1.354   5.364  1.2015  1.0880  0.7861
 7683SOL    HW225367   3.133   1.269   5.383  1.1934  0.5659 -1.2869
 7684SOL     OW25368   4.255   5.607   3.448  0.0230  0.0946 -0.3668
 7684SOL    HW125369   4.345   5.631   3.471  1.2852 -2.9591 -1.5401
 7684SOL    HW225370   4.265   5.543   3.377 -3.0060 -1.5791  0.5392
 7685SOL     OW25371   5.151   2.464   9.684 -0.1359 -0.6270 -0.4102
 7685SOL    HW125372   5.228   2.415   9.656  0.4773 -0.4049  0.8193
 7685SOL    HW225373   5.096   2.398   9.728  1.5487 -0.0033  2.9596
 7686SOL     OW25374   2.588   4.212   6.563 -0.5647  0.7050 -0.2505
 7686SOL    HW125375   2.597   4.119   6.585 -1.6122  0.0585 -2.2655
 7686SOL    HW225376   2.589   4.257   6.647  0.9069 -1.0195  0.7319
 7687SOL     OW25377   4.816   8.384   7.579 -0.6000  0.2905 -0.2326
 7687SOL    HW125378   4.755   8.448   7.615 -0.1713  0.2223  0.6451
 7687SOL    HW225379   4.778   8.299   7.603 -0.0579  0.2488  0.5422
 7688SOL     OW25380   6.474   0.536   0.002  0.1636 -0.7336  0.0866
 7688SOL    HW125381   6.546   0.477   0.025  0.3414 -0.0824  1.2550
 7688SOL    HW225382   6.418   0.538   0.080  0.2615  0.7695  0.1450
 7689SOL     OW25383   6.037   6.342   7.005 -0.3220  0.4134  0.5704
 7689SOL    HW125384   6.003   6.430   6.991 -0.3988  0.6028  1.8320
 7689SOL    HW225385   6.095   6.350   7.081 -0.6054 -0.6883  0.9290
 7690SOL     OW25386   3.915   3.821   4.816  0.1250  0.5958 -0.3394
 7690SOL    HW125387   3.970   3.840   4.892  1.0956  0.3979 -0.9743
 7690SOL    HW225388   3.840   3.879   4.826 -0.5389 -0.4958  1.5623
 7691SOL     OW25389   8.120   0.852   7.392  0.1244  0.7531 -0.8584
 7691SOL    HW125390   8.074   0.775   7.425 -0.5150  0.6808 -1.8870
 7691SOL    HW225391   8.052   0.906   7.352  0.6699  1.5384 -0.7623
 7692SOL     OW25392   9.926   8.916   8.178 -0.7266  0.4268 -0.1055
 7692SOL    HW125393  10.017   8.907   8.147  0.0650  0.3979  2.0756
 7692SOL    HW225394   9.891   8.827   8.176 -0.1332  0.1645  0.6169
 7693SOL     OW25395   6.080   9.934   8.362  0.4667  0.4143 -0.1223
 7693SOL    HW125396   6.000   9.924   8.311  1.6161 -0.0083 -1.9737
 7693SOL    HW225397   6.102  10.027   8.355  0.8047  0.2944 -0.7253
 7694SOL     OW25398   4.397   4.206  10.514 -0.0530 -0.0841 -0.1127
 7694SOL    HW125399   4.316   4.246  10.546 -1.3736 -1.8060 -1.1473
 7694SOL    HW225400   4.459   4.220  10.585 -1.7737 -0.3121  1.5267
 7695SOL     OW25401   5.109   6.956   0.989  0.1616  0.1008  0.1009
 7695SOL    HW125402   5.089   7.049   0.992 -1.8164 -0.1047 -2.7091
 7695SOL    HW225403   5.128   6.938   0.897  1.1176 -2.2028  0.6568
 7696SOL     OW25404   0.370   1.757   3.501 -0.0297 -0.9272 -0.5759
 7696SOL    HW125405   0.330   1.721   3.580 -0.3144 -0.6402 -0.5869
 7696SOL    HW225406   0.362   1.686   3.436 -0.8775 -0.7311 -0.6892
 7697SOL     OW25407   9.215   7.507   9.807 -0.3506 -0.1032 -0.3691
 7697SOL    HW125408   9.133   7.511   9.759 -0.9191 -0.2382  0.5629
 7697SOL    HW225409   9.281   7.485   9.741 -1.4623 -2.8571 -0.7136
 7698SOL     OW25410   7.529   9.567   7.594  0.2120  0.1655  0.2505
 7698SOL    HW125411   7.475   9.492   7.617  0.8066 -0.0936  0.8186
 7698SOL    HW225412   7.503   9.636   7.655 -0.7533  0.6319 -0.6460
 7699SOL     OW25413   6.762   8.824   1.286 -0.0051  0.2968  0.0501
 7699SOL    HW125414   6.688   8.763   1.283  1.6601 -1.7836 -1.5388
 7699SOL    HW225415   6.777   8.839   1.379 -1.4870 -0.3697  0.4368
 7700SOL     OW25416   4.692   7.532   7.123 -0.8717  0.6344 -0.1043
 7700SOL    HW125417   4.600   7.532   7.151 -1.0281  0.4036 -0.6123
 7700SOL    HW225418   4.699   7.458   7.062 -0.2914  0.5029  0.1110
 7701SOL     OW25419   6.250   1.676   3.955 -0.1570 -0.3627 -0.0403
 7701SOL    HW125420   6.316   1.683   4.025  0.3937  0.2125 -0.6018
 7701SOL    HW225421   6.186   1.744   3.977  0.1405 -0.0190 -0.2098
 7702SOL     OW25422   1.118   7.095   8.969 -0.4532  0.0664 -0.2332
 7702SOL    HW125423   1.128   7.004   8.997 -0.1786 -0.3946 -1.7261
 7702SOL    HW225424   1.026   7.101   8.941 -0.1656 -0.1272 -1.2870
 7703SOL     OW25425   5.241   1.504   6.257  0.3242  0.3677 -0.2963
 7703SOL    HW125426   5.221   1.417   6.293  0.7365  0.2443 -0.3572
 7703SOL    HW225427   5.241   1.562   6.333  1.7592  0.0098  0.0097
 7704SOL     OW25428   1.719   2.860   2.760 -0.0958  0.8966  0.3283
 7704SOL    HW125429   1.639   2.901   2.729  1.2975  2.9139 -0.8391
 7704SOL    HW225430   1.728   2.889   2.851  0.9521  3.5450 -0.5159
 7705SOL     OW25431   9.866   6.179   5.738 -0.9831  0.5054 -0.1800
 7705SOL    HW125432   9.792   6.197   5.795 -0.5273  0.9667  0.2765
 7705SOL    HW225433   9.837   6.208   5.652 -0.4497  3.1094  0.4333
 7706SOL     OW25434   0.149   5.498   2.341 -0.2653 -1.1548  0.3492
 7706SOL    HW125435   0.209   5.424   2.347  0.4753 -0.5344  0.7265
 7706SOL    HW225436   0.073   5.471   2.393 -0.2511 -1.8694  0.0199
 7707SOL     OW25437   9.019   1.402   9.891  0.0083 -0.0939 -0.1706
 7707SOL    HW125438   9.013   1.497   9.883  0.9115  0.1279  1.3943
 7707SOL    HW225439   9.022   1.386   9.986  1.2361 -1.5749 -0.4231
 7708SOL     OW25440   5.736   2.994   3.359 -0.5704  0.5878  0.2368
 7708SOL    HW125441   5.716   3.003   3.452 -1.1955  3.5635 -0.0831
 7708SOL    HW225442   5.821   2.951   3.356 -0.0398  1.4011  2.2520
 7709SOL     OW25443   6.053   3.181   7.256 -0.4413 -0.0813 -0.1856
 7709SOL    HW125444   6.008   3.266   7.253 -1.1497 -0.4232  0.3502
 7709SOL    HW225445   6.004   3.130   7.321 -1.3787 -1.6475 -2.0051
 7710SOL     OW25446   4.368   7.130   1.461 -0.0461  0.1820  0.3849
 7710SOL    HW125447   4.425   7.152   1.388  2.3814  1.3927  2.4717
 7710SOL    HW225448   4.377   7.203   1.522 -2.1190 -0.6607  1.8442
 7711SOL     OW25449   1.629   5.892  10.554 -0.3601  0.6254 -0.1079
 7711SOL    HW125450   1.653   5.815  10.502 -0.8883  0.5714 -0.2721
 7711SOL    HW225451   1.703   5.904  10.613  0.4063  0.8843 -1.0878
 7712SOL     OW25452   6.879   0.026   6.047  0.7149  0.6853  0.2686
 7712SOL    HW125453   6.928   0.031   5.965  0.5621  0.6340  0.1754
 7712SOL    HW225454   6.792   0.057   6.025  1.3222  3.0248  0.9446
 7713SOL     OW25455   4.780   3.943   5.898 -0.6507  0.0470 -0.5473
 7713SOL    HW125456   4.838   3.925   5.972  0.1996 -0.4098 -1.3113
 7713SOL    HW225457   4.786   3.866   5.842 -1.1855  0.4378 -1.1658
 7714SOL     OW25458  10.424   6.280   3.255  0.0769  0.0914  0.1045
 7714SOL    HW125459  10.437   6.360   3.205  0.2934  1.2670  1.9321
 7714SOL    HW225460  10.398   6.310   3.342  1.0533 -1.7869  1.1123
 7715SOL     OW25461   1.840   4.727   4.465  0.5515 -0.2227  0.0696
 7715SOL    HW125462   1.757   4.714   4.510  0.4195 -0.6839 -0.2992
 7715SOL    HW225463   1.853   4.822   4.466  0.1342 -0.1641  0.3281
 7716SOL     OW25464   4.419   7.588   7.173  0.1019  0.1726  0.3804
 7716SOL    HW125465   4.330   7.573   7.203  0.6624  0.5387  2.3642
 7716SOL    HW225466   4.432   7.682   7.180 -0.3633  0.6451 -3.1102
 7717SOL     OW25467   2.396  10.255   8.147 -0.1112 -0.1326  0.3418
 7717SOL    HW125468   2.348  10.323   8.098  1.7400  0.9227 -0.1316
 7717SOL    HW225469   2.328  10.208   8.195 -1.6557  0.9964 -0.6020
 7718SOL     OW25470   7.714   7.537   8.597 -0.2973  0.0122 -0.8410
 7718SOL    HW125471   7.801   7.510   8.566  0.0745 -1.5150  1.3405
 7718SOL    HW225472   7.731   7.578   8.682 -1.6900  0.1228 -0.5988
 7719SOL     OW25473   0.329   0.042   1.619  0.5021  0.0826 -0.5934
 7719SOL    HW125474   0.368   0.047   1.532  0.4674 -0.2579 -0.6291
 7719SOL    HW225475   0.269  -0.032   1.615  0.9898 -0.3545 -0.0849
 7720SOL     OW25476   4.711   0.117   2.743 -0.1384 -0.2095  0.4238
 7720SOL    HW125477   4.733   0.049   2.807  0.6899  0.3836  0.7985
 7720SOL    HW225478   4.624   0.147   2.769  1.2192  1.9633  3.1214
 7721SOL     OW25479   1.813   0.224   0.551  0.5754 -0.2626 -0.2648
 7721SOL    HW125480   1.759   0.188   0.480  1.0920 -0.2274 -0.6787
 7721SOL    HW225481   1.770   0.194   0.631 -1.1755  1.3403 -0.5340
 7722SOL     OW25482   5.830   4.708   8.009  0.3515 -0.3894  0.8961
 7722SOL    HW125483   5.870   4.672   8.088  2.5023 -0.1530 -0.0295
 7722SOL    HW225484   5.894   4.770   7.975 -0.1466 -1.0448 -1.4377
 7723SOL     OW25485  10.430   2.402  10.346  0.2516  0.6702  0.3837
 7723SOL    HW125486  10.402   2.332  10.406 -2.5768  1.8863  0.6620
 7723SOL    HW225487  10.351   2.422  10.295  1.1650  3.1385 -0.1950
 7724SOL     OW25488   2.589   1.092   7.952  0.2811  0.1199 -0.7467
 7724SOL    HW125489   2.660   1.155   7.967  2.7286 -1.9143 -2.8749
 7724SOL    HW225490   2.607   1.019   8.011 -0.4141 -0.1817 -0.8863
 7725SOL     OW25491   5.616   6.880   7.568  0.2383  0.6443 -0.0366
 7725SOL    HW125492   5.612   6.785   7.554 -0.0725  0.2883  2.1722
 7725SOL    HW225493   5.694   6.908   7.519  0.7719 -0.8764 -0.1100
 7726SOL     OW25494   5.719   2.731   6.283  0.0328  0.6211 -0.4933
 7726SOL    HW125495   5.680   2.812   6.251 -0.2468  0.9184  0.5639
 7726SOL    HW225496   5.648   2.686   6.327  0.8821  1.3016  1.7164
 7727SOL     OW25497   8.350   4.511  10.246  0.1198 -0.7946 -0.4800
 7727SOL    HW125498   8.402   4.556  10.179 -0.0399  0.1150 -0.0087
 7727SOL    HW225499   8.411   4.449  10.287  1.7993  2.2752  2.0894
 7728SOL     OW25500   5.851   6.497   8.862 -0.2065  0.0288 -0.2262
 7728SOL    HW125501   5.865   6.525   8.772 -0.2223 -0.5157 -0.4021
 7728SOL    HW225502   5.880   6.406   8.864 -2.5533 -0.7765 -0.2945
 7729SOL     OW25503   8.173   1.153   5.947 -0.3687 -0.2510 -0.2457
 7729SOL    HW125504   8.080   1.153   5.924 -0.0529 -1.0474 -1.6150
 7729SOL    HW225505   8.201   1.244   5.938 -0.7881 -0.1747 -0.7875
 7730SOL     OW25506  10.507   7.158   6.229 -0.2624 -0.6430  0.0795
 7730SOL    HW125507  10.552   7.099   6.290 -2.6097 -0.8650  1.7305
 7730SOL    HW225508  10.450   7.102   6.177  0.6394 -0.2716 -1.3642
 7731SOL     OW25509   2.275   1.489   1.912 -0.0433  0.4292 -0.3066
 7731SOL    HW125510   2.347   1.521   1.858  0.6273  1.1259  0.9387
 7731SOL    HW225511   2.229   1.426   1.857  0.4610  1.2878 -1.7499
 7732SOL     OW25512   5.358   7.407   1.132 -0.5057 -0.7476 -0.6428
 7732SOL    HW125513   5.267   7.394   1.159 -0.9507 -0.1457 -1.8126
 7732SOL    HW225514   5.364   7.499   1.109  0.7456 -0.4674  0.5936
 7733SOL     OW25515   0.262   1.811   3.935 -0.3512  0.3059  0.1517
 7733SOL    HW125516   0.294   1.881   3.879  1.2651  0.0430  0.6976
 7733SOL    HW225517   0.190   1.851   3.985  0.1975  1.4106  0.0769
 7734SOL     OW25518   1.019   2.136   7.369 -0.3561  0.0477  0.5480
 7734SOL    HW125519   1.034   2.080   7.293 -0.5476  1.2056 -0.3645
 7734SOL    HW225520   0.981   2.216   7.334 -0.2699  0.6944  1.8427
 7735SOL     OW25521   1.236   7.082   7.332 -0.0923 -0.2574 -0.0101
 7735SOL    HW125522   1.168   7.018   7.351  0.6285 -1.6424 -1.7886
 7735SOL    HW225523   1.193   7.148   7.277 -0.0935 -0.9618 -0.8707
 7736SOL     OW25524   9.325   4.517   2.306  0.8994  0.6119  0.2925
 7736SOL    HW125525   9.371   4.595   2.276  0.1363  0.6811 -0.7637
 7736SOL    HW225526   9.385   4.445   2.287  0.2053  0.5862 -2.0683
 7737SOL     OW25527   4.213   1.098   5.163  0.1165  0.2008  0.2143
 7737SOL    HW125528   4.118   1.098   5.159  0.0764  0.0532  0.9675
 7737SOL    HW225529   4.239   1.012   5.129  0.0319  0.5463 -0.7563
 7738SOL     OW25530   1.244   5.698   2.137  0.7941  0.2868  0.6647
 7738SOL    HW125531   1.184   5.762   2.099  1.5140  0.9619  0.6310
 7738SOL    HW225532   1.277   5.740   2.216  1.1879 -0.0867  0.7013
 7739SOL     OW25533   8.793   2.352   4.459  0.3520 -0.2109  0.1451
 7739SOL    HW125534   8.767   2.351   4.551 -0.2614  1.4779  0.0163
 7739SOL    HW225535   8.715   2.381   4.411  0.6649 -1.0438 -0.9118
 7740SOL     OW25536   7.744   8.036   1.669  0.1005 -0.5677 -0.5883
 7740SOL    HW125537   7.679   8.079   1.614  0.6024 -1.3923 -1.9069
 7740SOL    HW225538   7.767   7.956   1.620  0.6453 -1.2942  0.7925
 7741SOL     OW25539   0.224   7.471   4.318 -0.1784 -0.6433 -0.0122
 7741SOL    HW125540   0.189   7.533   4.255 -0.3025 -1.3919 -0.6928
 7741SOL    HW225541   0.268   7.526   4.383 -2.1270  0.2891  0.5891
 7742SOL     OW25542   0.441   0.403   9.062 -0.0227 -0.0618 -0.3198
 7742SOL    HW125543   0.527   0.435   9.035  0.9489 -0.9340  1.5298
 7742SOL    HW225544   0.425   0.325   9.008  1.8246 -1.7153  1.3613
 7743SOL     OW25545   6.849   1.268   4.445 -0.1233 -0.6820 -0.2237
 7743SOL    HW125546   6.941   1.251   4.426 -0.3419 -0.9659 -1.0888
 7743SOL    HW225547   6.812   1.297   4.361 -1.0200 -1.4400 -0.1134
 7744SOL     OW25548   0.956   8.957   5.526 -0.1816  0.1009 -0.0541
 7744SOL    HW125549   0.958   8.905   5.445 -1.3018  0.5807 -0.4027
 7744SOL    HW225550   1.048   8.982   5.540  0.1039 -0.4228 -0.8869
 7745SOL     OW25551   4.068   2.300   8.790 -0.3524  0.4233  0.1930
 7745SOL    HW125552   4.061   2.390   8.761 -0.2062  0.6124  0.7347
 7745SOL    HW225553   4.019   2.297   8.872  0.8713  0.3657  0.9518
 7746SOL     OW25554   6.864   9.277   5.047 -0.1733  0.0241  0.0397
 7746SOL    HW125555   6.927   9.209   5.023  2.2484  2.0903  0.0743
 7746SOL    HW225556   6.887   9.300   5.137 -0.6138  1.2310 -0.1393
 7747SOL     OW25557   4.191   6.065   0.058 -0.1970 -0.1217 -0.1006
 7747SOL    HW125558   4.212   5.989   0.003  0.1120  0.9422 -1.5053
 7747SOL    HW225559   4.138   6.029   0.129 -1.2092 -1.4638 -1.4611
 7748SOL     OW25560   2.142   6.579   3.617 -0.0851 -0.2655  0.0384
 7748SOL    HW125561   2.068   6.631   3.650  1.1830  1.6855  0.0175
 7748SOL    HW225562   2.208   6.587   3.685 -0.8980 -4.8122  1.6932
 7749SOL     OW25563   4.164   8.333   7.788  0.4797 -0.3978 -0.3293
 7749SOL    HW125564   4.123   8.250   7.763  1.1448 -1.0612  0.6895
 7749SOL    HW225565   4.118   8.360   7.868  1.2015 -0.5333  0.1452
 7750SOL     OW25566   4.895   5.605   6.502  0.0343  0.6021  0.0321
 7750SOL    HW125567   4.882   5.588   6.409  1.8635  0.0047 -0.1507
 7750SOL    HW225568   4.807   5.619   6.536 -0.7456 -0.0066 -1.6163
 7751SOL     OW25569   9.940   6.260  10.083 -0.1054  0.4331 -0.0451
 7751SOL    HW125570   9.867   6.259  10.145  1.4421  1.9039  1.9333
 7751SOL    HW225571   9.980   6.173  10.090 -1.3651 -0.2374 -0.8351
 7752SOL     OW25572   9.224   2.514   0.372 -0.1417 -0.4514  0.0212
 7752SOL    HW125573   9.130   2.530   0.361 -0.1832 -0.5014  0.2955
 7752SOL    HW225574   9.263   2.540   0.289 -0.0862  1.8783  0.7072
 7753SOL     OW25575   2.046   8.438   2.204  0.0906 -0.8218  0.2210
 7753SOL    HW125576   2.127   8.488   2.207  0.5555 -1.4924 -0.6169
 7753SOL    HW225577   2.009   8.457   2.117 -1.0118  0.0041  0.8403
 7754SOL     OW25578   8.549   2.363   7.176  0.5723 -0.1062  0.6237
 7754SOL    HW125579   8.538   2.445   7.224  0.4445  1.3026 -1.6494
 7754SOL    HW225580   8.604   2.387   7.101 -1.5136 -1.4519 -1.4819
 7755SOL     OW25581   9.610   4.450   4.743 -0.9631  0.2016  0.1490
 7755SOL    HW125582   9.662   4.469   4.666 -1.9449  0.3170 -0.5034
 7755SOL    HW225583   9.536   4.399   4.710 -1.4055  0.2687  1.0081
 7756SOL     OW25584   5.326   8.281   4.439 -0.1572 -0.3675 -0.1594
 7756SOL    HW125585   5.243   8.235   4.447 -1.4539  1.8577  0.1980
 7756SOL    HW225586   5.316   8.335   4.360  0.4924  0.7564  0.4993
 7757SOL     OW25587   1.606   2.035   1.857  0.3788  0.4854  0.1186
 7757SOL    HW125588   1.670   2.087   1.809  1.0500 -0.2392  0.2014
 7757SOL    HW225589   1.655   1.958   1.887 -0.5383 -0.1094  0.1481
 7758SOL     OW25590   5.056   5.159  10.365  0.2904 -0.1200 -0.2716
 7758SOL    HW125591   5.130   5.101  10.347  0.5454  0.0174  0.3067
 7758SOL    HW225592   5.078   5.200  10.449  0.1742  0.9294 -0.7515
 7759SOL     OW25593   5.426   8.501   6.032  0.2229  0.1012 -0.4989
 7759SOL    HW125594   5.440   8.538   5.945 -0.6097  0.6747 -0.4013
 7759SOL    HW225595   5.477   8.557   6.091 -0.4795  0.6875 -0.4357
 7760SOL     OW25596   6.958   2.824   5.949 -0.1838  0.0250  0.5851
 7760SOL    HW125597   6.972   2.755   5.884  1.5746  0.2117  0.7199
 7760SOL    HW225598   6.953   2.905   5.898 -0.7776 -0.0361  0.5412
 7761SOL     OW25599   1.706   4.192   5.471 -0.3205 -0.2533  0.0021
 7761SOL    HW125600   1.767   4.196   5.397 -0.8965  1.7791 -0.4076
 7761SOL    HW225601   1.699   4.098   5.490  2.1037 -0.6272 -0.6040
 7762SOL     OW25602   0.778   8.665   1.604  0.1008  0.6910  0.0892
 7762SOL    HW125603   0.818   8.601   1.545 -1.4322  0.1838 -0.4327
 7762SOL    HW225604   0.724   8.720   1.548  0.3897  1.6544  0.7221
 7763SOL     OW25605   7.653   9.558   4.898  0.3718 -1.0300  0.4451
 7763SOL    HW125606   7.592   9.613   4.848  1.9710 -0.2783 -0.8003
 7763SOL    HW225607   7.631   9.574   4.989  0.4732  1.3769  0.1124
 7764SOL     OW25608   3.944   5.721   0.090 -0.3148  0.2862  0.6309
 7764SOL    HW125609   3.921   5.706  -0.002 -1.3291 -0.4720  0.9886
 7764SOL    HW225610   4.030   5.680   0.101  0.5426  1.7427 -0.3431
 7765SOL     OW25611   2.464   2.282   0.893 -0.3861  0.1363 -0.1373
 7765SOL    HW125612   2.517   2.362   0.894 -0.4678  0.2608 -2.1226
 7765SOL    HW225613   2.399   2.296   0.963  0.9141  0.8453  0.9747
 7766SOL     OW25614   3.241   6.622   4.636 -0.3737 -0.0945  0.2959
 7766SOL    HW125615   3.302   6.559   4.596 -0.1646 -0.5283  1.2460
 7766SOL    HW225616   3.229   6.689   4.570 -0.2476 -0.9120 -0.5835
 7767SOL     OW25617  10.027   3.607   0.523 -0.7179  0.1765 -0.3194
 7767SOL    HW125618  10.092   3.551   0.479  2.8174  1.7180  2.4322
 7767SOL    HW225619  10.007   3.675   0.458 -0.1758 -0.7860 -1.5356
 7768SOL     OW25620   2.897   5.191   6.033  0.3852 -0.5264 -0.3263
 7768SOL    HW125621   2.831   5.149   5.977 -0.9977  0.9956  0.0880
 7768SOL    HW225622   2.921   5.123   6.096  0.4748 -1.6245 -1.4833
 7769SOL     OW25623   3.725   5.191   0.009 -0.3485  0.4882  0.1342
 7769SOL    HW125624   3.757   5.145   0.086 -2.3381 -1.1192  0.0823
 7769SOL    HW225625   3.777   5.156  -0.064 -1.2575 -1.1309  0.2162
 7770SOL     OW25626   1.147  10.160   6.762 -0.7157 -0.3759 -0.4376
 7770SOL    HW125627   1.067  10.201   6.728 -0.8055 -0.0085  0.2045
 7770SOL    HW225628   1.217  10.194   6.707 -0.9617 -0.4591 -0.8064
 7771SOL     OW25629   4.291   3.991   2.150 -0.1758 -0.1390 -0.2447
 7771SOL    HW125630   4.340   4.072   2.168  0.9333 -0.1817 -2.7199
 7771SOL    HW225631   4.351   3.921   2.178 -0.3183 -0.1556  0.0281
 7772SOL     OW25632   0.227   2.075   7.770 -0.3258  0.1668 -0.3486
 7772SOL    HW125633   0.214   2.130   7.847  0.0672  0.0943 -0.2296
 7772SOL    HW225634   0.239   1.986   7.805 -0.0252  0.1530 -0.4827
 7773SOL     OW25635   4.065   3.875   7.821  0.3538  0.5463  0.2164
 7773SOL    HW125636   4.152   3.845   7.846  0.1092 -0.6114 -0.2496
 7773SOL    HW225637   4.050   3.836   7.734 -0.6135  0.7436  0.2842
 7774SOL     OW25638   8.667   0.787   2.555 -0.1068 -0.1513  0.3587
 7774SOL    HW125639   8.575   0.795   2.532  0.1925 -2.4467 -2.1408
 7774SOL    HW225640   8.715   0.826   2.482  0.9814  1.6245  1.9237
 7775SOL     OW25641   0.234   1.785   6.895 -0.1414 -0.2799 -0.3666
 7775SOL    HW125642   0.276   1.747   6.972  2.4533  0.4223 -1.3236
 7775SOL    HW225643   0.171   1.719   6.867  2.9925 -3.2930 -0.9897
 7776SOL     OW25644   7.606   5.512   2.901 -0.0630  0.3975  0.0457
 7776SOL    HW125645   7.610   5.418   2.921  1.4176  0.2979 -0.5892
 7776SOL    HW225646   7.649   5.554   2.976  2.3203  0.2727 -1.1332
 7777SOL     OW25647   6.331   2.630   6.405  0.0080 -0.5913  0.1498
 7777SOL    HW125648   6.355   2.581   6.326  0.7226  1.3144 -0.8744
 7777SOL    HW225649   6.342   2.722   6.381  0.6845  0.0460  2.6237
 7778SOL     OW25650   5.441   4.303   6.471  0.1395 -0.9006 -0.4956
 7778SOL    HW125651   5.503   4.238   6.438 -0.2632 -1.0949 -0.8859
 7778SOL    HW225652   5.394   4.332   6.393 -0.3294 -0.8360 -0.1911
 7779SOL     OW25653   7.290   0.006   5.857 -0.0684 -0.3185  0.2772
 7779SOL    HW125654   7.359   0.071   5.860  0.3307 -0.7789  2.0794
 7779SOL    HW225655   7.333  -0.076   5.882 -1.4587 -0.3679  2.8538
 7780SOL     OW25656   4.656   7.127   2.457 -0.3699  0.2249  0.0439
 7780SOL    HW125657   4.582   7.070   2.480  0.1603 -0.1383  0.8794
 7780SOL    HW225658   4.690   7.090   2.376 -0.5974 -0.0934  0.0893
 7781SOL     OW25659   7.017   8.521   6.663  0.0977  0.4963 -0.6239
 7781SOL    HW125660   7.109   8.503   6.644  0.2587 -0.3612  0.8151
 7781SOL    HW225661   7.015   8.610   6.696  0.0232  1.4453 -2.9973
 7782SOL     OW25662   4.378   5.101   2.788 -0.4977 -0.0460 -0.1282
 7782SOL    HW125663   4.302   5.144   2.827  0.5407  0.3065  1.6250
 7782SOL    HW225664   4.453   5.154   2.815  0.5753 -1.5148 -0.0657
 7783SOL     OW25665   3.180   6.791   9.295  0.4137 -0.4166 -0.2072
 7783SOL    HW125666   3.100   6.840   9.279  0.3158 -0.4194  0.2513
 7783SOL    HW225667   3.224   6.838   9.366  1.2822  0.1162 -1.0658
 7784SOL     OW25668   9.161   7.567   3.473  0.0832 -0.3341  0.4339
 7784SOL    HW125669   9.134   7.606   3.390  1.2485 -1.0381 -0.2967
 7784SOL    HW225670   9.198   7.641   3.523 -0.7879  0.1230  0.4232
 7785SOL     OW25671   9.816   5.662   0.695 -0.8473 -0.6891  0.4504
 7785SOL    HW125672   9.867   5.588   0.661 -1.2197 -0.6887 -0.1281
 7785SOL    HW225673   9.881   5.728   0.716 -0.4144 -1.5723  2.0099
 7786SOL     OW25674   1.192  10.354   7.645  0.1002  0.0181  0.4426
 7786SOL    HW125675   1.274  10.403   7.643  0.3710 -0.4528 -0.4636
 7786SOL    HW225676   1.128  10.414   7.682  0.2404  1.3353 -1.3434
 7787SOL     OW25677   5.572   1.064   5.116  0.2812 -0.4360 -0.2561
 7787SOL    HW125678   5.662   1.039   5.136  0.4879  1.2553  1.1309
 7787SOL    HW225679   5.527   1.068   5.200 -0.5875  0.5512 -0.7254
 7788SOL     OW25680   3.629   1.974   6.090  0.3084  0.2599  0.4706
 7788SOL    HW125681   3.693   1.961   6.160  1.9224  1.2875 -0.7392
 7788SOL    HW225682   3.582   1.891   6.084  0.8547 -0.1901  2.0487
 7789SOL     OW25683   5.862   0.444   4.690  0.0171 -0.0294 -0.5468
 7789SOL    HW125684   5.813   0.488   4.621 -0.2313  0.7700  0.1262
 7789SOL    HW225685   5.933   0.504   4.711  0.4835 -0.5661 -0.5603
 7790SOL     OW25686   4.085   4.014   6.517 -0.2772  0.0489  0.2521
 7790SOL    HW125687   4.018   3.946   6.518 -0.2640  0.0342  0.1955
 7790SOL    HW225688   4.145   3.987   6.446 -0.6551  0.4855 -0.2428
 7791SOL     OW25689   8.957   9.777   8.149 -0.6640 -0.3580  0.5744
 7791SOL    HW125690   9.027   9.835   8.180  0.5847 -2.0524  1.0268
 7791SOL    HW225691   8.876   9.819   8.179 -0.0345  2.4669 -1.2492
 7792SOL     OW25692   1.255   8.459   3.058  0.1997  0.1174 -0.6003
 7792SOL    HW125693   1.296   8.535   3.016  1.1547  1.2284  2.1589
 7792SOL    HW225694   1.205   8.496   3.131 -1.7150 -1.7087 -0.8859
 7793SOL     OW25695   8.672   9.629   9.657  0.6257  0.4308 -0.3379
 7793SOL    HW125696   8.737   9.616   9.726  0.4632  0.2691 -0.2143
 7793SOL    HW225697   8.647   9.721   9.666 -1.8272 -0.3322  1.9952
 7794SOL     OW25698   0.198   6.673   7.883 -0.4421  0.2974  0.4221
 7794SOL    HW125699   0.200   6.578   7.883  0.5697  0.2833 -0.9070
 7794SOL    HW225700   0.130   6.696   7.820 -0.2610  0.4404  0.2764
 7795SOL     OW25701   3.348   7.695   3.618  0.1543 -0.4097 -0.5109
 7795SOL    HW125702   3.418   7.636   3.591 -0.5472 -1.7302  0.4128
 7795SOL    HW225703   3.272   7.638   3.629 -0.3422  0.4997  1.2587
 7796SOL     OW25704   4.130   6.749   7.598 -0.0849  0.1363  0.0104
 7796SOL    HW125705   4.200   6.717   7.655 -0.8420 -0.1231  0.8226
 7796SOL    HW225706   4.084   6.815   7.650 -0.6137  0.0934 -0.3887
 7797SOL     OW25707   1.544   0.457   0.531 -0.1090 -0.3075  0.1991
 7797SOL    HW125708   1.622   0.402   0.537 -0.4486 -0.9150 -0.7791
 7797SOL    HW225709   1.527   0.465   0.437 -0.8988  0.2759  0.3822
 7798SOL     OW25710   4.091   5.411   6.160 -0.0431  0.0365  0.3612
 7798SOL    HW125711   4.143   5.483   6.194 -1.4503  1.8870 -1.1867
 7798SOL    HW225712   4.154   5.352   6.120  1.0091  1.3499  0.0332
 7799SOL     OW25713   1.639   3.926   8.439 -0.1524  0.1053 -0.3527
 7799SOL    HW125714   1.625   3.899   8.349  1.5777  0.5652 -0.7996
 7799SOL    HW225715   1.564   3.982   8.459  0.1942  1.2291 -2.0168
 7800SOL     OW25716   8.006   4.549   1.289  0.0193 -0.4159  0.3055
 7800SOL    HW125717   8.098   4.575   1.301 -1.0128  2.4470  3.7032
 7800SOL    HW225718   7.997   4.468   1.339  0.4051  0.1593  1.3402
 7801SOL     OW25719   4.935   1.097   2.569  0.2494 -0.4057 -0.2152
 7801SOL    HW125720   4.858   1.103   2.513 -0.6749 -0.4601  1.0206
 7801SOL    HW225721   4.937   1.005   2.596  0.8099 -0.4252 -0.3045
 7802SOL     OW25722   2.079   7.968   0.468  0.1426  0.3877  0.0488
 7802SOL    HW125723   2.067   7.912   0.391  0.5883  0.3301  0.0172
 7802SOL    HW225724   2.168   8.000   0.460  0.6542 -0.6548  1.2108
 7803SOL     OW25725   0.272   1.686   5.784  0.2309 -0.0361  0.3171
 7803SOL    HW125726   0.279   1.594   5.758  0.9486  0.1530 -0.1910
 7803SOL    HW225727   0.324   1.692   5.864 -1.0873 -0.3866  1.2347
 7804SOL     OW25728   2.017   7.752   1.115  0.0879  0.0935  0.1111
 7804SOL    HW125729   1.970   7.802   1.049 -0.0953 -1.5439 -1.0371
 7804SOL    HW225730   2.098   7.726   1.072  0.5437  0.0644  0.9672
 7805SOL     OW25731   0.965   3.152   0.059 -0.0753 -0.4448 -0.0851
 7805SOL    HW125732   0.939   3.203   0.136  0.5248  0.4362 -0.4539
 7805SOL    HW225733   0.962   3.061   0.089 -0.9621 -0.1946  0.6448
 7806SOL     OW25734   6.274   4.389  10.093 -0.2709 -0.2047 -0.8852
 7806SOL    HW125735   6.231   4.471  10.117 -1.9542 -0.9979 -1.0442
 7806SOL    HW225736   6.203   4.333  10.062  0.6849 -2.0280  0.0496
 7807SOL     OW25737   9.773   1.917   7.361 -0.1296 -0.0285  0.4530
 7807SOL    HW125738   9.839   1.851   7.383  0.2456  0.7589  1.8272
 7807SOL    HW225739   9.817   1.975   7.298  0.3660  0.2477  1.0387
 7808SOL     OW25740   6.106   2.291   3.127  0.4003 -0.1050  0.2183
 7808SOL    HW125741   6.199   2.268   3.129  0.3570 -0.8542 -2.5678
 7808SOL    HW225742   6.060   2.209   3.146  0.3442 -0.7663 -2.3671
 7809SOL     OW25743   1.623   3.263   2.676  0.1083  0.2005 -0.5788
 7809SOL    HW125744   1.600   3.313   2.754  0.1437 -0.5166 -0.1004
 7809SOL    HW225745   1.558   3.290   2.611  0.9817  1.9228 -0.7961
 7810SOL     OW25746   9.505   3.679   4.713 -0.1285 -0.1502  0.1145
 7810SOL    HW125747   9.545   3.611   4.660 -0.8386  0.1079 -0.7884
 7810SOL    HW225748   9.579   3.727   4.751  0.3702 -1.2376  0.5377
 7811SOL     OW25749   9.351   8.079   9.101  0.0518  0.0924  0.0508
 7811SOL    HW125750   9.437   8.052   9.132 -0.3506 -2.5796 -0.8904
 7811SOL    HW225751   9.290   8.044   9.165 -0.5079 -1.4254 -1.2620
 7812SOL     OW25752   6.803   4.400   0.568 -0.1968 -0.6425  0.3227
 7812SOL    HW125753   6.894   4.379   0.547  0.9989  2.3882  1.7967
 7812SOL    HW225754   6.763   4.421   0.484  1.2606  0.5325 -0.1146
 7813SOL     OW25755   8.588   5.317   3.151  0.2102 -0.0349 -0.3155
 7813SOL    HW125756   8.557   5.272   3.072 -0.9937 -0.3022  0.2711
 7813SOL    HW225757   8.653   5.380   3.120 -1.2244  0.8330 -1.7049
 7814SOL     OW25758   1.387   2.523   1.671 -0.2722 -0.0855  0.1477
 7814SOL    HW125759   1.300   2.540   1.708  0.0530  1.4685  0.2602
 7814SOL    HW225760   1.374   2.450   1.611 -1.0695 -1.9305  2.3841
 7815SOL     OW25761   9.266   1.385   9.104  0.1195  0.3019  0.3789
 7815SOL    HW125762   9.247   1.479   9.092  0.6260  0.2653 -0.8523
 7815SOL    HW225763   9.187   1.350   9.144 -0.1067  1.2434  0.7904
 7816SOL     OW25764   1.622   2.947   8.742 -0.0818  0.3064 -0.2640
 7816SOL    HW125765   1.543   2.913   8.784 -0.5519  0.1463 -1.2488
 7816SOL    HW225766   1.590   2.997   8.667  0.7859 -1.1409 -1.6676
 7817SOL     OW25767   6.702   7.897   2.275  0.3482  0.6683 -0.1788
 7817SOL    HW125768   6.674   7.808   2.255  0.2962  0.5544  0.3953
 7817SOL    HW225769   6.787   7.906   2.232  0.7526  0.0487  0.4745
 7818SOL     OW25770   2.927   3.950   9.420 -0.3022  0.0916  0.1748
 7818SOL    HW125771   2.878   3.996   9.352  0.0967 -0.4546 -0.4886
 7818SOL    HW225772   3.007   3.922   9.377 -2.0760 -4.6115 -0.6472
 7819SOL     OW25773   7.694  10.105   3.546  0.5504 -0.1111  0.1707
 7819SOL    HW125774   7.689  10.197   3.523 -3.0280  0.4038  2.3063
 7819SOL    HW225775   7.740  10.103   3.630 -2.4388  0.3052  1.9441
 7820SOL     OW25776   8.082   4.989  10.387  0.3366 -0.5201 -0.0763
 7820SOL    HW125777   8.099   5.046  10.313  1.4186  0.3697  0.8112
 7820SOL    HW225778   8.010   4.933  10.359 -1.4824  1.9440 -0.6491
 7821SOL     OW25779   7.534   3.378   6.979 -0.0530  0.2205 -0.1925
 7821SOL    HW125780   7.620   3.376   6.936  0.0097 -1.8360 -0.0973
 7821SOL    HW225781   7.476   3.331   6.919 -0.3154 -1.3216  1.1939
 7822SOL     OW25782   5.835   3.693   9.859 -0.3946  0.0814 -0.2106
 7822SOL    HW125783   5.870   3.676   9.946  0.0388  0.2839 -0.3435
 7822SOL    HW225784   5.861   3.617   9.807 -0.9098 -0.1803 -0.0902
 7823SOL     OW25785   8.279   2.876   6.060  0.6555  0.4214  0.5777
 7823SOL    HW125786   8.291   2.837   5.973 -0.1951  1.7779 -0.1797
 7823SOL    HW225787   8.364   2.865   6.103  0.4733 -2.2184  0.4274
 7824SOL     OW25788   1.087   6.433  10.080  0.8232  0.1271 -0.1058
 7824SOL    HW125789   1.032   6.488  10.135 -0.7103  1.1351 -2.4858
 7824SOL    HW225790   1.137   6.495  10.026 -3.1901 -0.3541 -5.0815
 7825SOL     OW25791   5.312   2.782   6.480 -0.5039  0.2363  0.0005
 7825SOL    HW125792   5.350   2.858   6.436 -0.2569  0.5821  0.7851
 7825SOL    HW225793   5.234   2.816   6.523 -0.6981 -0.0753 -0.1081
 7826SOL     OW25794   0.355   5.085   0.332  0.2729 -0.0011  0.1828
 7826SOL    HW125795   0.403   5.056   0.409  1.1588  0.1135 -0.3121
 7826SOL    HW225796   0.345   5.179   0.343  2.7164  0.4854 -1.0367
 7827SOL     OW25797   9.272   9.677  10.526 -0.5937 -0.1471  1.0017
 7827SOL    HW125798   9.194   9.718  10.489  0.6794  1.7977  0.2832
 7827SOL    HW225799   9.309   9.626  10.454  0.4624  1.5111  0.3139
 7828SOL     OW25800   4.517   2.309   0.198  0.1633 -0.4405  0.4219
 7828SOL    HW125801   4.610   2.295   0.181  0.2237 -2.2058  1.8847
 7828SOL    HW225802   4.483   2.349   0.118  2.3880  1.3848  0.3137
 7829SOL     OW25803   6.135   3.708   5.751 -0.5043  0.6394 -0.2590
 7829SOL    HW125804   6.082   3.641   5.793 -1.4417  2.1942  1.1526
 7829SOL    HW225805   6.084   3.789   5.760  0.1321  1.4126 -2.7308
 7830SOL     OW25806   8.513   7.223   1.599  0.0910 -0.4751 -0.1581
 7830SOL    HW125807   8.573   7.157   1.634 -0.1350  0.0533  1.2913
 7830SOL    HW225808   8.557   7.255   1.520  0.9870 -1.1932  0.0276
 7831SOL     OW25809   0.387   0.382   3.993  0.0569  0.1694  0.4001
 7831SOL    HW125810   0.320   0.446   4.016  0.9957  0.8586  1.2914
 7831SOL    HW225811   0.376   0.312   4.058  0.8553  0.7702  1.1984
 7832SOL     OW25812   7.785   6.754   7.087  0.5171  0.0925 -0.1761
 7832SOL    HW125813   7.813   6.737   7.177  1.8644 -0.5958 -0.6864
 7832SOL    HW225814   7.817   6.678   7.038 -1.3616 -0.2045 -1.0324
 7833SOL     OW25815   0.254   0.175   5.685 -0.1887  0.7394 -0.4948
 7833SOL    HW125816   0.172   0.221   5.667 -0.4298  1.4099  1.8790
 7833SOL    HW225817   0.229   0.084   5.697 -0.5776  0.9124  0.0417
 7834SOL     OW25818   4.080   3.895   1.756  0.8991 -0.2498  0.6424
 7834SOL    HW125819   4.053   3.857   1.673  4.0161 -2.7988  0.6465
 7834SOL    HW225820   4.017   3.861   1.820 -0.2273 -0.0015 -0.3095
 7835SOL     OW25821   0.974   5.354   1.081  0.6130 -0.0500  0.0510
 7835SOL    HW125822   0.946   5.393   0.999  0.5526 -0.0153  0.0878
 7835SOL    HW225823   0.921   5.275   1.090 -0.2316  0.5641  0.6348
 7836SOL     OW25824   2.251  10.565   3.032  0.3019 -0.7088 -0.1850
 7836SOL    HW125825   2.304  10.536   3.106  0.0334 -1.0259 -0.1153
 7836SOL    HW225826   2.313  10.608   2.974  0.2474  1.0098  0.9734
 7837SOL     OW25827   4.708   1.213   3.564  0.0423 -0.0346  0.6687
 7837SOL    HW125828   4.668   1.131   3.593  0.9925 -1.5288 -1.9192
 7837SOL    HW225829   4.799   1.191   3.545 -0.5519  0.4315 -3.8880
 7838SOL     OW25830   7.099   8.424   1.214  0.2392 -0.1603 -0.0361
 7838SOL    HW125831   7.085   8.416   1.120  0.2054 -0.8946  0.0262
 7838SOL    HW225832   7.147   8.345   1.238  0.4793  0.1513  0.5172
 7839SOL     OW25833   2.681   3.662   5.455  0.1210  0.1044  0.1823
 7839SOL    HW125834   2.696   3.605   5.380 -0.1960  1.1207 -0.6842
 7839SOL    HW225835   2.760   3.655   5.508  0.7712  0.1413 -0.7690
 7840SOL     OW25836   9.914   9.990   7.466 -0.5101  0.3958  0.6560
 7840SOL    HW125837   9.834   9.986   7.518 -1.1448 -0.6555 -0.3423
 7840SOL    HW225838   9.884   9.988   7.375  0.6045 -3.5234  0.1536
 7841SOL     OW25839   0.479   1.045   6.370  0.4209 -0.1130  0.4168
 7841SOL    HW125840   0.513   1.131   6.393  1.7540 -0.7302  0.8332
 7841SOL    HW225841   0.475   0.997   6.453 -0.6037 -0.3754  0.2386
 7842SOL     OW25842   3.698   9.257   9.024 -0.4438 -0.1441 -0.4153
 7842SOL    HW125843   3.669   9.348   9.025  2.1910  0.7718  0.3992
 7842SOL    HW225844   3.723   9.241   8.933  0.3943  0.4381 -0.3013
 7843SOL     OW25845   4.659   0.855   6.680 -0.0941 -0.5131  0.2215
 7843SOL    HW125846   4.642   0.922   6.613 -0.0236 -0.6815  0.0365
 7843SOL    HW225847   4.602   0.880   6.752  0.8093  0.4560  0.6390
 7844SOL     OW25848   0.355   1.192   8.232  0.2798 -0.3934 -0.7935
 7844SOL    HW125849   0.277   1.170   8.283 -1.3360 -1.2904 -3.4223
 7844SOL    HW225850   0.425   1.200   8.297 -1.6988 -0.9291  1.5566
 7845SOL     OW25851   9.262   7.049  10.335  0.2791 -0.2035 -0.2348
 7845SOL    HW125852   9.219   7.074  10.417  0.3733  0.8279 -0.4839
 7845SOL    HW225853   9.287   7.132  10.295  0.6330 -0.7148 -1.1002
 7846SOL     OW25854   0.120   1.775   9.794  0.1273 -0.5128 -0.1226
 7846SOL    HW125855   0.153   1.747   9.879  2.1613 -1.5383 -1.1730
 7846SOL    HW225856   0.133   1.699   9.737  0.2322  0.6327 -1.6925
 7847SOL     OW25857   0.720   2.180   5.678 -0.2108  0.1236 -0.0708
 7847SOL    HW125858   0.805   2.194   5.720 -0.2010  0.0367 -0.0625
 7847SOL    HW225859   0.739   2.179   5.584 -0.3230  0.9887 -0.1148
 7848SOL     OW25860   6.262  10.046   2.318  0.3351  0.1211  0.7326
 7848SOL    HW125861   6.275   9.963   2.364 -0.1007  0.5869  1.7157
 7848SOL    HW225862   6.341  10.097   2.338  1.4156 -0.6639 -1.2753
 7849SOL     OW25863   3.236  10.160   8.048 -0.1651  0.4714 -0.1993
 7849SOL    HW125864   3.153  10.125   8.079  0.5513 -0.7028  0.4746
 7849SOL    HW225865   3.240  10.134   7.956 -0.2609 -0.0271 -0.0641
 7850SOL     OW25866   0.170   4.857   7.053 -0.3974 -0.5702  0.0133
 7850SOL    HW125867   0.125   4.853   7.137 -1.5386  0.6928 -0.5117
 7850SOL    HW225868   0.126   4.927   7.005  1.9332  0.5327 -0.6444
 7851SOL     OW25869   7.806   1.017   7.958 -0.2432  0.2756 -0.2157
 7851SOL    HW125870   7.714   1.022   7.984 -0.6357 -2.3657 -0.8776
 7851SOL    HW225871   7.811   1.070   7.879 -0.6448  2.2798  1.0128
 7852SOL     OW25872   2.237   0.843   5.811 -0.7458 -0.7222 -0.0368
 7852SOL    HW125873   2.210   0.809   5.896 -0.9540 -0.2506  0.0882
 7852SOL    HW225874   2.325   0.809   5.798 -0.8632 -1.1228  0.1848
 7853SOL     OW25875   5.251   9.790   6.895 -0.3225  0.2634  0.0165
 7853SOL    HW125876   5.344   9.799   6.918 -0.5333  1.7500  0.3566
 7853SOL    HW225877   5.206   9.784   6.980 -0.6262  0.5720 -0.1212
 7854SOL     OW25878   8.988   3.942   1.682  0.0710 -0.2452 -0.2845
 7854SOL    HW125879   9.025   3.871   1.735 -0.6489 -0.4571 -0.0402
 7854SOL    HW225880   8.952   3.897   1.605  0.4920 -0.0228 -0.6106
 7855SOL     OW25881   1.686   5.016   7.175 -0.0444  0.2067  0.2241
 7855SOL    HW125882   1.651   4.951   7.236 -0.1648  0.1210  0.0643
 7855SOL    HW225883   1.781   5.000   7.174  0.1607  1.1252  1.4722
 7856SOL     OW25884   4.561   3.184   9.860  0.3371 -0.0439 -0.2894
 7856SOL    HW125885   4.567   3.091   9.838  0.1423  0.4034 -2.4606
 7856SOL    HW225886   4.602   3.191   9.947  1.7828 -1.9082 -0.7481
 7857SOL     OW25887   0.509   9.765   0.625  0.0762 -0.1618 -0.1244
 7857SOL    HW125888   0.449   9.817   0.572 -0.8725  2.1776  2.9384
 7857SOL    HW225889   0.453   9.700   0.668  0.0223  0.7056  1.1713
 7858SOL     OW25890   9.923   7.473  10.085  0.1510  0.1656  0.3929
 7858SOL    HW125891   9.836   7.492  10.120 -0.1942 -0.4814 -0.1006
 7858SOL    HW225892   9.955   7.400  10.139 -0.1533 -0.4632 -0.2632
 7859SOL     OW25893   6.829   7.773   5.072 -0.0047  0.2775 -0.1805
 7859SOL    HW125894   6.878   7.829   5.012 -0.7686  0.4166 -0.6860
 7859SOL    HW225895   6.861   7.797   5.159 -1.6915  2.9287 -0.1912
 7860SOL     OW25896   3.217   2.689   2.470 -0.1286  0.3604 -0.1751
 7860SOL    HW125897   3.171   2.606   2.484 -0.5615  0.6523  0.1684
 7860SOL    HW225898   3.270   2.674   2.392  0.1731 -0.3991  0.1606
 7861SOL     OW25899   9.989   8.114  10.468 -0.8005  0.3460 -0.3949
 7861SOL    HW125900   9.914   8.061  10.441  0.3817 -0.9777 -1.1362
 7861SOL    HW225901  10.005   8.089  10.559 -0.4091 -0.3888 -0.6622
 7862SOL     OW25902   6.734   5.610   1.246 -0.0889 -0.1479  0.6564
 7862SOL    HW125903   6.684   5.686   1.217 -0.6206 -0.6425  0.2511
 7862SOL    HW225904   6.819   5.645   1.271  0.4190  0.3275 -1.5018
 7863SOL     OW25905   9.452   2.662   1.420  0.0441  0.0136 -0.3851
 7863SOL    HW125906   9.439   2.568   1.423 -0.0827 -0.0409 -1.9123
 7863SOL    HW225907   9.367   2.699   1.448 -0.5065 -0.3415 -1.5355
 7864SOL     OW25908   6.649  10.041   6.016 -0.2524  0.5954  0.3190
 7864SOL    HW125909   6.736  10.003   6.030  0.1146  0.8901 -1.0283
 7864SOL    HW225910   6.609   9.984   5.950 -1.0343  0.5487  0.8288
 7865SOL     OW25911   1.406   4.987   7.442 -0.8633 -0.1219  0.3543
 7865SOL    HW125912   1.425   4.958   7.531 -3.1891 -1.1174  0.6064
 7865SOL    HW225913   1.461   4.933   7.386  0.8659  0.7425  1.1662
 7866SOL     OW25914   0.355   1.115   7.981 -0.4889 -0.6697 -0.1782
 7866SOL    HW125915   0.347   1.125   8.076 -0.5982 -0.3071 -0.2219
 7866SOL    HW225916   0.288   1.174   7.945 -0.3752 -0.7219 -0.4802
 7867SOL     OW25917  10.077  10.384   6.339  0.2042 -0.1394 -0.3116
 7867SOL    HW125918  10.110  10.294   6.348  0.0031 -0.2789 -0.8899
 7867SOL    HW225919  10.045  10.406   6.426 -0.7006 -1.0260 -0.3936
 7868SOL     OW25920   6.560   2.461   4.207  0.3147 -1.0786 -0.3891
 7868SOL    HW125921   6.614   2.435   4.132 -0.9642 -0.1085 -1.7040
 7868SOL    HW225922   6.477   2.415   4.194  0.0449 -0.8259  0.3979
 7869SOL     OW25923   4.177   7.218   8.838  0.4846  0.6808 -0.0927
 7869SOL    HW125924   4.151   7.140   8.887  0.1868  0.8299 -0.0145
 7869SOL    HW225925   4.121   7.288   8.871  1.1575  1.0624  0.2569
 7870SOL     OW25926   9.693   0.904   6.014 -0.6615 -0.2807  0.2140
 7870SOL    HW125927   9.736   0.988   6.002  2.3472 -1.7480 -0.2036
 7870SOL    HW225928   9.701   0.886   6.108  0.6664 -0.9929 -0.0062
 7871SOL     OW25929   7.171   0.192   8.362 -0.1385 -0.0490 -0.2398
 7871SOL    HW125930   7.154   0.250   8.436  1.2365  1.1056 -0.7695
 7871SOL    HW225931   7.249   0.143   8.388 -0.7099 -0.9611 -0.2072
 7872SOL     OW25932   0.515   2.737   7.481  0.0811  0.0532  0.0797
 7872SOL    HW125933   0.510   2.832   7.493 -0.6400  0.0044  0.1608
 7872SOL    HW225934   0.427   2.711   7.457 -0.3654 -0.9235  2.4940
 7873SOL     OW25935   3.273   2.785   7.126 -0.0597 -0.9052 -0.6779
 7873SOL    HW125936   3.178   2.785   7.130 -0.3398  4.3232 -0.3359
 7873SOL    HW225937   3.294   2.807   7.035  0.2609  3.6442  0.2366
 7874SOL     OW25938   4.064   5.444   5.234 -0.3272  0.1827  0.4536
 7874SOL    HW125939   4.056   5.411   5.144 -1.4723  2.2899 -0.2833
 7874SOL    HW225940   4.135   5.392   5.272 -0.4731 -1.4605 -1.3217
 7875SOL     OW25941   9.760   3.978   3.325  0.4435  0.3599 -1.0506
 7875SOL    HW125942   9.773   3.890   3.362 -1.1488  0.1607 -0.8662
 7875SOL    HW225943   9.846   4.019   3.329  0.7320 -0.3108  1.1900
 7876SOL     OW25944   1.036   2.088   9.163 -0.7904  0.1733 -0.3975
 7876SOL    HW125945   1.015   2.105   9.255  1.9654  1.0738  0.1447
 7876SOL    HW225946   1.059   2.174   9.127 -0.0574 -0.4317 -1.4383
 7877SOL     OW25947   1.073  10.109   0.740 -0.5640  0.1297  0.4148
 7877SOL    HW125948   0.988  10.077   0.769 -0.5361 -0.1335  0.2068
 7877SOL    HW225949   1.053  10.172   0.670 -0.5642 -0.3929 -0.0642
 7878SOL     OW25950   7.229   3.898  10.092 -0.4689 -0.4343 -0.5714
 7878SOL    HW125951   7.308   3.951  10.099 -0.7352 -0.1572  0.4209
 7878SOL    HW225952   7.159   3.960  10.073 -0.7195 -0.4728  0.2090
 7879SOL     OW25953   9.839   5.657   1.920  0.2330  0.2933 -0.4546
 7879SOL    HW125954   9.928   5.684   1.944  1.1584 -2.3293 -0.6091
 7879SOL    HW225955   9.783   5.722   1.961  2.1916  1.7346  0.1095
 7880SOL     OW25956   2.091   0.513   8.912 -0.7219  0.2201 -0.3172
 7880SOL    HW125957   2.125   0.595   8.948 -2.0192  0.2636  0.8967
 7880SOL    HW225958   2.038   0.540   8.837  1.7088  0.1540 -2.2189
 7881SOL     OW25959   8.073   0.961   8.999 -0.1639 -0.2615 -0.5893
 7881SOL    HW125960   8.009   0.950   9.070  0.0361  0.5871 -0.2716
 7881SOL    HW225961   8.051   1.046   8.960  0.6946 -0.0138 -0.5488
 7882SOL     OW25962   6.005   5.592   8.562 -0.0309 -0.3618  0.0542
 7882SOL    HW125963   5.946   5.550   8.625 -0.3313  1.9451  1.4235
 7882SOL    HW225964   6.003   5.535   8.486 -3.0779 -1.0360  0.5080
 7883SOL     OW25965   9.215   5.223   9.416  0.2514  0.3676  0.4220
 7883SOL    HW125966   9.226   5.178   9.333 -0.4834 -0.3817  0.7233
 7883SOL    HW225967   9.154   5.169   9.466  0.5538  0.8855  1.3921
 7884SOL     OW25968   1.065   0.147   7.104  0.3560 -0.2542 -0.2395
 7884SOL    HW125969   1.067   0.182   7.015 -2.8066 -0.1846 -0.3943
 7884SOL    HW225970   1.005   0.205   7.151 -0.5399 -2.1013  1.0154
 7885SOL     OW25971   8.963   5.424   6.889 -0.1669  0.1325 -0.4101
 7885SOL    HW125972   8.982   5.336   6.858 -1.3164  0.4535 -2.1838
 7885SOL    HW225973   9.045   5.455   6.927  1.3522 -0.4294 -2.9888
 7886SOL     OW25974   6.730   0.797   8.400 -0.2935  0.3474  0.1870
 7886SOL    HW125975   6.773   0.876   8.432  0.3568  0.4066 -0.8073
 7886SOL    HW225976   6.686   0.761   8.477 -0.0218  1.3011  0.7999
 7887SOL     OW25977   5.236   6.537   1.403  0.5788  0.1030 -0.5344
 7887SOL    HW125978   5.256   6.530   1.309  1.6981 -0.4776 -0.2704
 7887SOL    HW225979   5.321   6.546   1.445  0.0969  0.1960  0.4508
 7888SOL     OW25980   0.281   2.372   2.949  0.2538  0.3388  0.4509
 7888SOL    HW125981   0.305   2.440   3.013  0.6541  0.9116 -0.2934
 7888SOL    HW225982   0.302   2.410   2.864  1.4511 -1.0968  0.0517
 7889SOL     OW25983   4.367   0.452   4.610 -0.1436  0.3775  0.3747
 7889SOL    HW125984   4.421   0.478   4.685  0.3027 -1.1063  0.5914
 7889SOL    HW225985   4.410   0.493   4.535  0.7838 -0.0451  0.6570
 7890SOL     OW25986   4.158   7.902   1.499  0.1957  0.4090  0.0136
 7890SOL    HW125987   4.119   7.969   1.443  0.9320 -0.2306 -1.3257
 7890SOL    HW225988   4.155   7.939   1.587  1.0900  2.4459 -0.7565
 7891SOL     OW25989   6.974   3.648   7.123 -0.1588 -0.0776  0.3799
 7891SOL    HW125990   6.953   3.579   7.186  1.3438 -0.2026  0.7779
 7891SOL    HW225991   6.975   3.728   7.175  1.5522 -0.2423  0.6564
 7892SOL     OW25992   9.042   1.927   7.087 -0.1383  0.4275  0.9338
 7892SOL    HW125993   9.048   2.010   7.135  0.8634  0.7073  0.3552
 7892SOL    HW225994   9.040   1.860   7.155  2.3031  0.7523  1.4332
 7893SOL     OW25995   3.218   6.007   0.856  0.1197  0.0591  0.6129
 7893SOL    HW125996   3.163   5.945   0.904 -2.1976  0.7160 -0.9811
 7893SOL    HW225997   3.249   6.068   0.922 -0.5539 -0.7251  1.6887
 7894SOL     OW25998   0.785   6.497   2.902  0.8615 -0.3187  0.3147
 7894SOL    HW125999   0.748   6.555   2.836  2.8813  1.7449  0.8688
 7894SOL    HW226000   0.713   6.439   2.925  0.0868 -1.2472 -3.7121
 7895SOL     OW26001   8.254  10.148   6.276  0.3165 -0.5209 -0.2179
 7895SOL    HW126002   8.311  10.074   6.301 -0.9153 -0.7128  2.4041
 7895SOL    HW226003   8.250  10.202   6.355 -0.3276  1.3815 -1.4876
 7896SOL     OW26004   0.014   1.784  10.152  0.3214  0.0089 -0.4154
 7896SOL    HW126005  -0.080   1.773  10.137  0.3698  0.3382 -0.9940
 7896SOL    HW226006   0.022   1.800  10.246 -0.5105  3.0305 -0.7640
 7897SOL     OW26007   8.656   9.539   8.130 -0.0341  0.6235  0.8434
 7897SOL    HW126008   8.619   9.627   8.123 -0.4805  0.3036 -1.6365
 7897SOL    HW226009   8.583   9.481   8.112  0.6252 -0.1905  0.7571
 7898SOL     OW26010   2.883   2.691  10.120 -0.4047  0.4050  0.5448
 7898SOL    HW126011   2.812   2.714  10.179 -1.1010 -0.3259  0.0099
 7898SOL    HW226012   2.883   2.595  10.118  2.0189  0.2610  2.2539
 7899SOL     OW26013  10.557   7.347   2.093  0.2857  0.0883 -0.3203
 7899SOL    HW126014  10.487   7.406   2.117 -0.0882 -0.4326 -0.1084
 7899SOL    HW226015  10.620   7.353   2.165 -1.3562 -2.3163  1.4656
 7900SOL     OW26016   0.668   5.670  10.044 -0.1874 -0.4110  0.6862
 7900SOL    HW126017   0.617   5.737  10.090  0.3285 -0.5313  1.4588
 7900SOL    HW226018   0.755   5.709  10.034 -0.6060  0.1213 -1.3619
 7901SOL     OW26019   4.216   4.222   5.032 -0.8322 -0.2534 -0.1513
 7901SOL    HW126020   4.198   4.314   5.013 -1.2052 -0.2944 -0.0074
 7901SOL    HW226021   4.298   4.223   5.081 -1.1968  0.0691  0.4738
 7902SOL     OW26022   7.207   9.696   1.122  0.2710 -0.1447 -0.0231
 7902SOL    HW126023   7.275   9.676   1.186  1.1881  0.4404 -0.7713
 7902SOL    HW226024   7.155   9.616   1.116 -1.5332  0.5771  3.3774
 7903SOL     OW26025   6.841   2.939   4.110  0.2599  0.3318  0.1728
 7903SOL    HW126026   6.895   2.966   4.035 -0.9021  0.2670 -0.7265
 7903SOL    HW226027   6.842   2.843   4.106  0.1355  0.3298  0.1955
 7904SOL     OW26028   8.172   0.285   1.266  0.3372  0.0238 -0.0872
 7904SOL    HW126029   8.167   0.340   1.188  1.8258  0.0181 -0.2152
 7904SOL    HW226030   8.261   0.298   1.299  0.1760 -1.0361  0.8188
 7905SOL     OW26031   7.410   3.891   5.085 -0.2052 -0.2293 -0.2758
 7905SOL    HW126032   7.369   3.805   5.096 -0.7470  0.0959  0.3363
 7905SOL    HW226033   7.357   3.934   5.018 -0.0588 -0.2912 -0.4330
 7906SOL     OW26034   3.019   3.514   3.199  0.2314 -0.2637  0.4062
 7906SOL    HW126035   2.952   3.545   3.259 -0.0808 -0.5167  0.1892
 7906SOL    HW226036   3.059   3.593   3.163  0.1208 -0.1147  0.6143
 7907SOL     OW26037   3.340   2.486   5.177 -0.3246  0.3504  0.0717
 7907SOL    HW126038   3.421   2.435   5.171  0.0798  0.9621  0.2545
 7907SOL    HW226039   3.276   2.425   5.214  0.6876  0.5626  2.3111
 7908SOL     OW26040   1.984   2.053   4.312 -0.4223 -0.3846 -0.1234
 7908SOL    HW126041   2.046   1.982   4.294 -0.1838  0.2240 -1.8646
 7908SOL    HW226042   1.910   2.010   4.355  0.1056 -1.5417 -0.3267
 7909SOL     OW26043  10.318   3.128   9.345 -0.1040  0.9313  0.4954
 7909SOL    HW126044  10.263   3.054   9.371 -0.5964  0.7790 -0.9200
 7909SOL    HW226045  10.280   3.158   9.262  2.7020  0.0017 -1.2539
 7910SOL     OW26046   0.963   2.953   7.277  0.1560 -0.0836 -0.0095
 7910SOL    HW126047   0.974   2.875   7.222 -0.8260  0.9776 -1.8046
 7910SOL    HW226048   0.979   2.922   7.366  2.4721 -1.7327 -0.9170
 7911SOL     OW26049   0.188   0.441   2.957  1.0335 -0.3957 -0.6738
 7911SOL    HW126050   0.213   0.408   2.871  0.1268 -1.5807 -0.5021
 7911SOL    HW226051   0.271   0.468   2.998  1.7444 -1.8626 -1.0776
 7912SOL     OW26052   3.866   0.704   3.264 -0.6608 -0.5673 -0.7970
 7912SOL    HW126053   3.932   0.766   3.235 -1.3767  0.1251 -0.9713
 7912SOL    HW226054   3.810   0.690   3.187  0.0959 -2.2481 -1.0894
 7913SOL     OW26055  10.353   4.710   3.189  0.8243 -0.1888 -0.0787
 7913SOL    HW126056  10.343   4.761   3.108  2.6588 -1.9054 -1.5087
 7913SOL    HW226057  10.291   4.749   3.250 -0.3131  1.4873 -2.1631
 7914SOL     OW26058  10.562   1.262   9.018  0.3619  0.8691  0.3387
 7914SOL    HW126059  10.636   1.314   9.048 -0.3902  1.8895  0.4461
 7914SOL    HW226060  10.551   1.286   8.926 -0.6249  1.6950  0.6520
 7915SOL     OW26061  10.270   1.246   4.885  0.0256  0.2411  0.2328
 7915SOL    HW126062  10.350   1.260   4.836  0.3280 -0.0317  0.6445
 7915SOL    HW226063  10.209   1.209   4.822  0.3789 -0.0094  0.0371
 7916SOL     OW26064   4.787   4.930   0.452 -0.3967 -0.0528  0.6312
 7916SOL    HW126065   4.776   4.845   0.409 -1.7563  0.5053 -0.1723
 7916SOL    HW226066   4.852   4.914   0.520 -0.7899 -1.7903  0.6370
 7917SOL     OW26067   0.395   0.320  10.555  0.5404 -0.1275  0.0490
 7917SOL    HW126068   0.336   0.382  10.513  0.5016 -0.0840  0.1681
 7917SOL    HW226069   0.403   0.248  10.492  1.7824  0.6864 -0.7582
 7918SOL     OW26070   3.050   9.289   9.161  0.2374  0.1579 -0.0281
 7918SOL    HW126071   3.071   9.378   9.191  1.2219  0.3607 -1.2540
 7918SOL    HW226072   3.100   9.232   9.220  1.2141  0.5039 -0.5101
 7919SOL     OW26073   9.380   2.396   0.646  0.1034 -0.1846  0.7279
 7919SOL    HW126074   9.372   2.435   0.559  1.9817  1.0966  1.0540
 7919SOL    HW226075   9.383   2.471   0.705  2.2953 -0.8322  1.5374
 7920SOL     OW26076   2.999   7.906   3.944 -0.2354  0.2919 -0.0117
 7920SOL    HW126077   2.930   7.875   4.001  0.6561 -0.9706  0.4327
 7920SOL    HW226078   2.954   7.950   3.872 -1.3656  2.3372  1.8420
 7921SOL     OW26079   5.548   2.656   6.478 -0.2740 -0.3656 -0.0859
 7921SOL    HW126080   5.549   2.600   6.556 -0.7212  0.5870  0.6351
 7921SOL    HW226081   5.466   2.705   6.485  0.2569  0.6158 -0.5028
 7922SOL     OW26082   5.054   4.416   5.677  0.1412 -0.0793 -0.2243
 7922SOL    HW126083   5.007   4.489   5.717  0.5209 -0.2521  0.5500
 7922SOL    HW226084   4.995   4.385   5.608 -0.6759 -0.0087  0.4313
 7923SOL     OW26085   4.026   3.215   2.220  0.2539  0.0825 -0.8448
 7923SOL    HW126086   4.023   3.150   2.150  0.7339  1.1665 -1.9129
 7923SOL    HW226087   3.939   3.254   2.220  0.2911  0.1642 -0.9077
 7924SOL     OW26088   3.510   9.494   6.942  0.0684  1.2634 -0.2703
 7924SOL    HW126089   3.510   9.492   6.847 -1.0290  1.5689 -0.2878
 7924SOL    HW226090   3.546   9.580   6.964  1.5502  0.6953 -0.3673
 7925SOL     OW26091   3.926   9.786   9.814  0.2331 -0.5644 -0.1729
 7925SOL    HW126092   3.935   9.874   9.850  1.1539 -1.4665  1.9625
 7925SOL    HW226093   4.015   9.759   9.793 -0.1647 -0.5437 -2.0791
 7926SOL     OW26094   4.426   8.602   4.870 -0.1742  0.3114 -0.2230
 7926SOL    HW126095   4.491   8.545   4.829 -1.8332 -1.0103 -1.1351
 7926SOL    HW226096   4.426   8.576   4.962 -1.6380 -2.0656 -0.7804
 7927SOL     OW26097   5.971   9.592   5.539  0.0671  0.1690 -0.2712
 7927SOL    HW126098   6.031   9.556   5.474 -0.9522 -0.4113 -0.9146
 7927SOL    HW226099   5.930   9.666   5.495  1.7282  1.8595  0.8508
 7928SOL     OW26100   1.976   3.108   5.614 -0.1316 -0.2113 -0.0546
 7928SOL    HW126101   1.989   3.063   5.530 -2.7844 -0.4035 -0.4338
 7928SOL    HW226102   2.026   3.055   5.677  2.4350  0.2866 -1.5223
 7929SOL     OW26103   0.968   2.642   2.838  0.4429 -0.1603  0.1904
 7929SOL    HW126104   1.016   2.560   2.831 -1.0543 -1.1478  0.9775
 7929SOL    HW226105   0.908   2.642   2.763  1.8656  1.2615 -1.0319
 7930SOL     OW26106   9.053   9.074   7.046  0.7325 -0.0486 -0.2964
 7930SOL    HW126107   9.130   9.018   7.036  0.1898 -0.6930 -1.0797
 7930SOL    HW226108   8.986   9.032   6.990  0.1643  1.1125 -0.5138
 7931SOL     OW26109   0.582   6.616   3.666  0.2695 -0.4891 -0.8147
 7931SOL    HW126110   0.596   6.522   3.679  0.7321 -0.3718 -0.3947
 7931SOL    HW226111   0.669   6.650   3.646 -0.0105 -0.2505 -1.6369
 7932SOL     OW26112   3.679   9.360   8.266  0.6663 -0.5345 -0.1575
 7932SOL    HW126113   3.607   9.394   8.318  2.0898  1.9398  0.3353
 7932SOL    HW226114   3.693   9.271   8.299  0.7239  0.5202  2.8909
 7933SOL     OW26115   0.711   9.641   7.029  0.0765 -0.1067  0.5568
 7933SOL    HW126116   0.786   9.698   7.011  0.0607 -0.3611 -0.3822
 7933SOL    HW226117   0.693   9.599   6.945 -0.5605 -0.7194  0.9937
 7934SOL     OW26118   9.110   2.306   6.798  0.1330  1.0705 -0.0547
 7934SOL    HW126119   9.046   2.271   6.860  0.2498  0.7404 -0.1140
 7934SOL    HW226120   9.145   2.228   6.755 -0.2563  1.3232 -0.8406
 7935SOL     OW26121   0.380   5.532   6.329  0.3628 -0.6861 -0.0605
 7935SOL    HW126122   0.403   5.439   6.329  1.3163 -0.4663  0.4360
 7935SOL    HW226123   0.405   5.563   6.242 -1.5679 -1.2359 -0.8775
 7936SOL     OW26124   8.903   8.308   7.830 -0.0167 -0.3148 -0.4163
 7936SOL    HW126125   8.876   8.364   7.903  1.1232  1.4630 -1.3195
 7936SOL    HW226126   8.991   8.337   7.808 -0.2976 -0.8695 -2.4613
 7937SOL     OW26127   2.140   0.531   0.731 -0.5729  0.6445  0.5008
 7937SOL    HW126128   2.230   0.511   0.705 -1.1137 -1.7876  0.2402
 7937SOL    HW226129   2.088   0.516   0.652 -1.5175 -0.8959  1.3690
 7938SOL     OW26130   2.780   2.258   7.098  0.1317 -0.1136 -0.2719
 7938SOL    HW126131   2.725   2.334   7.117 -0.1394  0.0390 -1.5863
 7938SOL    HW226132   2.722   2.183   7.107  0.0774 -0.0652 -0.2242
 7939SOL     OW26133   9.334   7.028   3.519 -0.6379 -0.2421 -0.3813
 7939SOL    HW126134   9.283   7.071   3.588 -0.0854 -0.4456  0.1585
 7939SOL    HW226135   9.416   7.002   3.561 -0.4820 -0.7880 -0.9954
 7940SOL     OW26136   3.351   1.939   4.061  0.2212  0.2490 -0.5220
 7940SOL    HW126137   3.313   2.024   4.087  0.5077  0.0079  0.7836
 7940SOL    HW226138   3.414   1.920   4.131 -0.5825 -1.5253 -0.2382
 7941SOL     OW26139   3.930   1.501   0.329 -0.0275 -0.0478  0.0980
 7941SOL    HW126140   3.954   1.513   0.421 -0.2401 -0.1467  0.1664
 7941SOL    HW226141   3.905   1.409   0.323 -0.1844  0.0021 -0.0196
 7942SOL     OW26142   9.809   3.640   8.690 -0.5456  0.1695 -0.0607
 7942SOL    HW126143   9.789   3.548   8.671 -0.3467 -0.1974  1.4190
 7942SOL    HW226144   9.824   3.642   8.784  0.5984  1.5171 -0.2551
 7943SOL     OW26145   0.948   4.610   6.809 -0.1892 -0.3690  0.3505
 7943SOL    HW126146   0.859   4.646   6.808  0.8600  2.5565 -1.5165
 7943SOL    HW226147   0.976   4.613   6.718  2.1012 -0.4837  0.9834
 7944SOL     OW26148  10.107   0.327   3.836  0.4820 -0.4572 -0.1411
 7944SOL    HW126149  10.093   0.340   3.930  0.5747 -0.9458 -0.0580
 7944SOL    HW226150  10.199   0.299   3.829 -0.0618 -2.3589 -0.1772
 7945SOL     OW26151   3.127   2.348   1.965  0.3618  0.3777 -0.3812
 7945SOL    HW126152   3.059   2.414   1.969 -1.1920 -1.0014 -2.1568
 7945SOL    HW226153   3.094   2.275   2.018  0.8158  0.0022 -0.6021
 7946SOL     OW26154   7.992   9.307   0.882  0.5676  0.1958  0.3723
 7946SOL    HW126155   7.943   9.225   0.894 -0.9520  1.0516  0.2613
 7946SOL    HW226156   7.985   9.325   0.789  0.1189  0.9097  0.5395
 7947SOL     OW26157   5.058   5.794   7.552 -0.2722  0.7633  0.2861
 7947SOL    HW126158   4.999   5.723   7.527 -0.6153  0.7911  0.9917
 7947SOL    HW226159   5.051   5.798   7.647  1.7434  0.0083  0.5059
 7948SOL     OW26160   7.451   1.104   2.820  0.7655  0.0487 -0.4757
 7948SOL    HW126161   7.546   1.095   2.817  0.6811 -0.6203 -1.4703
 7948SOL    HW226162   7.429   1.097   2.913  1.5108 -1.8351 -0.3938
 7949SOL     OW26163   9.826   8.705   3.731  0.1149  0.1051 -0.7244
 7949SOL    HW126164   9.880   8.784   3.736 -0.6601  0.6453 -0.6571
 7949SOL    HW226165   9.887   8.633   3.744  0.6579  0.7474  0.4253
 7950SOL     OW26166   4.435   9.516   4.282 -0.6049 -0.2605 -0.2860
 7950SOL    HW126167   4.494   9.584   4.249 -1.2894  0.0245 -0.9537
 7950SOL    HW226168   4.455   9.439   4.229  0.4365 -0.7121  0.7248
 7951SOL     OW26169   8.358   9.367   5.721  0.5594  0.9165 -0.4257
 7951SOL    HW126170   8.363   9.418   5.640 -1.4415  2.4846  0.3449
 7951SOL    HW226171   8.429   9.401   5.775  1.6654  0.1251 -1.3432
 7952SOL     OW26172   4.040   2.913   9.193  0.0798 -0.3785  0.0582
 7952SOL    HW126173   3.967   2.872   9.238 -0.3506 -1.0208 -1.1640
 7952SOL    HW226174   4.118   2.879   9.236 -0.3131 -1.1624  0.1667
 7953SOL     OW26175   9.312   7.183   7.856 -0.0504 -0.3048 -0.7958
 7953SOL    HW126176   9.300   7.251   7.789 -0.3181 -0.2193 -0.6617
 7953SOL    HW226177   9.390   7.210   7.904 -0.6802  0.4043 -0.1490
 7954SOL     OW26178   4.436   6.285   7.373 -0.2508  0.3002 -0.2649
 7954SOL    HW126179   4.425   6.263   7.280  0.3972  1.1789 -0.5643
 7954SOL    HW226180   4.347   6.282   7.409 -0.5907  0.5531 -1.0540
 7955SOL     OW26181   6.659   1.975   0.421 -0.0895  0.1001  0.6021
 7955SOL    HW126182   6.674   1.946   0.511  0.2031 -0.1240  0.4832
 7955SOL    HW226183   6.695   1.905   0.367  1.0592  0.8709  0.3141
 7956SOL     OW26184   4.096   6.627   8.060 -0.4160 -0.1470  0.4347
 7956SOL    HW126185   4.131   6.544   8.094 -2.0346 -0.6507  0.9414
 7956SOL    HW226186   4.130   6.693   8.120 -0.2728 -0.6095  0.8737
 7957SOL     OW26187   5.459   6.386   2.749  0.2637  0.1715 -0.0113
 7957SOL    HW126188   5.371   6.362   2.777  0.8020  0.0758  1.6721
 7957SOL    HW226189   5.455   6.481   2.735 -0.5673 -0.0831 -1.8328
 7958SOL     OW26190   2.878   6.238   6.923  0.2073  0.2372 -0.0207
 7958SOL    HW126191   2.819   6.183   6.871 -1.7684  0.1557  2.1310
 7958SOL    HW226192   2.856   6.328   6.897  0.0860  0.1694 -0.1546
 7959SOL     OW26193   2.780   6.500   4.283  0.1743  0.3548 -0.0592
 7959SOL    HW126194   2.803   6.412   4.313 -1.2128  0.0665  0.2062
 7959SOL    HW226195   2.717   6.531   4.347  0.3796  1.4124 -0.3585
 7960SOL     OW26196   7.703   9.673   1.539  0.6547 -0.5925 -0.2818
 7960SOL    HW126197   7.694   9.693   1.632 -0.4553 -0.4256 -0.4139
 7960SOL    HW226198   7.709   9.577   1.536  0.7727 -0.5934 -0.0304
 7961SOL     OW26199   3.801   6.355   6.645  0.2278  0.5753  0.4159
 7961SOL    HW126200   3.895   6.337   6.649 -0.4561 -3.9621  2.3465
 7961SOL    HW226201   3.782   6.404   6.725  0.7204 -0.4699  1.2022
 7962SOL     OW26202   3.712   4.462   8.760 -0.3503 -0.2532  0.0243
 7962SOL    HW126203   3.801   4.496   8.746 -0.5649  1.2977  1.9920
 7962SOL    HW226204   3.691   4.418   8.678  1.8080  0.2951 -0.9186
 7963SOL     OW26205   9.193   9.891   1.902 -0.9869  0.1404 -0.2967
 7963SOL    HW126206   9.104   9.918   1.927 -1.1309 -1.3561  0.9945
 7963SOL    HW226207   9.188   9.795   1.899 -0.2336  0.0730 -3.5020
 7964SOL     OW26208   0.682   1.669  10.489  0.0227 -0.3086  0.2786
 7964SOL    HW126209   0.761   1.650  10.538  0.8857  2.4926  0.1710
 7964SOL    HW226210   0.712   1.706  10.406 -1.3532  0.4317  0.0606
 7965SOL     OW26211   8.471  10.315   5.203  0.4437  0.5561  0.6139
 7965SOL    HW126212   8.433  10.261   5.273 -0.1105  0.4323  0.2283
 7965SOL    HW226213   8.480  10.255   5.129 -2.7948  1.5089 -0.7607
 7966SOL     OW26214   5.646   9.813   4.892 -0.3345 -0.1117 -0.2280
 7966SOL    HW126215   5.628   9.719   4.902 -1.2654  0.1911  1.1411
 7966SOL    HW226216   5.633   9.850   4.979 -0.2427  1.3457 -0.8001
 7967SOL     OW26217   9.452   9.506   2.851  0.0813 -0.0766  0.9319
 7967SOL    HW126218   9.462   9.414   2.826 -0.4037  0.0139  0.3927
 7967SOL    HW226219   9.437   9.552   2.769 -3.0914  0.0371  1.4519
 7968SOL     OW26220   5.286   5.511   8.567  0.2516  0.4743 -0.4459
 7968SOL    HW126221   5.238   5.489   8.646  1.1477 -1.3382 -0.3576
 7968SOL    HW226222   5.354   5.573   8.597  0.0252  0.4947  0.0276
 7969SOL     OW26223   2.274   4.397   1.573 -0.0082  0.5774  0.2378
 7969SOL    HW126224   2.199   4.431   1.524 -0.3514 -0.6834 -0.1573
 7969SOL    HW226225   2.335   4.368   1.506 -0.3697 -0.9260  0.5080
 7970SOL     OW26226   6.396   2.037   2.403 -0.6961 -0.4314  0.4356
 7970SOL    HW126227   6.398   1.971   2.334 -0.8174  0.1576 -0.1401
 7970SOL    HW226228   6.471   2.015   2.459 -0.3099 -0.6328 -0.1520
 7971SOL     OW26229   4.304   6.923   1.829  0.6621 -0.1343 -0.0656
 7971SOL    HW126230   4.335   6.866   1.759  0.7516 -0.9105  0.5913
 7971SOL    HW226231   4.246   6.867   1.881 -1.3275  1.0651 -0.8591
 7972SOL     OW26232   5.562   3.518   6.028  0.1902  0.1825 -0.2779
 7972SOL    HW126233   5.476   3.560   6.025  0.9999  2.0770 -3.9440
 7972SOL    HW226234   5.568   3.471   5.944  1.4112 -3.0443  1.4605
 7973SOL     OW26235   9.835   4.897   6.918 -0.6518  0.3108  0.2694
 7973SOL    HW126236   9.762   4.911   6.857  0.3467  2.8686 -0.4619
 7973SOL    HW226237   9.810   4.819   6.967 -1.6022 -1.8041 -3.2209
 7974SOL     OW26238   0.067   0.279   3.247 -0.2597 -0.8034 -0.2173
 7974SOL    HW126239   0.017   0.200   3.264 -0.6225 -0.8665 -1.4507
 7974SOL    HW226240   0.130   0.253   3.179  1.7956 -0.8521  1.5864
 7975SOL     OW26241   2.741   5.163   7.058 -0.2736  0.1080 -0.2862
 7975SOL    HW126242   2.680   5.090   7.069  0.7754 -0.8335 -0.5672
 7975SOL    HW226243   2.788   5.144   6.977  1.1962  0.1959  0.5024
 7976SOL     OW26244   3.448   3.447   8.452  0.7001  0.3365  0.4328
 7976SOL    HW126245   3.473   3.539   8.458  1.3487  0.0995  1.9263
 7976SOL    HW226246   3.531   3.400   8.462 -0.0020 -0.4436  3.1946
 7977SOL     OW26247   1.519   5.423   9.780 -0.1381  0.1863  0.2677
 7977SOL    HW126248   1.451   5.445   9.844 -0.1442 -0.7030  0.5771
 7977SOL    HW226249   1.595   5.399   9.832 -0.3152 -1.0860 -0.0378
 7978SOL     OW26250   7.467   9.696   4.220  0.4952 -0.3953 -0.1938
 7978SOL    HW126251   7.517   9.776   4.204 -1.6032  1.0095 -0.1357
 7978SOL    HW226252   7.467   9.686   4.315  2.4396 -1.6730 -0.2672
 7979SOL     OW26253   4.967   3.369   7.977 -0.2208  0.1396 -0.1943
 7979SOL    HW126254   5.013   3.424   8.040  0.0411 -0.4927  0.1759
 7979SOL    HW226255   5.023   3.367   7.900  0.2759 -0.4475  0.1739
 7980SOL     OW26256   9.985   3.993   6.690 -0.4153  0.9411 -0.1371
 7980SOL    HW126257   9.959   3.914   6.737  0.8336  0.6074  0.0402
 7980SOL    HW226258   9.908   4.049   6.692 -0.6437  0.6209  1.6594
 7981SOL     OW26259   3.950   7.222  10.323  0.0185 -0.3397  0.3530
 7981SOL    HW126260   3.930   7.190  10.411 -0.2067 -0.1657  0.3680
 7981SOL    HW226261   3.994   7.149  10.280  1.2437 -0.0073  1.0065
 7982SOL     OW26262   3.878   5.030   3.016  0.2757  0.2258 -1.3651
 7982SOL    HW126263   3.810   5.078   2.970  2.1817  2.9517 -1.5377
 7982SOL    HW226264   3.838   5.008   3.101 -1.7007 -0.8027 -2.4887
 7983SOL     OW26265  10.516   4.602   5.965 -0.3724  0.3462  0.1256
 7983SOL    HW126266  10.581   4.569   6.027  0.0284  3.6690  1.7139
 7983SOL    HW226267  10.566   4.660   5.906 -1.5078  1.1615 -0.0747
 7984SOL     OW26268   6.079   3.606   8.701 -0.2415 -0.5559 -0.4844
 7984SOL    HW126269   6.012   3.614   8.633  0.0722 -0.8838 -0.8396
 7984SOL    HW226270   6.031   3.574   8.778 -0.8022  0.9338 -0.1865
 7985SOL     OW26271   0.091   5.935   6.168  0.0949 -0.3412  0.2717
 7985SOL    HW126272   0.006   5.976   6.151  0.0070 -0.4445  0.4656
 7985SOL    HW226273   0.086   5.907   6.259 -0.1081 -1.4156 -0.0572
 7986SOL     OW26274  10.463   9.600   3.231 -0.7415 -0.4576  0.1591
 7986SOL    HW126275  10.410   9.557   3.297 -1.4606  0.2870  0.0873
 7986SOL    HW226276  10.429   9.689   3.227 -0.1150 -0.2357 -0.5761
 7987SOL     OW26277   5.944   9.074   6.300  0.6737  0.4100 -0.0913
 7987SOL    HW126278   5.971   8.989   6.335 -2.7570 -0.6099  0.4684
 7987SOL    HW226279   5.926   9.057   6.208 -1.3596  0.0989  0.3277
 7988SOL     OW26280   2.057   4.431  10.571 -0.0626 -0.4343  0.8471
 7988SOL    HW126281   2.133   4.475  10.609  0.0304 -0.9765  1.3043
 7988SOL    HW226282   1.982   4.478  10.607  0.0498  0.0511  0.4580
 7989SOL     OW26283   4.904   3.154   3.595  0.5852 -0.6533 -0.4327
 7989SOL    HW126284   4.929   3.228   3.539  0.7564  0.2138  0.7402
 7989SOL    HW226285   4.851   3.194   3.664 -1.4984 -2.0195 -1.1545
 7990SOL     OW26286   0.798   6.699   6.361  0.0108  0.2259 -0.0194
 7990SOL    HW126287   0.881   6.654   6.346 -0.1227 -0.7464  1.8082
 7990SOL    HW226288   0.783   6.690   6.456 -2.5604 -0.3402 -0.4113
 7991SOL     OW26289   9.645   4.906   6.739 -0.0631  0.1963  0.1398
 7991SOL    HW126290   9.594   4.979   6.775  0.1745  0.3292  0.2055
 7991SOL    HW226291   9.580   4.836   6.727 -0.3106  0.4500 -0.0225
 7992SOL     OW26292   8.037   0.805   4.021  0.0010  0.2908 -0.1537
 7992SOL    HW126293   8.079   0.872   4.074  0.5199  0.7215 -1.0860
 7992SOL    HW226294   8.049   0.834   3.931 -1.1750 -0.2385 -0.5080
 7993SOL     OW26295   4.213   8.068   6.966  0.2458  0.0118  0.1401
 7993SOL    HW126296   4.224   8.057   7.060  0.8027 -2.0973 -0.1129
 7993SOL    HW226297   4.165   8.151   6.956 -0.3539 -0.0299  2.2823
 7994SOL     OW26298   5.658   0.593   6.866 -0.5684 -0.3918  0.2121
 7994SOL    HW126299   5.736   0.618   6.817 -0.2675  0.8414  1.2783
 7994SOL    HW226300   5.677   0.617   6.956 -1.8109 -0.9622  0.6533
 7995SOL     OW26301   9.644   6.446   7.801 -0.5372  0.5170 -0.3705
 7995SOL    HW126302   9.607   6.463   7.887 -1.1317  0.1213 -0.5418
 7995SOL    HW226303   9.729   6.489   7.802  0.4856 -1.3847  1.2103
 7996SOL     OW26304   4.148   2.040   6.170  0.0753  0.0819  0.3745
 7996SOL    HW126305   4.203   2.118   6.164  0.3014 -0.1181 -0.2773
 7996SOL    HW226306   4.088   2.059   6.242  1.4631 -0.0052  1.5981
 7997SOL     OW26307   3.152   4.335   8.330 -0.2817 -0.3472  0.1566
 7997SOL    HW126308   3.216   4.394   8.291 -0.2943 -0.3350  0.1544
 7997SOL    HW226309   3.165   4.252   8.284  0.8949 -0.8427  1.3210
 7998SOL     OW26310   0.978   8.843   4.951  0.3873 -0.3892 -0.2165
 7998SOL    HW126311   1.025   8.901   4.891 -0.3210 -0.9898 -1.4040
 7998SOL    HW226312   0.952   8.768   4.896 -2.5692  0.2310  0.1705
 7999SOL     OW26313   1.398   9.454   9.726 -0.5245  0.3394  0.8231
 7999SOL    HW126314   1.438   9.402   9.656 -0.3412  1.1245  0.3353
 7999SOL    HW226315   1.357   9.389   9.783 -2.1786 -0.2365 -0.9389
 8000SOL     OW26316   0.964   5.038   4.652  0.6708 -0.7788 -0.4262
 8000SOL    HW126317   1.010   5.070   4.730 -1.6328 -1.2978  1.2484
 8000SOL    HW226318   0.958   5.114   4.595  1.7009 -0.1669  0.2497
 8001SOL     OW26319   5.975   0.775   9.004  0.5634  0.1570 -0.0178
 8001SOL    HW126320   6.048   0.715   8.989  2.0362  1.6642  0.9188
 8001SOL    HW226321   5.962   0.819   8.920  1.7200  0.9471  0.2116
 8002SOL     OW26322   6.558   9.242   5.741  0.8094  0.1418 -0.3009
 8002SOL    HW126323   6.491   9.286   5.689  0.3205 -0.7787 -0.4599
 8002SOL    HW226324   6.537   9.149   5.735  1.3920 -0.0676  0.6363
 8003SOL     OW26325   8.199   4.647  10.474  0.1071  0.0024 -0.2772
 8003SOL    HW126326   8.261   4.716  10.498  0.0209 -0.0649  0.1384
 8003SOL    HW226327   8.237   4.607  10.396  0.7008 -0.1739  0.0955
 8004SOL     OW26328   2.891   9.590   7.418 -0.2913  0.5101  0.1748
 8004SOL    HW126329   2.876   9.507   7.465 -0.3499  1.8176  2.6508
 8004SOL    HW226330   2.971   9.574   7.369  2.3958  0.2081  4.1374
 8005SOL     OW26331   9.108   3.681   1.088 -0.3832  0.5687  0.2104
 8005SOL    HW126332   9.033   3.668   1.030 -0.4167 -0.2777  0.4265
 8005SOL    HW226333   9.149   3.761   1.057 -1.5914  1.2590  0.3177
 8006SOL     OW26334   4.002   0.915   0.596  0.1864 -0.1634  0.3176
 8006SOL    HW126335   3.945   0.857   0.646  0.9952  0.5848  2.2087
 8006SOL    HW226336   4.052   0.856   0.540 -0.9633 -1.0161  0.1524
 8007SOL     OW26337   7.218   9.221   8.200 -0.2643 -0.3987 -0.6379
 8007SOL    HW126338   7.189   9.131   8.211 -1.3610 -0.1274 -1.1946
 8007SOL    HW226339   7.213   9.237   8.106  1.6455 -0.2986 -0.7540
 8008SOL     OW26340   5.615   1.976   4.633 -0.1375  0.0537 -0.0127
 8008SOL    HW126341   5.629   1.992   4.726 -0.4190  0.6238 -0.0619
 8008SOL    HW226342   5.565   1.895   4.629 -1.5531  0.8628  0.4227
 8009SOL     OW26343   7.591   4.013   0.721 -0.0044  0.7606 -0.1553
 8009SOL    HW126344   7.574   4.106   0.735 -1.2950  0.4674  0.3029
 8009SOL    HW226345   7.527   3.968   0.776  1.4781 -0.4108  0.7199
 8010SOL     OW26346   6.351   9.164   7.551 -0.0765 -0.0472 -0.4075
 8010SOL    HW126347   6.373   9.082   7.506 -0.0639 -0.7905  0.8988
 8010SOL    HW226348   6.434   9.210   7.560 -0.3247  0.9749 -2.7105
 8011SOL     OW26349   3.327   8.824   7.337 -0.2642 -0.2915 -0.3873
 8011SOL    HW126350   3.331   8.752   7.399 -3.3116  0.5282  0.9360
 8011SOL    HW226351   3.301   8.900   7.390  1.7042  1.5767 -1.9082
 8012SOL     OW26352   7.644   1.874   4.359 -0.1063  0.3373 -0.3313
 8012SOL    HW126353   7.595   1.839   4.433 -0.8054  0.2388 -0.8211
 8012SOL    HW226354   7.650   1.968   4.377 -1.5410  0.5526 -0.8210
 8013SOL     OW26355   2.415   0.487   0.033  0.5089 -1.0061  0.0044
 8013SOL    HW126356   2.490   0.528   0.078 -0.3556 -0.1615  0.7152
 8013SOL    HW226357   2.363   0.449   0.104 -0.3076 -0.6142 -0.3764
 8014SOL     OW26358   2.453   6.302  10.521 -0.5903 -0.1695  0.0553
 8014SOL    HW126359   2.441   6.391  10.488 -0.2561  0.7353  2.2155
 8014SOL    HW226360   2.421   6.246  10.450  1.7912  1.5181 -2.5432
 8015SOL     OW26361   0.896   4.452   2.338 -0.2308  0.0211 -0.0281
 8015SOL    HW126362   0.821   4.512   2.328 -0.4435  0.1127  1.7902
 8015SOL    HW226363   0.973   4.509   2.333 -0.3930  0.3031  0.5139
 8016SOL     OW26364   8.598   0.518   6.733 -0.0214 -0.2023 -0.0003
 8016SOL    HW126365   8.670   0.579   6.718 -1.5743  1.8605  0.3245
 8016SOL    HW226366   8.620   0.473   6.815  1.6069 -0.7949 -0.7346
 8017SOL     OW26367   8.493   3.967   4.234  0.2325 -0.1135  0.0886
 8017SOL    HW126368   8.582   3.932   4.227  0.5879  0.7393  0.1861
 8017SOL    HW226369   8.464   3.979   4.144  1.2193  2.0287  0.0007
 8018SOL     OW26370   7.884   2.630   1.580  0.1761  0.2510  0.1225
 8018SOL    HW126371   7.822   2.703   1.570 -2.3345 -1.6943  0.6102
 8018SOL    HW226372   7.898   2.598   1.491 -0.7254 -0.2119  0.1377
 8019SOL     OW26373   1.656   3.880   0.036 -0.0191  0.0858  0.0932
 8019SOL    HW126374   1.567   3.884   0.002 -0.4862 -3.4955  0.4951
 8019SOL    HW226375   1.708   3.843  -0.036 -0.0948 -3.1468  1.5323
 8020SOL     OW26376  10.254   8.153   5.857  0.3037  0.3780  0.4184
 8020SOL    HW126377  10.185   8.097   5.821  0.6552 -0.9843  1.7707
 8020SOL    HW226378  10.240   8.238   5.815 -2.0699  0.0956  0.5268
 8021SOL     OW26379   3.005   4.066   7.901 -0.2064  0.2344  0.2058
 8021SOL    HW126380   3.076   4.100   7.847 -0.9543  0.3671 -0.7145
 8021SOL    HW226381   2.929   4.121   7.880 -1.6399 -2.2595 -1.8284
 8022SOL     OW26382   4.493   5.166   3.183  0.2422 -0.1525  0.4727
 8022SOL    HW126383   4.417   5.165   3.242 -1.7049 -0.6601 -1.9038
 8022SOL    HW226384   4.517   5.074   3.174 -1.0569 -0.3578 -1.3695
 8023SOL     OW26385   3.634   8.178   1.854 -0.0333 -0.6502 -0.4400
 8023SOL    HW126386   3.574   8.221   1.915 -1.0316 -0.6947 -1.3658
 8023SOL    HW226387   3.677   8.111   1.908 -0.5412 -0.3789  0.3300
 8024SOL     OW26388   7.638   1.081   8.381  0.0525  0.6038 -0.1795
 8024SOL    HW126389   7.652   1.030   8.460 -0.1909  1.2153  0.2637
 8024SOL    HW226390   7.644   1.017   8.310 -0.0378 -0.0002  0.3478
 8025SOL     OW26391   8.605   9.739   4.874  0.1003 -0.0167  0.1570
 8025SOL    HW126392   8.511   9.754   4.883  0.1974  0.4075  0.5001
 8025SOL    HW226393   8.643   9.827   4.876  0.2616  0.1057 -3.0144
 8026SOL     OW26394   2.133   6.054   4.568 -0.1744  0.0452  0.5603
 8026SOL    HW126395   2.046   6.083   4.595 -0.8100 -0.6244 -0.6591
 8026SOL    HW226396   2.152   6.106   4.489 -0.8664 -2.0012 -1.0243
 8027SOL     OW26397   7.746   2.941   0.350  0.7897 -0.6749 -0.6456
 8027SOL    HW126398   7.831   2.986   0.345  1.3182 -1.5384  0.2235
 8027SOL    HW226399   7.713   2.963   0.437 -1.0144  1.5781 -1.8034
 8028SOL     OW26400   2.758   6.658   5.724 -0.2440 -0.0561 -0.4256
 8028SOL    HW126401   2.709   6.720   5.778 -0.8663 -2.8682  2.5938
 8028SOL    HW226402   2.841   6.646   5.772 -0.1363 -1.4748 -0.9422
 8029SOL     OW26403   4.745   4.184   9.027 -0.1682 -0.0025 -0.0685
 8029SOL    HW126404   4.760   4.124   8.954  0.2305  0.1471 -0.1095
 8029SOL    HW226405   4.655   4.215   9.015  0.3449  1.0999 -1.2939
 8030SOL     OW26406   1.956   5.202   9.521 -0.2625 -0.3612  0.2408
 8030SOL    HW126407   1.953   5.280   9.576 -0.7168 -0.7358  0.7618
 8030SOL    HW226408   1.868   5.165   9.527 -0.1388 -0.7408 -0.2518
 8031SOL     OW26409   0.152   2.094   2.694 -0.5883  0.6027 -0.1330
 8031SOL    HW126410   0.092   2.029   2.731 -0.3621  0.7653  0.5409
 8031SOL    HW226411   0.226   2.095   2.755 -0.6336  1.5601 -0.0803
 8032SOL     OW26412   0.623  10.541   5.447  0.4395  0.3886 -0.1383
 8032SOL    HW126413   0.545  10.596   5.459  0.8658  0.5589  2.3091
 8032SOL    HW226414   0.676  10.589   5.383 -0.3032  1.6049  0.1194
 8033SOL     OW26415   4.155   1.179   5.458  0.5253  0.6013 -0.0550
 8033SOL    HW126416   4.111   1.262   5.440  1.1730  0.8673 -0.4556
 8033SOL    HW226417   4.112   1.116   5.400 -0.0938  0.6098  0.3823
 8034SOL     OW26418   5.416   2.564   1.670 -0.4097  0.0604  0.1569
 8034SOL    HW126419   5.353   2.547   1.601 -0.4837 -1.1270  0.4960
 8034SOL    HW226420   5.448   2.477   1.696  1.9204  0.6506 -0.5111
 8035SOL     OW26421   5.176   3.226   6.188  0.2360 -0.7330  0.3481
 8035SOL    HW126422   5.217   3.220   6.274  1.2626  0.1049 -0.0630
 8035SOL    HW226423   5.137   3.313   6.185 -0.0101 -0.8490  0.0516
 8036SOL     OW26424   2.772   8.282   9.151  0.1313  0.2274  0.1815
 8036SOL    HW126425   2.850   8.250   9.196  0.6638  0.9717 -0.1851
 8036SOL    HW226426   2.768   8.230   9.071  0.4973  0.4641  0.0037
 8037SOL     OW26427   9.975   1.273   3.060  0.3216  0.0496 -0.1986
 8037SOL    HW126428   9.967   1.196   3.117  1.2639  0.4882  0.5589
 8037SOL    HW226429  10.070   1.288   3.053  0.1865  0.5720 -1.1263
 8038SOL     OW26430   0.832   9.712   8.831 -0.4162  0.0678 -0.2639
 8038SOL    HW126431   0.815   9.806   8.843  0.4065  0.2038 -0.1202
 8038SOL    HW226432   0.889   9.708   8.755 -1.4652 -0.4229 -1.0604
 8039SOL     OW26433   5.709   5.079   3.033  0.0254 -0.2941  0.3198
 8039SOL    HW126434   5.632   5.065   3.088 -0.0722  0.7625  0.4603
 8039SOL    HW226435   5.780   5.096   3.095  0.4758 -1.6541  0.2079
 8040SOL     OW26436   1.841   9.784   5.697  0.4454  0.1671  0.1706
 8040SOL    HW126437   1.882   9.834   5.767  2.6721  0.7972 -1.4609
 8040SOL    HW226438   1.778   9.844   5.658 -0.3587  0.0212  1.2244
 8041SOL     OW26439   9.458   2.272   1.657  0.4552  0.1917 -0.2029
 8041SOL    HW126440   9.453   2.359   1.696 -2.7897 -0.0766  0.3174
 8041SOL    HW226441   9.409   2.216   1.718 -0.7479 -1.1705 -2.2918
 8042SOL     OW26442   9.197   6.158   0.671  0.5441 -0.6710  0.3213
 8042SOL    HW126443   9.161   6.075   0.639 -1.8136  0.2666  0.3383
 8042SOL    HW226444   9.156   6.170   0.757  0.8734  0.4879  0.3340
 8043SOL     OW26445   9.915   4.258   3.191  0.0534 -0.6655 -0.1939
 8043SOL    HW126446   9.950   4.178   3.229  0.4702  0.4350  1.8501
 8043SOL    HW226447   9.975   4.327   3.218 -0.7128  0.4818 -1.2603
 8044SOL     OW26448  10.283   8.134  10.368 -0.1559 -0.1514  0.5888
 8044SOL    HW126449  10.196   8.124  10.406  0.0786  1.9073  1.7722
 8044SOL    HW226450  10.285   8.223  10.334  1.0573 -0.6097 -0.6658
 8045SOL     OW26451   5.588   2.146   9.631  0.0934 -0.4696 -0.1478
 8045SOL    HW126452   5.663   2.124   9.576  0.2230 -0.1384 -0.1082
 8045SOL    HW226453   5.606   2.235   9.660 -0.8593  0.0444 -1.0705
 8046SOL     OW26454   6.206   5.285   7.820 -0.1939 -0.2697  0.0646
 8046SOL    HW126455   6.179   5.259   7.732 -0.0758 -0.8938  0.2052
 8046SOL    HW226456   6.222   5.379   7.813  0.9661 -0.5037 -0.8803
 8047SOL     OW26457   9.284   5.374   6.519 -0.4688  0.2975  0.0245
 8047SOL    HW126458   9.292   5.292   6.567 -0.9944 -0.2762 -0.8268
 8047SOL    HW226459   9.240   5.434   6.580 -0.4537 -0.1842  0.5108
 8048SOL     OW26460   3.772   8.540   6.536  0.3869 -0.1869  0.1345
 8048SOL    HW126461   3.818   8.602   6.592  2.1856 -0.7205 -0.6986
 8048SOL    HW226462   3.720   8.595   6.477  2.5820  0.6271 -1.1442
 8049SOL     OW26463   9.749   0.434   4.554 -0.2079 -0.8278  0.2027
 8049SOL    HW126464   9.788   0.448   4.468 -0.5487  2.1140  0.4360
 8049SOL    HW226465   9.815   0.384   4.602 -0.7569 -4.1862 -2.2076
 8050SOL     OW26466   1.660   1.535   8.350  0.2096 -0.1717 -0.1715
 8050SOL    HW126467   1.631   1.556   8.261 -0.2103 -0.4757 -0.1135
 8050SOL    HW226468   1.722   1.604   8.372 -1.1169  1.0179  0.0142
 8051SOL     OW26469   3.144   9.481   0.388 -0.2646  0.1539  0.1527
 8051SOL    HW126470   3.156   9.543   0.316  1.2299 -0.8706 -0.5435
 8051SOL    HW226471   3.056   9.445   0.375  0.3254 -0.7287 -1.7873
 8052SOL     OW26472   5.149   7.455   5.429  0.9283  0.4154 -0.3518
 8052SOL    HW126473   5.188   7.518   5.368  0.2070  0.6233 -0.6051
 8052SOL    HW226474   5.218   7.390   5.442  1.0399  0.2614 -1.5369
 8053SOL     OW26475  10.258   5.063   9.051 -0.3133 -0.6298 -0.2215
 8053SOL    HW126476  10.310   4.987   9.023  0.8261 -0.4583  1.2959
 8053SOL    HW226477  10.226   5.038   9.138 -0.6900  0.2737 -0.0986
 8054SOL     OW26478   5.255   1.297   1.793 -0.6137  0.0612 -0.2617
 8054SOL    HW126479   5.163   1.282   1.813 -0.4127 -2.3131 -0.8168
 8054SOL    HW226480   5.256   1.322   1.701 -0.5342 -3.9176 -1.5152
 8055SOL     OW26481   3.130  10.136   6.311  0.1186  0.1177 -0.1845
 8055SOL    HW126482   3.041  10.167   6.296  0.0649 -0.2484 -0.6408
 8055SOL    HW226483   3.156  10.097   6.227  1.1594  1.3296 -0.4568
 8056SOL     OW26484   6.662   4.678   0.763 -0.2466 -0.3830  0.0046
 8056SOL    HW126485   6.596   4.737   0.798  1.2728  0.4792  1.5683
 8056SOL    HW226486   6.689   4.718   0.680  0.3890  0.8728  0.7958
 8057SOL     OW26487   5.602   4.869   7.991  0.1500  0.0214  0.7696
 8057SOL    HW126488   5.540   4.807   8.028  0.0149 -0.8193 -0.7611
 8057SOL    HW226489   5.688   4.831   8.010  0.2113  0.9140  2.4221
 8058SOL     OW26490   4.948   3.488   1.156 -0.1658  0.5299  0.9328
 8058SOL    HW126491   5.012   3.423   1.125 -0.9183 -0.2047  0.8988
 8058SOL    HW226492   4.939   3.470   1.249 -1.3083 -0.2703  0.6989
 8059SOL     OW26493   6.878   4.069   2.899  0.1412 -0.0758 -0.4369
 8059SOL    HW126494   6.783   4.058   2.887  0.2548 -0.5807 -0.9300
 8059SOL    HW226495   6.889   4.075   2.994 -0.3506 -0.3905 -0.3544
 8060SOL     OW26496   0.836   9.436   5.865 -0.6649  0.0984  0.0566
 8060SOL    HW126497   0.919   9.476   5.889 -0.3105  0.6777 -1.9918
 8060SOL    HW226498   0.773   9.471   5.928 -0.0206  2.5110 -0.5656
 8061SOL     OW26499   9.376   3.666   4.295 -0.0270  0.3332 -0.5101
 8061SOL    HW126500   9.443   3.597   4.300  0.8069  1.0858 -1.1515
 8061SOL    HW226501   9.368   3.697   4.385  0.3226  0.0807 -0.3877
 8062SOL     OW26502   0.512   3.567   9.483  0.0955 -0.6348  0.3291
 8062SOL    HW126503   0.457   3.577   9.561  0.1878  1.9912  0.1561
 8062SOL    HW226504   0.599   3.594   9.512  0.1812  0.1279 -0.6134
 8063SOL     OW26505  10.188   2.994   5.815 -0.0144 -0.1522 -0.3293
 8063SOL    HW126506  10.137   3.018   5.738  1.5553  1.9944 -0.8084
 8063SOL    HW226507  10.123   2.966   5.880 -1.5174 -0.1757 -1.7824
 8064SOL     OW26508   4.107   0.167   5.527 -0.3886 -0.0164 -0.4769
 8064SOL    HW126509   4.111   0.073   5.546 -0.8063  0.1502  0.5285
 8064SOL    HW226510   4.064   0.172   5.441 -1.5889 -0.7095  0.0463
 8065SOL     OW26511   2.357   6.614   3.838 -0.2813  0.9944  0.1011
 8065SOL    HW126512   2.378   6.521   3.838  0.1226  1.0546 -1.4910
 8065SOL    HW226513   2.275   6.620   3.886 -1.9187 -0.6282 -2.2666
 8066SOL     OW26514   3.850   7.383   2.469  0.1024  0.3305  0.1270
 8066SOL    HW126515   3.788   7.455   2.483 -2.2282 -1.7050  0.9359
 8066SOL    HW226516   3.808   7.329   2.402  1.2297 -0.8748  0.3702
 8067SOL     OW26517   7.886   7.804   6.200 -0.1614  0.6343 -0.0363
 8067SOL    HW126518   7.842   7.863   6.139 -1.3508 -0.1331  0.0450
 8067SOL    HW226519   7.978   7.809   6.176 -0.6971 -0.4537 -2.6445
 8068SOL     OW26520   6.305   0.607   6.642  0.2961 -0.0606  0.3799
 8068SOL    HW126521   6.365   0.669   6.601  0.7550  0.9223  2.4393
 8068SOL    HW226522   6.218   0.645   6.629  0.5279  0.7723  1.1448
 8069SOL     OW26523   6.674   9.733   7.473 -0.1084  0.3503 -0.0204
 8069SOL    HW126524   6.578   9.739   7.468 -0.3594 -1.1346  1.6601
 8069SOL    HW226525   6.691   9.712   7.565  1.7580 -0.5299 -0.5298
 8070SOL     OW26526   9.997   2.250   8.858  0.2130  0.1049  0.3536
 8070SOL    HW126527   9.994   2.195   8.780  0.9477  0.9294 -0.2906
 8070SOL    HW226528  10.052   2.202   8.920  1.1649  0.2521 -0.3404
 8071SOL     OW26529   7.712   5.459   9.406 -0.5463 -0.2739  0.2445
 8071SOL    HW126530   7.761   5.486   9.483 -0.9474  4.4192 -0.8324
 8071SOL    HW226531   7.620   5.476   9.429 -0.9298 -1.2229 -0.4840
 8072SOL     OW26532   6.047  10.366   4.499  0.6280 -0.2005  0.0447
 8072SOL    HW126533   6.020  10.456   4.519 -1.5383 -0.2441 -2.1667
 8072SOL    HW226534   6.069  10.368   4.406 -0.3270 -2.1216 -0.2638
 8073SOL     OW26535   0.891   4.120  10.597 -0.1953 -0.0076 -0.4064
 8073SOL    HW126536   0.855   4.033  10.581 -0.7015  0.2728 -0.8261
 8073SOL    HW226537   0.890   4.162  10.511  0.7568  0.1542 -0.3495
 8074SOL     OW26538   6.976   5.028   9.871 -0.5136  0.3985 -0.0584
 8074SOL    HW126539   7.055   5.071   9.837  0.6111 -0.9871  0.6890
 8074SOL    HW226540   6.999   4.935   9.876 -2.2665 -0.0693  0.0238
 8075SOL     OW26541   4.691   7.501   2.086  0.6343 -0.6086  0.2834
 8075SOL    HW126542   4.780   7.507   2.051  0.5102 -1.6733 -0.2625
 8075SOL    HW226543   4.662   7.592   2.094  1.6659 -0.2630  0.1893
 8076SOL     OW26544   8.401   1.576   5.710  0.2264 -0.3213 -0.0247
 8076SOL    HW126545   8.463   1.504   5.703 -0.1350 -0.7266  0.8127
 8076SOL    HW226546   8.347   1.554   5.786 -0.4376  0.4096 -0.2703
 8077SOL     OW26547   1.443   6.889   1.074 -0.1614  0.2099  0.5952
 8077SOL    HW126548   1.478   6.835   1.145  0.8047 -0.0592 -0.0673
 8077SOL    HW226549   1.510   6.885   1.005 -0.0898  2.1789  0.4940
 8078SOL     OW26550   0.799   5.314   6.568  0.4440  0.2526  0.4471
 8078SOL    HW126551   0.832   5.371   6.498 -0.4495 -1.2337 -1.2821
 8078SOL    HW226552   0.748   5.373   6.624 -1.2787  1.1132 -1.8217
 8079SOL     OW26553   8.055   2.730   9.744 -0.7570 -0.0394 -0.0945
 8079SOL    HW126554   8.069   2.650   9.794  1.3109  0.3767  0.0579
 8079SOL    HW226555   7.990   2.779   9.795 -0.2992 -0.5909  1.0336
 8080SOL     OW26556   3.420   6.744   7.543 -0.4165 -0.2933 -0.4939
 8080SOL    HW126557   3.500   6.749   7.595 -1.1460 -0.2970  0.6564
 8080SOL    HW226558   3.355   6.707   7.602 -1.2479 -0.3848 -1.4444
 8081SOL     OW26559   4.822  10.093  10.536 -0.7718  0.0003 -1.2398
 8081SOL    HW126560   4.825  10.069  10.444  1.8467  2.2292 -1.8619
 8081SOL    HW226561   4.741  10.142  10.546  0.0457  1.8261 -3.0042
 8082SOL     OW26562   7.880   4.133   0.066  0.1627  0.1611 -0.2645
 8082SOL    HW126563   7.848   4.044   0.083 -0.3496  0.5562  0.9303
 8082SOL    HW226564   7.860   4.148  -0.027  1.3271 -1.3890 -0.8169
 8083SOL     OW26565  10.523   0.259   9.959 -0.2671 -0.3579  0.5361
 8083SOL    HW126566  10.434   0.226   9.964 -1.0054  1.6285  1.4360
 8083SOL    HW226567  10.524   0.316   9.882 -0.3207  0.9791  1.4717
 8084SOL     OW26568   6.179   0.995   7.329 -0.0531  0.1512  0.1882
 8084SOL    HW126569   6.231   0.915   7.322 -0.0760  0.1765 -0.3189
 8084SOL    HW226570   6.135   0.988   7.414  0.9146  0.2179  0.7052
 8085SOL     OW26571   4.351   4.734   6.358 -0.2953 -0.2832  0.1393
 8085SOL    HW126572   4.327   4.826   6.356 -1.4481 -0.5481 -2.4045
 8085SOL    HW226573   4.447   4.734   6.353 -0.2750  0.7638  0.2924
 8086SOL     OW26574   8.710   6.814   9.499 -0.2025  0.3091 -0.4148
 8086SOL    HW126575   8.652   6.832   9.573 -0.3993 -0.2622 -0.4194
 8086SOL    HW226576   8.761   6.894   9.488 -0.4107  0.5234  0.1214
 8087SOL     OW26577   3.596   5.246   5.018 -0.0186  0.1081  0.3943
 8087SOL    HW126578   3.591   5.233   5.112 -3.2782  0.0699  0.2984
 8087SOL    HW226579   3.546   5.173   4.981 -1.8036  1.9931 -1.1305
 8088SOL     OW26580   9.740   8.897   5.955  0.0620 -0.1823 -0.4221
 8088SOL    HW126581   9.716   8.832   5.889  1.0847  1.6126 -2.6603
 8088SOL    HW226582   9.660   8.911   6.005 -0.2663 -2.9262  0.0061
 8089SOL     OW26583   6.553   3.742   4.287  0.5838  0.0020 -0.3534
 8089SOL    HW126584   6.620   3.810   4.279 -1.0683  1.7086 -0.3937
 8089SOL    HW226585   6.561   3.712   4.378  0.7151  0.9400 -0.0404
 8090SOL     OW26586   3.444  10.264   4.119  0.1971 -0.2031  0.5702
 8090SOL    HW126587   3.468  10.194   4.180 -0.3957 -0.7889  0.1454
 8090SOL    HW226588   3.383  10.319   4.167 -0.8708 -1.0930  0.2800
 8091SOL     OW26589   7.496   9.752   6.252 -0.4341 -0.5332 -0.5033
 8091SOL    HW126590   7.415   9.702   6.247 -1.0177 -0.2488  3.4472
 8091SOL    HW226591   7.471   9.836   6.289  1.5914 -0.2582  0.3641
 8092SOL     OW26592   5.171   9.174   1.092 -0.3283 -0.0036  0.1206
 8092SOL    HW126593   5.158   9.267   1.112 -1.7463 -0.2809  0.5907
 8092SOL    HW226594   5.254   9.153   1.134 -0.2926  0.9039  0.5406
 8093SOL     OW26595   5.710   1.057   4.135 -0.7055 -0.4327 -0.3978
 8093SOL    HW126596   5.701   1.136   4.188 -0.6721 -1.2313  0.8445
 8093SOL    HW226597   5.791   1.017   4.166 -1.2697 -1.4949 -0.2644
 8094SOL     OW26598   4.925   4.655   4.735 -0.2763 -0.4699  0.5888
 8094SOL    HW126599   4.999   4.650   4.795 -0.2154 -0.1994  0.5392
 8094SOL    HW226600   4.848   4.637   4.789 -0.2783  0.3496  0.8729
 8095SOL     OW26601   8.123   0.018   3.981  0.6250 -0.1069 -0.2385
 8095SOL    HW126602   8.181   0.092   3.993 -1.7205  1.6590  0.9884
 8095SOL    HW226603   8.152  -0.046   4.046  1.6768  0.3999 -0.1953
 8096SOL     OW26604   5.916   0.883   8.743 -0.0546  0.8086 -0.0672
 8096SOL    HW126605   5.972   0.905   8.669 -0.5166  1.3390 -0.2667
 8096SOL    HW226606   5.860   0.959   8.755 -0.2615  0.5701  0.5759
 8097SOL     OW26607   5.917   6.170   0.197 -0.3629  0.6350 -0.3606
 8097SOL    HW126608   5.948   6.243   0.251  0.7648 -1.0029  1.3132
 8097SOL    HW226609   5.996   6.126   0.167 -1.0240 -0.5774 -0.3794
 8098SOL     OW26610   3.029   7.938   8.800  0.4315 -0.0117 -0.0749
 8098SOL    HW126611   3.094   7.955   8.868  1.0583 -0.8448 -0.4440
 8098SOL    HW226612   3.034   7.844   8.784 -0.0828  0.0818 -0.8931
 8099SOL     OW26613   2.054   1.810   4.502 -0.4737 -0.1677 -0.0386
 8099SOL    HW126614   2.032   1.805   4.595 -0.6577 -0.7612 -0.1114
 8099SOL    HW226615   2.125   1.746   4.491 -0.6535 -0.3161 -0.3592
 8100SOL     OW26616   8.989   2.594   4.914 -0.6582  0.9675 -0.2349
 8100SOL    HW126617   8.968   2.658   4.846 -0.4885  2.4779  1.0698
 8100SOL    HW226618   9.064   2.632   4.960  0.3472 -0.8584 -0.2637
 8101SOL     OW26619   0.553   5.817   7.201 -0.9918  0.0491 -0.1578
 8101SOL    HW126620   0.530   5.905   7.172 -1.2532  0.0195 -0.0394
 8101SOL    HW226621   0.570   5.769   7.119 -1.6346 -0.0084 -0.2651
 8102SOL     OW26622   8.368   5.759   8.293 -0.0434 -0.3867  0.1988
 8102SOL    HW126623   8.323   5.742   8.376 -2.5958  0.3012 -0.9225
 8102SOL    HW226624   8.432   5.827   8.314 -0.0173 -0.8481  1.7607
 8103SOL     OW26625   1.860   9.636   5.204  0.3117 -0.3470 -0.2842
 8103SOL    HW126626   1.828   9.575   5.270  0.9642 -0.3103  0.0738
 8103SOL    HW226627   1.955   9.626   5.206  0.3758  0.1364 -0.7504
 8104SOL     OW26628   0.235   9.699   3.116  0.3271  0.1016  0.1752
 8104SOL    HW126629   0.294   9.681   3.190 -1.2794  0.5764  1.6329
 8104SOL    HW226630   0.195   9.783   3.138 -1.4477 -0.5620 -0.3966
 8105SOL     OW26631   8.137   2.265   3.481  0.4391  0.1558  0.2563
 8105SOL    HW126632   8.106   2.176   3.465 -0.2070  0.6084 -1.1032
 8105SOL    HW226633   8.219   2.253   3.530 -0.4068 -1.1313  1.4517
 8106SOL     OW26634   3.238   7.977   7.279 -0.3048  0.6142  0.0563
 8106SOL    HW126635   3.153   8.011   7.252 -0.4220 -1.0968 -1.9595
 8106SOL    HW226636   3.218   7.912   7.346 -0.5300  0.6974  0.0686
 8107SOL     OW26637   7.239   5.399  10.085  1.1346 -0.5819 -0.3597
 8107SOL    HW126638   7.269   5.415   9.996 -0.0772  0.2583 -0.6468
 8107SOL    HW226639   7.198   5.313  10.081  0.3754 -0.2123 -0.8254
 8108SOL     OW26640   1.181   9.724   7.023 -0.3732 -0.0212 -0.2436
 8108SOL    HW126641   1.259   9.702   6.973 -0.7389  0.1786 -0.9026
 8108SOL    HW226642   1.197   9.813   7.054 -0.9664  0.5847 -1.6208
 8109SOL     OW26643  10.436   8.018   4.873 -0.1811 -0.2133 -0.0599
 8109SOL    HW126644  10.497   8.090   4.856 -1.4376  1.2277  1.2088
 8109SOL    HW226645  10.480   7.964   4.938  0.6665 -0.4681 -0.8252
 8110SOL     OW26646   8.864   5.279   8.442  0.7819 -0.2164  0.1532
 8110SOL    HW126647   8.868   5.231   8.359  1.7804 -0.7622  0.5046
 8110SOL    HW226648   8.920   5.229   8.502 -1.7499 -1.2273  1.8908
 8111SOL     OW26649   7.979   4.555   7.075 -0.1907 -0.1372 -0.2740
 8111SOL    HW126650   7.976   4.496   7.150  1.2494 -1.4539 -1.1780
 8111SOL    HW226651   7.903   4.532   7.023 -1.0457  0.5947  0.6129
 8112SOL     OW26652   3.850   9.378   1.090 -0.0266 -0.1880 -0.5096
 8112SOL    HW126653   3.906   9.415   1.159 -0.9393 -0.8015  0.5820
 8112SOL    HW226654   3.780   9.442   1.079 -1.5604 -1.4448  1.3217
 8113SOL     OW26655   5.225   4.299   0.464 -0.4540 -0.2398 -0.4071
 8113SOL    HW126656   5.285   4.250   0.521  1.6254  2.2968 -0.2360
 8113SOL    HW226657   5.239   4.261   0.377  0.2269 -0.7425 -0.0895
 8114SOL     OW26658   6.397  10.594  10.253  0.3120 -0.1895  0.4458
 8114SOL    HW126659   6.325  10.562  10.308  0.0876 -0.7943 -0.1826
 8114SOL    HW226660   6.466  10.618  10.314 -0.6622  1.0160  1.1061
 8115SOL     OW26661   1.788   7.005   8.212  0.1653 -0.4173  0.0754
 8115SOL    HW126662   1.729   7.018   8.137  2.1202  0.7616 -1.3730
 8115SOL    HW226663   1.772   7.080   8.269  2.0791  1.4684 -1.6910
 8116SOL     OW26664   2.298   0.711   1.019 -0.2119  0.2087 -0.3889
 8116SOL    HW126665   2.350   0.788   1.043  0.2948  0.0159 -0.8632
 8116SOL    HW226666   2.230   0.745   0.960 -0.0447  0.3057 -0.5257
 8117SOL     OW26667   9.104   3.729   7.958 -0.7956  0.0183 -0.5588
 8117SOL    HW126668   9.120   3.659   7.895 -1.3226 -1.7548  1.1993
 8117SOL    HW226669   9.009   3.730   7.969 -0.6405 -0.7360  1.2634
 8118SOL     OW26670   6.204   3.037   2.348 -0.1122  0.2838 -0.4032
 8118SOL    HW126671   6.160   3.030   2.263  0.1903 -0.4124 -0.5035
 8118SOL    HW226672   6.160   3.110   2.391 -1.6666 -0.6351 -0.3405
 8119SOL     OW26673   0.386   4.713   5.628 -0.0141  0.5570 -0.3297
 8119SOL    HW126674   0.459   4.696   5.569  0.4992  1.4919  0.0063
 8119SOL    HW226675   0.377   4.809   5.627  0.1240  0.6045  1.2393
 8120SOL     OW26676   3.202   3.698   0.401  0.1418  0.1567  0.3853
 8120SOL    HW126677   3.278   3.657   0.442 -0.9152 -2.6739 -0.2449
 8120SOL    HW226678   3.199   3.660   0.313  0.1018  3.0877 -0.9876
 8121SOL     OW26679   4.487   2.182   3.332  0.2854 -0.4622 -0.3302
 8121SOL    HW126680   4.415   2.173   3.394 -1.3233 -0.4783 -2.1018
 8121SOL    HW226681   4.474   2.268   3.292  0.6890 -0.8284 -1.2972
 8122SOL     OW26682   4.820   6.368   2.998  0.7862  0.2550  0.0419
 8122SOL    HW126683   4.827   6.384   3.092  0.0940  1.1329 -0.0469
 8122SOL    HW226684   4.773   6.284   2.991  1.6771 -0.2938  0.4785
 8123SOL     OW26685   2.069   2.976   4.480 -0.1835 -0.0401 -0.0640
 8123SOL    HW126686   2.135   2.947   4.417 -0.4514 -0.2286 -0.2591
 8123SOL    HW226687   2.094   3.066   4.501  0.4049 -0.2612  0.2201
 8124SOL     OW26688   6.156   7.994   4.970 -0.8497 -0.0968  0.3248
 8124SOL    HW126689   6.177   7.949   4.887 -0.6842 -1.3432  1.0093
 8124SOL    HW226690   6.080   8.048   4.949 -0.2764  0.2952 -0.8593
 8125SOL     OW26691   1.167   8.459   8.539 -0.1106 -0.2015  0.0385
 8125SOL    HW126692   1.111   8.417   8.473  0.8766  1.4406 -1.9708
 8125SOL    HW226693   1.256   8.447   8.505  0.5716 -0.6028  1.8852
 8126SOL     OW26694   5.157   3.708   2.081 -0.6624 -0.0859  0.1044
 8126SOL    HW126695   5.243   3.748   2.072 -0.7996 -0.0984 -1.4590
 8126SOL    HW226696   5.161   3.662   2.165  0.8298 -0.0531  0.0784
 8127SOL     OW26697   7.503   8.437   0.899  0.6673  0.7273 -0.3124
 8127SOL    HW126698   7.585   8.392   0.916 -0.8403 -1.5889  1.5682
 8127SOL    HW226699   7.504   8.514   0.957  1.0884  0.1373  0.4698
 8128SOL     OW26700   1.337   6.311   4.162  0.2167 -0.0489  0.8043
 8128SOL    HW126701   1.431   6.298   4.174  0.6921  0.6626 -1.5645
 8128SOL    HW226702   1.330   6.397   4.120 -1.3969 -0.5866 -0.1061
 8129SOL     OW26703   4.888   5.543   7.491 -0.1334 -0.1573  0.6778
 8129SOL    HW126704   4.939   5.512   7.417 -0.1122 -1.5811  1.2544
 8129SOL    HW226705   4.801   5.561   7.455  0.4032  1.0667 -0.0593
 8130SOL     OW26706   9.496   2.144   0.272  0.5112  0.4455 -0.1604
 8130SOL    HW126707   9.404   2.169   0.258  0.6331  0.5369 -0.8559
 8130SOL    HW226708   9.502   2.055   0.239  0.9300  0.8550 -1.2420
 8131SOL     OW26709   5.949   9.350   4.364  0.5595  0.2290  0.9075
 8131SOL    HW126710   5.934   9.329   4.457 -0.0247 -1.1784  0.5284
 8131SOL    HW226711   6.042   9.335   4.351  0.3262 -1.3639  0.8769
 8132SOL     OW26712   7.284   3.183   9.378  0.0224 -0.0532  0.0777
 8132SOL    HW126713   7.365   3.219   9.415 -0.2140  0.1370  0.4072
 8132SOL    HW226714   7.217   3.199   9.444 -0.7536  1.7589 -1.0806
 8133SOL     OW26715   7.879   1.153   5.926  0.3284 -0.2807  0.2061
 8133SOL    HW126716   7.838   1.068   5.945 -0.2251  0.0575  0.5405
 8133SOL    HW226717   7.853   1.173   5.836  0.2554 -0.3440  0.2134
 8134SOL     OW26718   7.836   4.126  10.368 -0.1563  0.3197  0.1782
 8134SOL    HW126719   7.844   4.125  10.273  0.2291 -0.7348  0.2134
 8134SOL    HW226720   7.743   4.111  10.385 -0.0146 -0.8640 -0.0214
 8135SOL     OW26721   8.359   6.199   7.922 -0.2638 -0.0989 -0.6984
 8135SOL    HW126722   8.451   6.207   7.898 -0.1530  1.8198  0.1971
 8135SOL    HW226723   8.314   6.262   7.865 -0.3367  2.4767  1.9523
 8136SOL     OW26724   8.373   3.151   0.608 -0.5561  0.2613  0.0755
 8136SOL    HW126725   8.409   3.112   0.528  0.0609 -1.0660  0.9603
 8136SOL    HW226726   8.405   3.241   0.608 -0.9310  0.4190 -1.3828
 8137SOL     OW26727   7.215   5.943   5.059 -0.4665  0.0771  0.1184
 8137SOL    HW126728   7.229   5.849   5.048  1.1149  0.1505  1.1018
 8137SOL    HW226729   7.121   5.955   5.044 -1.3065 -2.0958  2.7638
 8138SOL     OW26730   6.822   0.198   7.116  0.4708 -0.3281  0.3972
 8138SOL    HW126731   6.772   0.279   7.121 -0.8608 -1.1916  1.8097
 8138SOL    HW226732   6.832   0.182   7.022  2.3567  2.3659  0.0262
 8139SOL     OW26733   7.312   8.760   7.842 -0.0041  0.0136  0.2136
 8139SOL    HW126734   7.268   8.675   7.831 -0.5303  0.3121 -0.0033
 8139SOL    HW226735   7.399   8.737   7.874 -0.2154 -0.6011  0.3692
 8140SOL     OW26736   3.926   1.969   9.307 -0.8278  0.5388  0.4509
 8140SOL    HW126737   4.018   1.977   9.282 -0.8860 -0.5279 -0.1702
 8140SOL    HW226738   3.928   1.955   9.402 -0.4208  1.5226  0.5993
 8141SOL     OW26739   5.714   1.612   2.608 -0.3717  0.4378  0.0083
 8141SOL    HW126740   5.729   1.544   2.542  2.8698  0.2353  0.7626
 8141SOL    HW226741   5.720   1.565   2.692  0.4391  1.4050  0.5092
 8142SOL     OW26742   0.138   3.258   3.210  0.3383  0.5959 -0.0164
 8142SOL    HW126743   0.127   3.329   3.273  0.1126  0.4247  0.1386
 8142SOL    HW226744   0.142   3.179   3.264 -1.7139  0.2379 -0.2881
 8143SOL     OW26745   9.305   2.196   2.138 -0.8043 -0.1790 -0.2698
 8143SOL    HW126746   9.333   2.116   2.183 -1.6771  0.5836  1.7662
 8143SOL    HW226747   9.316   2.265   2.203 -4.3835  0.6412 -0.3639
 8144SOL     OW26748   0.899   9.553   3.141 -0.5097 -0.0805  0.0830
 8144SOL    HW126749   0.991   9.579   3.142 -0.2714 -0.8446  2.5517
 8144SOL    HW226750   0.856   9.621   3.089  1.1173  1.4866  0.6779
 8145SOL     OW26751   2.500   3.161   6.796 -0.3627  0.3588 -0.5638
 8145SOL    HW126752   2.583   3.140   6.752  0.7957  1.4779  0.9591
 8145SOL    HW226753   2.458   3.225   6.739 -0.3213 -0.3900 -1.4667
 8146SOL     OW26754   7.355   0.295   4.025  0.4095 -0.0263  0.3677
 8146SOL    HW126755   7.270   0.249   4.022  0.6893 -0.5251 -0.9171
 8146SOL    HW226756   7.395   0.274   3.941  0.5504  2.6449 -0.3138
 8147SOL     OW26757   9.519   9.008   3.746 -0.2302  0.1098  0.1483
 8147SOL    HW126758   9.525   9.036   3.837  0.3609  1.7327 -0.3565
 8147SOL    HW226759   9.454   9.066   3.706  0.5242  0.3717 -0.7685
 8148SOL     OW26760  10.066   8.513   3.677 -0.6019  0.0746 -0.2494
 8148SOL    HW126761  10.090   8.534   3.768 -0.4799  1.0069 -0.4857
 8148SOL    HW226762  10.117   8.574   3.624 -0.3771 -0.7137 -0.9775
 8149SOL     OW26763   6.852   0.124   3.523 -0.3861  0.9615  0.3243
 8149SOL    HW126764   6.777   0.175   3.553 -0.4279 -0.4820  2.8641
 8149SOL    HW226765   6.835   0.035   3.553  1.3729  0.1511 -0.8932
 8150SOL     OW26766   0.674   4.182   6.849  0.0772  0.2016  0.0888
 8150SOL    HW126767   0.597   4.133   6.820 -0.6663  0.7414  1.1043
 8150SOL    HW226768   0.664   4.190   6.944 -1.1014  4.3458 -0.1873
 8151SOL     OW26769   9.519   1.419   2.532 -0.5091 -0.3663 -0.0494
 8151SOL    HW126770   9.435   1.424   2.578 -0.1132  0.6474  0.5915
 8151SOL    HW226771   9.575   1.369   2.591  0.3309  1.8631  1.1794
 8152SOL     OW26772   5.920   5.946   4.072  1.0047  0.1653 -0.0748
 8152SOL    HW126773   6.010   5.979   4.073  1.0948 -0.0796  1.7322
 8152SOL    HW226774   5.875   5.998   4.138  0.0953 -0.5045 -0.1537
 8153SOL     OW26775   6.161   1.002   4.418 -0.0268 -0.7520 -0.4947
 8153SOL    HW126776   6.160   1.091   4.385  2.1592 -0.3195  0.4660
 8153SOL    HW226777   6.150   0.947   4.340  1.8282  0.2960 -1.5408
 8154SOL     OW26778   5.230   5.750   2.100 -0.1990  0.3715  0.1151
 8154SOL    HW126779   5.230   5.829   2.045 -0.9429 -0.1977 -0.7244
 8154SOL    HW226780   5.163   5.767   2.166  0.5967  0.9970  0.7893
 8155SOL     OW26781  10.159   6.278   4.730 -0.5035  0.5275  0.5839
 8155SOL    HW126782  10.088   6.295   4.669  0.3713 -0.5402 -0.7909
 8155SOL    HW226783  10.235   6.320   4.691 -0.4889  2.4386  2.4862
 8156SOL     OW26784   2.769   2.687   2.420  0.0874  0.1219 -0.4054
 8156SOL    HW126785   2.730   2.725   2.498  1.4404 -0.8458  0.7944
 8156SOL    HW226786   2.817   2.759   2.379 -0.3976  0.5669 -0.2088
 8157SOL     OW26787   8.756   1.990   6.641 -0.2676  0.5909  0.8501
 8157SOL    HW126788   8.783   2.076   6.673 -1.0441  0.3094  2.3674
 8157SOL    HW226789   8.667   2.004   6.607  0.1518  0.6641 -0.2554
 8158SOL     OW26790   8.121   9.811   7.944 -0.0665 -0.9080  0.0017
 8158SOL    HW126791   8.142   9.900   7.915 -2.3635 -0.7264 -1.3385
 8158SOL    HW226792   8.044   9.821   8.000 -0.7401 -2.0903 -0.6681
 8159SOL     OW26793   7.695   2.525   1.139  0.1020  0.7402 -0.2995
 8159SOL    HW126794   7.608   2.555   1.114 -0.8572 -0.7872  1.0312
 8159SOL    HW226795   7.734   2.599   1.186 -0.4413  1.4485 -0.9397
 8160SOL     OW26796   1.333   4.868   7.151 -0.0879 -0.0534 -0.7113
 8160SOL    HW126797   1.250   4.836   7.115  0.3812 -1.1749 -0.8495
 8160SOL    HW226798   1.308   4.916   7.230 -0.9858  0.9251 -1.5555
 8161SOL     OW26799   0.239   9.700   8.707 -0.2165  0.5261 -0.3179
 8161SOL    HW126800   0.154   9.677   8.745 -0.1768  2.2358  0.9027
 8161SOL    HW226801   0.219   9.725   8.617 -1.3282  2.6254  0.4522
 8162SOL     OW26802   0.649   0.463   4.971  1.0424 -0.1722  0.1135
 8162SOL    HW126803   0.655   0.401   5.044  2.0477 -0.5147 -0.2465
 8162SOL    HW226804   0.716   0.528   4.990  2.6951 -1.3227 -1.4700
 8163SOL     OW26805   2.161   5.935   5.950 -0.2889  0.0693 -0.8295
 8163SOL    HW126806   2.251   5.916   5.923  1.0036  1.9213  1.7669
 8163SOL    HW226807   2.121   5.979   5.874 -0.0473 -3.2316 -3.0623
 8164SOL     OW26808  10.145   4.318   7.877 -0.5768 -0.4183 -0.0552
 8164SOL    HW126809  10.101   4.244   7.835 -1.7812  0.1677  0.1283
 8164SOL    HW226810  10.201   4.278   7.943 -0.2383 -1.2300 -0.8083
 8165SOL     OW26811   0.617   5.566   8.956 -0.6089  0.3256  0.5803
 8165SOL    HW126812   0.676   5.490   8.955 -1.0674 -0.1237  2.3715
 8165SOL    HW226813   0.539   5.536   8.909 -0.7441 -0.3081  1.1845
 8166SOL     OW26814   5.779   3.919  10.079  0.1210 -0.1903 -0.1731
 8166SOL    HW126815   5.719   3.846  10.064 -0.2448  0.2837 -1.1347
 8166SOL    HW226816   5.867   3.880  10.071 -0.0596 -0.3505 -1.8101
 8167SOL     OW26817   6.670   8.268   6.626 -0.2455 -0.6157 -0.1260
 8167SOL    HW126818   6.711   8.326   6.691 -0.7114 -0.3010 -0.1114
 8167SOL    HW226819   6.744   8.224   6.584  0.2764  1.4282 -1.5134
 8168SOL     OW26820   9.834   2.247   9.232  0.4766 -0.4147 -0.1552
 8168SOL    HW126821   9.907   2.308   9.227  0.8498 -0.7791  0.6430
 8168SOL    HW226822   9.870   2.163   9.205  0.9600 -1.0728  2.3180
 8169SOL     OW26823   0.953   5.815   3.198  0.0146 -0.5001  0.3877
 8169SOL    HW126824   0.990   5.775   3.119  0.4824 -0.0807  0.3881
 8169SOL    HW226825   1.029   5.834   3.253 -0.3145 -0.9172  1.0087
 8170SOL     OW26826   2.122   4.850   8.589 -0.0588  0.1496  0.0375
 8170SOL    HW126827   2.103   4.830   8.498  0.1825 -1.9693  0.4047
 8170SOL    HW226828   2.135   4.765   8.631 -1.3195  0.9773  2.3193
 8171SOL     OW26829   9.254   2.953   4.509 -1.0906 -0.2202  0.3308
 8171SOL    HW126830   9.281   2.952   4.601 -0.5554 -1.1684  0.1807
 8171SOL    HW226831   9.200   2.875   4.499  1.7668 -2.2534 -0.9334
 8172SOL     OW26832   5.896   4.643   8.291  0.1295 -0.4852 -0.2902
 8172SOL    HW126833   5.985   4.669   8.271 -0.0553 -0.0706 -0.5889
 8172SOL    HW226834   5.887   4.658   8.385 -0.0975  0.9406 -0.5205
 8173SOL     OW26835   4.487   6.952  10.059 -0.3471  0.1087  0.4322
 8173SOL    HW126836   4.551   7.005  10.107 -0.2439 -1.0140  1.5747
 8173SOL    HW226837   4.414   7.012  10.042 -0.0823  0.7118  1.3803
 8174SOL     OW26838   7.712   5.202   1.393  0.0029 -0.0151  0.3604
 8174SOL    HW126839   7.798   5.187   1.433 -0.5862  0.2058  1.7694
 8174SOL    HW226840   7.730   5.264   1.322  1.0775 -0.3702  0.2938
 8175SOL     OW26841   4.631   0.507   5.976 -0.5017 -0.2282 -0.2361
 8175SOL    HW126842   4.628   0.419   6.015  0.2819 -0.1148  0.1089
 8175SOL    HW226843   4.540   0.536   5.975 -0.6645 -0.6839  0.4992
 8176SOL     OW26844   0.823   8.913   9.391 -0.1240  0.0544 -0.1801
 8176SOL    HW126845   0.873   8.862   9.327 -0.6833  0.6074 -1.0628
 8176SOL    HW226846   0.783   8.983   9.341 -0.9441  0.2365  0.7015
 8177SOL     OW26847   8.864   1.998   8.365  0.5792 -0.5310  0.7979
 8177SOL    HW126848   8.797   2.053   8.325  1.3406 -0.6303 -0.6682
 8177SOL    HW226849   8.870   2.030   8.455 -0.0865  0.7445  0.4169
 8178SOL     OW26850   8.912  10.260   6.709 -0.1744 -0.0369  0.6160
 8178SOL    HW126851   9.004  10.265   6.732  0.4075 -0.3289 -1.4406
 8178SOL    HW226852   8.910  10.208   6.629 -2.1641 -0.3071  0.7841
 8179SOL     OW26853  10.208   0.036   6.359  0.6335 -0.3790 -0.3444
 8179SOL    HW126854  10.294   0.005   6.331  0.3210 -1.6794  0.0646
 8179SOL    HW226855  10.147  -0.026   6.320 -0.0490 -0.0596  0.2040
 8180SOL     OW26856  10.208   1.543  10.025  0.4770  0.2881  0.1494
 8180SOL    HW126857  10.196   1.467   9.967 -1.7962  0.4068  0.3894
 8180SOL    HW226858  10.220   1.505  10.112  1.4348  0.1836 -0.0121
 8181SOL     OW26859   0.283   0.907   7.642 -0.7261  0.2695 -0.8213
 8181SOL    HW126860   0.293   0.830   7.586  0.6231  0.1655 -0.4623
 8181SOL    HW226861   0.243   0.972   7.585 -2.1719 -0.7569 -1.0549
 8182SOL     OW26862   7.768   8.333   6.166  0.3934  0.1600  0.1238
 8182SOL    HW126863   7.680   8.346   6.201  0.7377 -0.3149  1.1809
 8182SOL    HW226864   7.768   8.243   6.133  0.7364 -0.1327  0.9045
 8183SOL     OW26865   5.708   1.083   3.633 -0.2151 -0.4166 -0.4961
 8183SOL    HW126866   5.707   1.175   3.606  3.3704  0.0397  0.4003
 8183SOL    HW226867   5.779   1.045   3.582  0.1303 -2.0115  1.0947
 8184SOL     OW26868   2.745   9.051   0.745 -0.2387  0.2099 -0.3022
 8184SOL    HW126869   2.768   8.976   0.799 -1.5146  1.4049  2.0254
 8184SOL    HW226870   2.653   9.039   0.724 -0.4329  1.0738  0.0145
 8185SOL     OW26871  10.156   6.102   1.415 -0.6549  0.6076 -0.2015
 8185SOL    HW126872  10.131   6.183   1.370 -1.2942  2.4478  3.1942
 8185SOL    HW226873  10.248   6.115   1.438 -1.1290  1.0520  1.5708
 8186SOL     OW26874  10.300   0.443   3.102  0.7524 -0.4480  0.0926
 8186SOL    HW126875  10.216   0.413   3.068  0.4480 -0.5806  0.9311
 8186SOL    HW226876  10.315   0.389   3.181  1.5687 -0.3527  0.0140
 8187SOL     OW26877   0.956   6.591   1.728  0.0768 -0.3340 -0.0518
 8187SOL    HW126878   0.900   6.545   1.791 -2.5017 -0.7859 -2.4742
 8187SOL    HW226879   0.996   6.521   1.676  0.1092  0.0684 -0.5753
 8188SOL     OW26880  10.283   1.754   4.145 -0.2386  0.4470  0.4216
 8188SOL    HW126881  10.225   1.690   4.105 -0.2435 -0.2602  1.5075
 8188SOL    HW226882  10.313   1.809   4.073  1.2652 -1.9259 -0.8704
 8189SOL     OW26883   6.070   9.746   4.146  0.4289 -0.5197 -0.5223
 8189SOL    HW126884   6.067   9.714   4.056  1.4152 -0.5570 -0.5460
 8189SOL    HW226885   6.150   9.708   4.183 -0.6553 -1.6355  0.8044
 8190SOL     OW26886   7.808   9.054   9.659 -0.3850 -0.6456  0.1608
 8190SOL    HW126887   7.861   8.984   9.697 -0.4348 -0.8313 -0.1067
 8190SOL    HW226888   7.752   9.010   9.595  2.0124  0.0102 -2.6418
 8191SOL     OW26889   4.343   1.847   0.723  0.0149  0.3189 -0.3157
 8191SOL    HW126890   4.426   1.856   0.676 -0.6028  0.9666 -1.3350
 8191SOL    HW226891   4.279   1.889   0.666 -0.7153  1.4915  1.2814
 8192SOL     OW26892   7.069   8.145   8.790 -0.2339 -0.0641 -0.1540
 8192SOL    HW126893   7.086   8.141   8.695  1.0708 -0.9227  0.0905
 8192SOL    HW226894   7.156   8.137   8.830 -0.8171 -0.1338  1.1279
 8193SOL     OW26895   7.934   2.421   6.502 -0.6334  0.1436  0.3759
 8193SOL    HW126896   7.942   2.327   6.517  0.5579  0.1957  0.1674
 8193SOL    HW226897   7.973   2.435   6.416 -0.6178  0.8481  0.4921
 8194SOL     OW26898   3.630   7.458   3.341 -0.2413 -0.1483  0.1497
 8194SOL    HW126899   3.653   7.383   3.286  0.3624 -0.5375  0.9128
 8194SOL    HW226900   3.634   7.424   3.431  2.0025  1.2496  0.6703
 8195SOL     OW26901   2.161  10.302  10.173 -0.2346  0.0001  0.0623
 8195SOL    HW126902   2.203  10.223  10.139  0.7101  1.5443 -2.7505
 8195SOL    HW226903   2.105  10.331  10.101  2.1630  3.7581 -0.5901
 8196SOL     OW26904   0.523   1.574   1.535  0.7787  0.0216 -0.2557
 8196SOL    HW126905   0.583   1.570   1.460  1.9635 -0.0548  0.6571
 8196SOL    HW226906   0.574   1.536   1.607 -0.4253 -0.1368  0.5258
 8197SOL     OW26907   7.650   8.567   8.671  0.0970 -0.3785  0.2891
 8197SOL    HW126908   7.568   8.520   8.654  0.2799 -0.4255 -0.5004
 8197SOL    HW226909   7.716   8.518   8.623  1.1041 -1.9331  3.0969
 8198SOL     OW26910   8.742   1.464   7.337 -0.0766  0.1106 -0.5528
 8198SOL    HW126911   8.749   1.428   7.426  2.6381 -0.0087 -0.7390
 8198SOL    HW226912   8.720   1.556   7.351 -0.0309  0.0140  0.2250
 8199SOL     OW26913   7.091   0.868   7.941  0.5462 -0.3084  0.2354
 8199SOL    HW126914   7.053   0.864   7.853  1.7012  0.3603 -0.3151
 8199SOL    HW226915   7.136   0.953   7.944  0.3576 -0.2261  1.5492
 8200SOL     OW26916   2.661   4.425   2.430  0.1007  0.5228 -0.8558
 8200SOL    HW126917   2.572   4.391   2.437  0.8315 -1.3143  0.3403
 8200SOL    HW226918   2.651   4.514   2.398 -2.2608  0.8696  0.6649
 8201SOL     OW26919   7.124   0.759   7.094  0.1310  0.5667  0.2375
 8201SOL    HW126920   7.106   0.681   7.042  1.5193  1.3910 -1.5958
 8201SOL    HW226921   7.083   0.741   7.179 -0.1713 -1.8424 -0.3348
 8202SOL     OW26922   6.966  10.097   7.906  0.4484  0.2288  0.0961
 8202SOL    HW126923   6.981  10.187   7.878  1.3883 -0.4744 -1.8258
 8202SOL    HW226924   6.900  10.063   7.845 -0.6179 -0.1273  1.4003
 8203SOL     OW26925   3.333   0.622   8.226  0.7886 -0.1845  0.9130
 8203SOL    HW126926   3.397   0.558   8.194  0.2133 -0.7971  0.9798
 8203SOL    HW226927   3.296   0.660   8.146  3.0473  2.0741  0.8042
 8204SOL     OW26928   9.597   3.678   5.950  0.9326  0.1352 -0.2974
 8204SOL    HW126929   9.575   3.589   5.976  0.7494  0.8195  2.2039
 8204SOL    HW226930   9.526   3.705   5.893 -0.4917 -0.4419  1.1224
 8205SOL     OW26931   5.670   4.632   7.754 -0.1191 -0.7416 -0.0360
 8205SOL    HW126932   5.747   4.677   7.788 -1.4111  0.2802  1.6857
 8205SOL    HW226933   5.645   4.571   7.823  0.1392 -2.3697 -1.3199
 8206SOL     OW26934   1.652   5.039   7.765  0.1489  0.3823 -0.1640
 8206SOL    HW126935   1.587   4.969   7.758  1.1343 -0.5164 -0.7113
 8206SOL    HW226936   1.704   5.017   7.843  1.6505 -0.5866 -1.3785
 8207SOL     OW26937  10.064   9.787   6.141 -0.3207  0.7200 -0.0619
 8207SOL    HW126938  10.093   9.847   6.072 -1.1644  0.7711 -0.3798
 8207SOL    HW226939  10.139   9.780   6.199 -0.0030  1.6080 -0.3478
 8208SOL     OW26940  10.039   7.001   6.277  0.4116  0.9588 -0.4224
 8208SOL    HW126941  10.096   7.020   6.351  0.7984  0.4665 -0.5878
 8208SOL    HW226942   9.984   7.079   6.268  2.2830  2.2196 -1.4094
 8209SOL     OW26943   5.344   0.700   5.752  0.3616  0.4162 -0.0454
 8209SOL    HW126944   5.417   0.678   5.693  0.1641 -1.2142  0.2690
 8209SOL    HW226945   5.387   0.728   5.833  0.6375 -0.0345 -0.0328
 8210SOL     OW26946   2.608   2.822   2.720 -0.1917  0.1791 -0.2192
 8210SOL    HW126947   2.555   2.868   2.785 -0.4719 -0.8691  0.3314
 8210SOL    HW226948   2.554   2.821   2.641 -0.7179 -0.2821  0.1378
 8211SOL     OW26949   6.276   2.900   7.276 -0.4677  0.6245 -0.1371
 8211SOL    HW126950   6.278   2.936   7.187 -0.8320  1.2954  0.1246
 8211SOL    HW226951   6.346   2.834   7.276  0.5319  1.6471 -0.4821
 8212SOL     OW26952   5.386   8.985   0.669 -0.0667 -0.3767 -0.2745
 8212SOL    HW126953   5.426   8.967   0.754  0.4511  0.6174 -0.2892
 8212SOL    HW226954   5.305   9.032   0.690  0.3862  0.4505 -0.3363
 8213SOL     OW26955   4.386  10.369   3.639  0.3236  0.4009 -0.3413
 8213SOL    HW126956   4.462  10.420   3.664  2.3616 -2.1087 -1.0323
 8213SOL    HW226957   4.337  10.356   3.720  2.0368 -0.0876  0.6578
 8214SOL     OW26958   0.581   3.334   4.283  0.6057  0.1677  0.4385
 8214SOL    HW126959   0.627   3.254   4.256  1.6295  1.1986 -1.0378
 8214SOL    HW226960   0.550   3.372   4.201  1.1605  1.8832  0.9865
 8215SOL     OW26961   0.092   2.807   9.679  0.0652 -0.2942  0.0633
 8215SOL    HW126962   0.020   2.870   9.669 -0.9652 -0.9848  2.4596
 8215SOL    HW226963   0.087   2.752   9.600 -1.3287  0.3795 -0.3402
 8216SOL     OW26964   0.328   9.014   3.237  0.0449  0.5691 -0.6124
 8216SOL    HW126965   0.357   8.958   3.164  2.8385  1.1245 -0.0521
 8216SOL    HW226966   0.268   9.076   3.197 -1.0341 -1.1141 -1.7653
 8217SOL     OW26967   7.362   7.537   8.055 -0.2841 -0.0597 -0.4379
 8217SOL    HW126968   7.377   7.631   8.071  0.8815 -0.0222 -1.6172
 8217SOL    HW226969   7.267   7.527   8.066 -0.6146  1.5113 -1.4653
 8218SOL     OW26970   8.672   4.222   8.165  0.0510 -0.9858  0.3853
 8218SOL    HW126971   8.653   4.266   8.247  1.1800  0.2878 -0.0016
 8218SOL    HW226972   8.727   4.147   8.190 -0.0405 -0.9034  0.8352
 8219SOL     OW26973   3.236  10.526   0.539 -0.2879  0.4164  0.6925
 8219SOL    HW126974   3.258  10.598   0.479 -3.1234  1.5294  0.8562
 8219SOL    HW226975   3.254  10.562   0.626 -0.7388  0.5630  0.7261
 8220SOL     OW26976   4.929   3.224   5.028 -0.1167 -0.1117  0.0316
 8220SOL    HW126977   4.949   3.180   5.110  1.1925  0.8227  0.2525
 8220SOL    HW226978   4.910   3.314   5.053 -0.9739 -0.1077 -0.5812
 8221SOL     OW26979   5.416   7.669   2.872  0.0926  0.5960 -0.6051
 8221SOL    HW126980   5.415   7.587   2.823 -1.4202  1.3010 -1.8386
 8221SOL    HW226981   5.323   7.686   2.890  0.2560  2.6700 -1.4926
 8222SOL     OW26982   9.297   8.489   2.815  0.0802  0.2999  0.3316
 8222SOL    HW126983   9.361   8.519   2.751 -0.8617  1.2503 -0.2079
 8222SOL    HW226984   9.255   8.570   2.846 -1.3016 -0.3358  0.1881
 8223SOL     OW26985   6.107   2.790   0.001  0.2007  0.5759 -0.6784
 8223SOL    HW126986   6.050   2.746  -0.062 -3.3841  2.0084  1.2990
 8223SOL    HW226987   6.146   2.719   0.052 -1.4530 -0.4559 -0.7902
 8224SOL     OW26988   3.943   7.232   6.126 -0.4268  0.2433 -0.3396
 8224SOL    HW126989   4.015   7.262   6.070  0.4823 -0.2738  0.5169
 8224SOL    HW226990   3.920   7.146   6.091 -0.7774  0.4978 -0.7436
 8225SOL     OW26991   7.902   3.792   5.734 -0.2708  0.5114  0.3893
 8225SOL    HW126992   7.985   3.798   5.685  0.0236 -4.8678 -0.4731
 8225SOL    HW226993   7.922   3.829   5.819  2.4070  1.2574 -0.4380
 8226SOL     OW26994   4.343   9.436   5.377 -0.2193  0.1756  0.2702
 8226SOL    HW126995   4.275   9.482   5.327  0.2103  1.1186  0.5136
 8226SOL    HW226996   4.405   9.406   5.310 -0.3662  0.1951  0.1241
 8227SOL     OW26997   4.714   7.666   7.419 -0.1196  0.2469  0.7496
 8227SOL    HW126998   4.637   7.687   7.367 -0.4617  0.4033  1.3158
 8227SOL    HW226999   4.681   7.614   7.493  0.3597  0.0189  0.8117
 8228SOL     OW27000   6.024   4.239   8.301 -0.4054 -0.1150  0.1641
 8228SOL    HW127001   5.968   4.272   8.371 -1.1147 -0.8532 -0.0476
 8228SOL    HW227002   6.036   4.147   8.322 -0.1843 -0.2164 -0.4036
 8229SOL     OW27003   0.718   5.632   9.273  0.5303 -0.2330  0.2053
 8229SOL    HW127004   0.692   5.611   9.183 -3.0973 -0.3913  1.1421
 8229SOL    HW227005   0.716   5.727   9.278  2.5339 -0.1210 -0.2660
 8230SOL     OW27006   7.639   3.357   0.871 -0.0502  0.1209  0.0977
 8230SOL    HW127007   7.716   3.344   0.817  0.1942  0.6632  0.3093
 8230SOL    HW227008   7.586   3.421   0.823  0.1857  0.6307  0.5192
 8231SOL     OW27009   8.196   8.675   7.735  0.3265  0.1474 -0.4348
 8231SOL    HW127010   8.153   8.619   7.800  1.3294 -0.5517 -0.3454
 8231SOL    HW227011   8.290   8.658   7.748  0.6737  2.0640 -0.2173
 8232SOL     OW27012   2.142   4.904   2.950 -0.7062 -0.1025  0.0414
 8232SOL    HW127013   2.112   4.879   3.038 -1.5092 -1.1097 -0.4942
 8232SOL    HW227014   2.234   4.926   2.961 -0.5930 -1.0020  0.9892
 8233SOL     OW27015   5.628   5.056   1.223  0.0331  0.2442 -0.0107
 8233SOL    HW127016   5.709   5.011   1.200  0.4372  1.6390 -1.5981
 8233SOL    HW227017   5.566   4.986   1.242  1.6581 -0.8589  1.6007
 8234SOL     OW27018   5.244   5.867   8.446 -0.1662  0.0586 -0.3595
 8234SOL    HW127019   5.279   5.790   8.492 -0.1107  0.5107  0.3812
 8234SOL    HW227020   5.260   5.849   8.353  2.3678  0.3758 -0.0654
 8235SOL     OW27021   9.669  10.249  10.491  0.1823 -0.6885 -0.0129
 8235SOL    HW127022   9.647  10.192  10.417 -1.0295 -1.3594  0.8414
 8235SOL    HW227023   9.699  10.190  10.560  1.2652 -0.0675  0.0867
 8236SOL     OW27024   7.223  10.251   9.252 -0.2060  0.4274 -0.1763
 8236SOL    HW127025   7.292  10.186   9.267 -1.9744 -1.2770  0.9743
 8236SOL    HW227026   7.227  10.268   9.158  1.4422 -0.0024 -0.2203
 8237SOL     OW27027   6.398   4.942   8.102 -0.0273 -0.7919  0.2179
 8237SOL    HW127028   6.479   4.918   8.058  0.3696 -0.0035  0.5083
 8237SOL    HW227029   6.411   4.916   8.194  0.5613  0.8224  0.6239
 8238SOL     OW27030   4.953   9.505  10.191  0.1266 -0.3461  0.2106
 8238SOL    HW127031   4.884   9.557  10.231 -1.0033 -2.2630  0.8822
 8238SOL    HW227032   4.988   9.561  10.121 -0.3782  1.6265  1.4661
 8239SOL     OW27033   0.429   6.224   2.260 -0.1217 -0.1898  0.0367
 8239SOL    HW127034   0.430   6.246   2.167  1.1062 -1.8990 -0.3997
 8239SOL    HW227035   0.477   6.296   2.302  0.5116 -0.0819 -0.8381
 8240SOL     OW27036   8.030   9.721   3.447 -0.3906  0.1815 -0.3022
 8240SOL    HW127037   7.950   9.681   3.413 -0.9519  0.0174  1.1328
 8240SOL    HW227038   8.021   9.715   3.542  0.4021  1.9991 -0.0819
 8241SOL     OW27039   4.695   2.333   1.310 -0.2058 -0.1676  0.1667
 8241SOL    HW127040   4.667   2.324   1.401  1.0541  0.9867  0.7082
 8241SOL    HW227041   4.700   2.428   1.296  1.3081 -0.3321 -0.5464
 8242SOL     OW27042   7.769   1.119   1.992  0.1767  0.0129 -0.1808
 8242SOL    HW127043   7.694   1.059   1.993 -1.9519  2.4830  0.0048
 8242SOL    HW227044   7.785   1.139   2.084  0.5472  0.1255 -0.2681
 8243SOL     OW27045   1.669   7.386   2.942 -0.0915 -0.4586 -0.1639
 8243SOL    HW127046   1.582   7.412   2.971 -0.4134 -1.0450 -0.5985
 8243SOL    HW227047   1.711   7.351   3.021  0.4236  1.4894  0.4871
 8244SOL     OW27048   9.905   1.820   5.536 -0.1547 -0.3830  0.0877
 8244SOL    HW127049   9.872   1.907   5.513  0.9220  0.3961  1.3724
 8244SOL    HW227050   9.990   1.836   5.575 -0.1458 -1.9939  0.7979
 8245SOL     OW27051   4.968   4.306   3.426 -0.2002  0.9075  0.4855
 8245SOL    HW127052   5.031   4.376   3.408 -0.3850  1.1147  0.6389
 8245SOL    HW227053   4.942   4.320   3.517  1.0781 -0.4071  1.0870
 8246SOL     OW27054   2.349   0.531   7.931 -0.2839  0.4938  0.0898
 8246SOL    HW127055   2.317   0.609   7.976  2.1625  0.7671  1.5438
 8246SOL    HW227056   2.424   0.562   7.880 -0.7937 -0.4864 -1.3180
 8247SOL     OW27057   4.114   7.455   4.282  0.3232 -0.3066 -0.2176
 8247SOL    HW127058   4.038   7.396   4.281  0.7110 -0.8092 -1.3016
 8247SOL    HW227059   4.108   7.502   4.199 -0.3593  1.7231  0.9024
 8248SOL     OW27060   3.906   0.521   0.737  0.2472 -0.3109 -0.5693
 8248SOL    HW127061   3.859   0.599   0.710  0.0634 -0.1345  0.2419
 8248SOL    HW227062   3.839   0.465   0.777  0.7608  0.1108  0.9551
 8249SOL     OW27063   5.690   3.499   1.516 -0.4026 -0.3582  0.4036
 8249SOL    HW127064   5.624   3.556   1.478 -0.7336 -0.1842  1.2322
 8249SOL    HW227065   5.750   3.558   1.561  0.8525 -0.4267 -1.0946
 8250SOL     OW27066   8.291   3.464   4.400  0.6159  0.2635 -0.0551
 8250SOL    HW127067   8.369   3.520   4.405  0.7628 -0.0567  1.6746
 8250SOL    HW227068   8.231   3.512   4.343  0.7439  2.2137  1.3417
 8251SOL     OW27069   7.008   1.773   8.807  0.1226  0.2306  0.0985
 8251SOL    HW127070   6.945   1.701   8.815 -0.3025  0.7480  1.8046
 8251SOL    HW227071   7.017   1.807   8.896  1.5890  1.2247 -0.3957
 8252SOL     OW27072   8.414   2.201   3.571 -0.0358 -0.5128 -0.4538
 8252SOL    HW127073   8.408   2.132   3.637 -0.4561  0.6751  0.7788
 8252SOL    HW227074   8.477   2.263   3.607  1.9176 -1.1981 -2.4764
 8253SOL     OW27075   3.173   5.553   2.932  0.0274  0.4887 -0.2499
 8253SOL    HW127076   3.227   5.481   2.901  1.3603  0.4433  1.9229
 8253SOL    HW227077   3.084   5.530   2.906  0.1120 -2.9266  1.8370
 8254SOL     OW27078   2.983   5.726   8.874 -0.0961  0.8241 -0.0169
 8254SOL    HW127079   3.006   5.802   8.820 -0.8614  0.9880 -0.1129
 8254SOL    HW227080   3.060   5.713   8.929  0.9587  0.2762 -1.5610
 8255SOL     OW27081   6.366   3.220   8.827 -0.5905 -0.1807 -0.1409
 8255SOL    HW127082   6.379   3.132   8.864 -0.9076  0.5371  1.8052
 8255SOL    HW227083   6.318   3.204   8.746  0.3683 -1.8751 -0.4315
 8256SOL     OW27084   7.651   4.398   2.358  0.3187  0.0130 -0.2477
 8256SOL    HW127085   7.642   4.352   2.441 -0.6951 -1.2477 -0.9994
 8256SOL    HW227086   7.615   4.485   2.374 -0.2279 -0.3458  0.5449
 8257SOL     OW27087   2.233   7.136   8.035 -0.4111 -0.2663  0.3105
 8257SOL    HW127088   2.302   7.181   8.086 -0.0085  0.1412 -0.5696
 8257SOL    HW227089   2.152   7.180   8.062 -0.3213 -0.6230  1.2192
 8258SOL     OW27090   1.998   6.758   0.534 -0.4696 -0.4722  0.0951
 8258SOL    HW127091   2.016   6.780   0.442 -2.1014 -1.0288 -0.3840
 8258SOL    HW227092   1.942   6.829   0.564  0.6958  0.1265  0.9288
 8259SOL     OW27093   1.075   3.532   0.119 -0.2287 -0.3934  0.2020
 8259SOL    HW127094   1.135   3.533   0.044 -0.1903 -2.7483  0.1202
 8259SOL    HW227095   1.132   3.525   0.196 -0.3309 -0.9268  0.2353
 8260SOL     OW27096   8.408   2.013   2.664 -0.2800  0.1528 -0.1790
 8260SOL    HW127097   8.375   2.082   2.608 -1.6500 -0.1385  0.2494
 8260SOL    HW227098   8.474   1.968   2.611  1.0218  2.0705 -0.2900
 8261SOL     OW27099   8.480   9.525   0.257  0.3963  0.4709  0.5096
 8261SOL    HW127100   8.487   9.552   0.165 -2.9623  1.1514  0.3028
 8261SOL    HW227101   8.531   9.590   0.305  2.0168  0.2361 -0.8181
 8262SOL     OW27102  10.431   5.441   7.057  0.1481 -0.3471 -0.0830
 8262SOL    HW127103  10.429   5.503   7.130 -0.8739 -1.0148  0.4810
 8262SOL    HW227104  10.469   5.491   6.985 -1.0794  1.1151  0.2228
 8263SOL     OW27105   3.988   6.550   0.087 -0.6716  0.2723 -0.3060
 8263SOL    HW127106   3.990   6.455   0.070  0.2640 -0.2825  2.2957
 8263SOL    HW227107   4.080   6.575   0.089 -0.8315  0.8455  0.6383
 8264SOL     OW27108   3.497   9.071   1.874  0.3650  0.5552  0.3746
 8264SOL    HW127109   3.445   9.000   1.837  0.3119  1.3480 -1.1244
 8264SOL    HW227110   3.585   9.057   1.840  0.5450  0.7506  0.7437
 8265SOL     OW27111   5.225   5.939   4.393  0.1284  0.2245  0.0803
 8265SOL    HW127112   5.254   5.960   4.482  1.2450 -1.1653  0.0878
 8265SOL    HW227113   5.172   5.860   4.402  0.9773 -0.4401 -0.5640
 8266SOL     OW27114   4.672   0.770   9.807  0.1413 -0.1531  0.3126
 8266SOL    HW127115   4.600   0.726   9.852 -0.7393 -0.1225 -1.0107
 8266SOL    HW227116   4.748   0.713   9.821 -0.0771 -0.0890  1.8793
 8267SOL     OW27117   9.160   8.367  10.595  0.7130 -0.4745 -0.1621
 8267SOL    HW127118   9.085   8.365  10.535 -0.3120  1.4589  0.9269
 8267SOL    HW227119   9.151   8.288  10.648 -2.1624  0.8841  1.6599
 8268SOL     OW27120   7.888   1.800   2.766 -0.2101 -0.2512 -0.0177
 8268SOL    HW127121   7.971   1.753   2.770 -1.1961 -2.4504 -2.3600
 8268SOL    HW227122   7.824   1.734   2.739 -2.4210  1.7184  0.0433
 8269SOL     OW27123   2.754   4.527   6.102 -0.0726 -0.5009 -0.0911
 8269SOL    HW127124   2.681   4.568   6.148 -0.9655 -1.3253 -0.7402
 8269SOL    HW227125   2.765   4.442   6.146 -1.4455 -1.6459 -1.8109
 8270SOL     OW27126   2.764  10.352   1.221 -0.0120 -0.0779  0.1814
 8270SOL    HW127127   2.835  10.412   1.242 -0.0127  0.1619 -0.4694
 8270SOL    HW227128   2.737  10.377   1.132 -0.3750 -0.6829  0.1157
 8271SOL     OW27129   4.614   8.911   7.813  0.2490 -0.3147 -0.2894
 8271SOL    HW127130   4.632   8.838   7.873 -0.7465 -0.9491 -0.7354
 8271SOL    HW227131   4.554   8.875   7.748  1.9213  0.1420 -2.1724
 8272SOL     OW27132   7.461   2.696   5.496  0.5442 -0.3126  0.1698
 8272SOL    HW127133   7.437   2.691   5.588 -1.0348 -0.3547 -0.2214
 8272SOL    HW227134   7.449   2.788   5.473 -0.9199 -0.6360 -0.4471
 8273SOL     OW27135   2.027   8.366  10.277  0.2668  0.3687  0.0620
 8273SOL    HW127136   2.095   8.318  10.230 -0.7827 -0.2469 -0.8839
 8273SOL    HW227137   2.005   8.439  10.218  0.9282  1.2631  0.8988
 8274SOL     OW27138   2.976   4.613   8.074  0.3619 -0.6127  0.3348
 8274SOL    HW127139   3.053   4.603   8.019  0.6816 -1.0243  0.8452
 8274SOL    HW227140   2.933   4.527   8.071 -0.8731 -0.0015 -1.0875
 8275SOL     OW27141   3.060   5.040   7.704 -0.4396  0.2442  0.2578
 8275SOL    HW127142   2.996   5.048   7.774  0.5728  1.5583  1.0758
 8275SOL    HW227143   3.064   5.127   7.664  0.4936  0.0755 -0.0627
 8276SOL     OW27144   3.465   1.494   1.940  0.4128  0.1702 -0.2132
 8276SOL    HW127145   3.430   1.425   1.996  1.2964 -0.1021  0.0167
 8276SOL    HW227146   3.522   1.449   1.878 -1.8384  0.2356 -2.4973
 8277SOL     OW27147   6.236   0.372   5.751 -0.3059  0.3334 -0.1967
 8277SOL    HW127148   6.330   0.357   5.740 -0.4659  0.8554 -2.8286
 8277SOL    HW227149   6.201   0.376   5.662 -3.0757 -1.1871  0.6804
 8278SOL     OW27150   4.478   0.402   7.775  0.2823  0.4188 -0.5496
 8278SOL    HW127151   4.525   0.347   7.837 -0.6236  0.3431  0.0879
 8278SOL    HW227152   4.470   0.348   7.696 -3.9578 -2.0699  1.2491
 8279SOL     OW27153   9.063   9.515   0.097  0.2957 -0.3915 -0.1313
 8279SOL    HW127154   9.009   9.575   0.046 -0.7247  0.0064  1.3416
 8279SOL    HW227155   9.152   9.528   0.064 -0.1645  0.6176 -1.0448
 8280SOL     OW27156   4.186   2.765   2.713 -0.0526 -0.1580 -0.2233
 8280SOL    HW127157   4.140   2.746   2.795  1.5593 -0.8680  0.5556
 8280SOL    HW227158   4.171   2.687   2.659 -0.0524 -0.2460 -0.0977
 8281SOL     OW27159   0.266   9.089   3.939  0.2126  0.1332 -0.3018
 8281SOL    HW127160   0.189   9.098   3.996  0.3266 -0.6690 -0.0110
 8281SOL    HW227161   0.303   9.003   3.961  1.4734  0.7066 -0.0854
 8282SOL     OW27162   3.809   9.096   8.331  0.1790 -0.1739 -0.4140
 8282SOL    HW127163   3.770   9.082   8.417  1.4876 -1.6888 -0.0226
 8282SOL    HW227164   3.842   9.010   8.305 -0.3687  0.2032 -2.5443
 8283SOL     OW27165   5.794   8.460   2.393  0.0389 -0.1111  0.1982
 8283SOL    HW127166   5.827   8.527   2.335  0.1732 -0.3725 -0.0292
 8283SOL    HW227167   5.831   8.481   2.479 -0.0520  0.1943  0.1631
 8284SOL     OW27168   0.528   8.377   9.245 -0.4126  0.6130 -0.0682
 8284SOL    HW127169   0.565   8.290   9.254  0.9443  1.2153  0.3963
 8284SOL    HW227170   0.480   8.374   9.162 -1.2249 -0.8468  0.4228
 8285SOL     OW27171   0.311   2.056   4.742 -0.1844  0.2010  0.1592
 8285SOL    HW127172   0.223   2.084   4.718 -0.2903 -0.3885 -0.1538
 8285SOL    HW227173   0.362   2.068   4.661 -0.1611 -0.2090  0.1111
 8286SOL     OW27174   3.470   0.445   1.475  0.4058 -0.0754  0.2809
 8286SOL    HW127175   3.553   0.483   1.446  0.8775  0.3410  2.0306
 8286SOL    HW227176   3.491   0.403   1.559 -0.6820 -1.9732 -0.3566
 8287SOL     OW27177   1.661   3.184   6.720  0.7593 -0.2086 -0.1864
 8287SOL    HW127178   1.605   3.111   6.695  1.0453 -0.1272 -1.0730
 8287SOL    HW227179   1.717   3.148   6.789  1.0220 -0.8870 -0.7442
 8288SOL     OW27180   6.271   3.904   7.657 -0.0760  0.1203  0.4588
 8288SOL    HW127181   6.334   3.938   7.593 -0.6986  0.8266  0.2161
 8288SOL    HW227182   6.196   3.877   7.604 -0.0829 -0.4966  0.7743
 8289SOL     OW27183   9.753   7.544   4.708 -0.2372  0.4599  0.2028
 8289SOL    HW127184   9.741   7.517   4.799 -1.0318  1.9781  0.5852
 8289SOL    HW227185   9.802   7.472   4.667 -0.1127 -0.3662  1.7490
 8290SOL     OW27186   0.172   4.259   7.596  0.0802 -0.1753  0.1619
 8290SOL    HW127187   0.125   4.290   7.674  0.7965 -1.7565  1.2707
 8290SOL    HW227188   0.103   4.226   7.539 -0.2833 -1.4179  1.2775
 8291SOL     OW27189   6.425   9.473   6.790  0.2692 -0.1299 -0.8363
 8291SOL    HW127190   6.516   9.481   6.820 -0.5586 -0.4757  2.0565
 8291SOL    HW227191   6.398   9.387   6.820 -1.3811  0.4681 -0.5151
 8292SOL     OW27192   0.924   9.562   9.773  0.4026  0.0552  0.2802
 8292SOL    HW127193   1.017   9.540   9.778  0.0409 -1.8418 -0.5405
 8292SOL    HW227194   0.911   9.590   9.683 -0.1150 -1.3309 -0.1025
 8293SOL     OW27195  10.242   4.752   0.720 -0.3161  0.0765  0.3151
 8293SOL    HW127196  10.299   4.681   0.751 -2.3059 -0.1457  4.0332
 8293SOL    HW227197  10.160   4.709   0.696 -0.1245  0.7474 -1.7439
 8294SOL     OW27198   1.012   7.697   9.857  0.6037 -0.1126  0.1310
 8294SOL    HW127199   1.073   7.677   9.786  0.5337 -0.1855  0.0908
 8294SOL    HW227200   1.043   7.779   9.893 -0.3714  0.8651 -1.1322
 8295SOL     OW27201   8.657   7.892   0.440 -0.0002 -0.3465  0.4472
 8295SOL    HW127202   8.600   7.890   0.363  0.3337  0.5865  0.1551
 8295SOL    HW227203   8.605   7.854   0.510 -0.4845 -0.7741 -0.1315
 8296SOL     OW27204   3.855   6.173   8.934 -0.0294 -0.1974 -0.0250
 8296SOL    HW127205   3.841   6.083   8.906 -3.8408  0.8707 -2.4010
 8296SOL    HW227206   3.890   6.217   8.857 -1.6156  0.9486 -0.1572
 8297SOL     OW27207   5.495   6.702   0.222 -0.2463 -0.1817  0.0532
 8297SOL    HW127208   5.565   6.677   0.282  0.6263 -1.8168 -1.5493
 8297SOL    HW227209   5.501   6.797   0.217  2.6211 -0.3140 -0.8632
 8298SOL     OW27210   7.568  10.531   0.825  0.4499  0.6451 -0.1401
 8298SOL    HW127211   7.662  10.548   0.819  0.5014  0.3886 -0.0375
 8298SOL    HW227212   7.551  10.516   0.918  0.1898  1.3592 -0.0612
 8299SOL     OW27213   5.393   5.569   9.003  0.1403 -0.0281  0.2235
 8299SOL    HW127214   5.307   5.543   8.970  0.7501 -0.8471 -0.7986
 8299SOL    HW227215   5.398   5.532   9.091  0.2773 -1.9308 -0.5304
 8300SOL     OW27216   1.044   7.912   8.437 -0.2255  1.1526 -0.2079
 8300SOL    HW127217   1.083   7.994   8.407  0.9932  0.4494 -0.6344
 8300SOL    HW227218   1.119   7.859   8.465 -1.0668  0.5408  0.9859
 8301SOL     OW27219   2.589   9.284   1.758 -0.1130  0.0348  0.4695
 8301SOL    HW127220   2.589   9.305   1.665 -0.0723 -1.0720  0.2092
 8301SOL    HW227221   2.574   9.190   1.762  2.4813 -0.4321  1.4511
 8302SOL     OW27222   5.650   5.393   9.967 -0.2661 -0.1713  0.3741
 8302SOL    HW127223   5.742   5.415   9.952 -0.2145 -0.7374 -0.1606
 8302SOL    HW227224   5.617   5.465  10.021 -0.0034  1.0337 -1.0002
 8303SOL     OW27225   5.848   5.314   8.581  0.3978  0.4472 -0.5341
 8303SOL    HW127226   5.765   5.305   8.534  0.9181 -0.5034 -1.3284
 8303SOL    HW227227   5.861   5.229   8.623  0.8941  0.6336 -0.2976
 8304SOL     OW27228   9.211   8.949   4.705  0.3761  0.3098  0.2635
 8304SOL    HW127229   9.167   8.871   4.740 -0.1016  0.7818  0.7189
 8304SOL    HW227230   9.283   8.913   4.653 -1.0887 -0.5284 -1.2938
 8305SOL     OW27231   1.774   2.609   3.701 -0.0375  0.4483  0.1713
 8305SOL    HW127232   1.794   2.527   3.745  0.2684  0.2724 -0.2823
 8305SOL    HW227233   1.809   2.598   3.612 -2.2416  0.0648 -0.7302
 8306SOL     OW27234   4.444   7.600   1.390  0.5800  0.1949  0.1442
 8306SOL    HW127235   4.419   7.691   1.377  0.5628  0.5639  2.3480
 8306SOL    HW227236   4.395   7.552   1.323 -0.3890  1.6608 -0.2486
 8307SOL     OW27237   2.707   9.485   7.891 -0.0476  0.0447 -0.0726
 8307SOL    HW127238   2.705   9.537   7.810  0.6191 -0.5465 -0.4780
 8307SOL    HW227239   2.626   9.434   7.888 -0.9635  1.4095  0.5786
 8308SOL     OW27240   3.954   8.981   1.491 -0.1375 -0.0867  0.4017
 8308SOL    HW127241   4.040   9.015   1.518 -0.1648  0.6499 -0.4099
 8308SOL    HW227242   3.974   8.924   1.416 -0.5202  1.4795 -0.9273
 8309SOL     OW27243   4.399   3.829   0.461 -0.8221 -0.2559  0.2571
 8309SOL    HW127244   4.488   3.837   0.425 -0.4858  1.4096  1.3439
 8309SOL    HW227245   4.411   3.778   0.541 -0.9945 -0.7558 -0.0298
 8310SOL     OW27246   7.589   2.552   7.058 -0.3234 -0.0065  0.0211
 8310SOL    HW127247   7.597   2.584   7.148 -1.1914 -0.6605  0.3499
 8310SOL    HW227248   7.536   2.618   7.014  0.0030  0.2552  0.0136
 8311SOL     OW27249   0.619   8.146   8.488  0.5866 -0.4419 -0.2243
 8311SOL    HW127250   0.683   8.079   8.511  0.6520 -0.4384 -0.4010
 8311SOL    HW227251   0.628   8.158   8.394  0.6552 -0.1014 -0.1772
 8312SOL     OW27252   7.810   3.688  10.367  0.5715 -0.4364  0.3348
 8312SOL    HW127253   7.801   3.735  10.285 -1.3158  0.5273  1.0315
 8312SOL    HW227254   7.741   3.622  10.364  0.0599  0.0306  1.3998
 8313SOL     OW27255   2.529   3.280   0.093 -0.2481  0.3958  0.2532
 8313SOL    HW127256   2.466   3.346   0.064 -0.3261  0.8775  1.4666
 8313SOL    HW227257   2.603   3.288   0.032 -0.3600  1.4412  0.2525
 8314SOL     OW27258   2.597   2.328   1.614  0.1853  0.9192 -0.4297
 8314SOL    HW127259   2.545   2.253   1.586  0.4899  1.0084 -1.2621
 8314SOL    HW227260   2.538   2.403   1.609 -0.3343  0.6636  1.0906
 8315SOL     OW27261   8.501   1.479   9.373 -0.5611  0.2931 -0.4888
 8315SOL    HW127262   8.539   1.395   9.349 -1.5231 -0.4176  0.3618
 8315SOL    HW227263   8.472   1.467   9.463 -2.4637  0.8810 -0.9756
 8316SOL     OW27264   4.305   9.333   6.918 -0.5023 -0.7631  0.0231
 8316SOL    HW127265   4.264   9.408   6.875 -0.4905  0.1078  1.4753
 8316SOL    HW227266   4.385   9.317   6.867 -1.3117 -0.8400 -1.2677
 8317SOL     OW27267   5.413   2.730   6.200  0.5870 -0.2405  0.0344
 8317SOL    HW127268   5.446   2.640   6.203  0.3281 -0.3109  0.9057
 8317SOL    HW227269   5.439   2.762   6.114  1.0638 -1.0064 -0.1121
 8318SOL     OW27270   8.026   3.389   9.987 -0.5915  0.3659  0.0919
 8318SOL    HW127271   8.053   3.326   9.920 -2.4520 -0.0973 -0.2845
 8318SOL    HW227272   8.044   3.345  10.070 -0.4364 -0.0261 -0.1460
 8319SOL     OW27273   5.325   1.918   9.918 -0.3117  0.4526  0.5971
 8319SOL    HW127274   5.285   1.994   9.961 -0.3847  0.6129  0.2575
 8319SOL    HW227275   5.250   1.864   9.892 -0.2623  0.2914  0.7872
 8320SOL     OW27276   0.960  10.349   8.266  0.2398 -0.2753 -0.2182
 8320SOL    HW127277   0.952  10.443   8.285  2.5553  0.0779 -0.5676
 8320SOL    HW227278   0.910  10.337   8.185 -0.8384  0.4435  0.3157
 8321SOL     OW27279   5.186   7.498   7.230  0.0518  0.0519  0.6427
 8321SOL    HW127280   5.218   7.559   7.164 -0.0750  0.1861  0.7072
 8321SOL    HW227281   5.123   7.443   7.184  0.9666 -0.7512  0.3017
 8322SOL     OW27282   0.004   5.420   4.026  0.0442  0.0737  0.3456
 8322SOL    HW127283   0.091   5.430   3.986 -0.0508  0.0785  0.1379
 8322SOL    HW227284  -0.052   5.480   3.977  0.1169  0.7753  1.0992
 8323SOL     OW27285   2.411   7.854   5.139  0.4841  0.0674  0.2122
 8323SOL    HW127286   2.321   7.842   5.108  0.4787 -1.3699  0.6712
 8323SOL    HW227287   2.417   7.946   5.164 -0.8439  0.1992  0.1006
 8324SOL     OW27288   6.386  10.449   2.302 -0.2856 -0.5678  0.3038
 8324SOL    HW127289   6.383  10.485   2.391  2.7135  0.0138  0.2459
 8324SOL    HW227290   6.439  10.510   2.252 -0.7358 -1.6208 -1.5655
 8325SOL     OW27291   8.465  10.578   8.376 -0.8658  0.5825 -0.4844
 8325SOL    HW127292   8.452  10.636   8.451  0.6861  0.1465  0.1626
 8325SOL    HW227293   8.485  10.493   8.415 -1.0016  0.1182 -1.4064
 8326SOL     OW27294   8.115   3.133   4.182 -0.1242 -0.5754  0.2402
 8326SOL    HW127295   8.091   3.057   4.129  1.1154 -2.2426  1.9203
 8326SOL    HW227296   8.035   3.184   4.190 -1.4336 -2.5666  0.3983
 8327SOL     OW27297   8.408   2.897   5.766 -0.7997  0.0088 -0.3162
 8327SOL    HW127298   8.499   2.894   5.737 -0.5834 -0.0548  0.3612
 8327SOL    HW227299   8.367   2.962   5.709 -0.5753 -0.6736 -1.2876
 8328SOL     OW27300   3.938   5.074   5.218 -0.9665  0.4426 -0.0955
 8328SOL    HW127301   4.010   5.074   5.154 -1.9559 -0.9357 -1.2890
 8328SOL    HW227302   3.859   5.086   5.165 -1.7006  1.0182  1.0869
 8329SOL     OW27303   9.352   4.903   1.667 -0.2468  0.5639 -0.0616
 8329SOL    HW127304   9.370   4.840   1.598  0.2947 -0.9935  1.4442
 8329SOL    HW227305   9.438   4.932   1.696 -0.4746  1.2319 -0.0210
 8330SOL     OW27306   3.000   9.810   8.207  0.1146 -0.0240 -0.4423
 8330SOL    HW127307   3.018   9.889   8.157  1.0946  0.0263 -0.0327
 8330SOL    HW227308   2.971   9.745   8.142 -0.5197  0.6108 -0.8004
 8331SOL     OW27309   5.356  10.082   8.352  0.3580  0.0610 -0.4226
 8331SOL    HW127310   5.323  10.160   8.397  1.6778  0.7748 -0.6491
 8331SOL    HW227311   5.307  10.010   8.392 -0.8620  0.9856 -0.1773
 8332SOL     OW27312   4.937   3.041  10.259 -0.1958  0.3161  0.1502
 8332SOL    HW127313   5.015   3.096  10.262 -1.0148  1.7252 -1.8434
 8332SOL    HW227314   4.902   3.043  10.348  0.0784  2.7096  0.2797
 8333SOL     OW27315   8.092   1.381   8.758  0.4515  0.0067 -0.6073
 8333SOL    HW127316   8.029   1.405   8.690 -0.6635 -0.3684  0.2618
 8333SOL    HW227317   8.174   1.422   8.730  0.0763 -0.3008 -2.2652
 8334SOL     OW27318  10.420   6.762   0.846  0.8728  0.0986 -0.0460
 8334SOL    HW127319  10.493   6.742   0.904  0.4817  1.1173  0.8242
 8334SOL    HW227320  10.454   6.828   0.786  0.9632 -0.1806 -0.3061
 8335SOL     OW27321   5.098   2.518   2.026 -0.5175  0.2667  0.2865
 8335SOL    HW127322   5.074   2.497   1.936  1.8629 -1.5949 -0.0418
 8335SOL    HW227323   5.088   2.436   2.073  2.9180 -0.1893  0.5026
 8336SOL     OW27324   8.057   7.892   7.420 -0.1859 -0.3524  0.4407
 8336SOL    HW127325   8.066   7.798   7.407 -0.3058 -0.6285  2.1657
 8336SOL    HW227326   8.007   7.922   7.343  1.3179 -1.3825 -1.0030
 8337SOL     OW27327   4.391  10.009   6.134  0.5031  0.0364  0.0732
 8337SOL    HW127328   4.402   9.925   6.090  0.0238 -0.1026  0.2128
 8337SOL    HW227329   4.410   9.991   6.226 -2.8445 -0.7393  0.7720
 8338SOL     OW27330   4.949   2.902  10.022 -0.2362  0.5373 -0.0299
 8338SOL    HW127331   4.919   2.959  10.092 -0.5479 -0.6795  0.8409
 8338SOL    HW227332   5.025   2.948   9.986 -1.0661  1.9787 -0.0188
 8339SOL     OW27333   1.695   4.439  10.314  0.0645 -0.8379 -0.4989
 8339SOL    HW127334   1.682   4.364  10.372  1.9220 -1.4202 -0.7740
 8339SOL    HW227335   1.790   4.449  10.309 -0.1123  1.6910 -0.2898
 8340SOL     OW27336   6.117   5.721   8.040  0.1887 -0.0844 -0.5558
 8340SOL    HW127337   6.100   5.671   8.120  3.7069  0.0164  0.4194
 8340SOL    HW227338   6.131   5.654   7.973  0.3497 -0.2920 -0.3183
 8341SOL     OW27339   4.387   4.375   8.726  0.0742  0.4136  0.3572
 8341SOL    HW127340   4.316   4.354   8.666 -0.2819  1.1846  0.4946
 8341SOL    HW227341   4.346   4.376   8.812  0.5800 -0.6698  0.6291
 8342SOL     OW27342   4.288  10.229   8.170 -0.2771  0.5066 -0.7795
 8342SOL    HW127343   4.344  10.167   8.217  0.2925  1.9973  0.6199
 8342SOL    HW227344   4.200  10.195   8.181  0.0050  0.0120  0.0941
 8343SOL     OW27345   5.573   5.086   6.752 -0.7937  0.4147  0.2788
 8343SOL    HW127346   5.501   5.102   6.813 -0.5880  1.0790  0.3569
 8343SOL    HW227347   5.537   5.110   6.667 -0.5498  1.1248  0.3690
 8344SOL     OW27348   9.028   8.097   1.057  0.8589 -0.5900 -0.6246
 8344SOL    HW127349   9.018   8.066   1.147  0.6882  1.4428  0.1171
 8344SOL    HW227350   8.938   8.106   1.025  0.8648  0.1879 -0.4336
 8345SOL     OW27351   7.927   3.170   6.409 -0.4926  0.7621 -1.1203
 8345SOL    HW127352   8.014   3.166   6.369 -0.9179  0.8422 -2.0871
 8345SOL    HW227353   7.887   3.085   6.390 -0.2765  0.3505  0.1826
 8346SOL     OW27354   3.764   9.513   0.182  0.4031  0.3095  0.3340
 8346SOL    HW127355   3.749   9.459   0.104  1.0176 -2.1733  1.8377
 8346SOL    HW227356   3.677   9.536   0.213  0.0878 -0.9947  0.4306
 8347SOL     OW27357   4.638   9.712   1.653  0.3821  0.5409 -0.0598
 8347SOL    HW127358   4.701   9.664   1.706  1.6033  1.8693 -0.2459
 8347SOL    HW227359   4.566   9.731   1.713  0.9855  0.5734  0.6725
 8348SOL     OW27360   3.775   9.052   9.377  0.0402 -0.5086 -0.3579
 8348SOL    HW127361   3.746   9.041   9.467 -1.1833  3.5273 -0.0502
 8348SOL    HW227362   3.871   9.058   9.383  0.1439 -2.3799  0.3052
 8349SOL     OW27363   4.108   0.298   8.684 -0.6344 -0.1328  0.0674
 8349SOL    HW127364   4.132   0.390   8.699  1.2911 -0.8248  1.6325
 8349SOL    HW227365   4.052   0.275   8.758 -0.5160 -0.4134  0.0708
 8350SOL     OW27366   5.548   6.410   6.893 -0.3436  0.0310  0.0813
 8350SOL    HW127367   5.624   6.405   6.836  2.0430  0.6869  2.9779
 8350SOL    HW227368   5.479   6.446   6.837  1.9891  1.2939 -2.2024
 8351SOL     OW27369   6.505  10.013   1.619  0.0523 -0.0200  0.4166
 8351SOL    HW127370   6.515   9.989   1.527 -1.3028  1.6436 -0.2244
 8351SOL    HW227371   6.569   9.960   1.665  1.4562 -0.1767 -1.5968
 8352SOL     OW27372   7.446   3.628   4.274 -0.5315 -0.2487 -0.1915
 8352SOL    HW127373   7.465   3.536   4.289 -0.5598  0.1279  2.5357
 8352SOL    HW227374   7.521   3.661   4.226  0.1036 -1.3877 -0.0099
 8353SOL     OW27375   1.926   7.248   3.709  0.5195  0.0273  0.5353
 8353SOL    HW127376   1.992   7.258   3.778  2.1503  0.9631 -1.0785
 8353SOL    HW227377   1.875   7.329   3.713  0.8609  0.2496  0.3831
 8354SOL     OW27378   4.361   2.193   4.177 -0.0978 -0.1079  0.1106
 8354SOL    HW127379   4.404   2.211   4.260 -1.6440 -2.3564  1.4927
 8354SOL    HW227380   4.290   2.258   4.172  1.9940  2.2858 -1.2244
 8355SOL     OW27381   7.951   9.997   0.897 -0.1731 -0.0666 -0.2788
 8355SOL    HW127382   7.928  10.016   0.988  0.2388  1.4019 -0.4489
 8355SOL    HW227383   8.026   9.938   0.903 -0.4372 -0.3520  0.3221
 8356SOL     OW27384   4.197   4.082   8.983 -0.9728  0.0338  0.4488
 8356SOL    HW127385   4.265   4.082   9.051 -0.4307  0.5709 -0.0755
 8356SOL    HW227386   4.115   4.095   9.030 -0.9423 -2.2795  1.2852
 8357SOL     OW27387   4.616   1.055   3.928  0.3733  0.1161  0.2504
 8357SOL    HW127388   4.580   1.097   4.006  0.0237  1.1329 -0.4473
 8357SOL    HW227389   4.696   1.103   3.910  0.2952  0.0775 -0.1991
 8358SOL     OW27390   0.025   4.162   1.938 -0.0186  0.1298  0.1937
 8358SOL    HW127391  -0.005   4.099   1.872 -1.6644  1.2540 -0.1895
 8358SOL    HW227392   0.006   4.120   2.022  0.6532 -0.6646 -0.0434
 8359SOL     OW27393   4.533   4.533   3.583 -0.2841 -0.3323  0.4108
 8359SOL    HW127394   4.585   4.453   3.576 -1.5863 -1.2039  0.2573
 8359SOL    HW227395   4.463   4.511   3.645 -1.9783 -0.1097 -1.2979
 8360SOL     OW27396   3.968   0.523   8.497  0.1154 -0.2968 -0.3538
 8360SOL    HW127397   4.036   0.546   8.560  0.7690 -0.0430 -1.1466
 8360SOL    HW227398   3.934   0.439   8.529  0.1241  0.0475  0.5839
 8361SOL     OW27399   1.146   2.608   6.861  0.0219  0.1245 -0.1749
 8361SOL    HW127400   1.076   2.669   6.882 -0.1572 -0.4295  0.8853
 8361SOL    HW227401   1.189   2.646   6.784 -0.8740  0.9204 -0.2945
 8362SOL     OW27402   7.638   9.918   7.767 -0.4307  0.1048  0.3021
 8362SOL    HW127403   7.584   9.929   7.688 -1.2978 -0.3056  0.8196
 8362SOL    HW227404   7.651  10.007   7.800  0.8115  0.3834 -0.8515
 8363SOL     OW27405   6.560   4.441   5.547  0.6644 -0.1710 -0.3737
 8363SOL    HW127406   6.605   4.358   5.533  0.0042 -0.4393 -0.9735
 8363SOL    HW227407   6.507   4.427   5.625  2.0732  0.3597  0.7399
 8364SOL     OW27408   7.729   9.547   2.791 -0.2015  0.5486 -0.4615
 8364SOL    HW127409   7.746   9.610   2.721 -0.2444  0.9428 -0.1195
 8364SOL    HW227410   7.679   9.477   2.748 -0.9639  1.1969 -0.6454
 8365SOL     OW27411   6.546   4.711   6.491 -0.2926 -0.1872  0.1418
 8365SOL    HW127412   6.625   4.739   6.537  1.0869 -1.7069 -1.1559
 8365SOL    HW227413   6.565   4.622   6.462 -1.7648  0.0388 -1.7664
 8366SOL     OW27414   3.721   4.218   4.925  0.1049  0.1386  0.0636
 8366SOL    HW127415   3.693   4.202   5.016  1.0096  0.6417  0.4363
 8366SOL    HW227416   3.734   4.130   4.889  2.7736 -0.1031  1.3913
 8367SOL     OW27417   1.524   6.304   8.989 -0.5412 -0.2708 -0.2760
 8367SOL    HW127418   1.609   6.301   9.033 -0.3730  0.5051 -0.5395
 8367SOL    HW227419   1.540   6.265   8.903 -0.5973 -0.6875 -0.0999
 8368SOL     OW27420   4.205   9.011   8.179 -0.0435 -0.2548  0.4016
 8368SOL    HW127421   4.297   9.004   8.151 -0.9813 -0.3066 -3.1783
 8368SOL    HW227422   4.182   9.102   8.161 -0.8789 -0.4257  0.5872
 8369SOL     OW27423   9.689   8.967  10.268  0.0380 -0.2683  0.7867
 8369SOL    HW127424   9.627   8.896  10.252 -1.0125  0.4256  1.6806
 8369SOL    HW227425   9.772   8.922  10.286 -0.5020 -1.2560  0.9091
 8370SOL     OW27426   3.922   3.666   3.251  0.1077 -0.1034  0.1036
 8370SOL    HW127427   3.845   3.658   3.195  1.8071 -0.6260 -2.3465
 8370SOL    HW227428   3.906   3.605   3.323 -2.7572  1.5524  1.0338
 8371SOL     OW27429   6.261   6.662   1.295 -0.0228  0.5804  0.2561
 8371SOL    HW127430   6.197   6.629   1.232 -0.0488  1.2493 -0.0807
 8371SOL    HW227431   6.292   6.745   1.257  0.6377  0.5412  0.6787
 8372SOL     OW27432   4.144   8.066   5.177  0.3689  0.8221  0.0057
 8372SOL    HW127433   4.061   8.034   5.212  0.5343  0.3853  0.0020
 8372SOL    HW227434   4.132   8.068   5.082  0.5463  0.2339 -0.0314
 8373SOL     OW27435   3.670   3.620   3.131 -0.3496  0.1703  0.4770
 8373SOL    HW127436   3.656   3.712   3.110 -0.7832 -0.3284 -1.6535
 8373SOL    HW227437   3.629   3.572   3.058 -0.3272 -1.7105  1.6358
 8374SOL     OW27438   3.650   4.996   7.721  0.5242 -0.3877 -0.3494
 8374SOL    HW127439   3.564   4.979   7.684 -0.4088  1.5489  0.7393
 8374SOL    HW227440   3.676   5.080   7.683  0.4806  0.5974  1.6345
 8375SOL     OW27441   7.151   0.245   2.577 -0.3274  0.1720  0.0949
 8375SOL    HW127442   7.089   0.177   2.550  0.0265 -0.3146  0.5038
 8375SOL    HW227443   7.209   0.202   2.639  0.7885  0.4675 -0.7071
 8376SOL     OW27444   1.090   1.837   0.328 -0.3909 -0.4457  0.3548
 8376SOL    HW127445   1.002   1.855   0.295 -0.3986 -1.7550 -0.3919
 8376SOL    HW227446   1.078   1.764   0.389  0.3489 -1.6993 -0.9326
 8377SOL     OW27447   6.987   6.476   4.992 -0.1951 -0.0209 -0.5653
 8377SOL    HW127448   7.004   6.394   4.946  0.5687  0.5792 -1.4015
 8377SOL    HW227449   6.908   6.511   4.951 -1.8619 -1.3735  1.3029
 8378SOL     OW27450   0.140   9.735   9.546  1.1532 -0.4165 -0.0481
 8378SOL    HW127451   0.148   9.814   9.600  0.0823 -0.9594  0.9507
 8378SOL    HW227452   0.091   9.763   9.469  2.5315  0.3260 -0.6990
 8379SOL     OW27453  10.499   5.503   1.990 -0.3474  0.8656  0.0745
 8379SOL    HW127454  10.473   5.580   1.939 -0.4891 -0.0675 -1.3062
 8379SOL    HW227455  10.593   5.512   2.001 -0.5161  1.8026  0.9284
 8380SOL     OW27456   5.612   5.928   2.877  0.0820  0.6769  0.5230
 8380SOL    HW127457   5.665   5.962   2.949 -1.2704  3.7491  0.2032
 8380SOL    HW227458   5.609   5.834   2.892  1.3027  1.0086  3.4444
 8381SOL     OW27459   1.247   1.027   7.949 -0.6369  0.2571  0.0623
 8381SOL    HW127460   1.305   1.047   8.022  0.9023  1.8324 -1.4808
 8381SOL    HW227461   1.269   0.937   7.925 -0.3977  0.0938  0.8565
 8382SOL     OW27462   5.288   8.101   2.870 -0.7952  0.1700  0.0857
 8382SOL    HW127463   5.320   8.013   2.889  1.6358  0.1876 -3.0751
 8382SOL    HW227464   5.302   8.150   2.951  0.4268 -1.6678  1.0560
 8383SOL     OW27465   9.255   6.106   4.373 -0.1090 -0.4373  0.1060
 8383SOL    HW127466   9.227   6.117   4.282 -0.9814 -1.3188  0.2425
 8383SOL    HW227467   9.181   6.139   4.425  0.2038 -0.3393  0.4907
 8384SOL     OW27468  10.568   6.228   6.342  0.1151 -0.1503  0.7551
 8384SOL    HW127469  10.501   6.180   6.393  0.1124  1.3368  2.2319
 8384SOL    HW227470  10.609   6.286   6.406  0.6848  1.2263 -0.8105
 8385SOL     OW27471   1.090   8.181   7.438 -0.6318 -0.0035  0.0101
 8385SOL    HW127472   1.030   8.252   7.462 -0.8734 -0.1638 -0.1125
 8385SOL    HW227473   1.177   8.217   7.454 -0.7229  0.5909 -0.7615
 8386SOL     OW27474   7.914   8.433   7.782  0.3786  0.1348 -0.1724
 8386SOL    HW127475   7.969   8.449   7.859 -1.2318  1.9054  0.6734
 8386SOL    HW227476   7.954   8.485   7.713 -0.7366  2.3114  0.7183
 8387SOL     OW27477   1.354   4.315   7.862 -0.7063  0.2107 -0.2148
 8387SOL    HW127478   1.318   4.227   7.862 -2.0201  0.6746  1.4580
 8387SOL    HW227479   1.284   4.370   7.826  0.8093  0.4120 -3.1307
 8388SOL     OW27480   9.984   0.914   5.295 -0.0380 -0.3114  0.1314
 8388SOL    HW127481  10.071   0.881   5.318  0.5676  0.4235 -1.0165
 8388SOL    HW227482   9.981   1.002   5.331 -0.0199 -0.0608 -0.4778
 8389SOL     OW27483   5.228   6.357   5.165  0.4596  0.0446 -0.0849
 8389SOL    HW127484   5.296   6.340   5.230 -0.1609  0.4363  0.6876
 8389SOL    HW227485   5.192   6.271   5.145  0.9779 -0.1321 -0.2839
 8390SOL     OW27486   6.535   3.452   3.034  0.0841  0.0757 -0.5776
 8390SOL    HW127487   6.521   3.467   2.941  0.0328 -1.1756 -0.7918
 8390SOL    HW227488   6.626   3.477   3.050  0.0681  0.3625 -0.9474
 8391SOL     OW27489   1.479   5.161   9.117 -0.4013 -0.1220 -0.6836
 8391SOL    HW127490   1.474   5.066   9.115  1.9044 -0.2831 -1.0881
 8391SOL    HW227491   1.555   5.181   9.171  0.0216  1.4299 -1.7637
 8392SOL     OW27492   8.990   2.492   3.126  0.2306 -0.0727  0.0038
 8392SOL    HW127493   9.035   2.458   3.203 -0.3757 -0.1612  0.3315
 8392SOL    HW227494   8.920   2.428   3.109  1.9451 -1.4921 -2.2199
 8393SOL     OW27495   7.199   2.720   5.186  0.0380 -0.8543  0.4661
 8393SOL    HW127496   7.224   2.634   5.220 -0.7999 -1.7806 -1.1763
 8393SOL    HW227497   7.267   2.741   5.122 -0.4285 -0.8678 -0.0380
 8394SOL     OW27498   2.661   6.215   7.956  0.2988 -0.1933 -0.4027
 8394SOL    HW127499   2.744   6.250   7.991  0.5847 -1.5662  0.3739
 8394SOL    HW227500   2.679   6.123   7.940 -0.9149 -0.3729 -0.8273
 8395SOL     OW27501  10.104   4.510   6.905  0.4140 -0.3096  0.6687
 8395SOL    HW127502  10.062   4.591   6.876 -0.6029 -0.0289  2.7582
 8395SOL    HW227503  10.169   4.491   6.837 -2.6490 -0.4995 -2.5228
 8396SOL     OW27504   8.058   8.375   6.195 -0.5310 -0.2676 -0.1013
 8396SOL    HW127505   7.990   8.388   6.129  0.4325 -0.8668 -1.2401
 8396SOL    HW227506   8.074   8.280   6.195  1.7436  0.0495 -1.3790
 8397SOL     OW27507   6.693   1.963   2.837 -0.1348  0.2766  0.2621
 8397SOL    HW127508   6.782   1.944   2.865 -0.3745  0.3960  1.1323
 8397SOL    HW227509   6.644   1.975   2.918 -1.7869 -3.3040 -0.0447
 8398SOL     OW27510   4.856   8.341   4.922  0.5113  0.4298 -0.4697
 8398SOL    HW127511   4.882   8.278   4.990  0.4414  1.3663  0.4443
 8398SOL    HW227512   4.848   8.424   4.968  0.5759  1.1164 -1.6572
 8399SOL     OW27513   0.886   7.570   3.106 -0.3053 -0.1383 -0.2525
 8399SOL    HW127514   0.892   7.513   3.183 -1.3495 -0.6197 -0.5066
 8399SOL    HW227515   0.869   7.510   3.034 -2.2510  0.5287 -0.4049
 8400SOL     OW27516   0.898   8.899   6.537 -0.3639  0.7260 -0.4307
 8400SOL    HW127517   0.965   8.952   6.495 -0.0107 -1.7508 -3.3245
 8400SOL    HW227518   0.935   8.879   6.624  0.3646  3.3503 -0.0517
 8401SOL     OW27519  10.313   8.159   6.552  0.0208  0.2537  0.2978
 8401SOL    HW127520  10.246   8.093   6.537 -0.4663  0.4705  1.4480
 8401SOL    HW227521  10.265   8.240   6.564  0.4008  0.2685  1.9781
 8402SOL     OW27522  10.558   3.821   7.237  1.0093  0.3937  0.2107
 8402SOL    HW127523  10.592   3.750   7.182  0.3458 -0.0920  0.4132
 8402SOL    HW227524  10.529   3.888   7.175 -3.2286 -1.6514 -0.3825
 8403SOL     OW27525   5.831   0.757   3.900 -0.1057  0.5037 -0.0418
 8403SOL    HW127526   5.828   0.852   3.892  0.2921  0.6545  1.3791
 8403SOL    HW227527   5.791   0.725   3.819  1.9671  1.8213 -1.6638
 8404SOL     OW27528   1.182   8.903   2.153 -0.3024 -0.6208  0.2034
 8404SOL    HW127529   1.159   8.996   2.157 -2.2191 -1.0712  0.8760
 8404SOL    HW227530   1.246   8.897   2.083 -0.4320  1.1539 -0.1173
 8405SOL     OW27531   7.317   8.296   6.089 -0.0447 -0.0303  0.4778
 8405SOL    HW127532   7.311   8.348   6.009 -0.6944 -0.8641 -0.0349
 8405SOL    HW227533   7.226   8.282   6.115  0.1621  0.2367  1.3678
 8406SOL     OW27534   8.952  10.567   5.852  0.0442 -0.2944 -0.2351
 8406SOL    HW127535   8.979  10.656   5.828 -0.3218 -0.3044 -0.6749
 8406SOL    HW227536   9.034  10.517   5.854  0.2566  0.0557  0.0506
 8407SOL     OW27537   8.138   9.787   0.943  0.2367  0.2922 -0.3022
 8407SOL    HW127538   8.225   9.760   0.912  0.2170 -0.1368 -0.0009
 8407SOL    HW227539   8.096   9.705   0.970  0.6322  0.7257  1.8026
 8408SOL     OW27540   1.719   1.270   0.039  0.0260  0.5077 -0.3242
 8408SOL    HW127541   1.685   1.205   0.099 -0.3553  0.9714 -0.0327
 8408SOL    HW227542   1.768   1.219  -0.026  0.1225 -0.0251  0.1559
 8409SOL     OW27543   3.014  10.345  10.408  0.4754  0.1048 -0.1489
 8409SOL    HW127544   2.985  10.414  10.468  1.0473 -0.1567  0.4319
 8409SOL    HW227545   2.977  10.371  10.324 -0.7252  0.2414  0.3882
 8410SOL     OW27546   8.759   1.932   7.010 -0.6518 -0.1156  0.1479
 8410SOL    HW127547   8.737   1.840   6.997 -0.8608  0.0279 -0.5248
 8410SOL    HW227548   8.846   1.931   7.049 -0.0567 -0.5572 -1.1579
 8411SOL     OW27549   9.409   1.541   7.414 -0.0140 -0.0500 -0.8419
 8411SOL    HW127550   9.383   1.583   7.495  1.5647 -0.3509 -0.1444
 8411SOL    HW227551   9.401   1.610   7.347 -0.3801  0.4807 -0.2571
 8412SOL     OW27552   3.332   4.515   8.232 -0.0032  0.3963 -0.1549
 8412SOL    HW127553   3.418   4.544   8.261 -0.2571 -0.0848  1.1248
 8412SOL    HW227554   3.350   4.447   8.167  0.5660  1.5301 -1.2389
 8413SOL     OW27555   5.285   0.491   6.671  0.6847  0.0966  0.3175
 8413SOL    HW127556   5.352   0.558   6.684  2.1099 -1.1346 -0.3538
 8413SOL    HW227557   5.302   0.456   6.584 -2.6497  1.6442 -1.1002
 8414SOL     OW27558   9.395   4.132   6.589 -0.0586  0.5140  0.1998
 8414SOL    HW127559   9.414   4.215   6.544 -1.3254  1.0339  0.5798
 8414SOL    HW227560   9.377   4.157   6.679  0.2284 -0.2644  0.4800
 8415SOL     OW27561   4.686   2.293   6.761 -0.7529 -0.0425 -0.1687
 8415SOL    HW127562   4.716   2.384   6.766  0.9905 -0.6073  0.3385
 8415SOL    HW227563   4.596   2.300   6.729 -0.7322  1.8655  0.0358
 8416SOL     OW27564   1.893   8.162  10.450  0.4496 -0.6827  0.4292
 8416SOL    HW127565   1.911   8.253  10.426 -0.7343 -0.4761  0.2754
 8416SOL    HW227566   1.926   8.110  10.376  0.4918 -0.3314  0.1998
 8417SOL     OW27567   5.918   1.686   9.998  0.1159  0.0033  0.0521
 8417SOL    HW127568   5.916   1.771   9.953  0.8223  0.0840  0.1672
 8417SOL    HW227569   5.830   1.678  10.036 -1.3442 -1.1129 -3.1792
 8418SOL     OW27570   1.471   1.942   3.181  0.3517  0.5332 -0.2157
 8418SOL    HW127571   1.538   1.942   3.249 -1.5725  0.3148  1.7788
 8418SOL    HW227572   1.453   2.034   3.164 -0.1301  0.6036  0.6199
 8419SOL     OW27573   3.870   5.231   9.585  0.2736  0.0361  0.6938
 8419SOL    HW127574   3.838   5.294   9.649  1.4083 -0.4698  1.8029
 8419SOL    HW227575   3.949   5.194   9.625  0.6057 -0.8192 -0.6896
 8420SOL     OW27576   5.871   6.486   3.471 -0.3697 -0.1099 -0.5077
 8420SOL    HW127577   5.781   6.498   3.442 -0.6973  0.1617  0.5700
 8420SOL    HW227578   5.868   6.409   3.529 -0.4445  1.3295  1.5326
 8421SOL     OW27579   5.707   7.518  10.491 -0.3928  0.2082  0.8506
 8421SOL    HW127580   5.751   7.564  10.561  0.7617 -0.0404  0.3161
 8421SOL    HW227581   5.613   7.528  10.510 -0.1162  0.8485  1.9432
 8422SOL     OW27582   3.031   8.220   7.972 -0.1331  0.6605 -0.4004
 8422SOL    HW127583   3.027   8.286   8.041 -0.2993  1.7038 -1.3718
 8422SOL    HW227584   3.124   8.198   7.964  0.0599  1.5922 -0.8010
 8423SOL     OW27585   3.067   1.107   8.885 -0.1127 -0.0741 -0.5427
 8423SOL    HW127586   3.127   1.046   8.842  0.2012 -0.0393 -0.1547
 8423SOL    HW227587   3.118   1.187   8.895  0.0700 -0.3219  0.5888
 8424SOL     OW27588   0.869   4.142   9.523 -0.6372 -0.1170  0.1640
 8424SOL    HW127589   0.917   4.197   9.585 -1.0383 -1.3069  1.5850
 8424SOL    HW227590   0.869   4.193   9.441  1.1002  0.8914  0.7244
 8425SOL     OW27591   1.023  10.109   2.414 -0.0018  0.0913 -0.0285
 8425SOL    HW127592   0.930  10.117   2.437  0.3675  1.4876  1.0538
 8425SOL    HW227593   1.059  10.196   2.426  1.1824 -0.0997 -1.7762
 8426SOL     OW27594   2.778   0.112   8.175 -0.3091  0.0913  0.8717
 8426SOL    HW127595   2.818   0.191   8.211  1.3982 -0.8225  1.0908
 8426SOL    HW227596   2.726   0.144   8.101 -1.1393  1.6020  2.0460
 8427SOL     OW27597   9.245   5.820   3.769 -0.3635  0.1698 -0.9773
 8427SOL    HW127598   9.156   5.854   3.756 -0.4629  0.0796 -0.5581
 8427SOL    HW227599   9.250   5.801   3.863 -0.6319 -1.8524 -1.3218
 8428SOL     OW27600   3.258   9.396   3.340  0.5582  0.5081  0.0528
 8428SOL    HW127601   3.317   9.466   3.367  0.9858  0.5905 -1.0311
 8428SOL    HW227602   3.173   9.421   3.376  0.8085  1.3278  0.1033
 8429SOL     OW27603   7.731   6.158   1.218  0.5390 -0.3764  0.4945
 8429SOL    HW127604   7.794   6.213   1.172 -0.8432 -0.3003 -1.4262
 8429SOL    HW227605   7.647   6.179   1.178 -0.7796 -0.3995  3.0317
 8430SOL     OW27606   7.848   6.068   2.749  0.3014 -0.3434  0.2102
 8430SOL    HW127607   7.865   6.123   2.673  0.2223  0.1646  0.5571
 8430SOL    HW227608   7.930   6.070   2.799 -0.2016  0.7509  1.0283
 8431SOL     OW27609   2.745   7.485   5.389  1.0868  0.2562 -0.8599
 8431SOL    HW127610   2.769   7.577   5.377 -1.4598  1.0174 -0.7052
 8431SOL    HW227611   2.712   7.457   5.304 -2.1153  0.8410  0.0806
 8432SOL     OW27612   7.324   9.406   4.597 -0.5350 -0.3976 -0.3064
 8432SOL    HW127613   7.282   9.457   4.667 -0.4829  0.9590 -1.2270
 8432SOL    HW227614   7.253   9.386   4.536  0.0848  2.1027 -1.9886
 8433SOL     OW27615   7.451   9.794   0.972 -0.7634 -0.0508  1.0391
 8433SOL    HW127616   7.440   9.889   0.976  1.7667  0.3903 -0.5069
 8433SOL    HW227617   7.369   9.760   1.007 -2.3757  2.6802  0.2930
 8434SOL     OW27618   6.172   6.948   7.370 -0.3906 -0.2614 -0.3394
 8434SOL    HW127619   6.092   6.998   7.382 -0.4360 -0.4508  0.1600
 8434SOL    HW227620   6.200   6.969   7.281  0.4968  1.9409  0.3989
 8435SOL     OW27621   4.681   6.252   1.587 -0.0343 -0.6232  0.6163
 8435SOL    HW127622   4.658   6.330   1.537 -0.1026  0.2063  1.8848
 8435SOL    HW227623   4.629   6.182   1.548  0.9121 -0.3135 -1.3197
 8436SOL     OW27624   0.245   1.277   2.276  0.7076  0.2418  0.1617
 8436SOL    HW127625   0.246   1.250   2.368 -1.4980 -1.3487 -0.2034
 8436SOL    HW227626   0.196   1.360   2.276 -2.3263 -1.3956  0.1767
 8437SOL     OW27627   6.271   5.556   7.842 -0.0424 -0.5841  0.4373
 8437SOL    HW127628   6.246   5.596   7.758 -0.8313 -2.5250 -0.3077
 8437SOL    HW227629   6.345   5.609   7.872 -0.4734  0.8672 -0.9009
 8438SOL     OW27630   5.267   3.744   7.780 -0.4544 -0.0082  0.7849
 8438SOL    HW127631   5.172   3.739   7.796 -0.0744 -0.5030  3.4118
 8438SOL    HW227632   5.306   3.723   7.865  2.0201  0.9514 -0.0307
 8439SOL     OW27633   6.485   0.714   6.427 -0.2399 -0.1549 -0.0880
 8439SOL    HW127634   6.555   0.778   6.413 -0.5778 -0.0264 -1.3045
 8439SOL    HW227635   6.426   0.726   6.352 -1.4297 -0.4460  0.7809
 8440SOL     OW27636   6.662   4.306  10.150  1.1067  0.4857  0.1547
 8440SOL    HW127637   6.706   4.240  10.203  0.1483 -0.6747 -0.4546
 8440SOL    HW227638   6.622   4.257  10.079  2.1984  1.9800 -1.5849
 8441SOL     OW27639   8.659   4.754   5.667 -0.6032  0.6785 -0.4013
 8441SOL    HW127640   8.666   4.743   5.572 -0.0592 -1.1227 -0.1962
 8441SOL    HW227641   8.750   4.756   5.698 -0.6468 -2.9920  0.4167
 8442SOL     OW27642  10.556   6.441  10.009  0.2551 -0.6232  0.0231
 8442SOL    HW127643  10.596   6.422  10.094  0.7509 -2.1325 -0.5068
 8442SOL    HW227644  10.514   6.359   9.983  0.4205 -0.3030 -1.3503
 8443SOL     OW27645   3.158   8.759   1.733  0.5033 -0.4826 -0.2394
 8443SOL    HW127646   3.168   8.812   1.654 -0.0379 -2.3777 -1.6711
 8443SOL    HW227647   3.223   8.690   1.724  0.8212 -0.4184  1.2951
 8444SOL     OW27648   7.040   1.937   0.857  0.0956 -0.5675 -0.2289
 8444SOL    HW127649   6.952   1.972   0.875  0.9906  1.4336  0.5697
 8444SOL    HW227650   7.065   1.979   0.774  1.2505  0.9403  0.8274
 8445SOL     OW27651   3.019   6.218   3.124  0.1884  0.7195  0.0372
 8445SOL    HW127652   3.024   6.149   3.058 -0.0549  0.7798 -0.0449
 8445SOL    HW227653   3.002   6.171   3.206  3.2472  0.3467  0.5962
 8446SOL     OW27654   2.395   4.729   3.256 -0.3856 -0.3026  0.5869
 8446SOL    HW127655   2.467   4.789   3.273 -0.7386  0.6905 -1.1484
 8446SOL    HW227656   2.437   4.645   3.238  0.1800 -0.3286  1.9253
 8447SOL     OW27657   6.718   6.793   2.830 -0.6169  0.3604 -0.0341
 8447SOL    HW127658   6.773   6.716   2.816  0.2655  1.1157 -0.8661
 8447SOL    HW227659   6.661   6.796   2.753 -2.1538 -0.6385  1.0028
 8448SOL     OW27660   3.847   9.816   2.526  0.4184 -0.4084  0.1214
 8448SOL    HW127661   3.832   9.722   2.538 -0.4059 -0.2575  0.3267
 8448SOL    HW227662   3.927   9.821   2.473  0.4696 -1.2220  0.1056
 8449SOL     OW27663   2.441   4.236   3.172 -0.4959  0.0015  0.5677
 8449SOL    HW127664   2.373   4.276   3.117 -0.3736  2.0459  1.8075
 8449SOL    HW227665   2.397   4.217   3.255  0.0322 -0.2890  0.7888
 8450SOL     OW27666   6.458   2.212   2.878  0.1202  0.2604  0.0208
 8450SOL    HW127667   6.387   2.148   2.871 -1.3956  1.9928 -1.7477
 8450SOL    HW227668   6.458   2.238   2.970 -1.5414  0.1646  0.0800
 8451SOL     OW27669   4.342  10.384   6.904  0.1694  0.3943  0.1969
 8451SOL    HW127670   4.292  10.324   6.961  1.8296 -1.0830  0.1748
 8451SOL    HW227671   4.292  10.465   6.906 -3.2264 -1.4586 -1.2161
 8452SOL     OW27672   1.407   6.977   9.938 -0.4545  0.3220 -0.1829
 8452SOL    HW127673   1.397   7.004   9.846  0.0112 -2.3653 -1.1129
 8452SOL    HW227674   1.502   6.982   9.953 -0.2343 -1.5459 -0.6952
 8453SOL     OW27675  10.422   5.900  10.059 -0.3259 -0.2780 -0.3425
 8453SOL    HW127676  10.354   5.863  10.003  0.2366  0.8193 -1.8172
 8453SOL    HW227677  10.415   5.995  10.047  0.3027 -0.0487  0.8940
 8454SOL     OW27678   8.598   1.807  10.109  0.6344 -0.1241  0.4714
 8454SOL    HW127679   8.671   1.866  10.091  0.1557  0.3055 -0.1002
 8454SOL    HW227680   8.616   1.774  10.197  2.0565 -0.8327 -0.0440
 8455SOL     OW27681   0.867   8.026   1.822 -0.5388 -0.0499  0.8323
 8455SOL    HW127682   0.824   8.033   1.737 -1.4919  0.2157  1.3217
 8455SOL    HW227683   0.928   8.100   1.823 -0.5406 -0.0363  0.3938
 8456SOL     OW27684   0.679   4.405   3.534  0.1192  0.3480 -0.6418
 8456SOL    HW127685   0.626   4.462   3.589  0.7022  2.0192 -1.7248
 8456SOL    HW227686   0.766   4.408   3.573  0.7844  2.3377 -2.0992
 8457SOL     OW27687   4.137   8.551   3.453 -0.1711 -0.2006 -0.2102
 8457SOL    HW127688   4.233   8.551   3.442 -0.0875 -0.6425  0.4576
 8457SOL    HW227689   4.120   8.624   3.512 -0.2516 -0.0806 -0.3825
 8458SOL     OW27690   1.966   8.456   6.542 -0.2461 -0.1244 -0.9574
 8458SOL    HW127691   1.972   8.509   6.621 -2.6551 -0.6976 -0.3342
 8458SOL    HW227692   2.029   8.385   6.556 -0.8389 -0.3740  0.5775
 8459SOL     OW27693   1.644   7.476   9.453 -0.3970 -0.0159  0.1213
 8459SOL    HW127694   1.740   7.484   9.451 -0.0675 -1.1841  3.4542
 8459SOL    HW227695   1.628   7.383   9.465 -1.8612  0.3143  1.0216
 8460SOL     OW27696   4.537   0.347   9.684 -0.3343 -0.1836  0.3726
 8460SOL    HW127697   4.470   0.413   9.702 -1.2547 -0.5805 -1.3135
 8460SOL    HW227698   4.609   0.397   9.644 -0.4911 -0.0306  0.2800
 8461SOL     OW27699   9.823  10.244   1.329  0.2270 -0.0963 -0.3627
 8461SOL    HW127700   9.760  10.311   1.355  1.3463  0.4307  1.0999
 8461SOL    HW227701   9.857  10.274   1.244 -2.5514 -1.1910 -2.0048
 8462SOL     OW27702   3.538   9.776   1.890  0.1499 -0.2389  0.1459
 8462SOL    HW127703   3.563   9.731   1.971 -0.1255 -0.6140  0.0267
 8462SOL    HW227704   3.448   9.747   1.873  0.4642 -0.7640 -0.7021
 8463SOL     OW27705   5.262   6.495   4.959 -0.1292  0.4408 -0.0822
 8463SOL    HW127706   5.338   6.552   4.969 -1.3629  2.1093  0.3041
 8463SOL    HW227707   5.272   6.429   5.028  1.4623  0.0207 -0.6926
 8464SOL     OW27708   0.124   2.192   6.394  0.1504 -0.1521  0.2822
 8464SOL    HW127709   0.214   2.214   6.418 -0.1316  0.7054  0.6006
 8464SOL    HW227710   0.075   2.274   6.406 -0.5191 -0.3882 -0.6577
 8465SOL     OW27711   0.686   3.082   6.874 -0.0574  0.4951 -0.0382
 8465SOL    HW127712   0.626   3.097   6.801 -0.4598 -0.0205  0.1788
 8465SOL    HW227713   0.630   3.074   6.951  0.2504 -0.3428  0.1141
 8466SOL     OW27714   4.789   8.898   8.778 -0.0297 -0.4327 -0.6083
 8466SOL    HW127715   4.714   8.956   8.790  1.2517  1.1579  0.2762
 8466SOL    HW227716   4.849   8.949   8.723  1.6949 -0.3016  1.2660
 8467SOL     OW27717   4.484   0.547   6.876  0.3382 -0.2825 -0.3994
 8467SOL    HW127718   4.516   0.577   6.791 -0.1238  0.0562 -0.4580
 8467SOL    HW227719   4.438   0.623   6.912  1.3759 -0.0894  0.5970
 8468SOL     OW27720   6.179   7.159   1.353 -0.0820 -0.2529 -0.6936
 8468SOL    HW127721   6.143   7.194   1.434  1.5093 -1.9700  0.8457
 8468SOL    HW227722   6.209   7.237   1.305 -0.4710  0.7697  0.6438
 8469SOL     OW27723   7.998   2.028   9.381 -0.3028  0.1601 -0.7782
 8469SOL    HW127724   8.042   2.079   9.449  0.2909 -1.7764  0.3824
 8469SOL    HW227725   7.927   2.084   9.351  0.4175  1.7077  0.2993
 8470SOL     OW27726   4.906   3.703   0.203  0.4539  0.0622  0.1762
 8470SOL    HW127727   4.963   3.780   0.198  0.6465 -0.1111 -0.3883
 8470SOL    HW227728   4.946   3.648   0.270  1.0251 -0.1197 -0.3141
 8471SOL     OW27729   5.797   2.458   6.050  0.5655  0.1604 -0.3700
 8471SOL    HW127730   5.715   2.418   6.020  0.1409 -0.0094  0.9788
 8471SOL    HW227731   5.805   2.538   5.997 -1.8538  1.6037  1.2384
 8472SOL     OW27732  10.311   4.218   4.144  0.0856  0.2305 -0.3190
 8472SOL    HW127733  10.399   4.183   4.159 -0.2683 -0.4276  0.2797
 8472SOL    HW227734  10.308   4.299   4.195  1.5277  2.2049 -3.1382
 8473SOL     OW27735   0.957   9.104   4.245 -0.2271 -0.1949 -0.1651
 8473SOL    HW127736   0.963   9.165   4.171  2.5158 -1.2616 -0.9582
 8473SOL    HW227737   1.000   9.151   4.317 -1.6781  0.2999  0.4229
 8474SOL     OW27738   7.204   8.720   7.153 -0.2112 -0.1039 -0.5706
 8474SOL    HW127739   7.198   8.731   7.058 -2.7516 -0.5661 -0.5222
 8474SOL    HW227740   7.197   8.626   7.167  2.5379 -0.3097  0.0243
 8475SOL     OW27741   4.530   7.466   7.830  0.0379  0.4100  0.0772
 8475SOL    HW127742   4.483   7.548   7.818 -0.1323  0.3241  0.1407
 8475SOL    HW227743   4.488   7.405   7.769  0.5824  0.5382 -0.4230
 8476SOL     OW27744   4.306   4.524   7.240  0.3664  0.0173 -0.3503
 8476SOL    HW127745   4.339   4.434   7.240  1.2341  0.3288  0.1765
 8476SOL    HW227746   4.281   4.540   7.331  1.6558  0.8120 -0.1060
 8477SOL     OW27747   4.873   2.201   4.123  0.2494  0.1432  0.2183
 8477SOL    HW127748   4.791   2.250   4.121 -0.0708 -0.4034 -0.1384
 8477SOL    HW227749   4.852   2.116   4.085  1.2810  0.4416 -1.0913
 8478SOL     OW27750   3.372   7.564   6.451  0.1311  0.1941  0.5735
 8478SOL    HW127751   3.467   7.561   6.435 -0.0374  0.0592 -0.4693
 8478SOL    HW227752   3.350   7.657   6.442  0.1102  0.1807  0.4859
 8479SOL     OW27753   8.928   4.217   5.729 -0.0330 -0.3661  0.2613
 8479SOL    HW127754   8.860   4.251   5.787 -0.8410 -1.6312  0.0859
 8479SOL    HW227755   8.990   4.174   5.789  0.5763  0.7060  0.4123
 8480SOL     OW27756   9.107   6.805   8.086 -0.1170 -0.4752  0.1650
 8480SOL    HW127757   9.160   6.726   8.073  1.7711  1.0093 -1.7868
 8480SOL    HW227758   9.035   6.796   8.023  1.2560  0.2554 -1.5749
 8481SOL     OW27759   8.056  10.516   1.865  0.8080 -0.5660 -0.0580
 8481SOL    HW127760   7.984  10.577   1.852  0.1113 -1.3985 -0.1304
 8481SOL    HW227761   8.068  10.474   1.780  0.2504 -1.6370  0.3698
 8482SOL     OW27762   8.238   0.565   5.139 -0.5395  0.9993 -0.1262
 8482SOL    HW127763   8.254   0.648   5.183  0.8727  0.7119 -0.0475
 8482SOL    HW227764   8.305   0.561   5.070  0.3970 -0.7104  0.8136
 8483SOL     OW27765   5.282   2.823   8.138  0.0222 -0.0762  0.1954
 8483SOL    HW127766   5.336   2.750   8.106 -0.5573  0.1222 -1.2607
 8483SOL    HW227767   5.210   2.780   8.184  0.3865 -0.3810  0.4983
 8484SOL     OW27768   6.747   8.178   8.609 -0.5194 -0.1275 -0.9923
 8484SOL    HW127769   6.833   8.211   8.583 -0.0481 -0.5176  0.0086
 8484SOL    HW227770   6.720   8.236   8.681 -0.6817 -0.5566 -0.7011
 8485SOL     OW27771   9.906   6.108   8.056  0.0045 -0.0238 -0.3905
 8485SOL    HW127772   9.956   6.118   7.975  0.4461  0.0590 -0.1148
 8485SOL    HW227773   9.815   6.121   8.030 -0.0549 -1.8232 -1.1988
 8486SOL     OW27774   4.612   3.874   8.713  0.4901  0.1286 -0.1109
 8486SOL    HW127775   4.547   3.943   8.730 -0.0809 -0.4399  0.0440
 8486SOL    HW227776   4.562   3.803   8.674  0.8538 -0.6780  0.8581
 8487SOL     OW27777   9.653   6.747   9.957 -1.0122  0.1543  0.2056
 8487SOL    HW127778   9.672   6.840   9.970 -1.0148  0.0527  0.9592
 8487SOL    HW227779   9.737   6.708   9.933 -0.9152  0.2648  0.3674
 8488SOL     OW27780   0.431   8.572   3.707  0.6452  0.2023  0.2018
 8488SOL    HW127781   0.446   8.478   3.715 -4.5098 -0.6862  4.2007
 8488SOL    HW227782   0.485   8.611   3.776 -0.8345 -0.5220  1.8145
 8489SOL     OW27783  10.271   7.808   0.468 -0.1972 -0.2022 -0.1800
 8489SOL    HW127784  10.301   7.781   0.555  0.5523  0.0305 -0.3596
 8489SOL    HW227785  10.203   7.874   0.486  1.4296  1.4528  0.2514
 8490SOL     OW27786   4.931   2.566   6.043 -0.3437  0.0259  0.4136
 8490SOL    HW127787   4.858   2.600   6.094 -0.4934 -0.2245  0.3678
 8490SOL    HW227788   4.993   2.533   6.109 -0.9852 -1.2161  0.4163
 8491SOL     OW27789   5.020   9.024   5.568 -0.1227  0.3028  0.3976
 8491SOL    HW127790   4.956   9.064   5.626 -0.1601  0.4937  0.2271
 8491SOL    HW227791   4.977   9.024   5.482  1.1896  3.1379 -0.3689
 8492SOL     OW27792   3.730   8.270   2.711  0.0470 -0.1766 -0.2038
 8492SOL    HW127793   3.789   8.195   2.713  1.1961  0.6996  1.5970
 8492SOL    HW227794   3.647   8.234   2.678  0.6658 -2.1375  0.2219
 8493SOL     OW27795   4.705   0.540   7.671 -0.1464  0.0486 -0.5337
 8493SOL    HW127796   4.621   0.501   7.694  0.4379 -0.8209  0.1617
 8493SOL    HW227797   4.690   0.579   7.585 -1.1864 -0.3229 -0.5341
 8494SOL     OW27798   6.998   9.072   8.503 -0.6120  0.0249  0.1213
 8494SOL    HW127799   6.909   9.075   8.467 -0.4923 -0.6045 -0.2600
 8494SOL    HW227800   7.004   9.149   8.559 -1.4965 -0.0766  0.3814
 8495SOL     OW27801   8.730   6.010   6.477  0.1935 -0.6556 -0.0729
 8495SOL    HW127802   8.821   6.006   6.448  0.4756  0.2004  0.6708
 8495SOL    HW227803   8.696   5.921   6.461  1.1068 -0.9412 -0.4813
 8496SOL     OW27804   6.869   0.642   7.746 -0.2923  0.3197 -0.6678
 8496SOL    HW127805   6.784   0.682   7.764 -0.2918  0.9339 -1.9396
 8496SOL    HW227806   6.925   0.715   7.720  0.5055 -0.1420 -0.2763
 8497SOL     OW27807   1.311   5.788   1.800 -0.2300  0.2055 -0.7391
 8497SOL    HW127808   1.259   5.756   1.874 -0.8356  1.4483 -0.6140
 8497SOL    HW227809   1.270   5.748   1.723 -0.4644  0.0298 -0.5263
 8498SOL     OW27810   7.020   1.760   1.974 -0.9211  0.0401 -0.0004
 8498SOL    HW127811   6.945   1.812   2.002 -0.2355  0.5704  0.9205
 8498SOL    HW227812   7.033   1.696   2.045  0.0394  0.5499  0.3065
 8499SOL     OW27813   5.460   9.671   0.020 -0.3481 -0.6211  0.2033
 8499SOL    HW127814   5.499   9.754  -0.008  0.1555 -1.0259 -0.3085
 8499SOL    HW227815   5.533   9.621   0.056 -0.4935 -1.1713 -0.2603
 8500SOL     OW27816   5.689   2.431   7.430  0.0539 -0.2301  0.6346
 8500SOL    HW127817   5.757   2.475   7.481  1.8943 -0.6727 -1.2979
 8500SOL    HW227818   5.678   2.346   7.472 -0.8389  0.5951  2.1684
 8501SOL     OW27819   4.043   6.297  10.597 -0.1395 -0.6167  0.3349
 8501SOL    HW127820   3.951   6.271  10.598 -0.2063 -0.5761 -1.4708
 8501SOL    HW227821   4.090   6.218  10.625 -0.6837 -0.7987  0.7541
 8502SOL     OW27822   4.164   3.392   4.456  0.4963 -0.4415 -0.3430
 8502SOL    HW127823   4.210   3.410   4.538  2.3050 -0.6738 -1.2572
 8502SOL    HW227824   4.203   3.453   4.393 -1.1501  0.0164 -0.9570
 8503SOL     OW27825   4.704   8.367   3.311  0.1457 -0.2432 -0.5091
 8503SOL    HW127826   4.679   8.276   3.325 -2.9908  0.3571 -1.5191
 8503SOL    HW227827   4.748   8.393   3.392 -2.0567 -1.6731  1.2452
 8504SOL     OW27828   0.926   9.465   0.131  0.5720  0.0267  0.0657
 8504SOL    HW127829   0.971   9.427   0.055 -1.5137 -0.1077 -1.1839
 8504SOL    HW227830   0.944   9.404   0.203  0.0076 -1.5742 -1.0965
 8505SOL     OW27831   7.451   0.428   4.271 -0.3867 -0.0877 -0.8019
 8505SOL    HW127832   7.534   0.462   4.237 -1.6611  1.2702 -2.7893
 8505SOL    HW227833   7.420   0.369   4.202  0.0388 -2.5704  1.0188
 8506SOL     OW27834   4.469   1.110   2.337 -0.3714  0.0138  0.7651
 8506SOL    HW127835   4.397   1.121   2.274 -0.2022  1.2807  0.7651
 8506SOL    HW227836   4.456   1.023   2.374 -1.7086  0.0869  0.5101
 8507SOL     OW27837   2.231   8.789   3.249 -0.7299 -0.6781  0.0901
 8507SOL    HW127838   2.192   8.787   3.337  0.4880  2.3215  0.8414
 8507SOL    HW227839   2.229   8.881   3.225  0.5412 -1.2191 -2.3437
 8508SOL     OW27840   3.192   4.010   3.971  0.0552 -0.1893 -0.1963
 8508SOL    HW127841   3.170   4.011   3.878 -0.2097 -0.8296 -0.1430
 8508SOL    HW227842   3.277   3.966   3.975  0.6090  0.8334 -0.2368
 8509SOL     OW27843   9.139   0.267   1.899  0.1465 -0.0327 -0.3052
 8509SOL    HW127844   9.106   0.266   1.989 -0.5924 -0.1836 -0.5734
 8509SOL    HW227845   9.096   0.193   1.857  0.0306  0.3927 -0.9438
 8510SOL     OW27846   9.493   5.265   2.083  0.7130  0.0741  0.5630
 8510SOL    HW127847   9.444   5.283   2.163  0.4991  0.8491  0.2577
 8510SOL    HW227848   9.429   5.271   2.013  1.2494  1.2039  0.1481
 8511SOL     OW27849   1.620   8.687   2.859 -0.9194  0.0604  0.2523
 8511SOL    HW127850   1.574   8.758   2.814 -2.3646 -1.3356 -0.5998
 8511SOL    HW227851   1.691   8.662   2.800 -1.2964 -0.1372 -0.1216
 8512SOL     OW27852   4.662   2.742   7.026  0.3698 -0.3262  0.0793
 8512SOL    HW127853   4.644   2.833   7.049  0.3673 -0.3918  0.3323
 8512SOL    HW227854   4.577   2.705   7.002  0.7816  0.8616 -4.1198
 8513SOL     OW27855   9.418   3.237   6.686 -0.3357  0.4955  0.3126
 8513SOL    HW127856   9.405   3.201   6.774 -1.6577 -1.8980 -0.7793
 8513SOL    HW227857   9.470   3.316   6.700  1.3425 -0.9533  3.0627
 8514SOL     OW27858   2.986   1.046   4.020  0.3468  0.2587 -0.8692
 8514SOL    HW127859   2.962   0.959   4.051  0.0506  0.4206 -0.6343
 8514SOL    HW227860   2.986   1.039   3.925  2.6325 -0.6225 -0.8619
 8515SOL     OW27861   1.914   8.315   3.977 -0.1439 -0.3231  0.0220
 8515SOL    HW127862   1.837   8.370   3.965 -1.0584 -1.7338 -0.9351
 8515SOL    HW227863   1.951   8.305   3.889  1.8737  1.2927  0.6071
 8516SOL     OW27864   4.657   2.971   0.111 -0.0685  0.5905  0.4276
 8516SOL    HW127865   4.654   2.875   0.106  2.1550  0.5067 -0.3696
 8516SOL    HW227866   4.658   2.989   0.205  0.3558 -0.2185  0.5903
 8517SOL     OW27867   6.352  10.276   2.691  0.0311 -0.0506  0.7121
 8517SOL    HW127868   6.412  10.214   2.732  0.3933 -0.0809  0.1532
 8517SOL    HW227869   6.287  10.297   2.759  0.8875  0.2748  1.4442
 8518SOL     OW27870   5.733   2.583   2.667  0.1910  0.2589 -0.0303
 8518SOL    HW127871   5.751   2.677   2.662 -0.9530  0.5769  1.3108
 8518SOL    HW227872   5.744   2.561   2.760 -0.2644 -0.7881 -0.2068
 8519SOL     OW27873   1.271   8.429  10.181  0.0556  0.6637 -0.2102
 8519SOL    HW127874   1.185   8.395  10.156 -0.0205  0.9725 -0.3809
 8519SOL    HW227875   1.274   8.420  10.276 -0.2699  0.8871 -0.1776
 8520SOL     OW27876   9.282   3.314   6.961 -0.1757 -0.1091 -0.3069
 8520SOL    HW127877   9.248   3.403   6.965 -0.8126 -0.3283 -0.7551
 8520SOL    HW227878   9.326   3.301   7.045  0.4935  0.8491 -0.4915
 8521SOL     OW27879   6.761   5.019   2.498 -0.4244  0.3885  0.2422
 8521SOL    HW127880   6.732   5.073   2.572 -0.1670  0.2453  0.4516
 8521SOL    HW227881   6.816   4.952   2.538 -2.0684 -1.0474  0.1906
 8522SOL     OW27882   0.066   4.418   8.889 -0.0521  0.1628  0.0728
 8522SOL    HW127883   0.060   4.469   8.969  0.1736  1.0174 -0.4347
 8522SOL    HW227884   0.156   4.429   8.860  0.3441 -1.4831  0.5452
 8523SOL     OW27885   8.566   8.209   2.510  0.7681  0.1585 -0.2634
 8523SOL    HW127886   8.489   8.253   2.475  0.0048 -1.5169 -0.7355
 8523SOL    HW227887   8.544   8.116   2.510  2.1782 -0.2161  1.1316
 8524SOL     OW27888   9.837   8.446   4.738  0.1599 -0.2968  0.2201
 8524SOL    HW127889   9.809   8.537   4.741 -0.5232 -0.5305  1.8055
 8524SOL    HW227890   9.918   8.444   4.788  0.6506 -0.4216 -0.5611
 8525SOL     OW27891   5.343   4.259   1.872 -0.5038  0.2836 -1.1296
 8525SOL    HW127892   5.419   4.280   1.927 -0.4187 -1.2753 -0.6158
 8525SOL    HW227893   5.375   4.272   1.782  0.4721 -0.6171 -0.9322
 8526SOL     OW27894   4.813   6.149   8.388  0.0660 -0.9437 -0.0681
 8526SOL    HW127895   4.877   6.078   8.380  1.6066  0.4768 -0.8417
 8526SOL    HW227896   4.863   6.224   8.420 -1.3268  0.0821 -0.1774
 8527SOL     OW27897   9.548   9.560   2.026 -0.3783  0.2598 -0.3973
 8527SOL    HW127898   9.521   9.575   2.117 -0.4123  1.6235 -0.6102
 8527SOL    HW227899   9.564   9.647   1.991 -0.9591 -0.2004 -1.8901
 8528SOL     OW27900   3.667   1.674   1.548 -0.2307  0.9196  0.2939
 8528SOL    HW127901   3.719   1.612   1.600 -0.2937  0.1052 -0.5936
 8528SOL    HW227902   3.702   1.760   1.572  0.3221  0.5054  1.0325
 8529SOL     OW27903   7.186   0.006   8.709  0.0348 -0.1021  0.1281
 8529SOL    HW127904   7.128  -0.016   8.782 -0.5187  2.1882  0.4612
 8529SOL    HW227905   7.172  -0.064   8.645 -2.1286 -0.3246  0.7472
 8530SOL     OW27906   3.753   5.825   4.130 -0.1816 -0.0799  0.4026
 8530SOL    HW127907   3.728   5.748   4.080 -0.1327  0.4201 -0.4194
 8530SOL    HW227908   3.683   5.835   4.195  1.4399 -2.6894  2.7484
 8531SOL     OW27909   2.531   0.072   9.214 -0.0711 -0.4665 -0.0021
 8531SOL    HW127910   2.539   0.167   9.217  1.1019 -0.5730  0.6639
 8531SOL    HW227911   2.442   0.056   9.181  0.0479  0.8463 -0.9897
 8532SOL     OW27912   3.591   4.613   6.456 -0.1777  0.7063 -0.4190
 8532SOL    HW127913   3.516   4.576   6.502 -0.8427  0.0798 -1.9142
 8532SOL    HW227914   3.636   4.666   6.521 -0.8211 -0.4681  1.0420
 8533SOL     OW27915  10.239   9.631   3.660 -0.1573  0.3944  0.4644
 8533SOL    HW127916  10.195   9.716   3.659 -1.6612 -0.2423  2.9788
 8533SOL    HW227917  10.296   9.635   3.737 -0.2233 -0.8520  0.5943
 8534SOL     OW27918   7.836   8.464   2.840  0.5572  0.2737  0.3102
 8534SOL    HW127919   7.799   8.378   2.858  2.5606 -0.6983  0.1077
 8534SOL    HW227920   7.902   8.477   2.908  1.9448  0.5488 -1.0317
 8535SOL     OW27921   7.593   4.956   9.910  0.5126  0.6091 -0.4797
 8535SOL    HW127922   7.540   4.947   9.989  0.0819 -0.1516 -0.8418
 8535SOL    HW227923   7.652   5.029   9.928  0.3917  0.4674  0.5291
 8536SOL     OW27924   8.029   5.767   8.425 -0.0299  0.5227  0.1102
 8536SOL    HW127925   8.069   5.686   8.455 -0.2720  0.2745 -0.2290
 8536SOL    HW227926   8.005   5.814   8.505 -0.9745 -0.2812  0.3102
 8537SOL     OW27927   1.021   0.422   1.211 -0.1357  0.1342  0.1406
 8537SOL    HW127928   1.011   0.360   1.139 -0.2753  0.2331  0.0738
 8537SOL    HW227929   0.933   0.456   1.226  0.2718  2.1775 -1.4945
 8538SOL     OW27930   3.612   8.103   8.005  0.5714  0.0995 -0.3737
 8538SOL    HW127931   3.650   8.126   8.089 -0.8752  0.9453  0.1012
 8538SOL    HW227932   3.565   8.182   7.978 -0.2546 -0.6571 -1.2309
 8539SOL     OW27933   2.185   4.910   9.223 -0.4229  0.0966  0.0393
 8539SOL    HW127934   2.133   4.969   9.168 -0.1943  0.2905  0.0282
 8539SOL    HW227935   2.179   4.947   9.311  0.2734  0.5235 -0.0852
 8540SOL     OW27936   8.901   7.128   6.180  0.2167  0.3972 -0.0316
 8540SOL    HW127937   8.908   7.176   6.262  0.8357 -1.1107  0.8393
 8540SOL    HW227938   8.896   7.196   6.113 -0.3547  1.6667  1.2362
 8541SOL     OW27939   9.479   2.978   0.444  0.8544  0.7993 -0.3244
 8541SOL    HW127940   9.417   2.904   0.446 -0.9570  2.2543 -0.0805
 8541SOL    HW227941   9.504   2.991   0.535  0.3558  1.1176 -0.2270
 8542SOL     OW27942   4.516   0.784   9.462 -0.4436 -0.3369 -0.2410
 8542SOL    HW127943   4.428   0.776   9.499 -0.7028 -1.2413 -1.0294
 8542SOL    HW227944   4.572   0.802   9.538 -1.2299 -0.2774  0.3334
 8543SOL     OW27945   1.299   0.928   4.127 -0.1559 -0.5807 -0.0758
 8543SOL    HW127946   1.329   0.987   4.058 -0.9875  1.1850  1.0023
 8543SOL    HW227947   1.360   0.854   4.124  1.4069  0.6856 -0.9845
 8544SOL     OW27948   5.688   5.127   2.127 -0.4488  0.1134  0.1874
 8544SOL    HW127949   5.662   5.192   2.063 -0.3782  0.4912  0.5374
 8544SOL    HW227950   5.744   5.175   2.188  0.0437 -0.3986  0.1448
 8545SOL     OW27951   0.962   2.655   5.298 -0.1543  0.2031  0.2355
 8545SOL    HW127952   0.894   2.714   5.331  0.1168  0.7496 -0.1784
 8545SOL    HW227953   0.927   2.567   5.315 -0.0015  0.4502  2.0205
 8546SOL     OW27954   9.269   8.745   9.267  0.8010  0.6089 -0.6101
 8546SOL    HW127955   9.208   8.812   9.301  0.5958 -0.0178  0.2999
 8546SOL    HW227956   9.222   8.704   9.195 -1.2181 -1.9244  1.9174
 8547SOL     OW27957  10.584   7.502   9.874  0.8427 -0.0866  0.0590
 8547SOL    HW127958  10.644   7.482   9.946 -0.9070 -0.5935  1.4393
 8547SOL    HW227959  10.582   7.598   9.870  0.6434 -0.0448  0.9767
 8548SOL     OW27960   7.003  10.482   0.836  0.2930  0.6378  0.1305
 8548SOL    HW127961   6.921  10.525   0.857 -1.6530 -3.2155  1.3796
 8548SOL    HW227962   6.987  10.438   0.752  1.2566  0.2471  0.1340
 8549SOL     OW27963   3.979   4.292   5.454  0.0770 -0.2506  0.3233
 8549SOL    HW127964   3.972   4.329   5.542 -0.6568  0.3060  0.0523
 8549SOL    HW227965   4.052   4.339   5.413  0.2356 -0.3073  0.5441
 8550SOL     OW27966   9.647   7.590   6.635 -0.1679 -0.1278  0.0357
 8550SOL    HW127967   9.694   7.629   6.709 -0.7220  0.8679 -0.1221
 8550SOL    HW227968   9.707   7.599   6.562 -0.4339  0.8132 -0.0847
 8551SOL     OW27969   4.451   9.490   4.918  1.1635 -1.0566  0.0697
 8551SOL    HW127970   4.478   9.461   4.830  0.8684 -0.6787 -0.1519
 8551SOL    HW227971   4.372   9.440   4.936  0.6038 -0.3574 -0.3498
 8552SOL     OW27972   9.263   4.622   3.776  0.4764 -0.2476 -0.0747
 8552SOL    HW127973   9.238   4.624   3.683 -0.0624 -0.0746  0.0686
 8552SOL    HW227974   9.262   4.713   3.803 -0.9506 -0.4116  0.5002
 8553SOL     OW27975   2.906   1.412   1.406  0.1560  1.4020 -0.0408
 8553SOL    HW127976   2.827   1.375   1.366 -0.8680  1.8168  1.5103
 8553SOL    HW227977   2.877   1.493   1.448  0.4590 -0.2543  3.7981
 8554SOL     OW27978   4.346   0.914   1.627 -0.3850 -0.0696 -0.2757
 8554SOL    HW127979   4.316   1.001   1.656 -1.2414 -0.8256  1.2120
 8554SOL    HW227980   4.440   0.923   1.616 -0.4125  0.9479  0.2252
 8555SOL     OW27981   8.355   9.742   2.359  0.2974  0.1913 -0.5763
 8555SOL    HW127982   8.408   9.701   2.427 -1.0071 -0.5597  0.0177
 8555SOL    HW227983   8.317   9.819   2.401 -1.1909 -0.7410 -0.1646
 8556SOL     OW27984   3.388   6.070   1.276  0.3172 -0.0937 -0.4606
 8556SOL    HW127985   3.435   5.994   1.243 -0.0694 -0.6997  0.3335
 8556SOL    HW227986   3.452   6.117   1.329  0.3353 -0.3229 -0.2764
 8557SOL     OW27987   7.867   7.404   6.691  0.0517  0.1118 -0.2779
 8557SOL    HW127988   7.825   7.319   6.679  0.8457 -0.2767 -0.3331
 8557SOL    HW227989   7.955   7.384   6.723 -0.0466  0.9419  0.5771
 8558SOL     OW27990   4.560   7.500   9.773 -0.1351  0.1127  0.0577
 8558SOL    HW127991   4.617   7.519   9.847 -3.0343  1.8403  2.0458
 8558SOL    HW227992   4.553   7.584   9.727  0.0986 -0.4635 -1.0529
 8559SOL     OW27993   9.978   9.871   0.407 -0.5748  0.2331 -0.0063
 8559SOL    HW127994   9.907   9.818   0.370  1.0922 -3.0059  0.9988
 8559SOL    HW227995  10.033   9.892   0.333  0.9402 -3.2701 -0.0639
 8560SOL     OW27996   6.972  10.097   6.747 -0.5001  0.1758 -0.8377
 8560SOL    HW127997   6.959  10.184   6.711  2.7984  0.6230 -1.2674
 8560SOL    HW227998   7.008  10.046   6.674 -1.2222 -1.2102 -0.2657
 8561SOL     OW27999   2.969   8.645   7.048 -0.4403 -0.0176  0.5574
 8561SOL    HW128000   2.987   8.571   6.990 -0.1910 -0.3474  1.0542
 8561SOL    HW228001   2.942   8.606   7.131 -0.8864  0.4527  0.6434
 8562SOL     OW28002   2.319   5.244   7.068  0.2713  0.2733  0.0851
 8562SOL    HW128003   2.256   5.260   6.997  0.6733  0.5720 -0.2108
 8562SOL    HW228004   2.310   5.151   7.087 -1.0715  0.5295  0.8353
 8563SOL     OW28005   7.514   2.728   8.008 -0.1325 -0.0062  0.1442
 8563SOL    HW128006   7.443   2.750   8.068  0.9877  0.6145  1.2908
 8563SOL    HW228007   7.594   2.749   8.057  0.8393 -0.4843 -1.1849
 8564SOL     OW28008   5.555   2.910   2.434  0.5452  0.3926 -0.4959
 8564SOL    HW128009   5.512   2.832   2.400  0.1211 -0.0282  0.9308
 8564SOL    HW228010   5.483   2.964   2.468  1.0072  0.2005  0.8651
 8565SOL     OW28011   2.694   3.906   1.613  0.7077 -0.2637  0.0901
 8565SOL    HW128012   2.668   3.816   1.592 -0.0778 -0.0799  0.2863
 8565SOL    HW228013   2.617   3.959   1.593  0.6022  0.1717  1.5421
 8566SOL     OW28014   1.655   6.918   5.630 -0.2704 -0.1539 -0.4638
 8566SOL    HW128015   1.682   6.879   5.713  1.6584  4.1159  1.1930
 8566SOL    HW228016   1.591   6.985   5.655  0.0575  0.9703 -2.4751
 8567SOL     OW28017   4.980   0.914   2.987  0.3166  0.7043  0.1453
 8567SOL    HW128018   5.065   0.955   2.970  0.8084 -0.6936 -0.9248
 8567SOL    HW228019   5.001   0.826   3.017 -0.7160 -0.4627 -2.2996
 8568SOL     OW28020   9.023   9.928   4.573  0.5785  0.0814 -0.1025
 8568SOL    HW128021   8.980   9.910   4.490  1.1087 -0.0039 -0.3607
 8568SOL    HW228022   9.002  10.019   4.593  1.7330  0.5933 -1.1068
 8569SOL     OW28023   9.468   5.511   4.697  0.1366 -0.5308  0.1461
 8569SOL    HW128024   9.512   5.595   4.686  0.8475 -0.9128 -0.0554
 8569SOL    HW228025   9.499   5.478   4.782  1.9401 -1.7391 -0.8938
 8570SOL     OW28026   4.428   4.159   4.583  0.2586  0.5090  0.1936
 8570SOL    HW128027   4.467   4.106   4.653  1.2723 -0.3068 -0.9378
 8570SOL    HW228028   4.361   4.102   4.545 -1.1326  1.3901  1.2194
 8571SOL     OW28029   8.098   1.926   4.382  0.0736  0.4025 -0.0927
 8571SOL    HW128030   8.153   1.979   4.325  0.9805 -0.5146 -0.1167
 8571SOL    HW228031   8.121   1.836   4.361 -0.2697  0.0203  1.0419
 8572SOL     OW28032   9.132   2.519   8.610 -0.2701  0.3752  0.2229
 8572SOL    HW128033   9.130   2.609   8.643  1.5059  0.0983  1.2004
 8572SOL    HW228034   9.040   2.494   8.604 -0.7895  2.1003  0.3502
 8573SOL     OW28035   7.822   6.371   3.953  0.7230  0.9080  0.5997
 8573SOL    HW128036   7.844   6.328   4.036  0.4574  0.4283  0.4283
 8573SOL    HW228037   7.807   6.463   3.976  0.2042  0.6917  1.1551
 8574SOL     OW28038   4.413   8.931   7.611 -0.2553  0.1566  0.0423
 8574SOL    HW128039   4.351   9.003   7.612  0.5954  0.9645  2.2712
 8574SOL    HW228040   4.475   8.953   7.542 -0.9346  0.6834 -0.4191
 8575SOL     OW28041   9.047   3.395   4.355 -0.5798 -0.0402 -0.1171
 8575SOL    HW128042   9.127   3.411   4.305  0.2506 -4.0962 -0.3943
 8575SOL    HW228043   8.976   3.418   4.295  0.3926 -0.5774 -1.5073
 8576SOL     OW28044   0.298   8.720   1.237  0.2398  0.4551  0.5924
 8576SOL    HW128045   0.320   8.668   1.314 -0.9597  0.4388  0.9454
 8576SOL    HW228046   0.210   8.690   1.211  0.3868  0.8570 -0.4401
 8577SOL     OW28047  10.344   1.823   9.388  0.5498 -0.2080  0.4946
 8577SOL    HW128048  10.293   1.897   9.421  0.8967  0.2617 -0.0096
 8577SOL    HW228049  10.312   1.748   9.437 -1.7247 -0.2141 -0.8651
 8578SOL     OW28050   8.425   8.684   5.979  0.7579 -0.2575  0.5244
 8578SOL    HW128051   8.393   8.627   6.050 -2.5687 -0.2130 -0.7553
 8578SOL    HW228052   8.406   8.772   6.010 -1.2935 -0.2582 -0.5469
 8579SOL     OW28053   9.557   0.190   5.143  0.2270  0.5090 -0.2580
 8579SOL    HW128054   9.595   0.103   5.147  1.2140  0.9590  0.5792
 8579SOL    HW228055   9.554   0.220   5.234  0.8203  1.7218 -0.6103
 8580SOL     OW28056   3.025   4.650   0.077 -0.3216 -0.6473 -0.3460
 8580SOL    HW128057   2.977   4.567   0.077  0.9723 -1.4482  0.9657
 8580SOL    HW228058   3.117   4.624   0.084  0.0098  0.8546  3.0109
 8581SOL     OW28059   4.437   5.759  10.078 -0.2788  0.0720 -0.5059
 8581SOL    HW128060   4.498   5.690  10.054  0.9541  0.7005  0.6906
 8581SOL    HW228061   4.387   5.776   9.998  0.3281 -1.2472 -1.1905
 8582SOL     OW28062   2.654   8.134   8.458 -0.2494  0.1122 -0.1671
 8582SOL    HW128063   2.561   8.122   8.475  0.0485 -1.4582  0.5679
 8582SOL    HW228064   2.691   8.158   8.542  0.1175 -0.0592 -0.2746
 8583SOL     OW28065   9.224   5.415   4.971 -0.1357 -0.1851 -0.2773
 8583SOL    HW128066   9.262   5.402   5.059  0.9112 -1.6665 -0.8989
 8583SOL    HW228067   9.232   5.509   4.956  1.3115 -0.1400  0.5273
 8584SOL     OW28068   7.419   1.252  10.550  0.2543 -0.1967 -0.4424
 8584SOL    HW128069   7.373   1.211  10.476 -2.1925 -1.4031  1.5895
 8584SOL    HW228070   7.400   1.346  10.540 -1.5729 -0.5247 -0.4441
 8585SOL     OW28071   0.508   0.372   2.451 -0.7205 -0.2726 -0.2462
 8585SOL    HW128072   0.596   0.387   2.415 -1.4027  0.0871 -1.8386
 8585SOL    HW228073   0.507   0.279   2.473  0.5961  0.0524  1.3738
 8586SOL     OW28074   8.758   3.013   4.533  0.4313  0.1780 -0.4000
 8586SOL    HW128075   8.852   3.019   4.547  0.2168  2.1269  0.4630
 8586SOL    HW228076   8.738   3.081   4.470 -0.5731  0.7687  0.5148
 8587SOL     OW28077   9.100   0.568   9.879  0.3351 -0.1930  0.0585
 8587SOL    HW128078   9.110   0.625   9.955  0.5884  0.4746 -0.4594
 8587SOL    HW228079   9.024   0.514   9.899 -0.5833  1.0701  0.1172
 8588SOL     OW28080   6.961   0.314   2.292 -0.0353  0.6158  0.1734
 8588SOL    HW128081   6.984   0.375   2.223 -0.5889 -0.1948 -0.7502
 8588SOL    HW228082   6.872   0.287   2.273  0.0012 -0.0661  0.8696
 8589SOL     OW28083   2.689   3.675   0.987  0.1828  0.6667 -0.0057
 8589SOL    HW128084   2.705   3.702   0.897  0.0026  2.3685  0.4475
 8589SOL    HW228085   2.597   3.698   1.003 -0.1063 -0.5866  0.3100
 8590SOL     OW28086   4.462   4.672   1.616  0.1047  0.9235  0.3766
 8590SOL    HW128087   4.424   4.755   1.587  0.1824  1.8677  2.7594
 8590SOL    HW228088   4.394   4.607   1.598 -1.1965  2.0026  1.2160
 8591SOL     OW28089   5.942   0.303   3.835 -0.1067 -0.1268 -0.2577
 8591SOL    HW128090   5.899   0.283   3.919  1.5947 -2.3216  0.1712
 8591SOL    HW228091   5.873   0.345   3.783 -0.8069  2.8960  2.7029
 8592SOL     OW28092   3.667   5.341   6.138 -0.0737  0.1357  0.2619
 8592SOL    HW128093   3.736   5.396   6.175  0.2345  0.3878 -0.6654
 8592SOL    HW228094   3.706   5.302   6.060 -0.9089  0.1328 -0.1698
 8593SOL     OW28095   9.729   3.030   6.864 -0.0650 -0.1682  0.1493
 8593SOL    HW128096   9.665   3.058   6.929 -2.6295  1.7597 -2.9330
 8593SOL    HW228097   9.786   3.107   6.853 -0.6455  0.1191 -0.9527
 8594SOL     OW28098   8.496   8.722   3.729  0.1749 -0.0845 -0.1731
 8594SOL    HW128099   8.560   8.789   3.704  1.1989 -1.2288 -0.7536
 8594SOL    HW228100   8.496   8.723   3.825  2.6765 -1.4586 -0.0820
 8595SOL     OW28101   3.759   6.347  10.539  0.2494  0.5040  0.1354
 8595SOL    HW128102   3.698   6.282  10.574  1.6569 -1.4429 -0.7906
 8595SOL    HW228103   3.734   6.357  10.448  1.8445 -1.0775 -0.5231
 8596SOL     OW28104   2.035   8.883   6.395  0.4277  0.3325  0.0306
 8596SOL    HW128105   2.002   8.816   6.336  1.3762  1.9464 -2.4729
 8596SOL    HW228106   2.128   8.864   6.403  0.3572  0.2848  0.8474
 8597SOL     OW28107   6.252   2.059   5.977  0.0627  0.0011  0.9921
 8597SOL    HW128108   6.190   2.006   6.028 -0.7143 -0.0411  0.0468
 8597SOL    HW228109   6.273   2.004   5.901 -1.8993  1.5196 -0.7822
 8598SOL     OW28110   7.863   1.267   4.243 -0.1178  0.1161 -0.3365
 8598SOL    HW128111   7.949   1.291   4.211  1.1399 -2.2588  0.9691
 8598SOL    HW228112   7.851   1.317   4.323  0.7140 -0.5973  0.2463
 8599SOL     OW28113   6.080   1.095   3.066  0.0413  0.8570  0.1863
 8599SOL    HW128114   6.020   1.105   3.140 -0.8146  0.1492 -0.4080
 8599SOL    HW228115   6.079   1.181   3.024 -0.9310  0.7169 -0.0976
 8600SOL     OW28116   5.138   0.455   6.390 -0.5604 -0.3313  1.1153
 8600SOL    HW128117   5.107   0.432   6.302 -0.3407  0.2665  0.8709
 8600SOL    HW228118   5.227   0.421   6.394 -0.3774  0.1116  0.9017
 8601SOL     OW28119   3.382   5.525   0.679  0.3190 -1.4032  0.3852
 8601SOL    HW128120   3.392   5.468   0.603  0.2984  0.2024 -0.8822
 8601SOL    HW228121   3.287   5.530   0.693  0.1330  0.1953 -1.0694
 8602SOL     OW28122   7.663   7.698   2.117  0.1838 -0.0153 -0.0560
 8602SOL    HW128123   7.655   7.695   2.021 -0.2786  0.3016 -0.0319
 8602SOL    HW228124   7.748   7.659   2.135  1.7261  2.7537 -0.8150
 8603SOL     OW28125   9.340   4.910   1.329 -0.0466  0.2123  0.3640
 8603SOL    HW128126   9.322   4.833   1.275  2.2064  0.3780 -0.7078
 8603SOL    HW228127   9.434   4.908   1.345  0.4096  3.4996 -0.9867
 8604SOL     OW28128   8.931   9.429   0.310  0.0516  0.6132 -0.0194
 8604SOL    HW128129   8.999   9.464   0.253  0.4962  0.3976  0.3791
 8604SOL    HW228130   8.970   9.428   0.397  0.6075 -2.2412 -0.1939
 8605SOL     OW28131   6.019   9.976   2.004  0.2783  0.3393 -0.0579
 8605SOL    HW128132   5.994  10.028   1.928 -0.9355  0.6579  0.5462
 8605SOL    HW228133   6.112   9.995   2.016  0.0215  1.8683 -0.2454
 8606SOL     OW28134   5.357   2.758   8.421  0.3486 -0.3337 -0.0052
 8606SOL    HW128135   5.322   2.778   8.508  0.6566 -0.8488  0.2405
 8606SOL    HW228136   5.304   2.811   8.361 -0.1588 -0.3100  0.4540
 8607SOL     OW28137  10.332   5.306   1.978 -0.0042 -0.1670 -0.4420
 8607SOL    HW128138  10.392   5.378   1.998 -0.7417  0.3125  0.1210
 8607SOL    HW228139  10.380   5.252   1.916  0.3062  1.1949 -1.4383
 8608SOL     OW28140   3.799  10.284   5.718  0.1044 -0.0771 -0.5754
 8608SOL    HW128141   3.793  10.242   5.632 -0.4827 -1.1648 -0.0286
 8608SOL    HW228142   3.839  10.217   5.774  0.0109  0.4396  0.1184
 8609SOL     OW28143   6.330   8.569   3.728 -0.7634  0.4963  0.1416
 8609SOL    HW128144   6.240   8.549   3.752  0.0135 -1.6631  1.5365
 8609SOL    HW228145   6.381   8.549   3.806  0.8935  2.2721 -0.4082
 8610SOL     OW28146   7.286   8.117   6.356  0.4354  0.0210 -0.2164
 8610SOL    HW128147   7.323   8.136   6.442  1.3083 -0.1843 -0.5384
 8610SOL    HW228148   7.356   8.073   6.309 -0.3058 -0.5914 -0.7665
 8611SOL     OW28149   7.168   8.648   4.790 -0.5936 -0.7495  0.1781
 8611SOL    HW128150   7.243   8.590   4.779  1.1123  1.1302  1.0434
 8611SOL    HW228151   7.126   8.618   4.871 -0.9975 -2.0248 -0.4897
 8612SOL     OW28152   0.929   6.437   6.065  0.1203  0.4096  0.1551
 8612SOL    HW128153   0.958   6.387   6.141 -0.8736  1.3000  1.1571
 8612SOL    HW228154   0.837   6.413   6.054 -0.1892  1.5008  0.2628
 8613SOL     OW28155   2.757   4.421   7.334 -0.0781 -0.0365 -0.1179
 8613SOL    HW128156   2.689   4.360   7.303  0.0690  1.1008 -3.0058
 8613SOL    HW228157   2.839   4.373   7.323 -0.2182 -0.7425  1.6089
 8614SOL     OW28158   7.283   8.088   3.647 -0.0752  0.0003  0.4002
 8614SOL    HW128159   7.279   8.143   3.725 -0.4291  1.0593 -0.3496
 8614SOL    HW228160   7.321   8.005   3.678  0.6139  0.7090  1.5169
 8615SOL     OW28161   6.220   3.913   0.261  0.5458 -0.0751  0.3072
 8615SOL    HW128162   6.137   3.933   0.303  0.2309 -0.3423 -0.1909
 8615SOL    HW228163   6.256   3.841   0.314 -0.1167 -0.7980 -0.2172
 8616SOL     OW28164   9.617   5.711   4.225  1.0850 -0.8919  0.3833
 8616SOL    HW128165   9.712   5.721   4.235  1.0494  0.3827 -0.3638
 8616SOL    HW228166   9.582   5.725   4.313  1.3707  1.8776  0.1291
 8617SOL     OW28167   7.381   7.805   8.098 -0.0345 -0.3008 -0.1620
 8617SOL    HW128168   7.316   7.846   8.155 -0.6127  0.3468 -1.2470
 8617SOL    HW228169   7.420   7.878   8.051  0.4025 -0.8236 -0.6154
 8618SOL     OW28170   6.424   7.999   1.909 -0.3320 -0.4705 -0.1410
 8618SOL    HW128171   6.330   7.997   1.890 -0.3514 -0.4014 -0.0513
 8618SOL    HW228172   6.429   8.024   2.001 -0.1661  1.1677 -0.5713
 8619SOL     OW28173   7.239   0.507   2.622  0.8001  0.1191  0.1211
 8619SOL    HW128174   7.262   0.458   2.701 -1.0649  0.3333  0.8603
 8619SOL    HW228175   7.175   0.451   2.577  0.4705  0.8029 -0.2748
 8620SOL     OW28176   6.514   1.668   2.997 -0.0791 -0.1780  0.6145
 8620SOL    HW128177   6.559   1.648   2.916 -0.0112  1.0719  0.3272
 8620SOL    HW228178   6.571   1.635   3.066  0.3304 -0.3612  0.1880
 8621SOL     OW28179   3.505   4.741   3.478 -0.1468  0.1045  0.0124
 8621SOL    HW128180   3.517   4.833   3.456 -0.4642 -0.2319 -1.7076
 8621SOL    HW228181   3.429   4.714   3.426  0.0005 -1.1541  0.4141
 8622SOL     OW28182   7.249   1.782   5.297  0.0094 -0.1237 -0.1573
 8622SOL    HW128183   7.274   1.791   5.389 -1.7201  1.3597  0.2271
 8622SOL    HW228184   7.329   1.801   5.248  0.8196 -0.4000  1.0127
 8623SOL     OW28185   2.415   6.213   0.579 -0.3042  0.4827 -0.2062
 8623SOL    HW128186   2.350   6.162   0.531 -0.4365  1.3225 -0.9481
 8623SOL    HW228187   2.363   6.278   0.627 -0.1093  0.2190  0.3643
 8624SOL     OW28188   6.956   5.435   0.632 -0.4822 -0.2030  0.3601
 8624SOL    HW128189   7.022   5.399   0.573 -0.4128  0.4168  0.0549
 8624SOL    HW228190   6.934   5.362   0.691 -0.5089 -0.8088 -0.3869
 8625SOL     OW28191   5.865   6.756   5.545 -0.1046 -0.1733 -0.1845
 8625SOL    HW128192   5.857   6.664   5.569  0.4230  0.1792  1.4523
 8625SOL    HW228193   5.794   6.799   5.593  0.2118  0.3960 -0.2193
 8626SOL     OW28194   1.024   9.927   0.356  0.0598  0.1556  0.0679
 8626SOL    HW128195   1.001  10.013   0.321 -0.1387  0.2550  0.4399
 8626SOL    HW228196   1.108   9.906   0.315  0.5410  0.9121  0.6341
 8627SOL     OW28197   0.223   4.455   2.184  0.1428 -0.2815  0.4311
 8627SOL    HW128198   0.135   4.418   2.186 -0.8769  1.9681 -0.3258
 8627SOL    HW228199   0.265   4.421   2.264 -1.2613 -1.6514  0.6272
 8628SOL     OW28200   8.174   0.289   9.181 -0.2533  0.0504  0.0679
 8628SOL    HW128201   8.206   0.285   9.271 -0.2061 -0.5682  0.0280
 8628SOL    HW228202   8.096   0.344   9.186 -0.6045 -0.4862  0.6003
 8629SOL     OW28203   8.928   4.029   0.121  0.5034 -0.1894 -0.0766
 8629SOL    HW128204   8.958   3.940   0.101 -2.0821 -1.7255  2.1232
 8629SOL    HW228205   8.836   4.030   0.092  0.0910  1.2914  1.1493
 8630SOL     OW28206   1.235   1.947   3.039  0.3818  0.0701 -0.1119
 8630SOL    HW128207   1.316   1.947   3.089 -0.7994  1.5474  1.9402
 8630SOL    HW228208   1.239   2.025   2.985  1.1738 -0.9488 -1.5996
 8631SOL     OW28209   9.989   9.252   4.330  0.5948 -0.3775  0.5969
 8631SOL    HW128210  10.009   9.312   4.403 -1.2964 -0.3639  1.1751
 8631SOL    HW228211   9.912   9.204   4.360 -0.5049 -0.0774 -1.5754
 8632SOL     OW28212   9.527   3.800   8.983 -0.2026 -0.1097 -0.0532
 8632SOL    HW128213   9.452   3.760   9.027  0.2681 -0.6898  0.2397
 8632SOL    HW228214   9.532   3.889   9.019 -2.6466  1.0820 -2.3824
 8633SOL     OW28215   9.434   9.794   7.540 -0.0984  0.0794 -0.0810
 8633SOL    HW128216   9.380   9.810   7.618  0.7252  1.4416  0.2351
 8633SOL    HW228217   9.376   9.816   7.467 -0.4044  0.2261  0.2012
 8634SOL     OW28218   8.930   7.186   1.395  0.2288 -0.3479  0.1131
 8634SOL    HW128219   8.840   7.164   1.421  0.5487 -1.4571  0.3505
 8634SOL    HW228220   8.974   7.101   1.390  1.7061  0.2714  1.6392
 8635SOL     OW28221   3.389   8.441   8.387 -0.4451 -0.1684 -0.7395
 8635SOL    HW128222   3.401   8.349   8.361  0.5481 -0.6812  1.2433
 8635SOL    HW228223   3.320   8.438   8.453 -1.0566  0.6726 -1.3213
 8636SOL     OW28224   7.063   6.018   3.814  0.4807 -0.2474  0.5208
 8636SOL    HW128225   6.976   6.053   3.829  0.5020 -0.8735  2.3211
 8636SOL    HW228226   7.049   5.923   3.805  0.9859 -0.3661  0.9518
 8637SOL     OW28227   9.489   8.581   4.813 -0.3152  0.1936 -0.1589
 8637SOL    HW128228   9.396   8.565   4.799 -0.3462  1.5826 -1.8807
 8637SOL    HW228229   9.522   8.606   4.727  1.2629  1.5631  0.7844
 8638SOL     OW28230   1.766   1.664   9.670 -0.4794  0.6311 -0.1894
 8638SOL    HW128231   1.747   1.581   9.626  1.0312  1.2376 -2.1090
 8638SOL    HW228232   1.729   1.653   9.757 -2.1400 -1.2790 -1.0387
 8639SOL     OW28233   0.447  10.199  10.377  0.5820 -0.4834  0.4245
 8639SOL    HW128234   0.531  10.155  10.385 -0.1303 -1.9075  0.4214
 8639SOL    HW228235   0.464  10.289  10.405  1.7695 -1.1131  1.8953
 8640SOL     OW28236   8.835   3.889   5.051 -0.3805  0.0074 -0.0346
 8640SOL    HW128237   8.911   3.835   5.072  0.1141 -0.0545 -1.7986
 8640SOL    HW228238   8.858   3.977   5.083  0.6544  0.0883 -0.9410
 8641SOL     OW28239   9.575   9.385   4.117  0.0086  0.0894 -0.0052
 8641SOL    HW128240   9.541   9.349   4.036  2.1160  0.6623 -1.2110
 8641SOL    HW228241   9.512   9.454   4.141 -0.8612 -0.3670 -0.9135
 8642SOL     OW28242   3.951   9.831   1.420  0.5283  0.8503 -0.1516
 8642SOL    HW128243   3.918   9.856   1.333 -0.4609 -0.2458 -0.1226
 8642SOL    HW228244   3.872   9.807   1.468  1.1143  1.0737  0.9343
 8643SOL     OW28245   0.926   2.155   8.872 -0.9173 -0.0385  0.4882
 8643SOL    HW128246   0.939   2.073   8.919 -0.0856 -0.4868 -0.4901
 8643SOL    HW228247   0.978   2.219   8.921  0.2667 -0.5850 -0.0133
 8644SOL     OW28248   0.539   0.329   3.782 -0.2429  0.3706 -0.1708
 8644SOL    HW128249   0.506   0.326   3.692  0.2637 -0.1301 -0.3464
 8644SOL    HW228250   0.468   0.370   3.832 -1.0104 -0.3874 -0.6020
 8645SOL     OW28251   0.869   6.225   4.302 -0.3678 -0.2265 -0.6036
 8645SOL    HW128252   0.927   6.226   4.226  0.9036 -1.1413  0.2946
 8645SOL    HW228253   0.882   6.138   4.340  0.0389  0.6380  1.3643
 8646SOL     OW28254   6.377   6.401   9.454 -0.1701 -0.6708 -0.2976
 8646SOL    HW128255   6.292   6.369   9.425 -0.5339  0.2106 -0.1979
 8646SOL    HW228256   6.371   6.404   9.549 -0.3133  0.1963 -0.3341
 8647SOL     OW28257   8.798   4.356   0.968 -0.2657  0.1677 -0.4678
 8647SOL    HW128258   8.798   4.402   1.052 -1.2148  0.0568 -0.3975
 8647SOL    HW228259   8.794   4.427   0.903  3.4583  0.4552 -0.6062
 8648SOL     OW28260   1.848   7.023   1.076 -0.4452 -0.0787  0.2538
 8648SOL    HW128261   1.902   6.984   1.144  2.0701  1.8416 -0.4755
 8648SOL    HW228262   1.809   7.100   1.117  0.8883  0.9492 -0.3204
 8649SOL     OW28263   6.067   5.005   5.367  0.7550  0.1629 -0.0144
 8649SOL    HW128264   6.119   5.078   5.332 -1.0670  1.3851 -0.3721
 8649SOL    HW228265   5.979   5.021   5.333  0.0331 -1.5546  0.9227
 8650SOL     OW28266   2.110   4.362   2.200  0.1216 -0.4877  0.7236
 8650SOL    HW128267   2.046   4.394   2.137  2.4013  1.4601 -0.7566
 8650SOL    HW228268   2.078   4.395   2.284 -1.6424 -0.9843  0.3014
 8651SOL     OW28269   3.306   8.255   7.926  0.1655  0.0409  0.5755
 8651SOL    HW128270   3.348   8.241   7.842  0.8792 -1.2514  1.1198
 8651SOL    HW228271   3.319   8.348   7.944 -2.1686  0.9767 -1.8521
 8652SOL     OW28272   9.332   8.365   0.320  0.1967 -0.7471  0.1054
 8652SOL    HW128273   9.297   8.431   0.379 -0.6401 -1.3639  0.3192
 8652SOL    HW228274   9.353   8.413   0.240 -1.4176 -0.3951 -0.1272
 8653SOL     OW28275   7.451   1.483   3.001 -0.0926 -0.4028  0.0090
 8653SOL    HW128276   7.486   1.398   3.025  0.5929 -0.1223  0.0072
 8653SOL    HW228277   7.356   1.470   2.998  0.0287 -1.2549 -0.3554
 8654SOL     OW28278   4.580   7.895   2.088 -0.5522 -0.0438 -0.1943
 8654SOL    HW128279   4.526   7.839   2.033  1.5866 -2.3212 -0.1397
 8654SOL    HW228280   4.522   7.920   2.161 -2.1948 -0.3453 -1.3387
 8655SOL     OW28281   2.530  10.451   3.124  0.1758 -0.0705  0.1756
 8655SOL    HW128282   2.517  10.448   3.029  2.8129  0.9464 -0.3124
 8655SOL    HW228283   2.591  10.380   3.142  0.8735  0.6826  0.8581
 8656SOL     OW28284   3.687   5.725   2.883  0.1236  0.0840  0.3220
 8656SOL    HW128285   3.754   5.765   2.828  0.1888 -0.6008 -0.1106
 8656SOL    HW228286   3.665   5.793   2.947 -0.7100  1.3163 -1.1855
 8657SOL     OW28287  10.145   1.598   9.542 -0.0684 -0.5669  0.3564
 8657SOL    HW128288  10.151   1.507   9.572 -0.4590 -0.9536 -0.6833
 8657SOL    HW228289  10.092   1.593   9.462 -1.6692  0.8146  1.2751
 8658SOL     OW28290   1.978   9.296  10.124  0.9271  0.2707 -0.3317
 8658SOL    HW128291   1.884   9.309  10.112  0.8995 -0.7838 -1.3789
 8658SOL    HW228292   2.007   9.376  10.169 -0.6317  0.1676  0.9749
 8659SOL     OW28293   9.060   1.655  10.258 -0.1149 -0.6024  0.0836
 8659SOL    HW128294   9.024   1.660  10.170 -0.2822 -1.0257  0.1231
 8659SOL    HW228295   9.051   1.743  10.293  1.1716 -0.0969 -0.7845
 8660SOL     OW28296   9.362  10.196   9.737  0.1543 -0.4401  0.6706
 8660SOL    HW128297   9.372  10.122   9.797 -0.8064 -1.3898 -0.3016
 8660SOL    HW228298   9.363  10.273   9.793  3.1894 -0.9964  1.5473
 8661SOL     OW28299   3.688   7.618   0.896  0.3507 -0.0593  0.1994
 8661SOL    HW128300   3.777   7.596   0.869  0.4613  0.8591 -0.1935
 8661SOL    HW228301   3.675   7.569   0.978  1.0544 -0.5333  0.0325
 8662SOL     OW28302   2.011   8.466   9.886 -0.3266 -0.0167  0.2680
 8662SOL    HW128303   2.097   8.458   9.927 -0.9013 -0.3798  1.4589
 8662SOL    HW228304   1.966   8.385   9.909 -1.7467  1.0705  1.5609
 8663SOL     OW28305   3.511   6.098   4.028 -0.2355  0.6931  0.0761
 8663SOL    HW128306   3.557   6.141   4.100  0.3575  0.9409 -0.4387
 8663SOL    HW228307   3.506   6.165   3.959  2.7604 -0.6501 -1.6498
 8664SOL     OW28308   7.594   4.981   5.930  0.2608 -0.3040 -0.2915
 8664SOL    HW128309   7.650   4.905   5.942 -0.1265 -0.3521  1.3425
 8664SOL    HW228310   7.593   4.995   5.835  3.1319 -0.2064 -0.4053
 8665SOL     OW28311   5.277   3.023   1.737 -0.3480  0.2194  0.1955
 8665SOL    HW128312   5.260   3.117   1.737 -3.1631 -0.1505 -2.4687
 8665SOL    HW228313   5.296   3.002   1.645  2.4128 -1.5545  1.0630
 8666SOL     OW28314   4.436   5.463   5.210  0.3914 -0.0211  0.0016
 8666SOL    HW128315   4.391   5.383   5.241  0.9980 -0.4871 -0.3058
 8666SOL    HW228316   4.460   5.443   5.120 -2.4331  1.7731 -1.2862
 8667SOL     OW28317   3.689   2.195   8.436 -0.8524 -0.0159 -0.2637
 8667SOL    HW128318   3.602   2.221   8.464 -0.3260  1.0546  0.4717
 8667SOL    HW228319   3.747   2.227   8.505  0.1974  0.0061 -1.1191
 8668SOL     OW28320   3.727   1.924   1.585  0.0795 -0.0832 -0.1058
 8668SOL    HW128321   3.658   1.952   1.645  2.0749  0.4514  2.0949
 8668SOL    HW228322   3.769   2.005   1.558 -2.1467 -0.0276 -4.3030
 8669SOL     OW28323   7.885   2.669   7.439  0.2915  0.4899 -0.2355
 8669SOL    HW128324   7.979   2.655   7.456 -0.1638 -0.1152  2.1279
 8669SOL    HW228325   7.854   2.719   7.513 -1.6065 -0.8393 -0.0533
 8670SOL     OW28326   4.785   1.393   3.335  0.4261  0.1182  0.2567
 8670SOL    HW128327   4.798   1.488   3.336 -0.8908  0.3468 -0.8712
 8670SOL    HW228328   4.774   1.369   3.427 -1.2176  1.3919  0.4344
 8671SOL     OW28329   8.701   7.233  10.127  0.1881  0.3993  0.3603
 8671SOL    HW128330   8.792   7.244  10.101 -0.3966 -1.3511 -3.1254
 8671SOL    HW228331   8.663   7.320  10.121  1.3309  0.9411  0.6778
 8672SOL     OW28332   7.245   2.355   1.667  0.2587 -0.0053  0.0450
 8672SOL    HW128333   7.309   2.424   1.684 -0.8654  1.8747 -2.5897
 8672SOL    HW228334   7.161   2.394   1.692 -0.3105 -0.7200 -0.7051
 8673SOL     OW28335  10.376   9.914   1.231 -0.0955 -0.4215  0.4563
 8673SOL    HW128336  10.345   9.963   1.307  0.2443  1.8055 -0.7564
 8673SOL    HW228337  10.297   9.878   1.192 -0.2832 -1.5287  1.7652
 8674SOL     OW28338   9.797   3.234   5.787  0.8796  0.1792  0.0470
 8674SOL    HW128339   9.732   3.230   5.717  0.0214 -0.7341  0.8501
 8674SOL    HW228340   9.788   3.322   5.823 -1.0199 -0.3942  1.1103
 8675SOL     OW28341   7.592   3.352   0.127 -0.1079  0.7792  0.3574
 8675SOL    HW128342   7.608   3.318   0.039 -0.6004 -0.6974  0.7948
 8675SOL    HW228343   7.500   3.380   0.125 -0.3986 -0.1027  0.6253
 8676SOL     OW28344   3.213   3.826   3.749 -0.3455 -1.2679  0.3217
 8676SOL    HW128345   3.216   3.850   3.656  0.7681 -2.7424 -0.0664
 8676SOL    HW228346   3.293   3.774   3.763 -0.0405 -0.3469  2.3339
 8677SOL     OW28347   0.287   0.234   9.625  0.4131  0.5851 -0.6815
 8677SOL    HW128348   0.234   0.273   9.694 -0.6660  1.3724 -1.8991
 8677SOL    HW228349   0.261   0.281   9.545  2.0903  0.1594 -1.5235
 8678SOL     OW28350   4.437   7.023   0.576 -0.0509 -0.0118  0.0371
 8678SOL    HW128351   4.483   7.100   0.608  0.1163  0.4023 -1.1584
 8678SOL    HW228352   4.358   7.018   0.630  1.7526 -1.2796  2.7861
 8679SOL     OW28353   8.921   9.527   8.071  0.6929 -0.1316  0.2697
 8679SOL    HW128354   8.963   9.612   8.086 -0.4887  0.4392  0.4420
 8679SOL    HW228355   8.830   9.541   8.095  0.1797 -1.0752 -1.0055
 8680SOL     OW28356  10.471   9.713   2.245  0.3624  0.4961  0.9305
 8680SOL    HW128357  10.471   9.808   2.229 -1.6978  0.5234  0.7643
 8680SOL    HW228358  10.410   9.702   2.318 -0.4788 -0.7882  0.0738
 8681SOL     OW28359   8.442   2.667   7.550 -0.5660 -0.2162  0.0450
 8681SOL    HW128360   8.475   2.621   7.472 -2.0122 -0.3763 -0.4978
 8681SOL    HW228361   8.516   2.721   7.577  0.0217 -0.2354 -1.3745
 8682SOL     OW28362   8.442   9.801   1.311 -0.1240  0.7632 -0.4604
 8682SOL    HW128363   8.437   9.785   1.217  0.4166  0.8353 -0.5065
 8682SOL    HW228364   8.393   9.729   1.351 -0.7289  0.9773 -0.8134
 8683SOL     OW28365   5.089   6.855   7.564 -0.6650  0.1934  0.0254
 8683SOL    HW128366   5.137   6.896   7.491 -0.9817  1.3116  0.4373
 8683SOL    HW228367   4.998   6.857   7.536 -0.5712 -1.4911 -0.5383
 8684SOL     OW28368   1.846   6.564   7.004 -0.0520  0.0537 -0.1122
 8684SOL    HW128369   1.882   6.555   7.092 -1.6401 -1.5037  0.4554
 8684SOL    HW228370   1.761   6.520   7.009  0.0640 -0.5974 -2.5665
 8685SOL     OW28371   1.983   3.196   1.350 -0.0929  0.0044 -0.2481
 8685SOL    HW128372   1.906   3.167   1.301  1.4895  0.8912 -3.5427
 8685SOL    HW228373   1.965   3.288   1.370 -0.3493 -0.0985 -0.0019
 8686SOL     OW28374   7.070   8.221   1.885  0.4269  0.2798  0.7644
 8686SOL    HW128375   7.100   8.211   1.976 -0.4635 -1.8061  0.8764
 8686SOL    HW228376   7.011   8.147   1.871  1.9655 -0.5408 -2.0996
 8687SOL     OW28377   3.393   9.882  10.515 -0.4801  0.1950  0.3512
 8687SOL    HW128378   3.307   9.849  10.489 -0.8141  0.9629  0.4594
 8687SOL    HW228379   3.387   9.890  10.610 -0.1279 -0.1734  0.4089
 8688SOL     OW28380   6.417   0.623   7.548 -0.3649 -0.5510  0.3595
 8688SOL    HW128381   6.366   0.641   7.627 -1.2820  0.5028 -0.4369
 8688SOL    HW228382   6.415   0.528   7.539 -0.8597 -0.6273  1.2068
 8689SOL     OW28383   4.630   4.136   8.313  0.4035 -0.0684 -0.7691
 8689SOL    HW128384   4.581   4.067   8.358  0.6880 -0.0782 -0.4731
 8689SOL    HW228385   4.721   4.121   8.339  0.3794  0.8765 -0.1037
 8690SOL     OW28386   4.202  10.266   3.342 -0.2092 -0.0781 -0.7636
 8690SOL    HW128387   4.235  10.286   3.254 -0.0801  3.1607 -0.1064
 8690SOL    HW228388   4.130  10.205   3.327  2.7889 -3.5362 -2.6367
 8691SOL     OW28389   8.890   7.125   6.785 -0.1815  0.3200  0.8384
 8691SOL    HW128390   8.884   7.111   6.879 -1.2269  0.5963  0.8146
 8691SOL    HW228391   8.935   7.046   6.753  0.4451  0.3585  1.5911
 8692SOL     OW28392   8.163  10.041   9.362  0.2473  0.1693  1.1420
 8692SOL    HW128393   8.076  10.070   9.335  0.5590  0.3911  0.3520
 8692SOL    HW228394   8.154  10.020   9.455 -0.7195 -0.0965  0.9932
 8693SOL     OW28395   8.399   0.877   8.892 -0.4856 -0.3431  0.2036
 8693SOL    HW128396   8.391   0.798   8.945 -0.5557  0.4498  1.4275
 8693SOL    HW228397   8.318   0.926   8.908 -0.3985  0.0308 -0.4495
 8694SOL     OW28398   1.875   4.154   4.696 -0.1813 -0.3965 -0.8910
 8694SOL    HW128399   1.857   4.157   4.790  0.6778  0.7566 -0.7450
 8694SOL    HW228400   1.801   4.199   4.656  0.1669  0.3901 -0.6511
 8695SOL     OW28401   4.681   7.980   6.535 -1.0295  0.4976 -0.2500
 8695SOL    HW128402   4.675   7.956   6.628 -0.3201  1.7467  0.1282
 8695SOL    HW228403   4.648   7.902   6.489  0.9050 -1.1394  0.9324
 8696SOL     OW28404   7.563   0.549   5.136  0.0051 -0.2557 -0.3758
 8696SOL    HW128405   7.616   0.567   5.213  1.0029 -0.3850 -1.0199
 8696SOL    HW228406   7.610   0.593   5.064 -1.4597  0.7861 -0.7513
 8697SOL     OW28407   5.536   9.742   8.180 -0.3907 -0.0836 -0.1901
 8697SOL    HW128408   5.537   9.820   8.235 -1.5243 -0.0528 -0.2027
 8697SOL    HW228409   5.582   9.769   8.100 -0.7076  0.5499 -0.1655
 8698SOL     OW28410   8.620   0.824   8.713  0.2437  0.4158 -0.3575
 8698SOL    HW128411   8.537   0.848   8.754 -0.6625  0.3851 -2.0764
 8698SOL    HW228412   8.627   0.730   8.726 -0.6201  0.2122 -1.2251
 8699SOL     OW28413   9.551   9.911   2.874  0.7217 -0.6176 -0.0646
 8699SOL    HW128414   9.480   9.900   2.937 -0.1926 -3.4333 -1.4080
 8699SOL    HW228415   9.507   9.911   2.788  2.1154  0.7301 -0.8255
 8700SOL     OW28416   4.016   3.898   8.549 -0.4640 -0.0431 -0.0403
 8700SOL    HW128417   4.035   3.832   8.615 -1.7028  0.9359  1.3710
 8700SOL    HW228418   4.095   3.951   8.543 -0.4761  0.1034  0.9815
 8701SOL     OW28419   1.574   3.393   6.892 -0.2351 -0.3069 -0.0629
 8701SOL    HW128420   1.600   3.347   6.972 -1.0732 -0.8152 -0.0647
 8701SOL    HW228421   1.623   3.350   6.822  0.5454  0.1777  0.1698
 8702SOL     OW28422  10.596   3.632   5.445  0.3993  0.2366 -0.0263
 8702SOL    HW128423  10.618   3.581   5.523 -0.3095  0.1018  0.0877
 8702SOL    HW228424  10.503   3.614   5.429  0.1315  1.4994  0.0251
 8703SOL     OW28425   5.248   3.013   4.989 -0.3185  0.5013  0.2280
 8703SOL    HW128426   5.255   3.028   5.083 -2.1659  0.7598  0.3656
 8703SOL    HW228427   5.155   2.994   4.974  0.0649 -0.3464 -1.4381
 8704SOL     OW28428   6.431   1.266   5.368 -0.4634  0.6066 -0.0472
 8704SOL    HW128429   6.355   1.325   5.370 -2.4108 -1.7668  2.4376
 8704SOL    HW228430   6.476   1.289   5.286 -3.6876  2.3119 -1.5467
 8705SOL     OW28431   6.403   7.802   6.601 -0.1133 -0.0254 -0.0029
 8705SOL    HW128432   6.422   7.710   6.588  1.3029  0.2352  0.1101
 8705SOL    HW228433   6.470   7.848   6.551 -0.7667  0.9530 -0.0177
 8706SOL     OW28434   2.251   4.786   7.581  0.7737  0.1054 -0.3580
 8706SOL    HW128435   2.322   4.723   7.566  1.5176  1.1030 -1.1738
 8706SOL    HW228436   2.292   4.857   7.630 -0.0354  0.0187  0.4606
 8707SOL     OW28437   0.037   9.605   1.038 -0.1404  0.4400 -0.3740
 8707SOL    HW128438   0.015   9.665   0.966  0.8325 -0.5817 -1.5566
 8707SOL    HW228439   0.131   9.617   1.051 -0.1155 -0.1496  0.0139
 8708SOL     OW28440   9.673   5.070   4.526  0.2621 -0.3149  0.3760
 8708SOL    HW128441   9.729   5.012   4.579  0.0397 -1.8009 -0.9650
 8708SOL    HW228442   9.733   5.111   4.464  0.1321 -0.5766  0.0759
 8709SOL     OW28443   1.428   1.762   1.503  0.6811 -0.1610 -0.1662
 8709SOL    HW128444   1.503   1.706   1.524  0.9181  0.8189  1.8361
 8709SOL    HW228445   1.410   1.809   1.584 -0.4125  1.6183 -1.3776
 8710SOL     OW28446   0.549   6.068   1.425 -0.3860  0.7365  0.2918
 8710SOL    HW128447   0.486   6.039   1.492  0.4038  0.9292  1.1444
 8710SOL    HW228448   0.495   6.114   1.360 -1.5089 -1.5348 -0.4940
 8711SOL     OW28449   3.398   1.434   6.580 -0.5214  0.4720 -0.0406
 8711SOL    HW128450   3.385   1.355   6.633 -1.1174  1.5724  1.4908
 8711SOL    HW228451   3.416   1.503   6.643  0.1758  1.5490 -1.3775
 8712SOL     OW28452   5.438   9.775   4.393 -0.1655  0.2337 -0.0998
 8712SOL    HW128453   5.468   9.864   4.411 -0.9961  0.3132  0.9856
 8712SOL    HW228454   5.423   9.773   4.298  0.1860  1.1448 -0.1793
 8713SOL     OW28455   7.323   9.222   3.196 -0.1543 -0.5345  0.0101
 8713SOL    HW128456   7.304   9.179   3.279  1.4969  1.4813  1.5389
 8713SOL    HW228457   7.279   9.307   3.203  1.4888  0.3953 -0.3392
 8714SOL     OW28458   1.650   8.012  10.412 -0.2958 -0.4023 -0.0623
 8714SOL    HW128459   1.653   8.103  10.381 -0.3099  0.1984  1.5540
 8714SOL    HW228460   1.652   7.959  10.333 -1.4524  1.0291 -1.1082
 8715SOL     OW28461   2.529   7.273   7.473 -0.2522 -0.0289 -0.2975
 8715SOL    HW128462   2.571   7.213   7.535 -0.8018 -0.4253 -0.2993
 8715SOL    HW228463   2.473   7.217   7.419 -2.3088  0.6842  0.9731
 8716SOL     OW28464   4.752   0.875   1.729 -0.1164  0.1266  0.1659
 8716SOL    HW128465   4.719   0.785   1.734  0.7643 -0.4079 -2.1266
 8716SOL    HW228466   4.811   0.883   1.804 -0.6447 -1.0178  0.7299
 8717SOL     OW28467   4.414   9.563   5.778  0.1488  0.3706  0.5265
 8717SOL    HW128468   4.336   9.521   5.740 -0.8731  1.9504  0.7976
 8717SOL    HW228469   4.466   9.590   5.703  0.0235  0.0828  0.3311
 8718SOL     OW28470   1.227  10.575   5.985  0.0977 -0.0105 -0.1080
 8718SOL    HW128471   1.268  10.545   5.903 -2.1574 -1.2938 -0.8317
 8718SOL    HW228472   1.247  10.507   6.048 -1.1081 -0.7932 -0.5419
 8719SOL     OW28473   7.387   0.114   1.231  0.0351 -0.3654  0.0511
 8719SOL    HW128474   7.422   0.203   1.227 -2.7935  0.9140  1.4391
 8719SOL    HW228475   7.371   0.099   1.324 -0.5240 -1.9497 -0.2688
 8720SOL     OW28476   5.810   9.074   8.607  0.0965  0.1025 -0.7958
 8720SOL    HW128477   5.744   9.085   8.539 -0.5462  0.6207 -0.1046
 8720SOL    HW228478   5.838   9.163   8.627  0.2861 -0.0460 -0.3886
 8721SOL     OW28479   8.753   8.496   0.624 -0.1945  0.5294 -0.5788
 8721SOL    HW128480   8.820   8.565   0.624  0.6743 -0.2280 -2.9040
 8721SOL    HW228481   8.798   8.419   0.590 -1.8707 -0.4485 -0.6800
 8722SOL     OW28482   9.091   2.365   2.648 -0.3059 -0.2050 -0.1208
 8722SOL    HW128483   9.039   2.325   2.718  0.1916 -1.0400 -0.2252
 8722SOL    HW228484   9.074   2.311   2.571  0.1198 -0.0243 -0.3421
 8723SOL     OW28485   2.858   9.502   8.127 -0.0773  0.7211 -0.2635
 8723SOL    HW128486   2.790   9.490   8.193  0.7590  1.6041  0.7891
 8723SOL    HW228487   2.811   9.532   8.049 -0.8246  2.2048  0.7173
 8724SOL     OW28488  10.136   8.506   7.135 -0.0603 -0.2701  0.4942
 8724SOL    HW128489  10.092   8.582   7.098  0.8078 -0.7041 -1.6210
 8724SOL    HW228490  10.082   8.480   7.209 -1.6894  0.9650 -0.2050
 8725SOL     OW28491   3.458   6.296   1.599 -0.0575 -0.2632  0.0355
 8725SOL    HW128492   3.548   6.266   1.590 -0.4200 -1.0271 -1.2758
 8725SOL    HW228493   3.455   6.379   1.552  0.1021  0.1082  0.6602
 8726SOL     OW28494   9.856   6.388   5.223  0.3720  0.5362 -0.2400
 8726SOL    HW128495   9.803   6.444   5.280 -1.6094  1.9827 -3.2299
 8726SOL    HW228496   9.795   6.319   5.194 -0.0108  2.0940 -3.5628
 8727SOL     OW28497   1.560  10.066   5.780 -0.4550  0.1349 -0.4351
 8727SOL    HW128498   1.610  10.036   5.704 -0.1384  0.3869 -0.3249
 8727SOL    HW228499   1.611  10.138   5.817 -0.0991 -0.6222  0.6017
 8728SOL     OW28500   7.408   7.432   3.782 -0.0497 -0.3353  0.2376
 8728SOL    HW128501   7.425   7.438   3.688 -0.8256 -0.7324  0.0669
 8728SOL    HW228502   7.341   7.364   3.791  0.8096 -1.0930  1.1793
 8729SOL     OW28503   4.236   3.378   4.754  0.3065 -0.0110  0.5144
 8729SOL    HW128504   4.276   3.295   4.728  0.5508  0.0283  0.7679
 8729SOL    HW228505   4.298   3.417   4.814  0.6159  0.7835 -0.2955
 8730SOL     OW28506   1.446   6.753   5.065  0.4958 -0.0197  0.1709
 8730SOL    HW128507   1.376   6.713   5.014  0.6067 -2.2068  1.5601
 8730SOL    HW228508   1.515   6.770   5.002 -0.1756 -0.6153 -0.7595
 8731SOL     OW28509   7.283   9.601   0.406  0.0771 -0.5439  0.8409
 8731SOL    HW128510   7.337   9.553   0.469 -0.2791 -1.3787  0.5299
 8731SOL    HW228511   7.216   9.538   0.380 -0.6001  0.2397  0.6630
 8732SOL     OW28512  10.590   5.124   0.256  0.2579  0.4562  0.1599
 8732SOL    HW128513  10.609   5.201   0.203  0.0641  1.0665  0.9697
 8732SOL    HW228514  10.552   5.061   0.194  0.3890  1.0164 -0.4975
 8733SOL     OW28515   7.274   9.059   8.502  0.1181 -0.1842  0.6789
 8733SOL    HW128516   7.180   9.070   8.488 -0.0571  0.2163  2.0299
 8733SOL    HW228517   7.310   9.045   8.414 -1.3813 -1.8042  0.2696
 8734SOL     OW28518   6.323   6.246   6.610 -0.2823  0.4239 -0.1745
 8734SOL    HW128519   6.373   6.228   6.530 -0.6214  0.1599 -0.3291
 8734SOL    HW228520   6.232   6.232   6.585 -0.4239  0.7352  0.1535
 8735SOL     OW28521   6.167   2.383   0.489 -0.2646  0.5168  0.0522
 8735SOL    HW128522   6.097   2.367   0.552 -0.4238 -1.0189 -0.4801
 8735SOL    HW228523   6.223   2.448   0.532  0.3581 -1.4019  2.3908
 8736SOL     OW28524   9.497   1.649   1.871  0.6894 -0.2446  0.0908
 8736SOL    HW128525   9.446   1.617   1.797 -1.1405  1.1530  0.6803
 8736SOL    HW228526   9.490   1.744   1.866 -1.0687 -0.0966  3.0448
 8737SOL     OW28527   5.445  10.033   8.077  0.5734 -0.0507  0.1334
 8737SOL    HW128528   5.426  10.025   8.170  1.1920 -1.1545  0.1764
 8737SOL    HW228529   5.380   9.978   8.034  3.4510 -3.9185  0.2840
 8738SOL     OW28530   9.931   1.012   6.885  0.0092  0.1709 -0.0047
 8738SOL    HW128531   9.989   0.947   6.845 -0.0374 -1.1958  1.9797
 8738SOL    HW228532   9.987   1.088   6.902  0.8471 -0.5189  0.4099
 8739SOL     OW28533   9.920   4.952   2.985  0.3291 -0.3494 -0.6348
 8739SOL    HW128534   9.851   4.915   2.929  0.4201  0.0671 -1.0354
 8739SOL    HW228535   9.996   4.961   2.926 -0.0833  1.7389 -0.9543
 8740SOL     OW28536   5.993   3.119   0.759  0.2473 -0.1790 -0.6938
 8740SOL    HW128537   5.943   3.198   0.779 -0.8024 -0.4074 -2.2424
 8740SOL    HW228538   6.084   3.145   0.770 -0.0533  1.4159 -1.6649
 8741SOL     OW28539   1.830  10.466   6.187 -0.6266  0.3289  0.4304
 8741SOL    HW128540   1.881  10.546   6.175  0.3302 -0.1729  1.0011
 8741SOL    HW228541   1.853  10.435   6.275 -0.8818 -0.6363  0.1791
 8742SOL     OW28542   1.161  10.367   9.482 -0.1852  0.3378  0.0222
 8742SOL    HW128543   1.232  10.422   9.449 -0.5237  0.3368 -0.7206
 8742SOL    HW228544   1.197  10.326   9.561  0.9020 -0.2291 -0.7376
 8743SOL     OW28545   0.102   0.543   8.986  0.8107 -0.2130  0.4286
 8743SOL    HW128546   0.031   0.564   8.926 -0.0814 -0.9359  1.2003
 8743SOL    HW228547   0.144   0.627   9.004 -0.7231  0.4562  1.0489
 8744SOL     OW28548   1.893   3.047   3.640  0.0287  0.1613  0.1712
 8744SOL    HW128549   1.911   3.123   3.585  0.4425 -0.3404 -0.3923
 8744SOL    HW228550   1.820   3.074   3.695  0.4127  1.0993  0.2383
 8745SOL     OW28551   5.959   2.388   8.884 -0.1816  0.4913  0.1495
 8745SOL    HW128552   5.907   2.308   8.893  0.1022  0.3751  0.8610
 8745SOL    HW228553   5.953   2.410   8.792  0.1650 -0.6441 -0.1644
 8746SOL     OW28554   3.150   4.399   7.944  0.2262 -0.4638  0.0089
 8746SOL    HW128555   3.188   4.338   7.882  0.0846  0.6931 -1.2698
 8746SOL    HW228556   3.055   4.391   7.931  0.2329  1.0729 -1.2762
 8747SOL     OW28557   3.957   7.485   0.816 -0.0660 -0.0067 -0.1301
 8747SOL    HW128558   3.968   7.459   0.724  1.6438 -0.3809  0.1576
 8747SOL    HW228559   3.993   7.411   0.866 -0.6421  0.3548  0.8452
 8748SOL     OW28560   7.816   4.878   0.800 -0.3692 -0.3479 -0.0482
 8748SOL    HW128561   7.883   4.891   0.733  0.6286  0.4411  1.0581
 8748SOL    HW228562   7.734   4.874   0.752  0.1684  1.5528 -1.2111
 8749SOL     OW28563   9.765   0.078   6.754  0.3795 -0.3553  0.3270
 8749SOL    HW128564   9.680   0.047   6.721  1.2384 -1.1501 -1.2351
 8749SOL    HW228565   9.782   0.022   6.830  0.1913 -1.2207 -0.2514
 8750SOL     OW28566  10.311   3.933   2.864 -0.3516 -0.0708  0.5135
 8750SOL    HW128567  10.332   3.915   2.956 -2.0463  0.0387  0.9673
 8750SOL    HW228568  10.256   3.859   2.837  1.5237 -1.0060 -0.9891
 8751SOL     OW28569   8.899   7.248   5.485 -0.1805 -0.1318 -0.1650
 8751SOL    HW128570   8.961   7.283   5.421 -1.5205 -0.9113 -1.9618
 8751SOL    HW228571   8.814   7.284   5.460 -0.6195  0.3350  1.8091
 8752SOL     OW28572   2.275   6.613   8.053 -0.5508  0.0458  0.3474
 8752SOL    HW128573   2.349   6.567   8.012  0.4106  0.6327  1.3850
 8752SOL    HW228574   2.291   6.605   8.147 -2.4954 -0.9061  0.6399
 8753SOL     OW28575  10.157   7.300   8.996  0.2362 -0.0610 -0.1186
 8753SOL    HW128576  10.213   7.358   8.946 -2.5009  2.1039 -0.9250
 8753SOL    HW228577  10.169   7.214   8.956  0.8435  0.8934 -2.0783
 8754SOL     OW28578   3.686   2.553   3.323  0.1216  0.4554 -0.3014
 8754SOL    HW128579   3.634   2.498   3.265 -0.9197  1.4057 -0.3030
 8754SOL    HW228580   3.754   2.590   3.266 -0.4241  0.7816 -0.7497
 8755SOL     OW28581   9.067   1.428   4.915 -0.5776 -0.0156 -0.2069
 8755SOL    HW128582   9.006   1.383   4.974 -1.2835  1.9340  0.6212
 8755SOL    HW228583   9.082   1.513   4.956  0.6697  0.5476 -1.7374
 8756SOL     OW28584   5.305   8.498   0.605  0.0936  0.1159 -0.4062
 8756SOL    HW128585   5.327   8.499   0.511 -1.1813 -0.5365 -0.7247
 8756SOL    HW228586   5.267   8.585   0.621  0.2630  0.2095 -0.5040
 8757SOL     OW28587   2.675   1.219   9.772 -0.4437  0.0924  0.0744
 8757SOL    HW128588   2.688   1.302   9.725 -1.6415  1.3222  1.7917
 8757SOL    HW228589   2.582   1.219   9.794 -0.3803 -1.5622  0.4154
 8758SOL     OW28590   3.855   3.561  10.198 -0.7787 -0.3710 -0.5301
 8758SOL    HW128591   3.783   3.500  10.216  0.5649 -2.2866 -1.1904
 8758SOL    HW228592   3.848   3.580  10.105 -0.2562 -0.8477 -0.6748
 8759SOL     OW28593   9.502   9.000   9.881 -0.0395 -0.3405 -0.4028
 8759SOL    HW128594   9.530   9.049   9.804 -0.2150 -1.0295 -0.9209
 8759SOL    HW228595   9.505   8.908   9.853 -1.8360 -0.5098 -0.1586
 8760SOL     OW28596   8.579   9.363  10.012  0.0405  0.2458 -0.3987
 8760SOL    HW128597   8.519   9.337   9.942 -1.3839  0.2722  0.7521
 8760SOL    HW228598   8.586   9.458  10.003 -1.6559  0.5104  0.5827
 8761SOL     OW28599   0.634   7.746   5.426  0.1987 -0.4833 -0.1558
 8761SOL    HW128600   0.616   7.781   5.513 -0.3661  0.1395 -0.5124
 8761SOL    HW228601   0.593   7.660   5.425  1.3385 -1.0573  0.6334
 8762SOL     OW28602   9.007   9.238   4.360  0.2053 -0.2297  0.5426
 8762SOL    HW128603   9.087   9.271   4.321  0.0071  1.1635  1.2540
 8762SOL    HW228604   8.995   9.291   4.439 -0.9251 -1.0313  0.9406
 8763SOL     OW28605   9.850   1.037  10.153 -0.1438 -0.2172 -0.3319
 8763SOL    HW128606   9.786   1.092  10.107 -0.9031 -0.8904 -0.1033
 8763SOL    HW228607   9.872   1.088  10.231 -2.0077 -0.8634  0.6759
 8764SOL     OW28608   6.091   0.737   9.877  0.9999  0.1369 -0.2110
 8764SOL    HW128609   6.107   0.754   9.785  0.5532  0.8444 -0.1649
 8764SOL    HW228610   6.028   0.804   9.904 -0.3865 -1.2253  0.1212
 8765SOL     OW28611   2.737   3.285   8.133  0.2359 -0.2322 -0.1137
 8765SOL    HW128612   2.783   3.347   8.076  1.7046 -0.1869  1.0627
 8765SOL    HW228613   2.749   3.319   8.221 -0.4491 -1.2614  0.3999
 8766SOL     OW28614  10.120   6.443  10.132  0.4740 -0.5871 -0.2852
 8766SOL    HW128615  10.113   6.504  10.206  1.0879 -1.8015  0.8088
 8766SOL    HW228616  10.038   6.394  10.134 -0.4241  0.7676 -1.7313
 8767SOL     OW28617   8.328   4.190   3.028  0.1999  0.0460  0.1648
 8767SOL    HW128618   8.423   4.177   3.019  0.0093 -1.1858 -0.2723
 8767SOL    HW228619   8.294   4.102   3.045 -0.8093  0.5677  0.8653
 8768SOL     OW28620   1.922   2.869   3.425  0.2624 -0.0916  0.0502
 8768SOL    HW128621   1.909   2.937   3.490  2.1654  0.6316 -0.2361
 8768SOL    HW228622   1.985   2.809   3.465  1.6225  0.4716 -1.1390
 8769SOL     OW28623   9.204   5.183   6.723 -0.3639  0.3927 -0.5843
 8769SOL    HW128624   9.267   5.174   6.795  0.9746  1.9810 -1.4552
 8769SOL    HW228625   9.230   5.116   6.660 -0.1886  0.3577 -0.4772
 8770SOL     OW28626   4.019   1.805   6.135  0.4215  0.1294 -0.2477
 8770SOL    HW128627   4.081   1.875   6.113  0.8547 -0.7277 -1.9051
 8770SOL    HW228628   3.951   1.848   6.186  1.3080  1.5145 -0.1873
 8771SOL     OW28629   5.549   2.918   7.665 -0.1178  0.1019  0.0567
 8771SOL    HW128630   5.584   3.006   7.679  1.7375 -0.6780  0.6468
 8771SOL    HW228631   5.456   2.926   7.683  0.0386  1.9034  0.2544
 8772SOL     OW28632   1.262   8.850   6.873 -0.0231  0.5794 -0.1579
 8772SOL    HW128633   1.202   8.792   6.826  0.9078  0.8516 -1.7431
 8772SOL    HW228634   1.344   8.802   6.877 -0.0041  0.6806  0.9775
 8773SOL     OW28635   6.213   1.789   9.019  0.0867  0.4476  0.1666
 8773SOL    HW128636   6.259   1.808   9.100 -0.5589  0.1009  0.6217
 8773SOL    HW228637   6.171   1.872   8.995 -1.6920 -0.0185  1.4800
 8774SOL     OW28638   1.833   6.795   4.973 -0.7623  0.5735  0.1801
 8774SOL    HW128639   1.863   6.860   5.037 -0.2509  0.3759  0.1462
 8774SOL    HW228640   1.911   6.744   4.952 -1.2165 -0.2484  0.4259
 8775SOL     OW28641   4.512   1.736   9.895  0.1269  0.4344 -0.6429
 8775SOL    HW128642   4.521   1.819   9.942 -0.3371  1.1481 -1.7709
 8775SOL    HW228643   4.454   1.757   9.822  0.5085 -0.7392 -1.2981
 8776SOL     OW28644   2.652   1.935   4.824  0.6015 -0.2530  0.4888
 8776SOL    HW128645   2.747   1.927   4.829  0.7472  1.0035  0.0761
 8776SOL    HW228646   2.621   1.912   4.911  1.5032  1.8409  1.4185
 8777SOL     OW28647   2.499   9.616   3.746 -0.3686 -0.3663  0.0232
 8777SOL    HW128648   2.436   9.650   3.682  0.5033 -0.0473 -0.6747
 8777SOL    HW228649   2.482   9.522   3.748 -0.3452 -0.3912 -0.7507
 8778SOL     OW28650   8.268   3.131   0.304  0.1677  0.0815  0.3582
 8778SOL    HW128651   8.330   3.065   0.335  0.5148  0.0719 -0.3272
 8778SOL    HW228652   8.323   3.203   0.273 -0.2193  1.6506  3.0300
 8779SOL     OW28653   3.053   9.808  10.568 -0.1520  0.4632 -0.3500
 8779SOL    HW128654   3.099   9.836  10.489 -0.3850 -0.0915 -0.6844
 8779SOL    HW228655   3.070   9.878  10.631  0.7887  0.4718 -0.5983
 8780SOL     OW28656   8.092   6.626   9.126  0.2918 -0.4596  0.3132
 8780SOL    HW128657   8.127   6.537   9.122 -0.7715 -0.8876 -0.0241
 8780SOL    HW228658   8.115   6.658   9.213  0.9060 -0.9711  0.3426
 8781SOL     OW28659  10.384   3.300   1.025  0.0632 -0.0444  0.4658
 8781SOL    HW128660  10.472   3.272   1.048  0.6044  0.7378 -0.5504
 8781SOL    HW228661  10.343   3.224   0.985  0.5814 -0.1677  0.1637
 8782SOL     OW28662   4.550   9.523  10.136 -0.4674  0.0361  0.2531
 8782SOL    HW128663   4.471   9.558  10.177 -1.3756 -1.7597  0.1058
 8782SOL    HW228664   4.529   9.432  10.116  1.7276 -0.5773  0.4527
 8783SOL     OW28665   9.500   4.911   3.920 -0.3089  0.2330  0.8545
 8783SOL    HW128666   9.528   4.820   3.928  2.6664  0.8954 -0.6728
 8783SOL    HW228667   9.578   4.962   3.941 -0.9453  2.3499 -1.4499
 8784SOL     OW28668   3.767   8.764   8.554  0.8209 -0.1028  0.3632
 8784SOL    HW128669   3.761   8.695   8.621  0.0447 -0.4876 -0.0864
 8784SOL    HW228670   3.702   8.829   8.582  1.0567  0.1152  0.4051
 8785SOL     OW28671   1.141   7.883   6.840  0.1199 -0.1519 -0.2421
 8785SOL    HW128672   1.159   7.791   6.822 -0.0072 -0.1991 -0.1262
 8785SOL    HW228673   1.201   7.930   6.783 -1.5839 -0.2825 -2.2846
 8786SOL     OW28674   3.051   7.767   6.393 -0.0561 -0.1635 -0.2498
 8786SOL    HW128675   3.014   7.725   6.470 -0.2968 -0.7884 -0.6972
 8786SOL    HW228676   3.041   7.702   6.323  2.3872 -0.6379 -0.2783
 8787SOL     OW28677   7.906   8.032  10.026 -0.4761  0.3456  0.1081
 8787SOL    HW128678   7.962   7.998   9.956 -1.9466  0.0186 -0.9422
 8787SOL    HW228679   7.877   7.954  10.073  0.0440  0.5258  0.7420
 8788SOL     OW28680   7.705   8.991   6.666  0.4229 -0.1479 -0.5804
 8788SOL    HW128681   7.736   9.009   6.577  1.5982 -0.0056 -0.1598
 8788SOL    HW228682   7.700   9.077   6.708 -3.5941  0.2446 -1.5199
 8789SOL     OW28683   4.132   6.300   8.980  0.5768  0.4122  0.0039
 8789SOL    HW128684   4.039   6.323   8.991 -0.1159 -1.5609 -1.1207
 8789SOL    HW228685   4.131   6.206   8.961  2.8008  0.4076 -0.3582
 8790SOL     OW28686   7.404   9.632   1.605  0.1713 -0.3117 -0.8604
 8790SOL    HW128687   7.430   9.540   1.614 -0.7108 -0.6318 -1.4670
 8790SOL    HW228688   7.474   9.672   1.553  1.5971 -0.1372  1.0904
 8791SOL     OW28689   5.767   8.111   0.742 -0.4701  0.6661 -0.0065
 8791SOL    HW128690   5.801   8.191   0.701  0.8236  0.2668  0.2322
 8791SOL    HW228691   5.824   8.097   0.817 -0.6910 -0.4760 -0.0431
 8792SOL     OW28692   5.799   6.583   4.842  0.0657 -0.2244 -0.1293
 8792SOL    HW128693   5.818   6.513   4.778  1.0372  0.0411 -0.1487
 8792SOL    HW228694   5.712   6.561   4.876  0.8057 -2.1035  0.7122
 8793SOL     OW28695   6.156   9.594   3.923 -0.0963  0.3022  0.0340
 8793SOL    HW128696   6.211   9.627   3.852  2.2708 -0.9710  1.1407
 8793SOL    HW228697   6.087   9.545   3.879  0.9836  0.0014 -1.4041
 8794SOL     OW28698   2.324   8.102   9.652  0.0618 -0.1347  1.1887
 8794SOL    HW128699   2.318   8.034   9.585  1.9550  0.9134 -0.1573
 8794SOL    HW228700   2.393   8.072   9.710 -0.8404 -0.5273  2.0827
 8795SOL     OW28701   7.512   4.058   3.322 -0.5717 -0.6069  0.4759
 8795SOL    HW128702   7.546   4.140   3.357 -1.7306  0.3004 -0.4368
 8795SOL    HW228703   7.565   4.041   3.244  0.0519 -1.0572  0.9848
 8796SOL     OW28704   7.571   2.634   3.039 -0.3697  0.8449  0.7237
 8796SOL    HW128705   7.520   2.586   3.105 -1.6338  0.2736 -0.6091
 8796SOL    HW228706   7.638   2.571   3.012 -0.8085  0.5175  0.3781
 8797SOL     OW28707   2.300   1.638   1.484 -0.0919 -0.3612  0.9173
 8797SOL    HW128708   2.376   1.692   1.462 -0.7631  0.7017  1.1548
 8797SOL    HW228709   2.333   1.577   1.550  0.9673 -1.0478 -0.1857
 8798SOL     OW28710   6.358   3.512  10.136  0.3638 -0.0078  0.2996
 8798SOL    HW128711   6.347   3.486  10.228 -2.4139  0.8006  0.2543
 8798SOL    HW228712   6.271   3.505  10.098  1.4441 -0.3008 -2.3194
 8799SOL     OW28713   5.976   0.042   4.069  0.0458 -0.0222  0.5979
 8799SOL    HW128714   5.890   0.064   4.104  0.0210  2.9897 -0.9446
 8799SOL    HW228715   6.038   0.080   4.131  0.0569  2.0570 -0.5574
 8800SOL     OW28716   0.587   2.668   0.029  0.5957  0.2296  0.7975
 8800SOL    HW128717   0.602   2.636  -0.059 -0.6062  1.5167  0.0897
 8800SOL    HW228718   0.497   2.643   0.050  0.7535  0.2296  1.5318
 8801SOL     OW28719   9.926   1.775   2.309 -0.0745 -0.0451  0.4332
 8801SOL    HW128720   9.838   1.772   2.271  0.6416 -0.2141 -1.2814
 8801SOL    HW228721   9.955   1.684   2.313  0.6419  0.1278 -0.5472
 8802SOL     OW28722  10.565   7.855  10.184  0.0005  0.0933  0.4488
 8802SOL    HW128723  10.488   7.911  10.191  0.8900  1.2000  2.5431
 8802SOL    HW228724  10.615   7.874  10.263  1.0589 -2.6682  0.5708
 8803SOL     OW28725   4.559   8.576   7.629 -0.0970  0.2167 -0.6642
 8803SOL    HW128726   4.465   8.573   7.645  0.0672 -0.4141  0.2469
 8803SOL    HW228727   4.598   8.529   7.703  0.8919 -0.1323 -1.3813
 8804SOL     OW28728   4.398   8.248   0.502  0.0649 -0.0635  0.2564
 8804SOL    HW128729   4.324   8.206   0.458  0.4288  0.3315 -0.7501
 8804SOL    HW228730   4.359   8.288   0.581 -0.3300 -2.0123  1.0944
 8805SOL     OW28731   1.562   9.904   9.550  0.5139  0.5246 -0.4054
 8805SOL    HW128732   1.495   9.940   9.492 -2.1603 -1.2590  1.3301
 8805SOL    HW228733   1.554   9.809   9.539  0.0741  0.1199  2.5297
 8806SOL     OW28734   5.263   8.150   3.548  0.0537  0.2967 -0.0783
 8806SOL    HW128735   5.253   8.074   3.490 -1.0096  1.4561 -1.5112
 8806SOL    HW228736   5.332   8.202   3.507 -0.9745  1.3191 -0.5777
 8807SOL     OW28737   2.498   5.855   0.491  0.7394  0.2453 -0.3227
 8807SOL    HW128738   2.548   5.789   0.444 -0.6477 -1.1079  0.0085
 8807SOL    HW228739   2.416   5.863   0.442 -0.3579 -0.5351  1.2437
 8808SOL     OW28740   4.552  10.321   4.331 -0.4369  0.2229  0.0321
 8808SOL    HW128741   4.522  10.364   4.251 -1.6242 -1.2081 -0.3396
 8808SOL    HW228742   4.614  10.383   4.370 -1.7351  2.0302 -0.6715
 8809SOL     OW28743   6.195  10.044   9.960 -0.0334 -0.1768  0.0283
 8809SOL    HW128744   6.105  10.047   9.927 -0.3245 -0.7399  0.7483
 8809SOL    HW228745   6.185  10.029  10.054  0.7422  2.0527  0.5345
 8810SOL     OW28746   8.172   3.035   1.700  0.1317  0.0222 -0.1233
 8810SOL    HW128747   8.180   2.940   1.698 -0.5606 -0.1063  1.4169
 8810SOL    HW228748   8.255   3.068   1.666  0.6793 -1.1386  0.0688
 8811SOL     OW28749   4.440   9.861   1.776 -0.5552  0.3405 -0.6781
 8811SOL    HW128750   4.524   9.898   1.804  0.4786 -2.4712  0.3287
 8811SOL    HW228751   4.386   9.863   1.855 -0.0414 -1.3245 -0.2456
 8812SOL     OW28752   2.686   2.502   9.424  0.7556 -0.4763 -0.5747
 8812SOL    HW128753   2.660   2.593   9.405 -0.5266 -0.3990  1.2797
 8812SOL    HW228754   2.748   2.510   9.496 -1.1028 -1.1370  1.1725
 8813SOL     OW28755  10.539   5.779   2.459  0.4492 -0.5753 -0.1533
 8813SOL    HW128756  10.631   5.770   2.487  0.1117 -0.8201  0.9380
 8813SOL    HW228757  10.506   5.689   2.458 -0.0300 -0.4084  0.3853
 8814SOL     OW28758   9.833   5.512   4.090 -0.0137  0.0888 -0.3073
 8814SOL    HW128759   9.821   5.573   4.017 -0.4038 -0.4669 -0.7219
 8814SOL    HW228760   9.790   5.432   4.061 -0.7721  0.0721  0.8177
 8815SOL     OW28761   2.891   4.094   6.505 -1.2093  0.4344  0.7854
 8815SOL    HW128762   2.856   4.042   6.433 -0.7151 -0.1516  0.9589
 8815SOL    HW228763   2.931   4.030   6.564  1.1159  1.1268  0.0614
 8816SOL     OW28764   1.995   3.382  10.162 -0.6900 -0.6387  0.0167
 8816SOL    HW128765   1.993   3.344  10.250 -2.6969 -0.4442  0.0879
 8816SOL    HW228766   1.903   3.392  10.137 -0.1768 -0.5678 -2.0627
 8817SOL     OW28767   4.468   5.445   3.264 -0.0793  0.0002 -0.2970
 8817SOL    HW128768   4.543   5.504   3.259 -0.0638 -0.1616 -2.9813
 8817SOL    HW228769   4.502   5.359   3.242 -0.7576 -0.3890  0.1215
 8818SOL     OW28770   3.354   6.066   3.724 -0.6020  0.4732 -0.1482
 8818SOL    HW128771   3.449   6.071   3.711 -0.3018 -0.6235  1.3569
 8818SOL    HW228772   3.324   6.002   3.660 -0.4278  1.2551 -1.0257
 8819SOL     OW28773   0.822   1.927   6.083 -0.0198 -0.7018 -0.0985
 8819SOL    HW128774   0.917   1.930   6.084  0.0999 -2.6297 -0.8542
 8819SOL    HW228775   0.798   1.972   6.002  0.0765  1.5242  1.0286
 8820SOL     OW28776   8.378   8.476   7.110  0.0115  0.3459 -0.0457
 8820SOL    HW128777   8.298   8.426   7.121  0.5503 -0.5512 -0.0729
 8820SOL    HW228778   8.432   8.452   7.186  0.3479  0.7561 -0.1469
 8821SOL     OW28779   1.609   9.869   1.092  0.0066 -0.4349 -0.0861
 8821SOL    HW128780   1.667   9.890   1.165 -1.1772  0.5546  0.6126
 8821SOL    HW228781   1.655   9.801   1.043  2.2948  1.1012 -0.2432
 8822SOL     OW28782   2.703   0.421   9.613  0.1471 -0.4375  0.3465
 8822SOL    HW128783   2.678   0.467   9.533  0.2139 -2.9215 -1.1858
 8822SOL    HW228784   2.653   0.464   9.682  0.6690  2.2962 -0.8433
 8823SOL     OW28785   6.531   3.426   3.389 -0.1314  0.1330 -0.1175
 8823SOL    HW128786   6.530   3.389   3.301  0.9344  0.9597 -0.5035
 8823SOL    HW228787   6.485   3.510   3.381  0.3052  0.3899  0.0177
 8824SOL     OW28788   9.777   2.640   5.256  0.3452 -0.2629  0.6703
 8824SOL    HW128789   9.796   2.703   5.326  0.6261  0.0287  0.3392
 8824SOL    HW228790   9.824   2.561   5.283 -1.3888 -0.9191  1.9496
 8825SOL     OW28791   3.687   5.214   8.478 -0.1296 -0.3091  0.0727
 8825SOL    HW128792   3.727   5.266   8.407  1.7042 -2.1160 -0.3240
 8825SOL    HW228793   3.635   5.148   8.433  0.2581 -0.8671  0.4319
 8826SOL     OW28794   2.593   0.573   2.848 -0.3531 -0.0829  0.0583
 8826SOL    HW128795   2.529   0.503   2.839  0.3064 -0.6006 -0.8076
 8826SOL    HW228796   2.626   0.587   2.759  0.3150  0.5726  0.3929
 8827SOL     OW28797   6.661   2.301   4.620 -0.1164  0.9380 -0.2215
 8827SOL    HW128798   6.741   2.352   4.635 -0.2279  0.8430  0.7559
 8827SOL    HW228799   6.598   2.335   4.684 -0.7320  0.7294 -0.7089
 8828SOL     OW28800   7.725   3.544   9.749 -0.7118 -0.0199 -0.0084
 8828SOL    HW128801   7.731   3.577   9.839 -0.2420 -1.1936  0.4042
 8828SOL    HW228802   7.686   3.457   9.758 -2.8361  0.7423 -1.1622
 8829SOL     OW28803   2.457   4.789   8.685 -0.3910  0.6029  0.4500
 8829SOL    HW128804   2.490   4.782   8.775 -0.6704  0.7689  0.5650
 8829SOL    HW228805   2.384   4.850   8.691  0.4213  1.6773 -0.1083
 8830SOL     OW28806   4.456   2.515   6.404 -0.2213  0.2602 -0.6870
 8830SOL    HW128807   4.403   2.503   6.325  0.2951 -1.8384 -0.7699
 8830SOL    HW228808   4.546   2.521   6.371  0.0787 -1.3939 -0.2664
 8831SOL     OW28809   1.397  10.189   7.289 -0.1523 -0.1873 -0.1088
 8831SOL    HW128810   1.379  10.150   7.375 -2.3382  1.9695  0.5360
 8831SOL    HW228811   1.314  10.231   7.265  1.7036  3.3338 -1.0493
 8832SOL     OW28812   3.508   2.756   2.738 -0.4578  0.2688 -0.5750
 8832SOL    HW128813   3.562   2.738   2.816 -0.3229  1.8163 -0.2874
 8832SOL    HW228814   3.431   2.700   2.749  0.2176 -0.5875 -0.0507
 8833SOL     OW28815   0.126   1.713   7.496 -0.0730 -0.1250  0.5487
 8833SOL    HW128816   0.040   1.707   7.454 -0.1909 -0.7541  0.8665
 8833SOL    HW228817   0.150   1.805   7.488 -0.3014 -0.1470 -0.4824
 8834SOL     OW28818   7.737   6.446   9.340 -0.1627  0.1022 -0.0317
 8834SOL    HW128819   7.740   6.420   9.432  0.7765  2.5943  0.7401
 8834SOL    HW228820   7.648   6.476   9.327 -0.3167 -0.3175  0.0483
 8835SOL     OW28821   0.190   5.913   2.052 -0.4666  0.6099 -0.2945
 8835SOL    HW128822   0.192   5.931   1.958  1.7626  1.2807 -0.1812
 8835SOL    HW228823   0.164   5.821   2.058 -2.8780  1.1487 -1.3993
 8836SOL     OW28824   3.959   6.634  10.402 -0.2702 -0.3116  0.2153
 8836SOL    HW128825   4.002   6.563  10.355 -0.6643 -1.2402  1.2366
 8836SOL    HW228826   3.948   6.602  10.491 -0.5087  1.0059  0.6901
 8837SOL     OW28827   5.634   8.614   9.161  0.0801  0.4445 -0.3688
 8837SOL    HW128828   5.724   8.623   9.131 -0.3268 -0.0169 -1.8179
 8837SOL    HW228829   5.582   8.615   9.080 -1.1398 -0.1187  0.3851
 8838SOL     OW28830   7.348   0.704   9.909 -0.5181 -0.4414 -0.1344
 8838SOL    HW128831   7.342   0.731   9.818  0.1874 -1.4202 -0.4814
 8838SOL    HW228832   7.437   0.727   9.936 -0.4835 -0.8208  0.0858
 8839SOL     OW28833   9.678   8.155   2.413  0.2236  0.3786  0.2227
 8839SOL    HW128834   9.700   8.179   2.503  0.9300  0.3227  0.0709
 8839SOL    HW228835   9.679   8.059   2.414 -0.1104  0.3751  0.2368
 8840SOL     OW28836   7.860   6.558   8.921  0.1527 -0.5530 -0.1565
 8840SOL    HW128837   7.949   6.524   8.916 -0.3547 -1.8427 -0.7157
 8840SOL    HW228838   7.869   6.650   8.895  1.5661 -0.1517  1.5055
 8841SOL     OW28839  10.347   7.800   2.327  0.3550 -0.2975  0.1990
 8841SOL    HW128840  10.394   7.862   2.271 -0.0133  0.3506  0.5895
 8841SOL    HW228841  10.262   7.841   2.342 -0.5473 -1.6726 -0.8935
 8842SOL     OW28842   9.162   5.138   2.557  0.3248  0.2711 -0.0512
 8842SOL    HW128843   9.080   5.088   2.556 -1.1494  2.4806  1.3010
 8842SOL    HW228844   9.135   5.228   2.576  3.0161  1.2640 -0.4805
 8843SOL     OW28845   0.929   4.137   4.314  0.4598  0.8919  0.1874
 8843SOL    HW128846   0.955   4.051   4.349  0.2835  0.5590 -0.4759
 8843SOL    HW228847   1.001   4.162   4.257  0.2823  0.9415 -0.0178
 8844SOL     OW28848   8.196   1.622   6.746  0.2604 -0.3132 -0.7450
 8844SOL    HW128849   8.142   1.553   6.785 -0.7772  2.1461  2.7391
 8844SOL    HW228850   8.135   1.672   6.692 -0.9432  1.7432  2.2283
 8845SOL     OW28851   5.522  10.440   0.181 -0.2134 -0.3400 -0.4474
 8845SOL    HW128852   5.509  10.405   0.093  1.6021 -0.2109 -0.8045
 8845SOL    HW228853   5.585  10.380   0.221 -1.3557 -0.6642  0.9555
 8846SOL     OW28854   0.422   8.296   1.144 -0.1872  0.2703  0.2523
 8846SOL    HW128855   0.479   8.218   1.148 -0.6401 -0.2090 -1.7202
 8846SOL    HW228856   0.379   8.298   1.229 -0.0574 -1.5766  0.4098
 8847SOL     OW28857   7.503   6.023   5.826  0.5829  0.0430 -0.1976
 8847SOL    HW128858   7.431   5.972   5.862  1.2236 -0.9589 -0.3071
 8847SOL    HW228859   7.549   5.963   5.767  3.1194 -0.2526  1.8728
 8848SOL     OW28860   6.825   2.703   7.308 -0.5198  0.0761  0.0001
 8848SOL    HW128861   6.848   2.612   7.288 -1.7531 -0.3051  0.2618
 8848SOL    HW228862   6.783   2.735   7.228 -0.8971  0.1355  0.2211
 8849SOL     OW28863   1.000   2.276   8.646 -0.3147  0.6290  0.4385
 8849SOL    HW128864   0.979   2.366   8.670  0.1020  0.1711  2.8203
 8849SOL    HW228865   0.949   2.222   8.707  1.4115 -0.6436  0.8412
 8850SOL     OW28866   3.585   2.451   2.377  0.1416 -0.1040  0.4325
 8850SOL    HW128867   3.629   2.368   2.362 -1.6128 -1.5019  2.4295
 8850SOL    HW228868   3.639   2.495   2.443  0.2139 -0.3620  0.5448
 8851SOL     OW28869   3.141   5.930   7.071  0.2640  0.2561 -0.4609
 8851SOL    HW128870   3.232   5.907   7.089  0.0715 -0.6160 -0.5517
 8851SOL    HW228871   3.143   6.023   7.051  1.2232  0.1103 -1.0921
 8852SOL     OW28872   3.054   9.943   7.299 -0.0245  0.0949 -0.2541
 8852SOL    HW128873   3.023   9.900   7.379 -0.9176 -0.2166 -0.7606
 8852SOL    HW228874   2.975   9.959   7.248  0.4641  0.9448 -0.7652
 8853SOL     OW28875   2.746   0.917   1.078 -0.3558  0.5024 -0.1017
 8853SOL    HW128876   2.751   0.851   1.147 -0.7274 -0.2238 -0.7602
 8853SOL    HW228877   2.791   0.993   1.115  0.5370 -0.2832  0.4641
 8854SOL     OW28878   0.879   8.362   3.309 -0.3255  0.3981 -0.2038
 8854SOL    HW128879   0.851   8.321   3.227 -0.7410 -0.8594  0.5481
 8854SOL    HW228880   0.966   8.325   3.325 -0.0527  0.9916 -0.3065
 8855SOL     OW28881   4.099   1.110   6.736 -0.1981  0.3384  0.6865
 8855SOL    HW128882   4.008   1.083   6.748 -0.1611  0.3150  0.9020
 8855SOL    HW228883   4.094   1.187   6.679 -0.1273 -2.2200 -3.1882
 8856SOL     OW28884  10.380   2.631   4.704  0.0249 -0.2340  0.3309
 8856SOL    HW128885  10.394   2.621   4.610 -0.0622 -1.0181  0.3921
 8856SOL    HW228886  10.444   2.697   4.731  1.1876 -1.1826 -0.0066
 8857SOL     OW28887   0.682   2.948   0.005  0.1751 -0.6076 -0.2165
 8857SOL    HW128888   0.626   2.872   0.021 -1.0626 -0.2880 -2.5646
 8857SOL    HW228889   0.769   2.919   0.032 -0.6347 -2.0321  1.0877
 8858SOL     OW28890   6.941   5.735   1.357  0.0816  0.2038 -0.2423
 8858SOL    HW128891   7.023   5.700   1.322  1.3294  2.3750  0.3576
 8858SOL    HW228892   6.948   5.723   1.452 -0.6924 -0.3867 -0.2554
 8859SOL     OW28893   0.111   2.216   5.406  0.4594  0.1723 -0.3016
 8859SOL    HW128894   0.116   2.122   5.424  0.6846  0.4595  1.2467
 8859SOL    HW228895   0.173   2.230   5.335  1.0557 -0.7180  0.0279
 8860SOL     OW28896   2.809   1.214   2.543 -0.1666 -0.2454 -0.1524
 8860SOL    HW128897   2.784   1.172   2.625  1.8412 -0.5714  0.3448
 8860SOL    HW228898   2.738   1.191   2.482 -1.6888 -0.0234  1.4354
 8861SOL     OW28899   1.683   7.154   7.279 -0.1643 -0.1814  0.4046
 8861SOL    HW128900   1.744   7.224   7.303  0.9777  0.0030 -2.6457
 8861SOL    HW228901   1.602   7.200   7.255 -0.2576 -0.1271  0.8144
 8862SOL     OW28902   8.696   8.652   1.014  0.7965  0.0663  0.5752
 8862SOL    HW128903   8.668   8.740   0.990  2.0361 -0.0908 -1.8452
 8862SOL    HW228904   8.760   8.665   1.084 -0.3237  0.9290  1.4601
 8863SOL     OW28905   5.297   3.375   7.737 -0.1037  0.4571 -0.3541
 8863SOL    HW128906   5.290   3.280   7.739  1.2702  0.3511  0.2965
 8863SOL    HW228907   5.210   3.405   7.765  0.1795 -0.6567  1.9928
 8864SOL     OW28908   2.139   0.894   9.325 -0.4358  0.0611 -0.0509
 8864SOL    HW128909   2.066   0.834   9.313 -1.1161  0.7532  0.5261
 8864SOL    HW228910   2.104   0.980   9.303 -0.2024  0.5998  1.5206
 8865SOL     OW28911   2.986   8.153   3.733  0.5770  0.2094  0.1819
 8865SOL    HW128912   2.921   8.189   3.794  2.2740  0.0155  2.2199
 8865SOL    HW228913   3.044   8.226   3.714 -0.3925  0.4853 -1.9414
 8866SOL     OW28914   2.187   6.274   2.045 -0.0610 -0.7287  0.0170
 8866SOL    HW128915   2.205   6.323   1.965  1.7878 -1.2510  0.0753
 8866SOL    HW228916   2.136   6.334   2.099  2.9445  1.6493  0.5040
 8867SOL     OW28917   4.763   0.519   5.643  0.3880 -0.2451  0.3555
 8867SOL    HW128918   4.781   0.474   5.725 -0.2261  0.5780  0.9521
 8867SOL    HW228919   4.746   0.448   5.580 -1.7703 -0.8639  1.5493
 8868SOL     OW28920   4.348   8.858   9.860 -1.4254  0.6622 -0.3204
 8868SOL    HW128921   4.287   8.792   9.828 -1.5979  0.1033  1.0509
 8868SOL    HW228922   4.361   8.835   9.952  1.3447  0.3783 -0.6947
 8869SOL     OW28923   2.692   4.045   6.229  0.2289 -0.0930 -0.3322
 8869SOL    HW128924   2.622   4.076   6.171  0.3649  0.6819 -0.0989
 8869SOL    HW228925   2.754   4.001   6.170 -0.3614 -0.6129 -0.5639
 8870SOL     OW28926   3.191   5.626   1.080  0.2489  0.1761 -0.1335
 8870SOL    HW128927   3.168   5.537   1.107 -1.3414  0.6284  0.0961
 8870SOL    HW228928   3.136   5.683   1.133 -1.8700  1.1653 -3.0857
 8871SOL     OW28929   6.876   0.221   5.730  0.3706 -0.0011 -0.6943
 8871SOL    HW128930   6.905   0.309   5.753  0.5300  0.1558 -1.4593
 8871SOL    HW228931   6.947   0.164   5.758  0.0633  0.0596  0.2280
 8872SOL     OW28932   8.896   9.226   2.990 -0.0385  0.3674 -0.4572
 8872SOL    HW128933   8.870   9.309   2.949  0.5149  1.5279  1.3711
 8872SOL    HW228934   8.991   9.225   2.984 -0.0461 -0.1484 -0.4914
 8873SOL     OW28935   6.547   3.066   0.436 -0.0686  0.4185  0.2382
 8873SOL    HW128936   6.569   3.158   0.419  0.9803  0.2935  0.8820
 8873SOL    HW228937   6.489   3.042   0.363  0.5302  1.2617 -0.5412
 8874SOL     OW28938   3.536  10.229   2.669  0.1096  0.1186 -0.2508
 8874SOL    HW128939   3.620  10.260   2.635  0.2681  0.9942  0.8895
 8874SOL    HW228940   3.521  10.146   2.623  2.1432 -0.6248  0.3256
 8875SOL     OW28941   6.875   4.499   6.617  0.3696 -0.4006 -0.7022
 8875SOL    HW128942   6.968   4.481   6.622  0.1284 -1.6944 -0.5096
 8875SOL    HW228943   6.850   4.469   6.529 -0.3065 -2.4909  0.1291
 8876SOL     OW28944   2.746   7.244   8.506 -0.2725  0.2471 -0.4929
 8876SOL    HW128945   2.712   7.255   8.594  1.6663  0.5118  0.2729
 8876SOL    HW228946   2.840   7.260   8.514  0.3422 -1.9999 -2.1611
 8877SOL     OW28947  10.516   1.991   9.784 -0.5845  0.3307 -0.1768
 8877SOL    HW128948  10.595   1.938   9.777 -0.6186  0.3573 -0.8671
 8877SOL    HW228949  10.497   1.994   9.877  0.6065  0.8928  0.0632
 8878SOL     OW28950   4.944   6.731   5.935 -0.0582  0.4929  0.4414
 8878SOL    HW128951   4.908   6.800   5.991 -1.1033 -0.0167  0.4284
 8878SOL    HW228952   4.957   6.657   5.994  0.4132  0.4819  0.3257
 8879SOL     OW28953   1.960   1.016  10.119 -0.5565  0.1303 -0.2935
 8879SOL    HW128954   1.889   1.021  10.055 -0.7453  1.1941 -0.0235
 8879SOL    HW228955   2.036   1.053  10.073 -0.9335  1.8663  0.3792
 8880SOL     OW28956   4.463   5.836   4.229 -0.1627  0.4987 -0.2749
 8880SOL    HW128957   4.556   5.833   4.253  0.4875  3.4780 -1.9809
 8880SOL    HW228958   4.452   5.762   4.169  1.6456  1.2492 -1.6146
 8881SOL     OW28959   4.670   2.355   4.740  0.0398 -0.3317 -0.0186
 8881SOL    HW128960   4.632   2.443   4.745  0.2203 -0.2860  0.7831
 8881SOL    HW228961   4.734   2.361   4.669  1.2573  0.6919  1.0988
 8882SOL     OW28962   9.666   2.709   8.870  0.0829  0.2913 -0.7742
 8882SOL    HW128963   9.667   2.792   8.918 -0.6334 -0.1047 -0.0480
 8882SOL    HW228964   9.756   2.677   8.877  0.3921  1.0498 -1.1539
 8883SOL     OW28965   1.905   5.093   3.735  0.4251 -0.0934 -0.2707
 8883SOL    HW128966   1.825   5.116   3.783  1.2011  1.3642  0.3918
 8883SOL    HW228967   1.951   5.032   3.794 -1.0127 -2.4994 -1.4628
 8884SOL     OW28968   4.026   5.224  10.480 -0.1260 -0.0505  0.0556
 8884SOL    HW128969   3.977   5.275  10.415 -0.2120 -2.2843 -1.7613
 8884SOL    HW228970   3.985   5.137  10.478  2.3258 -1.2849  0.2579
 8885SOL     OW28971   9.716   6.134   3.523 -0.1271  0.2319 -0.5414
 8885SOL    HW128972   9.649   6.074   3.555 -0.4331  0.7993 -0.0971
 8885SOL    HW228973   9.674   6.220   3.524  0.2764  0.4471 -1.2597
 8886SOL     OW28974   8.201   2.040   9.129  0.4699  0.3735  0.1045
 8886SOL    HW128975   8.139   2.005   9.194 -0.4096  1.9178  0.1485
 8886SOL    HW228976   8.146   2.068   9.057  1.3866 -0.6246 -1.0247
 8887SOL     OW28977   2.554   5.341  10.541  0.6326  0.0668 -0.6367
 8887SOL    HW128978   2.630   5.391  10.510  0.6699  0.2420 -0.2695
 8887SOL    HW228979   2.552   5.264  10.486  0.3049  0.6962 -1.5217
 8888SOL     OW28980   3.577   3.079   3.338  0.6404  0.2467  0.5585
 8888SOL    HW128981   3.526   3.106   3.414  1.0828  1.6928  0.3634
 8888SOL    HW228982   3.565   2.984   3.334 -2.2838  0.5338  0.3229
 8889SOL     OW28983   9.345   2.858   7.124 -0.0793  0.0216 -0.3892
 8889SOL    HW128984   9.263   2.873   7.172 -0.3668  0.6723 -1.0576
 8889SOL    HW228985   9.399   2.934   7.145  0.8569 -0.9698  1.0089
 8890SOL     OW28986   7.303   2.971   1.071 -0.1376 -0.3778  0.1714
 8890SOL    HW128987   7.249   2.984   1.149 -0.0839  0.7756  0.0358
 8890SOL    HW228988   7.382   3.022   1.088 -0.1858  0.0040 -0.6857
 8891SOL     OW28989   9.217   8.921   6.734  0.3364  0.9319 -0.1295
 8891SOL    HW128990   9.166   8.994   6.699 -2.9861 -1.3135 -0.3956
 8891SOL    HW228991   9.201   8.924   6.828 -0.7954 -0.1016 -0.2754
 8892SOL     OW28992   1.481   6.135   6.657 -0.1523  0.0007 -0.3127
 8892SOL    HW128993   1.489   6.225   6.624 -3.1619  0.4690 -0.0754
 8892SOL    HW228994   1.521   6.139   6.745  1.4819  0.5585 -1.0397
 8893SOL     OW28995   0.372   0.491   5.954 -0.4268  0.0233 -0.6148
 8893SOL    HW128996   0.315   0.563   5.929 -0.6608 -0.1765 -0.6593
 8893SOL    HW228997   0.425   0.474   5.876 -0.8826 -0.3377 -0.8478
 8894SOL     OW28998   2.651   1.941   8.687 -0.3624 -0.1269 -0.3925
 8894SOL    HW128999   2.597   1.969   8.614 -0.8607  1.2570  0.4589
 8894SOL    HW229000   2.595   1.954   8.764  0.8172  0.3442  0.4096
 8895SOL     OW29001   0.906   1.187   8.195 -0.6006 -0.1546  0.0102
 8895SOL    HW129002   0.940   1.170   8.107 -2.6406 -2.2430 -0.4735
 8895SOL    HW229003   0.820   1.226   8.180 -1.2646 -1.1592  1.0273
 8896SOL     OW29004   8.387   0.398   0.948  0.6012  0.2799  0.7821
 8896SOL    HW129005   8.473   0.362   0.971  0.9823 -0.7581 -1.8922
 8896SOL    HW229006   8.395   0.419   0.855 -2.1527 -0.1888  0.3718
 8897SOL     OW29007   2.392   6.602   9.947  0.4401 -0.2590 -0.0545
 8897SOL    HW129008   2.464   6.549   9.915 -0.0119 -1.0712  0.2572
 8897SOL    HW229009   2.318   6.577   9.892 -0.0589 -0.8197  0.8525
 8898SOL     OW29010   2.023   2.598   9.299  0.2703 -0.0730  0.9109
 8898SOL    HW129011   2.014   2.591   9.204  3.8037 -1.6085  0.5333
 8898SOL    HW229012   1.943   2.642   9.327 -1.2887 -0.2597 -2.6472
 8899SOL     OW29013   0.196   1.349   7.861 -0.1056  0.0920 -0.5985
 8899SOL    HW129014   0.181   1.418   7.797 -0.7826  0.0373 -0.5062
 8899SOL    HW229015   0.109   1.319   7.885  0.1680 -0.5130 -0.3286
 8900SOL     OW29016   1.181   5.500   0.057  0.3231  0.1911  0.3395
 8900SOL    HW129017   1.111   5.508  -0.008 -0.9110  0.6820  1.6635
 8900SOL    HW229018   1.246   5.564   0.030  0.0206  0.1053 -0.6342
 8901SOL     OW29019   0.429   0.876  10.022  0.0857  0.1400  0.1308
 8901SOL    HW129020   0.411   0.821   9.946 -0.6040 -1.3629  1.3371
 8901SOL    HW229021   0.467   0.817  10.087  1.2355  1.5077  0.7848
 8902SOL     OW29022   2.580   4.895   7.586 -0.2829 -0.3823  0.0908
 8902SOL    HW129023   2.627   4.974   7.559 -0.8670 -0.1026 -0.1159
 8902SOL    HW229024   2.511   4.927   7.645 -1.2862 -0.6002 -0.9338
 8903SOL     OW29025   8.677   3.772   8.797  0.0908  0.3996  0.3591
 8903SOL    HW129026   8.704   3.804   8.883 -2.5500  1.3821  0.9415
 8903SOL    HW229027   8.588   3.806   8.786  0.1400 -0.1265 -2.5678
 8904SOL     OW29028  10.270   2.714   9.053  0.0978  0.6847  0.1983
 8904SOL    HW129029  10.309   2.644   9.001  2.0378  1.6201  0.3024
 8904SOL    HW229030  10.250   2.783   8.989 -0.7287  0.5050  0.2520
 8905SOL     OW29031   7.090   4.428   2.381 -0.3168  0.5928  0.3014
 8905SOL    HW129032   7.016   4.487   2.391 -1.7562 -1.0297 -0.3349
 8905SOL    HW229033   7.160   4.468   2.433 -0.0726  4.6229 -2.5969
 8906SOL     OW29034   8.516   9.551   9.098 -0.4271  0.2545  0.3622
 8906SOL    HW129035   8.534   9.645   9.093 -0.3488  0.1706 -1.6248
 8906SOL    HW229036   8.444   9.537   9.038 -1.2858 -0.7985  1.5916
 8907SOL     OW29037   5.576   1.034   6.473 -0.5808 -0.2020 -0.8413
 8907SOL    HW129038   5.635   1.025   6.548 -1.8120 -1.0663  0.0544
 8907SOL    HW229039   5.616   0.980   6.405 -0.0574 -0.3521 -0.4290
 8908SOL     OW29040   5.610   1.735   4.997  0.2601  0.0165 -0.5356
 8908SOL    HW129041   5.668   1.671   4.955 -1.7157 -1.7254 -0.7703
 8908SOL    HW229042   5.652   1.820   4.981  3.0495 -1.1735 -0.1184
 8909SOL     OW29043   4.355   1.327   7.866  1.1042 -0.1045 -0.2525
 8909SOL    HW129044   4.304   1.299   7.790 -0.9427 -0.8062  1.3085
 8909SOL    HW229045   4.438   1.279   7.857 -0.6093 -3.4199  0.0209
 8910SOL     OW29046   6.569   8.542   2.750 -0.5170 -0.0320 -0.3297
 8910SOL    HW129047   6.652   8.542   2.702 -0.1949  1.5918  0.1883
 8910SOL    HW229048   6.594   8.533   2.842 -1.0087 -0.7811 -0.2543
 8911SOL     OW29049   7.772   8.310   8.354 -0.1796 -0.2057 -0.1817
 8911SOL    HW129050   7.734   8.225   8.333  0.3039  0.1575 -2.8499
 8911SOL    HW229051   7.711   8.374   8.318 -0.0008  0.5613  0.8345
 8912SOL     OW29052   1.249   3.671   3.830 -0.0550  0.2454  0.4286
 8912SOL    HW129053   1.208   3.717   3.757  0.8840  2.0109  0.9337
 8912SOL    HW229054   1.245   3.733   3.903 -0.3967 -1.2181  1.7230
 8913SOL     OW29055   9.426   1.032   5.402  0.1171  0.2276  0.3910
 8913SOL    HW129056   9.515   1.066   5.412  0.2058 -0.0638  0.6120
 8913SOL    HW229057   9.372   1.110   5.387  0.3426  0.4445  0.7009
 8914SOL     OW29058   3.107   2.056   4.490  0.0011 -1.1377  0.2511
 8914SOL    HW129059   3.020   2.089   4.509 -0.0408 -0.4655 -1.0165
 8914SOL    HW229060   3.139   2.023   4.574 -0.6969  0.4075  1.1542
 8915SOL     OW29061   9.952   0.387   7.699 -0.3334  0.2942 -0.1920
 8915SOL    HW129062   9.961   0.308   7.753 -0.7182  0.3340 -0.0670
 8915SOL    HW229063  10.008   0.452   7.742 -1.0687  0.4989  0.5021
 8916SOL     OW29064   3.863   2.681   2.987  0.0611  0.4428 -0.4058
 8916SOL    HW129065   3.930   2.749   2.979 -0.1641  0.9990  1.9279
 8916SOL    HW229066   3.905   2.611   3.037 -1.3762  1.3303  2.2255
 8917SOL     OW29067   9.326   4.545   9.075  0.1160  0.4753 -0.9355
 8917SOL    HW129068   9.271   4.603   9.023 -0.0465  0.1326 -1.1454
 8917SOL    HW229069   9.377   4.605   9.131 -0.6143  0.7870 -0.5863
 8918SOL     OW29070  10.206   7.988   9.617  0.1537 -0.5698 -0.3461
 8918SOL    HW129071  10.148   8.065   9.612  2.0995  1.0440  0.4508
 8918SOL    HW229072  10.153   7.916   9.583 -2.0543  0.9437 -0.3405
 8919SOL     OW29073   3.186   8.484   9.113  0.2162 -0.1167 -0.1995
 8919SOL    HW129074   3.188   8.488   9.017  1.4589  3.1293 -0.1803
 8919SOL    HW229075   3.095   8.503   9.136  0.4799  2.2949 -0.8203
 8920SOL     OW29076   3.591   9.521   0.430  0.0908  0.6826 -0.0048
 8920SOL    HW129077   3.522   9.554   0.487 -0.5929 -2.5591  1.2743
 8920SOL    HW229078   3.672   9.546   0.475 -0.3802  0.5438  0.9516
 8921SOL     OW29079   8.272   4.012   7.455 -0.3441 -0.6631  0.2738
 8921SOL    HW129080   8.270   3.916   7.461 -1.4617 -0.5980  1.3537
 8921SOL    HW229081   8.183   4.036   7.430 -0.8014  0.1981  2.4859
 8922SOL     OW29082   9.534   5.331   4.470  0.6644  0.3977  0.2471
 8922SOL    HW129083   9.590   5.253   4.473  0.0884 -0.1154 -1.1650
 8922SOL    HW229084   9.542   5.370   4.556  0.9290 -1.2768  1.0279
 8923SOL     OW29085   8.317   4.310   6.188 -0.1777  0.1697 -0.0974
 8923SOL    HW129086   8.386   4.244   6.195  0.2648  0.7483  1.5266
 8923SOL    HW229087   8.259   4.291   6.261 -1.6101 -0.1317 -1.2775
 8924SOL     OW29088   8.958   4.518   0.549 -0.0515  0.2515 -0.1511
 8924SOL    HW129089   9.043   4.485   0.578 -0.2315 -0.2866 -0.2307
 8924SOL    HW229090   8.975   4.554   0.462  0.2670  0.9089  0.1806
 8925SOL     OW29091   7.964   9.438   0.639 -0.1705 -0.1540 -0.2292
 8925SOL    HW129092   7.948   9.434   0.544 -0.7695 -1.7586 -0.0943
 8925SOL    HW229093   7.914   9.515   0.668 -0.9385 -0.3153 -1.0613
 8926SOL     OW29094   5.582   2.254   7.677 -0.1237 -0.1049  0.4715
 8926SOL    HW129095   5.598   2.185   7.741  0.0487 -0.2001  0.3233
 8926SOL    HW229096   5.559   2.208   7.596 -2.0277  0.0210  0.8977
 8927SOL     OW29097   4.090  10.459   2.531  0.4186  0.0579  0.2447
 8927SOL    HW129098   4.044  10.464   2.615 -0.5443  1.2606 -0.3206
 8927SOL    HW229099   4.108  10.366   2.519  0.4583 -0.1561  1.7125
 8928SOL     OW29100   3.117   3.393   5.468  0.6284 -0.7749  0.2876
 8928SOL    HW129101   3.137   3.306   5.432  3.8168 -0.6819  1.4727
 8928SOL    HW229102   3.028   3.386   5.503 -0.0585 -2.8163 -1.6718
 8929SOL     OW29103   5.846   4.387   1.327  0.2037  0.0277  0.6373
 8929SOL    HW129104   5.793   4.417   1.400  0.9646  3.0548  0.1030
 8929SOL    HW229105   5.792   4.404   1.249  1.1573  1.4467  0.2294
 8930SOL     OW29106   7.789   7.963   2.175  0.3304  0.3991 -0.0769
 8930SOL    HW129107   7.813   8.053   2.195 -0.2082  1.0798 -2.2191
 8930SOL    HW229108   7.813   7.951   2.083 -2.6064 -0.5431 -0.8268
 8931SOL     OW29109   2.419   2.638   9.168  0.0432 -0.3306 -0.4752
 8931SOL    HW129110   2.402   2.719   9.121  0.9175  0.1312 -0.0156
 8931SOL    HW229111   2.406   2.569   9.102 -2.5029  0.0038 -0.4311
 8932SOL     OW29112   5.614   7.366   3.549 -0.1216 -0.1502  0.0361
 8932SOL    HW129113   5.673   7.410   3.488 -1.7114  0.7408 -0.9368
 8932SOL    HW229114   5.615   7.420   3.628  2.4018 -1.6237  1.1447
 8933SOL     OW29115   7.620   8.628   6.514 -0.4869  0.8040 -0.3151
 8933SOL    HW129116   7.693   8.572   6.488 -1.7868 -1.4638  0.5592
 8933SOL    HW229117   7.646   8.663   6.599 -0.3675  0.0652 -0.0417
 8934SOL     OW29118   4.389   9.822   2.152  0.2362  0.0572 -0.7954
 8934SOL    HW129119   4.379   9.793   2.243  1.0459  0.1700 -0.6596
 8934SOL    HW229120   4.404   9.917   2.158 -0.8674  0.2627 -1.1314
 8935SOL     OW29121   5.362   0.006   3.623  0.4092  0.1418 -0.0199
 8935SOL    HW129122   5.368   0.031   3.531  0.3727 -0.6893 -0.2540
 8935SOL    HW229123   5.295  -0.062   3.626  0.9403 -0.3705  0.4998
 8936SOL     OW29124   1.785   4.245   0.864  0.0762  0.6857  0.0788
 8936SOL    HW129125   1.831   4.309   0.919  1.8245 -0.8172  0.4828
 8936SOL    HW229126   1.753   4.180   0.926 -2.0598  1.3311 -0.2852
 8937SOL     OW29127   7.806   3.814   1.311  0.9681  0.1472 -0.5589
 8937SOL    HW129128   7.846   3.851   1.232 -0.5922  1.6153 -0.7313
 8937SOL    HW229129   7.852   3.857   1.383  0.0354  1.5512 -0.7511
 8938SOL     OW29130   6.127   3.572   3.060 -0.1206  0.4915 -0.0012
 8938SOL    HW129131   6.166   3.498   3.108 -1.8984 -0.1626  0.5080
 8938SOL    HW229132   6.147   3.648   3.113 -1.7495 -0.1793  1.6580
 8939SOL     OW29133   8.866   9.288   7.423  0.3375  0.2266  0.2626
 8939SOL    HW129134   8.851   9.233   7.500  1.0166 -0.1660  0.1203
 8939SOL    HW229135   8.793   9.351   7.424  0.0463 -0.1104  0.9218
 8940SOL     OW29136  10.477   0.769   6.638 -0.8150  0.0355 -0.1477
 8940SOL    HW129137  10.395   0.724   6.617 -0.3796  0.0229 -2.0083
 8940SOL    HW229138  10.450   0.854   6.673 -1.6161 -0.7206  1.1319
 8941SOL     OW29139   2.545   1.918   5.573 -0.0628 -0.1359 -0.5583
 8941SOL    HW129140   2.524   1.901   5.665 -2.0514 -1.3532 -1.1578
 8941SOL    HW229141   2.627   1.871   5.558 -0.2913 -0.8711  0.3492
 8942SOL     OW29142  10.234   5.825   1.421  0.2119  0.2950 -0.1237
 8942SOL    HW129143  10.174   5.899   1.429 -0.4488  0.0475 -2.0909
 8942SOL    HW229144  10.177   5.749   1.409  0.8720 -0.6328  2.1128
 8943SOL     OW29145   6.813   0.926   6.820 -0.3483 -0.1886  0.5106
 8943SOL    HW129146   6.885   0.902   6.879  0.4955  1.1094  0.0749
 8943SOL    HW229147   6.818   0.864   6.748 -0.6280 -1.0436  1.2180
 8944SOL     OW29148   7.488   0.736   4.062 -0.4957 -0.3194 -0.2585
 8944SOL    HW129149   7.572   0.691   4.064 -1.5232 -2.3144  1.0811
 8944SOL    HW229150   7.423   0.666   4.051 -2.0426  1.0903 -0.5060
 8945SOL     OW29151  10.396   4.221   7.205 -0.1508  0.2177 -0.3506
 8945SOL    HW129152  10.400   4.316   7.215  0.3190  0.2432 -0.7294
 8945SOL    HW229153  10.329   4.207   7.138 -0.3791  0.2729 -0.1312
 8946SOL     OW29154   8.180   0.214   9.452 -0.5546  0.0819 -0.0787
 8946SOL    HW129155   8.247   0.173   9.508 -1.0276 -1.0768 -0.3383
 8946SOL    HW229156   8.097   0.178   9.484 -0.9335  0.3952 -0.6948
 8947SOL     OW29157   1.469   3.393   4.725  0.1069  0.2240 -0.0452
 8947SOL    HW129158   1.398   3.352   4.676 -1.2436  2.4145 -0.0423
 8947SOL    HW229159   1.446   3.378   4.817  0.2806 -0.0692 -0.0482
 8948SOL     OW29160   4.467   6.874   5.521  0.6470  0.3040  0.3134
 8948SOL    HW129161   4.433   6.865   5.610  1.6440  2.3222  0.9667
 8948SOL    HW229162   4.389   6.885   5.466  0.0308 -0.6530  0.9742
 8949SOL     OW29163   3.949   7.431   7.731 -0.2814  0.0955  0.4221
 8949SOL    HW129164   3.878   7.444   7.667 -0.4592  1.4009  0.8541
 8949SOL    HW229165   3.926   7.349   7.775 -0.0670 -0.9256 -1.2747
 8950SOL     OW29166   5.573   0.190   9.200 -0.3439 -0.6214  0.6273
 8950SOL    HW129167   5.616   0.198   9.114 -2.2474 -0.9070 -0.3974
 8950SOL    HW229168   5.544   0.099   9.204  0.5756 -0.8783  2.0399
 8951SOL     OW29169   2.593   4.465   5.172  0.3600 -0.2466 -0.3711
 8951SOL    HW129170   2.601   4.396   5.238  0.6237 -0.1858 -0.3362
 8951SOL    HW229171   2.513   4.511   5.194 -0.4624 -1.2768 -1.0888
 8952SOL     OW29172   8.593   7.449   2.989  0.2452 -0.4706  0.7713
 8952SOL    HW129173   8.537   7.452   3.067  1.3951 -0.8791  1.6425
 8952SOL    HW229174   8.592   7.538   2.955 -2.3903 -0.8233 -0.3354
 8953SOL     OW29175   3.277   5.061   9.089  0.4563  0.2819 -0.1550
 8953SOL    HW129176   3.369   5.071   9.068  0.8206 -0.3460  1.0551
 8953SOL    HW229177   3.238   5.146   9.068  1.3836  0.6917 -0.2495
 8954SOL     OW29178   1.135   0.440   3.175  0.2148 -0.5132 -0.1815
 8954SOL    HW129179   1.106   0.491   3.098 -0.3873 -1.3305 -0.5127
 8954SOL    HW229180   1.172   0.360   3.138 -0.9681 -1.3526  0.4080
 8955SOL     OW29181   7.674   4.248   4.356 -0.3120 -0.0807 -0.4193
 8955SOL    HW129182   7.615   4.241   4.431 -1.0698  1.0984 -0.8766
 8955SOL    HW229183   7.759   4.220   4.389 -0.6414  0.3947  0.8712
 8956SOL     OW29184   6.977   2.443   1.719 -0.4198 -0.2646 -0.0448
 8956SOL    HW129185   6.929   2.525   1.733 -0.3776 -0.4255  1.0935
 8956SOL    HW229186   6.922   2.375   1.758 -1.2174 -1.0375 -2.3634
 8957SOL     OW29187   5.604   3.396   0.681  0.1210 -0.0850  1.5120
 8957SOL    HW129188   5.562   3.481   0.691 -0.6887 -0.3765  0.7686
 8957SOL    HW229189   5.681   3.413   0.626 -0.7479 -0.0226  0.2865
 8958SOL     OW29190   2.167   2.378   4.083 -0.6023  1.3341 -0.0294
 8958SOL    HW129191   2.170   2.355   4.176 -1.1899 -0.9925 -0.5185
 8958SOL    HW229192   2.256   2.408   4.063 -0.1052  0.5885  0.9782
 8959SOL     OW29193   4.303   7.013   0.071 -0.0362  0.2278 -0.1619
 8959SOL    HW129194   4.243   6.941   0.052 -1.4048  0.6207  2.2112
 8959SOL    HW229195   4.295   7.026   0.166  1.4546  2.3854 -0.2600
 8960SOL     OW29196   7.044   4.799   4.779 -0.4008  0.0263  0.5883
 8960SOL    HW129197   7.078   4.886   4.756  0.3928 -0.3568  0.2994
 8960SOL    HW229198   7.021   4.759   4.696 -0.5916 -0.1178  0.7092
 8961SOL     OW29199  10.442   8.891   5.710 -0.2287  0.6350 -0.2955
 8961SOL    HW129200  10.417   8.847   5.629  1.2746 -1.6234  0.3741
 8961SOL    HW229201  10.380   8.858   5.776  0.7986 -0.4507  0.1737
 8962SOL     OW29202   9.906   1.795  10.179 -0.2742 -0.0272  0.1221
 8962SOL    HW129203   9.978   1.778  10.240 -0.4416 -2.6311 -0.3231
 8962SOL    HW229204   9.831   1.814  10.236  0.0256 -0.4567  0.6738
 8963SOL     OW29205   2.473   4.282   2.841 -0.4006 -0.3948  0.2995
 8963SOL    HW129206   2.540   4.333   2.795 -0.3384  0.6130  1.4595
 8963SOL    HW229207   2.390   4.323   2.815 -0.3090  0.7997  1.7768
 8964SOL     OW29208   4.615   5.591   2.071 -0.6349 -0.4465  0.3116
 8964SOL    HW129209   4.596   5.517   2.129  0.5874 -0.8267  0.2360
 8964SOL    HW229210   4.530   5.612   2.032 -0.8401 -2.4588 -0.4373
 8965SOL     OW29211   9.432   4.255  10.080 -0.2988 -0.3670  0.3626
 8965SOL    HW129212   9.524   4.261  10.108 -0.3981  0.5059  0.5279
 8965SOL    HW229213   9.409   4.344  10.054 -0.5071 -0.9527 -1.6227
 8966SOL     OW29214   6.521   8.062   1.388  0.2886 -0.6589 -0.5613
 8966SOL    HW129215   6.433   8.059   1.350 -0.3994  0.8930  0.7969
 8966SOL    HW229216   6.508   8.041   1.480  1.4456 -1.0293 -0.4720
 8967SOL     OW29217   5.908   6.812   1.568 -0.3405  0.2257  0.2607
 8967SOL    HW129218   5.975   6.747   1.548  0.4620  0.6506  1.4757
 8967SOL    HW229219   5.858   6.820   1.487 -0.0614 -1.4270 -0.1010
 8968SOL     OW29220   8.127   9.059   3.371  0.0497 -0.3830  0.0141
 8968SOL    HW129221   8.100   9.142   3.408  0.5118 -0.5361  0.7164
 8968SOL    HW229222   8.212   9.078   3.330 -0.6821 -0.1014 -1.4229
 8969SOL     OW29223  10.484   6.670   9.576 -0.2685 -0.3448  0.4867
 8969SOL    HW129224  10.422   6.727   9.621 -0.7416 -1.0291  0.7072
 8969SOL    HW229225  10.537   6.632   9.646  0.2489  0.0469  0.3178
 8970SOL     OW29226   7.278   1.743   9.117 -0.0332  0.4409 -0.3417
 8970SOL    HW129227   7.260   1.665   9.066 -2.1260  0.6599 -0.0232
 8970SOL    HW229228   7.233   1.814   9.071  0.0898  1.0720  0.4744
 8971SOL     OW29229   2.389   5.793   7.039 -0.6766  0.8190 -0.4159
 8971SOL    HW129230   2.328   5.861   7.064 -0.5162  1.2825 -1.2562
 8971SOL    HW229231   2.349   5.751   6.963 -0.0303  1.0219 -0.8765
 8972SOL     OW29232   1.482   2.986   7.847  0.1282 -0.4555 -0.0676
 8972SOL    HW129233   1.516   2.897   7.837 -0.8191 -0.7339 -1.0256
 8972SOL    HW229234   1.418   2.980   7.918  0.7630 -0.3085  0.5341
 8973SOL     OW29235   7.190   7.666   4.812 -0.4445 -0.2227 -0.4392
 8973SOL    HW129236   7.210   7.707   4.728 -1.0956 -0.0430 -0.5119
 8973SOL    HW229237   7.135   7.729   4.857  0.3883 -0.0536  0.3826
 8974SOL     OW29238   2.875   8.036   0.204  0.8083  0.2343 -0.4557
 8974SOL    HW129239   2.960   8.003   0.173  0.6875 -0.1923 -0.3391
 8974SOL    HW229240   2.814   7.965   0.185  0.1648  1.1323 -1.9862
 8975SOL     OW29241   1.834   0.553   1.990  0.4332  0.1375  0.1089
 8975SOL    HW129242   1.738   0.552   1.983  0.4813  1.5676 -1.1556
 8975SOL    HW229243   1.863   0.492   1.922  0.4260 -1.4371  1.4553
 8976SOL     OW29244   2.794  10.494   5.080  0.2579 -0.0646  0.2281
 8976SOL    HW129245   2.714  10.446   5.099  0.4952 -0.1675  0.9865
 8976SOL    HW229246   2.799  10.562   5.147 -0.2919  1.3149 -1.0712
 8977SOL     OW29247   2.793   4.626   3.957 -0.7517 -0.2288  0.4945
 8977SOL    HW129248   2.752   4.541   3.976 -1.3375  0.3722  2.1193
 8977SOL    HW229249   2.725   4.676   3.911 -0.2316 -0.7840 -0.9303
 8978SOL     OW29250   5.229   0.813   1.502 -0.3956  0.7666 -0.0642
 8978SOL    HW129251   5.282   0.875   1.453 -1.1162  1.0408 -0.5159
 8978SOL    HW229252   5.164   0.867   1.547  0.0155  0.4845  0.8978
 8979SOL     OW29253   6.314   9.852  10.148 -0.1248 -1.0501  0.6121
 8979SOL    HW129254   6.333   9.903  10.228 -0.8042 -2.2609  1.5764
 8979SOL    HW229255   6.233   9.806  10.168  0.1183 -1.9857 -0.4906
 8980SOL     OW29256   7.472   8.609   4.162  0.2643  0.1624 -0.0024
 8980SOL    HW129257   7.536   8.572   4.101 -2.2956 -1.6513 -1.8273
 8980SOL    HW229258   7.500   8.699   4.176  2.3055 -0.0934 -1.9727
 8981SOL     OW29259   6.606   3.677   5.456  0.1247  0.5486  0.0954
 8981SOL    HW129260   6.546   3.615   5.499 -0.3363  1.4204  0.7321
 8981SOL    HW229261   6.551   3.750   5.429  0.6064  0.5271 -0.9941
 8982SOL     OW29262   0.156   8.300   2.658  0.4294 -0.7341  0.0981
 8982SOL    HW129263   0.241   8.256   2.647  0.2918 -1.3813  1.3867
 8982SOL    HW229264   0.134   8.286   2.750  0.0739  1.5464  0.4211
 8983SOL     OW29265   1.039   5.845   7.400  0.1251 -0.0733 -0.0716
 8983SOL    HW129266   1.024   5.891   7.317 -0.8058  0.9481  0.6367
 8983SOL    HW229267   1.133   5.853   7.416 -0.0560  2.0125  0.2483
 8984SOL     OW29268   9.212   8.154   0.165  0.0662  0.2939 -0.3898
 8984SOL    HW129269   9.255   8.230   0.203  0.1372  0.2073 -0.2981
 8984SOL    HW229270   9.175   8.106   0.239 -0.4122  0.5019 -0.4862
 8985SOL     OW29271   4.616   9.777  10.008 -0.4116  0.1648 -0.0824
 8985SOL    HW129272   4.596   9.741   9.921  1.6252 -0.3427 -0.3787
 8985SOL    HW229273   4.600   9.704  10.068 -1.9443  0.5528  0.0286
 8986SOL     OW29274   9.222   8.493  10.079 -0.2328 -0.6246 -0.8087
 8986SOL    HW129275   9.213   8.579  10.121  0.4037  0.1991 -2.3052
 8986SOL    HW229276   9.161   8.494  10.006  0.2350 -1.2140 -1.2203
 8987SOL     OW29277   4.425   3.035   7.051 -0.1936  0.2348  0.4041
 8987SOL    HW129278   4.496   3.081   7.095 -0.3495  0.8819  0.0000
 8987SOL    HW229279   4.347   3.056   7.103 -0.2922  0.5775  0.1249
 8988SOL     OW29280   1.090   3.126   6.287  0.4544  0.3250  0.3668
 8988SOL    HW129281   1.029   3.097   6.355  1.1214 -0.5848  0.6037
 8988SOL    HW229282   1.088   3.221   6.292 -1.0419  0.3290  0.2722
 8989SOL     OW29283   4.200   3.192   0.336 -0.0553 -0.0349  0.6111
 8989SOL    HW129284   4.114   3.210   0.299  0.6960  3.3033  0.1814
 8989SOL    HW229285   4.201   3.238   0.420  0.5668 -1.9402  1.7032
 8990SOL     OW29286   4.405   3.834   7.496 -0.4136 -0.1693  0.1943
 8990SOL    HW129287   4.451   3.872   7.421 -2.1112 -1.5462 -1.6712
 8990SOL    HW229288   4.390   3.907   7.555  2.2181  0.7125 -0.0996
 8991SOL     OW29289   1.714   2.862   7.625  0.4972  0.0570  0.7108
 8991SOL    HW129290   1.677   2.950   7.618  0.5322 -0.0418 -1.4275
 8991SOL    HW229291   1.662   2.810   7.563  0.4926 -1.4434  1.9220
 8992SOL     OW29292   6.118   1.501   1.506 -0.1206 -0.2441  0.1972
 8992SOL    HW129293   6.063   1.448   1.564  0.2774 -0.4220  0.4181
 8992SOL    HW229294   6.135   1.444   1.431  0.4392 -0.4954  0.5079
 8993SOL     OW29295   5.138   2.125   4.541  0.5880  0.1839 -0.0957
 8993SOL    HW129296   5.095   2.184   4.479  0.5688  0.0732 -0.1892
 8993SOL    HW229297   5.070   2.064   4.568  1.1197 -1.2006 -1.7294
 8994SOL     OW29298   6.578   1.481   9.885 -0.8536 -0.3259 -0.1626
 8994SOL    HW129299   6.589   1.410   9.948  0.6113 -0.1725 -0.2190
 8994SOL    HW229300   6.651   1.471   9.824 -1.4360  0.3878 -1.0025
 8995SOL     OW29301   5.231   5.045   3.733  0.0338  0.6539 -0.1274
 8995SOL    HW129302   5.181   4.973   3.773  0.6677  0.6627  0.6956
 8995SOL    HW229303   5.164   5.103   3.698 -0.6068  1.1569  1.7979
 8996SOL     OW29304   1.728   8.230   6.924 -0.5999  0.4816  0.1562
 8996SOL    HW129305   1.681   8.194   6.849  0.9189  2.4579 -1.9110
 8996SOL    HW229306   1.760   8.315   6.894  2.8818 -0.0155  1.8943
 8997SOL     OW29307   5.798   2.516   4.289 -0.2714  0.1830  0.2691
 8997SOL    HW129308   5.719   2.478   4.327 -1.1608  1.2604 -0.4397
 8997SOL    HW229309   5.868   2.494   4.351 -0.5355 -3.2485 -0.4806
 8998SOL     OW29310   8.831   1.134   7.549 -0.1249 -0.2726  0.4875
 8998SOL    HW129311   8.899   1.088   7.500  1.1699  0.6836  1.3211
 8998SOL    HW229312   8.878   1.179   7.618 -1.5486  0.9172  0.7269
 8999SOL     OW29313   9.069   8.336   0.833  0.4952  0.0194  0.7807
 8999SOL    HW129314   8.973   8.331   0.835  0.4608 -0.7961 -0.8437
 8999SOL    HW229315   9.088   8.394   0.759  1.2555 -1.4176 -0.1824
 9000SOL     OW29316   1.412   5.332   7.422  0.2564 -0.1261  0.0610
 9000SOL    HW129317   1.342   5.383   7.462 -0.3478 -0.7776 -0.1249
 9000SOL    HW229318   1.371   5.247   7.403  0.7323 -0.0963 -1.2189
 9001SOL     OW29319   0.350   4.884   6.639 -0.3937  0.0600 -0.0625
 9001SOL    HW129320   0.257   4.871   6.660 -0.2172 -0.6710  0.2965
 9001SOL    HW229321   0.389   4.797   6.648  0.3432  0.3731 -0.1584
 9002SOL     OW29322   6.245   5.403   3.162  0.6570  0.1982  0.2456
 9002SOL    HW129323   6.302   5.369   3.093 -0.7524  0.3970 -1.0745
 9002SOL    HW229324   6.223   5.492   3.133  0.0597  0.2970  0.9628
 9003SOL     OW29325   1.460   1.437   6.004 -0.2156 -0.0716 -0.1180
 9003SOL    HW129326   1.408   1.365   5.967 -1.4116  0.8196 -0.2219
 9003SOL    HW229327   1.408   1.515   5.986  1.9372  1.0929 -1.7518
 9004SOL     OW29328   4.426   5.516   0.916  0.1550 -0.7047 -0.1710
 9004SOL    HW129329   4.348   5.466   0.941  0.6200 -1.0197  0.6728
 9004SOL    HW229330   4.499   5.468   0.954  0.4582  2.5248  4.0958
 9005SOL     OW29331   3.143   2.818   9.719 -0.2906  0.0546  0.3051
 9005SOL    HW129332   3.182   2.890   9.769  1.7613  0.6517 -1.9519
 9005SOL    HW229333   3.082   2.860   9.659 -0.1449 -0.2264 -0.0431
 9006SOL     OW29334   6.326   3.971   2.577  0.0246 -0.4326 -0.2377
 9006SOL    HW129335   6.356   3.905   2.639  0.6058  0.6342  0.6446
 9006SOL    HW229336   6.404   3.996   2.528 -0.0107  0.2025  0.0172
 9007SOL     OW29337   3.871   1.275   8.226  0.7363  0.2838 -0.0021
 9007SOL    HW129338   3.907   1.242   8.309 -0.5514 -1.1502  0.0350
 9007SOL    HW229339   3.857   1.369   8.242 -1.2174 -0.2540  2.1284
 9008SOL     OW29340   8.952   6.862   2.841 -1.0804  0.3950 -0.3143
 9008SOL    HW129341   9.025   6.800   2.849 -1.3655 -0.3280 -2.5019
 9008SOL    HW229342   8.940   6.897   2.929  1.0071 -0.4798  0.3852
 9009SOL     OW29343   0.437   7.791   5.223 -0.0708  0.1333  0.1060
 9009SOL    HW129344   0.442   7.868   5.165 -0.6383  0.7512  0.8484
 9009SOL    HW229345   0.527   7.777   5.252  0.1428  0.1081 -0.5568
 9010SOL     OW29346   7.754   0.644   7.888  0.1708  0.0671  0.3459
 9010SOL    HW129347   7.830   0.697   7.911  0.0104 -0.2926  1.8040
 9010SOL    HW229348   7.749   0.578   7.957  1.0022 -2.5800 -1.9316
 9011SOL     OW29349   0.876   2.162   6.623 -0.0885 -0.2839  0.1590
 9011SOL    HW129350   0.793   2.119   6.602  0.0475 -0.5474  0.1490
 9011SOL    HW229351   0.878   2.165   6.719 -1.4314  2.3401  0.1683
 9012SOL     OW29352   7.759   3.657   9.126  0.3309 -0.4898 -0.2357
 9012SOL    HW129353   7.800   3.599   9.062  0.9061 -0.8928  0.4817
 9012SOL    HW229354   7.826   3.669   9.194  0.6057  1.8264 -0.8448
 9013SOL     OW29355   4.297   5.880   7.772  0.0963 -0.2900  0.0576
 9013SOL    HW129356   4.278   5.903   7.863  0.2402  1.6568 -0.3516
 9013SOL    HW229357   4.384   5.916   7.755 -0.5909  0.8676 -1.2842
 9014SOL     OW29358  10.236  10.242   0.129  0.9400 -0.0905  0.3392
 9014SOL    HW129359  10.219  10.291   0.210  1.9993  1.2186 -0.1880
 9014SOL    HW229360  10.327  10.263   0.107  0.4473  0.1886 -1.5988
 9015SOL     OW29361   0.784   2.361   0.481  0.7269  0.2685 -0.1265
 9015SOL    HW129362   0.839   2.395   0.551 -0.1858 -1.8522  1.7735
 9015SOL    HW229363   0.713   2.424   0.473  0.3387  0.1131  1.6046
 9016SOL     OW29364   0.928   3.767   2.888  0.3273 -1.2971 -0.8790
 9016SOL    HW129365   0.878   3.686   2.895 -1.6139 -0.1998 -1.1690
 9016SOL    HW229366   0.997   3.759   2.954 -1.8317 -1.8536  1.4732
 9017SOL     OW29367   0.241   8.746   2.333  0.4796 -0.2961  0.1781
 9017SOL    HW129368   0.185   8.726   2.258 -0.0648  0.6421  0.3284
 9017SOL    HW229369   0.269   8.660   2.365  0.1822 -0.7258 -0.6939
 9018SOL     OW29370   1.032   2.312   6.930  0.0836  0.1935 -0.5115
 9018SOL    HW129371   1.109   2.287   6.981  0.0536 -1.2233 -1.0803
 9018SOL    HW229372   1.040   2.406   6.918  2.4961 -0.0692 -1.7087
 9019SOL     OW29373   7.404  10.343   2.907  0.0332  0.2427 -0.6503
 9019SOL    HW129374   7.417  10.251   2.885  0.8421 -0.1823  1.3455
 9019SOL    HW229375   7.482  10.387   2.873  2.5933 -0.8111  3.2087
 9020SOL     OW29376  10.253   0.102   9.671  0.0760  0.1720  0.1861
 9020SOL    HW129377  10.177   0.118   9.615  0.3548 -0.1797 -0.3046
 9020SOL    HW229378  10.219   0.107   9.760 -0.4748  0.2403 -0.0237
 9021SOL     OW29379   5.219   4.135   2.305 -0.5132  0.8308  0.4267
 9021SOL    HW129380   5.181   4.089   2.230  0.6634 -0.1231  0.3880
 9021SOL    HW229381   5.263   4.067   2.355  3.8424  2.1332 -1.1430
 9022SOL     OW29382   7.930   8.910   0.174 -0.4433  0.4124  0.1213
 9022SOL    HW129383   7.920   8.852   0.099  0.3378 -0.9948  1.0682
 9022SOL    HW229384   7.965   8.991   0.137 -1.2662  0.2082 -1.1828
 9023SOL     OW29385   4.876  10.559   4.550 -0.0307 -0.3252  0.1215
 9023SOL    HW129386   4.909  10.470   4.537  0.9060  0.2739 -2.0289
 9023SOL    HW229387   4.938  10.615   4.503 -1.5918  1.2858 -0.1313
 9024SOL     OW29388   8.417   8.398   6.809  0.5060  0.3757  0.4355
 9024SOL    HW129389   8.398   8.304   6.814 -1.5855  0.6256 -1.4238
 9024SOL    HW229390   8.391   8.432   6.895  0.8661 -0.6251  0.9717
 9025SOL     OW29391   1.189   5.028  10.214  0.0540 -1.1293 -0.3547
 9025SOL    HW129392   1.176   5.017  10.308  1.1183 -0.9938 -0.1834
 9025SOL    HW229393   1.103   5.010  10.176 -0.1861 -2.0225  0.5670
 9026SOL     OW29394  10.464  10.119   1.587 -0.0751 -0.0346  0.3048
 9026SOL    HW129395  10.373  10.104   1.561 -0.6682  0.1840  2.1206
 9026SOL    HW229396  10.474  10.073   1.670  1.3972  0.1934  0.2849
 9027SOL     OW29397   3.398   1.745  10.101  0.4370  0.1327 -0.3337
 9027SOL    HW129398   3.434   1.834  10.092  0.0421  0.5334  1.7119
 9027SOL    HW229399   3.304   1.755  10.083  0.5416 -0.0598 -1.0213
 9028SOL     OW29400   4.358   7.144   7.452 -0.0332  0.7291 -0.1676
 9028SOL    HW129401   4.328   7.053   7.454 -0.7920  0.9736 -0.1746
 9028SOL    HW229402   4.415   7.149   7.375  0.3321  0.1680  0.0574
 9029SOL     OW29403   4.066   3.713   2.263 -0.3980 -0.1397  0.3311
 9029SOL    HW129404   4.003   3.699   2.333 -1.3789  2.2081 -0.0173
 9029SOL    HW229405   4.129   3.775   2.299  1.3138 -1.8090  0.3829
 9030SOL     OW29406   6.619   9.839   5.082  0.1784 -0.1354 -0.0896
 9030SOL    HW129407   6.560   9.891   5.136 -0.2593  0.4452 -1.0961
 9030SOL    HW229408   6.704   9.845   5.126  0.1160  1.3660 -0.1344
 9031SOL     OW29409   0.762   1.024   0.348  0.0206 -0.6110  0.5083
 9031SOL    HW129410   0.711   1.004   0.427 -0.9017  0.9975  0.3701
 9031SOL    HW229411   0.730   0.963   0.283  0.1725 -1.3770  1.1311
 9032SOL     OW29412   1.883   7.752   7.691  0.3557 -0.0891  0.4931
 9032SOL    HW129413   1.808   7.803   7.661  1.5081  2.1864  1.2944
 9032SOL    HW229414   1.959   7.802   7.663  1.5917 -1.9006  0.4664
 9033SOL     OW29415   9.595   1.900   0.183  0.7144 -0.2912  0.3429
 9033SOL    HW129416   9.646   1.860   0.254  0.5154 -0.8616  0.1693
 9033SOL    HW229417   9.659   1.951   0.134  1.4102 -1.9722 -0.6038
 9034SOL     OW29418   0.691   8.356   9.527  0.4879 -0.5350 -0.2860
 9034SOL    HW129419   0.714   8.421   9.460 -0.0633 -0.1019 -0.0619
 9034SOL    HW229420   0.632   8.402   9.586 -1.6156 -1.7985 -1.2760
 9035SOL     OW29421   4.738   1.617   4.115 -0.7699 -0.7812  0.2497
 9035SOL    HW129422   4.697   1.693   4.156  0.2291  0.9004 -1.6656
 9035SOL    HW229423   4.830   1.622   4.144 -0.3007 -0.1846 -1.2506
 9036SOL     OW29424   5.589   2.212   0.288 -0.2170 -0.2758 -0.5392
 9036SOL    HW129425   5.525   2.155   0.246 -0.5433 -0.4183  0.1516
 9036SOL    HW229426   5.559   2.220   0.378  2.3474 -2.8461  0.6995
 9037SOL     OW29427  10.227   5.024   6.475  0.2253  0.2172  0.2604
 9037SOL    HW129428  10.315   5.036   6.437  0.2765  1.0508  0.6085
 9037SOL    HW229429  10.175   5.095   6.437 -0.2344 -0.1219  0.2488
 9038SOL     OW29430   0.917   0.993   6.908 -0.4902  0.1939 -0.2163
 9038SOL    HW129431   0.850   1.017   6.844 -1.6409  0.2902  1.0033
 9038SOL    HW229432   0.917   0.897   6.907  0.5717  0.1666 -1.4188
 9039SOL     OW29433   9.133   2.847   0.456  0.0862  0.3022 -0.4106
 9039SOL    HW129434   9.103   2.937   0.439 -0.7017  0.7945  2.9189
 9039SOL    HW229435   9.073   2.792   0.405  0.6186  1.5806 -2.5644
 9040SOL     OW29436   8.361  10.515   0.313  0.4533 -0.3637  0.1358
 9040SOL    HW129437   8.423  10.587   0.298  0.5377 -0.7157 -1.3631
 9040SOL    HW229438   8.406  10.458   0.375  1.1641 -0.0471 -0.0765
 9041SOL     OW29439   4.553   4.939   0.573 -0.1765 -0.0763  0.0310
 9041SOL    HW129440   4.632   4.949   0.520 -0.0722  1.5134  0.4353
 9041SOL    HW229441   4.483   4.974   0.518 -0.4123 -0.3796  0.1344
 9042SOL     OW29442   1.926   0.862   8.887 -0.1977 -0.4000  0.0771
 9042SOL    HW129443   1.921   0.947   8.842 -1.4008  0.5431  1.8938
 9042SOL    HW229444   2.020   0.847   8.900  0.0183  0.7469 -0.0637
 9043SOL     OW29445   9.458   6.881   9.169 -0.3590  0.1242 -0.4956
 9043SOL    HW129446   9.548   6.889   9.140 -0.0960  0.9175  0.5008
 9043SOL    HW229447   9.423   6.970   9.167 -0.2453  0.2879  1.7646
 9044SOL     OW29448   5.786   5.085   5.683  0.6431  0.8098 -0.2983
 9044SOL    HW129449   5.802   5.032   5.604  0.4689  1.7315 -0.9669
 9044SOL    HW229450   5.809   5.174   5.657 -2.1694  1.6431 -0.2394
 9045SOL     OW29451   8.110   5.928  10.437 -0.0063  0.1114  0.3545
 9045SOL    HW129452   8.147   5.846  10.469 -1.5862 -0.8171 -0.0919
 9045SOL    HW229453   8.016   5.913  10.435 -0.1784  1.0113 -2.2070
 9046SOL     OW29454   7.504   4.733   3.193  0.0168 -0.0820 -0.6293
 9046SOL    HW129455   7.460   4.818   3.190 -0.5556 -0.3179  0.4505
 9046SOL    HW229456   7.513   4.707   3.101  0.2284  1.1519 -0.9756
 9047SOL     OW29457   4.766   0.913   4.511  0.4955  0.6920 -0.2265
 9047SOL    HW129458   4.682   0.956   4.528 -0.9064 -2.1591  0.8815
 9047SOL    HW229459   4.784   0.864   4.591  0.6789 -2.5501 -2.0436
 9048SOL     OW29460   2.960   3.580   0.488  0.3136 -0.0670 -0.2822
 9048SOL    HW129461   3.054   3.581   0.469  0.0765  1.2615 -1.5399
 9048SOL    HW229462   2.954   3.614   0.578  0.9823  0.8505 -0.5656
 9049SOL     OW29463   4.716   6.680   1.239  0.2551  0.5045  0.2743
 9049SOL    HW129464   4.767   6.671   1.159  0.1945  0.3226  0.2568
 9049SOL    HW229465   4.776   6.722   1.301  0.2963  0.6593  0.1304
 9050SOL     OW29466   0.456   5.263   9.211  0.4094  0.0024  0.0602
 9050SOL    HW129467   0.415   5.310   9.138  0.2522  1.1064  0.8358
 9050SOL    HW229468   0.489   5.332   9.269 -0.5471 -0.8103  1.6525
 9051SOL     OW29469   5.362   5.439   9.234  0.8504 -0.0239 -0.3031
 9051SOL    HW129470   5.441   5.387   9.251  0.9106  0.6404  1.5861
 9051SOL    HW229471   5.291   5.385   9.268  0.6083 -0.0996 -0.9248
 9052SOL     OW29472   4.162   3.843   0.363 -0.1129 -0.6513  0.1500
 9052SOL    HW129473   4.167   3.752   0.332  0.6572 -1.1575  1.6646
 9052SOL    HW229474   4.244   3.857   0.411 -0.9292  0.2942  1.3450
 9053SOL     OW29475   4.597   4.870   2.115  0.7052 -0.3904 -0.4005
 9053SOL    HW129476   4.650   4.816   2.056  0.7630  0.3599 -1.0483
 9053SOL    HW229477   4.660   4.930   2.155  0.6682 -0.9090  0.4539
 9054SOL     OW29478   0.075   6.141   8.529 -0.1370 -0.0795 -0.3633
 9054SOL    HW129479   0.166   6.123   8.555 -0.4693  0.3519  1.1863
 9054SOL    HW229480   0.062   6.088   8.451  1.4955 -0.0458 -0.7102
 9055SOL     OW29481   6.842   6.849   0.017  0.0000 -0.2423  0.8509
 9055SOL    HW129482   6.928   6.828   0.052 -0.4033 -0.7715  1.5509
 9055SOL    HW229483   6.855   6.856  -0.078  1.1100  1.1975  1.0747
 9056SOL     OW29484   7.854   1.754   8.222 -0.1042  0.0464 -0.3389
 9056SOL    HW129485   7.779   1.800   8.259  0.4067 -0.6144  1.6336
 9056SOL    HW229486   7.891   1.815   8.159 -0.5474  1.5994  0.8424
 9057SOL     OW29487   1.034   4.476   5.911 -0.7179  0.4187  0.5900
 9057SOL    HW129488   1.129   4.474   5.916 -0.7524 -0.4706  1.0465
 9057SOL    HW229489   1.006   4.510   5.997 -0.7739  2.4441 -0.1815
 9058SOL     OW29490  10.137   4.103   0.669 -0.1670  0.0997  0.5024
 9058SOL    HW129491  10.144   4.198   0.655 -1.5924  0.2605  0.7901
 9058SOL    HW229492  10.195   4.065   0.602 -0.1266  1.1425 -0.0805
 9059SOL     OW29493   4.779   2.259   2.172 -0.3105  0.4055  0.0565
 9059SOL    HW129494   4.768   2.195   2.102  0.4415  0.3250  0.0123
 9059SOL    HW229495   4.689   2.281   2.198 -0.6126 -1.8580  1.1618
 9060SOL     OW29496   2.073   0.353   1.838 -0.2408 -0.1976 -0.9771
 9060SOL    HW129497   2.030   0.319   1.917  1.2430 -0.8301 -0.4147
 9060SOL    HW229498   2.089   0.445   1.857 -0.0353 -0.3075 -0.6051
 9061SOL     OW29499  10.597   0.287   5.634 -0.3602 -0.3235 -0.5496
 9061SOL    HW129500  10.602   0.381   5.615  0.7365 -0.4881 -1.1445
 9061SOL    HW229501  10.571   0.282   5.726 -2.1133  0.5372 -0.9580
 9062SOL     OW29502   4.407   4.556   9.714  0.4656  0.2303  0.1103
 9062SOL    HW129503   4.394   4.561   9.620  1.3355 -0.1667 -0.0419
 9062SOL    HW229504   4.476   4.619   9.733 -0.1766  0.8040  0.5905
 9063SOL     OW29505   5.320   2.219   5.069  0.3554 -0.4752  0.5560
 9063SOL    HW129506   5.306   2.150   5.004 -1.5451  0.5960 -0.2617
 9063SOL    HW229507   5.241   2.217   5.123  0.5921  0.5920  0.9669
 9064SOL     OW29508   9.486   7.438  10.534  0.0738  0.2151  0.0744
 9064SOL    HW129509   9.466   7.513  10.589 -0.1958  0.3742 -0.2424
 9064SOL    HW229510   9.582   7.436  10.531  0.0983  0.0349  0.7776
 9065SOL     OW29511   3.706   7.376  10.415  0.5684 -0.1792 -0.6760
 9065SOL    HW129512   3.736   7.410  10.331  2.4156  1.5458  0.5822
 9065SOL    HW229513   3.651   7.445  10.451  0.0550 -0.7620 -0.3206
 9066SOL     OW29514   6.425   8.347   7.477  0.4073  0.1990 -0.5066
 9066SOL    HW129515   6.466   8.266   7.507  0.5258  0.2452 -0.5418
 9066SOL    HW229516   6.342   8.320   7.440 -0.2036  0.2404  0.7803
 9067SOL     OW29517   0.134   4.260   3.108 -0.2164  0.0272  0.3929
 9067SOL    HW129518   0.153   4.255   3.202  0.3461 -1.6967  0.2257
 9067SOL    HW229519   0.044   4.230   3.101 -0.0375 -0.5048  0.3272
 9068SOL     OW29520   1.734   4.425   7.727 -0.1657 -0.0436  0.5870
 9068SOL    HW129521   1.706   4.493   7.788 -0.5492 -2.1665  2.9798
 9068SOL    HW229522   1.681   4.438   7.649 -0.5413  2.0697  1.1537
 9069SOL     OW29523   0.524   0.066   3.861 -0.3924  0.0051 -0.7474
 9069SOL    HW129524   0.513   0.161   3.860 -0.6313 -0.0193 -0.6219
 9069SOL    HW229525   0.592   0.049   3.796 -0.4842  0.2452 -0.9092
 9070SOL     OW29526   1.682   5.400   9.983  0.0186  0.2313  0.9429
 9070SOL    HW129527   1.686   5.484  10.028  0.0994  0.0549  1.2705
 9070SOL    HW229528   1.773   5.369   9.980 -0.0650 -0.0573  1.2414
 9071SOL     OW29529   5.717   6.323   2.695 -0.1668 -0.1094  0.4228
 9071SOL    HW129530   5.632   6.362   2.718 -0.0305  0.4330  0.0132
 9071SOL    HW229531   5.694   6.238   2.658 -0.7146  0.9140 -1.7588
 9072SOL     OW29532  10.471   3.673   5.832  0.1658 -0.4780 -0.4403
 9072SOL    HW129533  10.465   3.621   5.912  1.5924  0.3989  0.2769
 9072SOL    HW229534  10.542   3.632   5.782 -0.2559 -0.6016 -0.9541
 9073SOL     OW29535   3.148   4.027   4.565  0.0436 -0.2402  0.1437
 9073SOL    HW129536   3.060   4.030   4.601  0.6990  2.3200  1.7829
 9073SOL    HW229537   3.144   4.082   4.487 -0.0361 -1.0283 -0.4181
 9074SOL     OW29538   7.749   5.035   2.027 -0.2346 -0.1250 -0.0237
 9074SOL    HW129539   7.724   4.943   2.016 -0.1495 -0.0433 -1.0714
 9074SOL    HW229540   7.831   5.043   1.977 -0.2814  0.5309 -0.0038
 9075SOL     OW29541   0.437   7.540   5.478 -0.1510 -0.3820 -0.2195
 9075SOL    HW129542   0.405   7.518   5.390 -1.1305 -1.1022  0.3047
 9075SOL    HW229543   0.361   7.529   5.535  1.0697 -2.4159  1.1285
 9076SOL     OW29544   1.898   9.336   9.811 -0.0971  0.2767  0.2671
 9076SOL    HW129545   1.847   9.364   9.887 -0.7535  0.7012 -0.3234
 9076SOL    HW229546   1.971   9.287   9.849 -0.7418 -0.0431  1.1393
 9077SOL     OW29547   7.498   2.241  10.373 -0.1741  0.2821 -0.1124
 9077SOL    HW129548   7.519   2.238  10.467  1.9172  0.0880 -0.5191
 9077SOL    HW229549   7.482   2.150  10.349  1.2224  0.0516 -0.2808
 9078SOL     OW29550   3.230   6.085   7.331  0.4074 -0.1819  0.4704
 9078SOL    HW129551   3.286   6.153   7.294 -0.4469  0.0206 -0.4918
 9078SOL    HW229552   3.254   6.006   7.283 -0.3909 -0.0110 -0.2349
 9079SOL     OW29553   6.641   4.125   4.235 -0.6050  0.1743 -0.4425
 9079SOL    HW129554   6.642   4.172   4.318 -0.8534  0.4554 -0.5951
 9079SOL    HW229555   6.564   4.069   4.239 -1.2897  1.0655 -0.9589
 9080SOL     OW29556   3.295   8.079   4.256 -0.3661  0.5450 -0.4592
 9080SOL    HW129557   3.261   8.065   4.344  0.2503  2.6592  0.1878
 9080SOL    HW229558   3.220   8.108   4.205 -0.3258  1.4500 -0.0301
 9081SOL     OW29559   3.242   6.151   1.505 -0.2039  0.4209 -0.3667
 9081SOL    HW129560   3.308   6.203   1.552  1.2263  0.3086 -2.1333
 9081SOL    HW229561   3.278   6.142   1.417 -2.2283 -0.3767 -1.1524
 9082SOL     OW29562   8.681   9.721   1.677  0.2690 -0.5525  0.3824
 9082SOL    HW129563   8.737   9.644   1.665  2.5040  1.1256 -0.7184
 9082SOL    HW229564   8.651   9.742   1.589 -0.9670 -0.5926  0.7834
 9083SOL     OW29565   9.351   1.363   3.457  0.3819  0.6008  0.1227
 9083SOL    HW129566   9.269   1.386   3.499  0.7272  1.6979  0.2432
 9083SOL    HW229567   9.390   1.296   3.514 -1.2428 -1.3339 -0.9086
 9084SOL     OW29568   5.378   7.554   4.602 -0.1933 -0.5220 -0.2234
 9084SOL    HW129569   5.408   7.572   4.513 -0.4006 -1.3769 -0.4761
 9084SOL    HW229570   5.283   7.551   4.595 -0.4461  2.4995  0.6324
 9085SOL     OW29571   3.940   7.907   1.121 -0.7082  0.0170 -0.1427
 9085SOL    HW129572   3.981   7.821   1.117  4.1498  2.0664 -1.1132
 9085SOL    HW229573   3.912   7.916   1.212  2.3238 -1.1718  1.0248
 9086SOL     OW29574   9.940  10.070  10.355  0.3088 -0.2945 -0.0862
 9086SOL    HW129575  10.014  10.065  10.294 -0.3154  0.2615 -0.9060
 9086SOL    HW229576   9.944  10.159  10.391 -0.8478  0.2748 -1.3009
 9087SOL     OW29577   8.263   4.589   1.320 -0.5026  0.1618  0.0075
 9087SOL    HW129578   8.346   4.546   1.340 -1.4007 -1.0188  1.3362
 9087SOL    HW229579   8.252   4.654   1.389 -0.6193  0.4242 -0.2551
 9088SOL     OW29580   7.707  10.498   3.192 -0.4359  0.1813  1.0387
 9088SOL    HW129581   7.685  10.409   3.166  1.1213 -0.2653  1.1554
 9088SOL    HW229582   7.630  10.550   3.168 -2.2466 -1.4987  2.8776
 9089SOL     OW29583   2.248   3.960   1.569 -0.3152 -0.4159  0.1382
 9089SOL    HW129584   2.152   3.965   1.576 -0.6947 -0.9077 -3.0746
 9089SOL    HW229585   2.280   4.032   1.625 -2.7806  2.2638 -1.5815
 9090SOL     OW29586   4.996   0.919   8.860 -0.2112 -0.1201 -0.8404
 9090SOL    HW129587   4.945   0.893   8.783 -0.8361 -3.6333  0.5946
 9090SOL    HW229588   4.969   0.858   8.928  2.4206  1.0373  1.4035
 9091SOL     OW29589   7.788   7.714   5.642 -0.6156  0.1481 -0.2419
 9091SOL    HW129590   7.710   7.699   5.696 -0.1758 -0.8129  0.1467
 9091SOL    HW229591   7.798   7.634   5.590  0.0739  0.2884 -0.3402
 9092SOL     OW29592   7.109   3.318   9.597  0.3723 -0.1847 -0.0438
 9092SOL    HW129593   7.033   3.375   9.589  0.6870  0.5888  1.9191
 9092SOL    HW229594   7.101   3.279   9.684  1.8253 -0.6929 -0.1043
 9093SOL     OW29595   1.305   2.781   9.134 -0.1149  0.0119 -0.1244
 9093SOL    HW129596   1.244   2.707   9.142  0.7595 -0.6067  1.0897
 9093SOL    HW229597   1.253   2.857   9.161  0.1596 -0.7914  3.0898
 9094SOL     OW29598   0.543   2.048   6.819  0.1061 -0.1707 -0.6175
 9094SOL    HW129599   0.516   2.016   6.733 -1.9353  0.8345 -0.4157
 9094SOL    HW229600   0.555   2.143   6.807  1.1441 -0.2095 -0.0792
 9095SOL     OW29601   4.832   0.006   9.923  0.3454  0.0508  0.2497
 9095SOL    HW129602   4.916  -0.026   9.892  0.2095  0.0348 -0.0976
 9095SOL    HW229603   4.854   0.082   9.978  0.6170 -0.2404  0.5467
 9096SOL     OW29604   2.190   8.097   4.442  0.1640  0.6105 -0.7158
 9096SOL    HW129605   2.237   8.090   4.359 -0.0508 -3.0833 -0.6611
 9096SOL    HW229606   2.109   8.143   4.420  0.5610  0.5958 -2.3266
 9097SOL     OW29607   2.053   7.119   0.921 -0.3603 -0.5074 -0.0288
 9097SOL    HW129608   1.989   7.072   0.975 -2.4098  0.9718 -1.0147
 9097SOL    HW229609   1.999   7.172   0.862  1.7912 -0.5535 -2.1828
 9098SOL     OW29610   4.305   8.717  10.576  0.4276  0.3083  0.8998
 9098SOL    HW129611   4.340   8.632  10.601  2.1719  1.0370  1.1044
 9098SOL    HW229612   4.218   8.720  10.617  1.4078 -0.3079  3.1938
 9099SOL     OW29613   2.621   0.463   6.518 -0.2317  0.4312  0.2017
 9099SOL    HW129614   2.568   0.502   6.587 -1.7086 -0.0280 -0.6124
 9099SOL    HW229615   2.637   0.374   6.547 -1.7869 -0.1113 -0.4796
 9100SOL     OW29616   4.043  10.001   0.561  0.5366  0.4987 -0.3289
 9100SOL    HW129617   4.091   9.927   0.596  0.0742 -0.6237 -1.9095
 9100SOL    HW229618   3.965  10.008   0.616  0.4736 -0.3573 -0.3016
 9101SOL     OW29619   2.404   6.824   3.471  0.3198  0.0959 -0.0127
 9101SOL    HW129620   2.462   6.899   3.488 -0.3650  0.4507  0.9125
 9101SOL    HW229621   2.338   6.830   3.540 -1.8975  0.7733 -2.0643
 9102SOL     OW29622   3.644   7.842  10.151  0.2180 -0.3876 -0.3253
 9102SOL    HW129623   3.660   7.892  10.231  0.9210 -1.2782  0.1121
 9102SOL    HW229624   3.549   7.842  10.141  0.2346  3.1063 -1.7037
 9103SOL     OW29625   1.551   8.427   1.878  0.1259  0.3020  0.5175
 9103SOL    HW129626   1.544   8.347   1.930 -3.0950  0.4911  0.6010
 9103SOL    HW229627   1.560   8.398   1.788 -1.3332 -0.2213  0.5159
 9104SOL     OW29628   0.092   3.827   6.735 -0.6781  0.0867  0.1886
 9104SOL    HW129629   0.133   3.794   6.815 -0.3066 -0.3936 -0.1915
 9104SOL    HW229630   0.121   3.918   6.729 -2.3741  0.7879  1.6848
 9105SOL     OW29631   0.432   2.877  10.365  0.0990  0.2517  0.3715
 9105SOL    HW129632   0.383   2.941  10.417 -0.2778  0.5678 -0.3660
 9105SOL    HW229633   0.524   2.894  10.387 -0.0984 -0.3728  1.8014
 9106SOL     OW29634  10.426  10.440   8.698  0.0867 -0.0528  0.3463
 9106SOL    HW129635  10.455  10.349   8.703  0.2958  0.0335  0.7781
 9106SOL    HW229636  10.337  10.435   8.664  0.1491 -0.4099  0.2344
 9107SOL     OW29637   0.921   6.028  10.519  0.3322  0.2711  0.1934
 9107SOL    HW129638   1.013   6.037  10.496  0.3832 -0.6253  0.0138
 9107SOL    HW229639   0.922   6.000  10.611  0.2841 -0.8803 -0.1467
 9108SOL     OW29640   7.289   1.943   7.571  0.1302 -0.8496 -0.1537
 9108SOL    HW129641   7.355   1.972   7.508 -0.0998  0.6611  0.2831
 9108SOL    HW229642   7.339   1.923   7.651  0.1043 -0.0377  0.0687
 9109SOL     OW29643   5.011   1.621   7.446 -0.5182  0.4637 -0.1659
 9109SOL    HW129644   5.032   1.538   7.490 -2.1376 -0.0188 -0.2586
 9109SOL    HW229645   4.984   1.595   7.358 -1.3623  1.0559 -0.0869
 9110SOL     OW29646   3.603   8.204   7.476  0.3143 -0.0511 -0.0929
 9110SOL    HW129647   3.567   8.150   7.405  0.7274 -1.0621  0.4470
 9110SOL    HW229648   3.643   8.278   7.431  0.1475 -0.4293 -0.8919
 9111SOL     OW29649   9.785   1.402   7.732  0.0243  0.0064 -0.2031
 9111SOL    HW129650   9.824   1.398   7.645 -1.5669 -2.2591 -0.9034
 9111SOL    HW229651   9.713   1.465   7.724  0.4777  0.5223 -0.2476
 9112SOL     OW29652   5.630   0.636   3.164 -0.2260  0.1112  0.1834
 9112SOL    HW129653   5.598   0.706   3.106  0.3869  1.3970  1.3545
 9112SOL    HW229654   5.718   0.618   3.132 -0.2885  0.0487  0.0426
 9113SOL     OW29655  10.107   8.872   6.729 -0.4171  0.1288 -0.3828
 9113SOL    HW129656  10.161   8.795   6.746 -0.1766  0.6777  1.4459
 9113SOL    HW229657  10.161   8.947   6.754 -1.6840  0.7375  0.6581
 9114SOL     OW29658   2.450   9.735   7.061  0.2574 -0.3576  0.0235
 9114SOL    HW129659   2.502   9.793   7.005 -0.3581  0.4399  0.2613
 9114SOL    HW229660   2.466   9.768   7.149 -1.4901  0.6300  0.0268
 9115SOL     OW29661   8.406   6.637   4.311 -0.3073 -0.2370  0.3865
 9115SOL    HW129662   8.402   6.638   4.215 -0.2135 -1.2517  0.3627
 9115SOL    HW229663   8.494   6.608   4.331  0.4184  2.0538  0.8218
 9116SOL     OW29664   5.269   0.099   0.068 -0.5714 -0.2363  0.3156
 9116SOL    HW129665   5.211   0.060   0.133  1.5111 -2.3257  1.0687
 9116SOL    HW229666   5.212   0.156   0.016 -2.6312  0.2582  2.9074
 9117SOL     OW29667   8.457   4.732   9.557 -0.6018  0.2484 -0.5422
 9117SOL    HW129668   8.485   4.696   9.473  0.0928 -1.0091  0.1969
 9117SOL    HW229669   8.533   4.783   9.587 -1.0390  1.1391 -0.8929
 9118SOL     OW29670  10.140   6.133   0.115  0.4823 -0.1953  0.0788
 9118SOL    HW129671  10.152   6.227   0.125  1.6823 -0.2516 -0.5922
 9118SOL    HW229672  10.092   6.123   0.033 -0.2329 -0.1428  0.4902
 9119SOL     OW29673   1.958   3.896   4.635  0.2137  0.3618 -0.2935
 9119SOL    HW129674   1.915   3.837   4.696  1.0235 -0.4738 -0.5136
 9119SOL    HW229675   1.923   3.983   4.656 -0.8238 -0.1590  0.1779
 9120SOL     OW29676  10.233   7.642   4.980  0.0970 -0.1106 -0.7533
 9120SOL    HW129677  10.181   7.622   5.058  0.3865 -1.2050 -0.8233
 9120SOL    HW229678  10.170   7.637   4.908 -0.2305  1.1764 -0.5861
 9121SOL     OW29679   9.890   5.905   6.973 -0.0382 -0.7125  0.3742
 9121SOL    HW129680   9.896   5.959   7.052  1.5879  0.2514 -0.3607
 9121SOL    HW229681   9.828   5.836   6.996 -0.7444  0.3985  1.9787
 9122SOL     OW29682   0.473   9.358   3.293  0.4737  0.5790 -0.1248
 9122SOL    HW129683   0.408   9.401   3.348 -0.1555 -0.7164  0.1926
 9122SOL    HW229684   0.557   9.386   3.328  0.1195  2.6530 -0.8344
 9123SOL     OW29685   3.317   0.983   0.271  0.4431 -0.0369  0.4901
 9123SOL    HW129686   3.401   0.997   0.316  1.8603 -2.6166 -1.0922
 9123SOL    HW229687   3.257   0.957   0.341  1.9097 -1.4839  1.2743
 9124SOL     OW29688   9.356   7.567   0.684  0.3907 -0.6638 -0.3818
 9124SOL    HW129689   9.390   7.619   0.612 -0.1424 -0.4919 -0.5121
 9124SOL    HW229690   9.315   7.491   0.643 -1.1637  0.1349 -0.3642
 9125SOL     OW29691   6.863   3.475   4.127  0.1200  0.3500 -0.7244
 9125SOL    HW129692   6.907   3.530   4.191  0.0270  0.2970 -0.6150
 9125SOL    HW229693   6.770   3.482   4.148  0.0070  1.0406 -1.4110
 9126SOL     OW29694   8.457   6.983   6.736  0.2620  0.1916  0.2568
 9126SOL    HW129695   8.445   7.078   6.737 -0.0677  0.1582 -0.3367
 9126SOL    HW229696   8.472   6.962   6.643 -0.7180 -0.4656  0.2367
 9127SOL     OW29697   7.712   3.555   4.985 -0.0730  0.5742  0.4893
 9127SOL    HW129698   7.650   3.542   5.056 -0.5457  1.6147  0.2941
 9127SOL    HW229699   7.776   3.617   5.020 -0.3147  1.1009  0.0325
 9128SOL     OW29700   5.083   8.890   7.185 -0.2424  0.0819 -0.1419
 9128SOL    HW129701   5.098   8.964   7.244 -0.1989 -0.8435  1.0327
 9128SOL    HW229702   5.155   8.894   7.122 -0.7112  1.5337 -0.6306
 9129SOL     OW29703   8.739   6.045   0.250  0.2341 -0.7520 -0.1045
 9129SOL    HW129704   8.763   6.138   0.254  0.4394 -0.7219 -1.5648
 9129SOL    HW229705   8.644   6.044   0.262  0.0806 -0.2363 -1.1360
 9130SOL     OW29706   6.263   3.976   2.894  0.3559  0.1752 -0.1662
 9130SOL    HW129707   6.250   3.914   2.822  0.7664 -0.1923  0.0765
 9130SOL    HW229708   6.274   4.060   2.850  2.0402 -0.2523 -0.6263
 9131SOL     OW29709   9.206   8.991   9.781  0.3096  0.6092  0.3877
 9131SOL    HW129710   9.210   9.014   9.688 -1.2500 -2.0941 -0.4555
 9131SOL    HW229711   9.295   9.006   9.814  0.7877  2.0045 -1.3880
 9132SOL     OW29712   3.000   6.988   2.440  0.3578  0.1420 -0.2462
 9132SOL    HW129713   3.081   6.942   2.420  0.6164 -0.1830  1.4397
 9132SOL    HW229714   2.932   6.922   2.429  0.5594 -0.2021  0.5111
 9133SOL     OW29715  10.571   6.505   2.815  0.2096  0.1599 -0.7803
 9133SOL    HW129716  10.527   6.439   2.761 -1.4840  1.1019 -0.6172
 9133SOL    HW229717  10.501   6.562   2.845  1.4860  1.3396  0.0809
 9134SOL     OW29718   0.948   8.837   1.339 -0.1307 -0.1629 -0.3719
 9134SOL    HW129719   0.945   8.924   1.301  0.6999  0.0684  0.0850
 9134SOL    HW229720   0.868   8.832   1.393 -0.8312 -0.1610 -1.3762
 9135SOL     OW29721   0.922   8.032   6.694  0.4315 -0.2207 -0.8749
 9135SOL    HW129722   0.930   7.941   6.721 -1.2694 -0.1699 -0.0453
 9135SOL    HW229723   0.832   8.039   6.660 -0.8408  1.8947  2.4195
 9136SOL     OW29724   1.479   9.337   0.218  0.7458 -0.2965  0.3247
 9136SOL    HW129725   1.493   9.302   0.306  0.8832  2.9245  1.7405
 9136SOL    HW229726   1.385   9.324   0.202  0.7748 -1.1702  0.7910
 9137SOL     OW29727   4.946   1.099   5.686 -0.1675  0.8016 -0.1313
 9137SOL    HW129728   5.019   1.076   5.742  0.3036 -0.2281 -1.1210
 9137SOL    HW229729   4.959   1.192   5.667 -0.3893  1.1960  1.4846
 9138SOL     OW29730   9.165   2.697   3.471 -0.6756  0.0684  0.1395
 9138SOL    HW129731   9.164   2.774   3.414 -0.3363  0.9070  1.2210
 9138SOL    HW229732   9.181   2.733   3.559 -1.4944 -1.1406  0.8163
 9139SOL     OW29733  10.390   4.055   0.546 -0.2901  0.3790 -0.4291
 9139SOL    HW129734  10.454   4.081   0.480  0.6451  0.3637  0.4522
 9139SOL    HW229735  10.421   4.094   0.627 -0.0202 -1.6355  0.5108
 9140SOL     OW29736   3.170   8.560   4.876  0.7915 -0.5129  0.2026
 9140SOL    HW129737   3.251   8.551   4.925 -0.5672 -0.5922  2.5810
 9140SOL    HW229738   3.134   8.644   4.903  1.3111  0.8196 -2.8830
 9141SOL     OW29739   8.354   5.054  10.047 -0.2015 -1.2566 -0.2191
 9141SOL    HW129740   8.400   5.060   9.964  1.1800 -0.5383  0.5469
 9141SOL    HW229741   8.313   4.968  10.046 -0.4763 -1.1267 -1.7598
 9142SOL     OW29742   8.381   3.624   0.369 -0.1447  0.2537  0.3666
 9142SOL    HW129743   8.402   3.558   0.435 -1.6932 -1.5835 -0.8705
 9142SOL    HW229744   8.302   3.667   0.402 -0.6124 -0.3019 -0.0044
 9143SOL     OW29745   5.601   6.247   6.289 -0.1996 -0.3940  0.0441
 9143SOL    HW129746   5.659   6.194   6.343 -1.6709 -2.3432 -0.1870
 9143SOL    HW229747   5.544   6.291   6.352 -0.9194 -1.4735  0.1791
 9144SOL     OW29748  10.089   3.859   0.999 -0.1466 -0.1072  0.3839
 9144SOL    HW129749  10.070   3.800   0.926 -2.0906  1.6902 -0.6569
 9144SOL    HW229750  10.112   3.941   0.957 -2.4894  1.3332  1.7117
 9145SOL     OW29751   5.128   0.954   7.341 -0.3411  0.1963  0.0539
 9145SOL    HW129752   5.163   0.875   7.382 -1.2687 -1.6238 -2.3899
 9145SOL    HW229753   5.035   0.955   7.363  0.0830  2.0932  2.1359
 9146SOL     OW29754   4.253   6.843   3.861 -0.0363  0.1237  0.4571
 9146SOL    HW129755   4.309   6.917   3.888  0.2489 -0.0644  0.3858
 9146SOL    HW229756   4.182   6.843   3.925  1.3084 -1.1231  2.0654
 9147SOL     OW29757   2.999   8.549   2.842 -0.3181  0.0290 -1.0526
 9147SOL    HW129758   3.092   8.530   2.840 -0.5232 -1.1529 -0.5257
 9147SOL    HW229759   2.992   8.640   2.870  0.7169  0.7042 -2.8091
 9148SOL     OW29760   0.223   5.415   2.865  0.1289 -0.2366  0.2471
 9148SOL    HW129761   0.168   5.374   2.933 -1.1215 -0.1680 -0.6832
 9148SOL    HW229762   0.192   5.377   2.783  1.1441  0.2011 -0.3609
 9149SOL     OW29763  10.246   1.949   0.302 -0.0618 -0.5852  0.5399
 9149SOL    HW129764  10.304   1.957   0.377 -0.2183 -0.3965  0.6394
 9149SOL    HW229765  10.297   1.984   0.228  0.0922 -0.7723  0.5560
 9150SOL     OW29766   2.722   3.237   7.101 -0.3590 -0.8106 -0.0852
 9150SOL    HW129767   2.815   3.235   7.125 -0.5289 -0.0852  0.7013
 9150SOL    HW229768   2.721   3.260   7.008  0.2872 -2.2935 -0.4857
 9151SOL     OW29769   9.333   5.002   5.277  0.4306  0.2166  0.1420
 9151SOL    HW129770   9.361   5.076   5.331  0.5100  0.8681 -0.7584
 9151SOL    HW229771   9.271   5.041   5.214  1.3620 -0.2445 -1.1052
 9152SOL     OW29772   3.030   9.896   0.625 -0.0976  0.2703  0.4024
 9152SOL    HW129773   2.968   9.911   0.696 -0.5862  1.2430 -0.2134
 9152SOL    HW229774   3.032   9.979   0.576 -1.4190 -0.9991 -2.0080
 9153SOL     OW29775   6.017   7.881   5.425 -0.2448  0.6086  0.3951
 9153SOL    HW129776   5.929   7.845   5.426  0.8651 -2.4328  0.2263
 9153SOL    HW229777   6.008   7.966   5.381 -2.7049 -0.8208 -2.2449
 9154SOL     OW29778   9.143   3.599  10.548 -0.5453  0.6746 -0.1361
 9154SOL    HW129779   9.203   3.607  10.475 -0.7667 -0.9559 -0.5443
 9154SOL    HW229780   9.064   3.559  10.511 -1.2112  1.1423  0.7209
 9155SOL     OW29781   4.251   2.117   6.810  0.7458  0.5933 -0.3286
 9155SOL    HW129782   4.337   2.159   6.813  1.3655 -0.5008 -1.8465
 9155SOL    HW229783   4.210   2.152   6.731  0.4813 -0.1459 -0.5298
 9156SOL     OW29784   1.975   1.410  10.044  0.2519 -0.2716 -0.2808
 9156SOL    HW129785   1.935   1.376   9.964  1.6150  1.4967 -1.8129
 9156SOL    HW229786   2.041   1.345  10.068  0.1432 -0.6005 -0.8647
 9157SOL     OW29787   0.995   3.844   8.824 -0.1549 -0.0928  0.1703
 9157SOL    HW129788   0.908   3.855   8.860 -0.2651  1.5755 -0.5385
 9157SOL    HW229789   1.055   3.860   8.897 -0.4243 -0.7606  0.5404
 9158SOL     OW29790   6.967   8.724   3.173  0.3777 -0.3093  0.1914
 9158SOL    HW129791   6.992   8.786   3.105  3.4956 -0.9523  0.5948
 9158SOL    HW229792   7.029   8.741   3.245 -1.5455 -0.9490  2.1101
 9159SOL     OW29793   1.193   6.000  10.519 -0.4441 -0.3031 -0.6960
 9159SOL    HW129794   1.215   5.959  10.436 -1.3138 -0.0883 -1.0425
 9159SOL    HW229795   1.251   5.958  10.583  0.5913 -0.1095 -1.4774
 9160SOL     OW29796   3.674   9.630   8.654 -0.2251  0.1816  0.5663
 9160SOL    HW129797   3.618   9.698   8.691  2.5830  2.0245  1.8088
 9160SOL    HW229798   3.658   9.634   8.560 -2.5363  0.1933  0.9205
 9161SOL     OW29799   2.820   6.005   2.270 -0.1092  0.0302 -0.3295
 9161SOL    HW129800   2.794   6.066   2.201  0.0546  0.8758  0.3408
 9161SOL    HW229801   2.914   5.993   2.258 -0.1596 -0.1716 -0.5244
 9162SOL     OW29802   0.643   9.580   8.934  0.2168 -0.3640 -0.3219
 9162SOL    HW129803   0.684   9.497   8.959  1.5138 -0.3521 -2.2001
 9162SOL    HW229804   0.713   9.628   8.889 -1.2063  0.7050 -1.4534
 9163SOL     OW29805   9.133   8.921   0.829 -0.7126 -0.7838  0.4946
 9163SOL    HW129806   9.118   8.857   0.899 -0.9172 -1.8584 -0.4945
 9163SOL    HW229807   9.225   8.910   0.806 -0.0908  0.9532  1.8757
 9164SOL     OW29808   7.430   8.964   9.022  0.0113  0.2307 -0.3127
 9164SOL    HW129809   7.461   8.878   9.052  1.5610  0.8363 -0.0879
 9164SOL    HW229810   7.349   8.945   8.975 -1.7013 -0.9826  2.7933
 9165SOL     OW29811   2.291   3.122   9.377  0.5325 -0.3889 -0.1062
 9165SOL    HW129812   2.343   3.152   9.302  0.1581  0.0641 -0.1833
 9165SOL    HW229813   2.307   3.187   9.445 -1.7507  1.0571 -0.8740
 9166SOL     OW29814   5.647   4.298   5.788  0.1819 -0.0619 -0.7625
 9166SOL    HW129815   5.732   4.337   5.808 -0.2852  0.2870  0.6801
 9166SOL    HW229816   5.660   4.204   5.799  0.3564 -0.0007 -0.4252
 9167SOL     OW29817   4.304   4.050   3.804  0.2543  0.6001  0.3803
 9167SOL    HW129818   4.282   4.143   3.803 -1.2669  0.2722 -0.4652
 9167SOL    HW229819   4.281   4.018   3.717  0.8172 -0.5645  0.6270
 9168SOL     OW29820   7.637   1.310   8.709  0.0603  0.4907 -0.0335
 9168SOL    HW129821   7.669   1.219   8.712 -0.2046  0.4019  0.1837
 9168SOL    HW229822   7.716   1.363   8.703  0.2438  0.2659  0.3563
 9169SOL     OW29823   8.051   9.770   6.789  0.0326 -0.0071  0.0813
 9169SOL    HW129824   7.968   9.816   6.793  0.6232  1.0261  1.1831
 9169SOL    HW229825   8.116   9.834   6.817  1.5821 -0.0174 -3.0246
 9170SOL     OW29826   9.548   7.971   3.704  0.3041 -0.3126  0.3854
 9170SOL    HW129827   9.626   8.016   3.670 -1.7894  3.4816  0.0604
 9170SOL    HW229828   9.549   7.989   3.798 -0.2315 -0.0972  0.3546
 9171SOL     OW29829   8.386   6.319   9.803  0.5050  0.5295 -0.0709
 9171SOL    HW129830   8.416   6.343   9.891  0.2203  2.3418 -0.4136
 9171SOL    HW229831   8.293   6.299   9.814  0.5720  0.3255  0.1165
 9172SOL     OW29832   3.891   1.900   8.555  0.5522 -0.2518 -0.0894
 9172SOL    HW129833   3.948   1.908   8.632  0.7139  2.1715 -0.3794
 9172SOL    HW229834   3.920   1.970   8.496  0.1085 -1.7350 -2.1892
 9173SOL     OW29835   5.775   6.391   6.705  0.7627  0.0393  0.1550
 9173SOL    HW129836   5.774   6.471   6.652 -0.7992  0.3521  0.5997
 9173SOL    HW229837   5.860   6.351   6.687  0.5161  0.4408 -2.1154
 9174SOL     OW29838   3.977   3.705   8.987 -0.1385 -0.5183  0.4761
 9174SOL    HW129839   3.974   3.778   9.048  0.3537 -0.6750  0.6948
 9174SOL    HW229840   4.025   3.636   9.033 -0.7118 -1.0291  0.3226
 9175SOL     OW29841   3.387   8.173   9.096  0.9057  0.7715  0.0711
 9175SOL    HW129842   3.461   8.113   9.093 -0.8932 -1.6496  0.8445
 9175SOL    HW229843   3.396   8.219   9.179  1.2422  0.0694  0.4275
 9176SOL     OW29844   5.363   4.434   9.479 -0.1630  0.3196  0.0007
 9176SOL    HW129845   5.348   4.344   9.450  0.3393 -0.0413  0.8170
 9176SOL    HW229846   5.288   4.454   9.535 -1.3675  1.1740 -1.7903
 9177SOL     OW29847   9.446   6.231   2.713  0.4131 -0.0520  0.4927
 9177SOL    HW129848   9.427   6.312   2.665  1.7952 -0.1312 -0.2449
 9177SOL    HW229849   9.468   6.261   2.801  0.9195  0.3981  0.2240
 9178SOL     OW29850   8.406   5.647   1.209 -0.2835 -0.3603 -0.0243
 9178SOL    HW129851   8.456   5.702   1.268 -1.5759 -0.0478  0.8215
 9178SOL    HW229852   8.350   5.708   1.161 -0.0359 -0.7187 -0.7772
 9179SOL     OW29853   7.279   1.190   9.450 -0.2333 -0.1876  0.1019
 9179SOL    HW129854   7.373   1.203   9.460 -0.4684  1.5351  0.4809
 9179SOL    HW229855   7.245   1.187   9.540 -0.6597  0.4876 -0.0209
 9180SOL     OW29856   0.277   5.903   0.028  0.0970  0.1050 -0.3735
 9180SOL    HW129857   0.194   5.907   0.076  1.4275  0.1485  2.0798
 9180SOL    HW229858   0.287   5.811   0.005 -0.2215 -0.0593  0.1293
 9181SOL     OW29859   6.624   8.668   1.647  0.1791  0.0443 -0.2141
 9181SOL    HW129860   6.641   8.761   1.661 -0.7067  0.2940 -0.6989
 9181SOL    HW229861   6.694   8.623   1.694 -0.3859  0.9093  1.5280
 9182SOL     OW29862   4.909   7.410   3.287 -0.0000 -0.3574 -0.3843
 9182SOL    HW129863   4.856   7.336   3.258  0.8667 -1.1809  0.1023
 9182SOL    HW229864   4.928   7.392   3.379  2.0128 -0.6354 -0.8040
 9183SOL     OW29865   5.618   3.148   4.592  0.2987 -0.2192 -0.1825
 9183SOL    HW129866   5.620   3.101   4.509  1.9283  0.0853 -0.3576
 9183SOL    HW229867   5.527   3.144   4.621  0.1279 -2.2939 -0.8685
 9184SOL     OW29868   8.441   2.453   1.546  0.3456  0.4646 -0.2339
 9184SOL    HW129869   8.431   2.466   1.451  2.1485 -2.2233 -0.9106
 9184SOL    HW229870   8.353   2.460   1.581 -0.7020 -0.5994 -2.4499
 9185SOL     OW29871   2.431   1.107   2.789  0.2811 -0.4481  0.1310
 9185SOL    HW129872   2.339   1.088   2.770  0.0548 -1.2483  1.8348
 9185SOL    HW229873   2.458   1.039   2.851  1.7159  0.3898  0.4879
 9186SOL     OW29874   8.326  10.234   9.935 -0.6043 -0.3312 -0.0577
 9186SOL    HW129875   8.273  10.244   9.856 -1.6381 -0.4636  0.5986
 9186SOL    HW229876   8.344  10.324   9.963 -0.8131 -0.2838 -0.0745
 9187SOL     OW29877   0.768   4.157   3.326  0.1910  0.0853  0.5600
 9187SOL    HW129878   0.729   4.231   3.373  0.3185  0.6335 -0.1810
 9187SOL    HW229879   0.862   4.165   3.341  0.6168  2.1581 -2.3229
 9188SOL     OW29880   0.773   0.495   8.079  0.1563  0.2126  0.4360
 9188SOL    HW129881   0.684   0.528   8.067  0.4920  1.5311  1.2186
 9188SOL    HW229882   0.788   0.503   8.174  0.2625 -2.3536  0.6960
 9189SOL     OW29883   9.843   3.480   0.688  0.0438  0.2428 -0.4099
 9189SOL    HW129884   9.902   3.524   0.627  0.1116 -0.4377 -0.8462
 9189SOL    HW229885   9.901   3.450   0.759 -0.1186  1.5462  0.3093
 9190SOL     OW29886   0.265   3.270   0.555  0.0718 -0.9710 -0.2514
 9190SOL    HW129887   0.352   3.308   0.543  0.0886 -0.1831  1.9845
 9190SOL    HW229888   0.279   3.176   0.547  1.0483 -0.8288 -0.3529
 9191SOL     OW29889   0.313   3.979   1.682 -0.0415 -0.4700  0.2702
 9191SOL    HW129890   0.359   3.959   1.764  0.0038 -0.4965  0.2388
 9191SOL    HW229891   0.377   3.957   1.614 -0.3378 -1.1426  0.2037
 9192SOL     OW29892   7.768   9.929   0.701 -0.8565 -0.1249  0.1168
 9192SOL    HW129893   7.700   9.993   0.723 -1.0391 -0.8603  1.8588
 9192SOL    HW229894   7.846   9.961   0.747 -0.9493 -1.1165  1.0017
 9193SOL     OW29895   1.561   2.784   6.595  0.3381  0.1640  0.6817
 9193SOL    HW129896   1.622   2.747   6.658 -0.4859 -2.9095 -0.1464
 9193SOL    HW229897   1.588   2.746   6.511 -3.0187 -1.9375  0.3872
 9194SOL     OW29898   6.112   5.705   4.835 -0.6769 -0.1573 -0.4678
 9194SOL    HW129899   6.205   5.730   4.829 -0.9092  0.6668 -0.8333
 9194SOL    HW229900   6.093   5.663   4.751 -0.6723 -0.1943 -0.4503
 9195SOL     OW29901   2.643   8.534   8.474 -0.0492 -1.0245  0.4878
 9195SOL    HW129902   2.650   8.474   8.400  1.2882 -2.4886  1.7358
 9195SOL    HW229903   2.703   8.605   8.454  0.1417 -1.3039  0.0529
 9196SOL     OW29904   7.671   1.505   3.983  0.7667  0.2829 -0.0256
 9196SOL    HW129905   7.681   1.526   4.076 -1.1549  0.5184  0.1770
 9196SOL    HW229906   7.612   1.573   3.950  0.2047 -0.6804 -1.0641
 9197SOL     OW29907   5.877   5.051   9.419  0.6088 -0.3772 -0.3034
 9197SOL    HW129908   5.863   5.037   9.513 -2.1722 -0.3722 -0.6433
 9197SOL    HW229909   5.902   4.964   9.386  1.7218 -0.3528  0.4362
 9198SOL     OW29910   2.487   9.414   4.973 -0.2152 -0.5465 -0.4049
 9198SOL    HW129911   2.415   9.467   5.009  0.1174 -0.6827  0.4867
 9198SOL    HW229912   2.498   9.447   4.884  0.4167  1.3678  0.3307
 9199SOL     OW29913   3.162   5.303   7.587 -0.2794  0.3490  0.5205
 9199SOL    HW129914   3.166   5.263   7.500 -1.0020  1.3759 -0.0074
 9199SOL    HW229915   3.251   5.295   7.621 -0.0364 -0.2627 -0.2243
 9200SOL     OW29916   4.517   1.355   8.196 -0.0047  0.1034 -0.0897
 9200SOL    HW129917   4.558   1.347   8.110  0.1122 -1.6134  0.0998
 9200SOL    HW229918   4.434   1.399   8.178 -0.5839 -1.3918 -1.3159
 9201SOL     OW29919   1.735   5.513   1.087  0.3288  0.2438  0.2021
 9201SOL    HW129920   1.726   5.507   0.992  1.0550 -1.5482  0.1880
 9201SOL    HW229921   1.823   5.478   1.105  0.4320  1.0826  1.4960
 9202SOL     OW29922   9.497   2.132   6.164 -0.1416  0.0111 -0.3409
 9202SOL    HW129923   9.474   2.126   6.071 -1.8163  1.4094 -0.0705
 9202SOL    HW229924   9.418   2.165   6.206  0.8728  0.2614  1.4678
 9203SOL     OW29925   3.724   5.789   0.261  0.3345 -0.1032  0.1391
 9203SOL    HW129926   3.783   5.746   0.198  2.2404  1.5956  0.6579
 9203SOL    HW229927   3.685   5.861   0.211  0.3102  0.0293  0.3481
 9204SOL     OW29928   2.443   9.753   0.009 -0.0834 -0.5161 -0.4080
 9204SOL    HW129929   2.448   9.836  -0.039 -0.4973 -0.2621 -0.0200
 9204SOL    HW229930   2.525   9.709  -0.012  0.7943  0.6054  0.5138
 9205SOL     OW29931   2.109   2.187   6.311 -0.5011  0.5749  0.2209
 9205SOL    HW129932   2.044   2.167   6.244 -1.5776  0.6305  1.2336
 9205SOL    HW229933   2.065   2.246   6.372  0.4312  0.4635  1.0415
 9206SOL     OW29934   1.752   1.445   4.767 -0.6004 -0.0149 -0.1332
 9206SOL    HW129935   1.695   1.397   4.707 -3.0225  0.0328  1.9547
 9206SOL    HW229936   1.709   1.437   4.853  1.0946  2.3688  1.0698
 9207SOL     OW29937   2.792   3.730   4.088 -0.3306 -0.2362  0.3978
 9207SOL    HW129938   2.790   3.776   4.003  1.1209  0.2049  0.5702
 9207SOL    HW229939   2.815   3.640   4.066  1.5073  0.1805  0.3701
 9208SOL     OW29940  10.581   8.601   2.313  0.4200 -0.3384 -0.2936
 9208SOL    HW129941  10.585   8.526   2.373 -0.3778 -0.5885 -0.5368
 9208SOL    HW229942  10.488   8.611   2.293  0.5851  0.3093 -0.7828
 9209SOL     OW29943   3.212   7.424   1.680 -0.1796  0.0818  0.4555
 9209SOL    HW129944   3.120   7.415   1.705  0.0035  0.5559  1.3471
 9209SOL    HW229945   3.255   7.346   1.717 -0.2286 -0.1569  0.0101
 9210SOL     OW29946   4.851   1.726   0.003  0.5240 -0.1951  0.4353
 9210SOL    HW129947   4.820   1.701  -0.084  0.1438 -0.2324  0.5811
 9210SOL    HW229948   4.777   1.708   0.061  0.5383  0.4443  0.6670
 9211SOL     OW29949   3.697   9.182   6.535 -0.0588  0.0124  0.0382
 9211SOL    HW129950   3.770   9.217   6.586  1.2607 -0.5549 -1.3773
 9211SOL    HW229951   3.619   9.224   6.572  0.8185 -0.3664  2.4671
 9212SOL     OW29952   1.340   4.258   6.596  0.4137 -0.2946  0.0309
 9212SOL    HW129953   1.252   4.223   6.580  0.8735 -0.3866 -2.9549
 9212SOL    HW229954   1.344   4.335   6.539  2.3002 -0.3672  0.0323
 9213SOL     OW29955   9.086   9.784   3.858 -0.1272  0.1956 -0.3698
 9213SOL    HW129956   9.020   9.769   3.790  0.3945  0.5912 -0.9678
 9213SOL    HW229957   9.166   9.743   3.824 -0.4518 -1.7763  1.0911
 9214SOL     OW29958   6.460   8.417   1.578  0.0102  0.0774 -0.2455
 9214SOL    HW129959   6.497   8.497   1.615  1.5622 -0.2604 -0.9792
 9214SOL    HW229960   6.467   8.352   1.649 -0.3436  0.3373  0.0279
 9215SOL     OW29961   5.584   8.021   1.440 -0.3918  0.1364 -0.6151
 9215SOL    HW129962   5.555   8.016   1.531 -1.0559  1.6782 -0.7026
 9215SOL    HW229963   5.502   8.021   1.389 -0.1144  1.1510 -1.0841
 9216SOL     OW29964   0.962   8.108   0.399  0.3606  0.2955  0.7069
 9216SOL    HW129965   0.903   8.120   0.473 -0.4659 -0.2400  0.1567
 9216SOL    HW229966   1.045   8.083   0.439  0.0681  0.4988  1.4717
 9217SOL     OW29967   3.474   7.787   3.883  0.0848  0.5110  0.1955
 9217SOL    HW129968   3.455   7.777   3.789  0.0039  2.3494 -0.0071
 9217SOL    HW229969   3.416   7.857   3.912  0.4859  0.3115  1.5264
 9218SOL     OW29970   3.403   6.553   8.738  0.4128  0.4192 -0.1512
 9218SOL    HW129971   3.441   6.482   8.789  0.0395 -0.2661 -0.8151
 9218SOL    HW229972   3.469   6.623   8.741  0.6336  0.1851  0.7889
 9219SOL     OW29973   7.426   7.969   0.031 -0.1251  0.0841 -0.2280
 9219SOL    HW129974   7.463   7.929  -0.047  0.2870 -1.7092  0.8380
 9219SOL    HW229975   7.474   7.930   0.104 -2.2984 -0.3551  1.0748
 9220SOL     OW29976   4.444   6.756   0.635 -0.6049  0.2883  0.4719
 9220SOL    HW129977   4.463   6.848   0.616 -2.7022  0.3082 -2.0992
 9220SOL    HW229978   4.421   6.755   0.728 -0.1285  2.2739  0.6597
 9221SOL     OW29979   7.354   1.365   5.497  0.0798  0.2052 -0.5461
 9221SOL    HW129980   7.285   1.344   5.560 -0.3273 -0.3761 -1.1647
 9221SOL    HW229981   7.398   1.281   5.482  1.8991  0.8207  0.9476
 9222SOL     OW29982   8.265   7.747   1.676 -0.2506 -0.5451  0.2728
 9222SOL    HW129983   8.344   7.721   1.723  0.0436 -0.4987 -0.1862
 9222SOL    HW229984   8.293   7.753   1.585 -0.9184 -1.0660  0.0276
 9223SOL     OW29985   5.504   1.337   5.492 -0.3921 -0.1292  0.5394
 9223SOL    HW129986   5.478   1.270   5.429 -0.9475  0.0774  0.5503
 9223SOL    HW229987   5.423   1.361   5.537 -0.1289  0.2721  0.8050
 9224SOL     OW29988   9.049   8.313   4.653  0.3925  0.3751  0.3527
 9224SOL    HW129989   9.091   8.390   4.692 -0.9896  0.4662  1.7349
 9224SOL    HW229990   8.977   8.349   4.601  1.7308  0.1990 -1.7685
 9225SOL     OW29991   7.425   0.838   5.874 -0.0571 -0.2496  0.4016
 9225SOL    HW129992   7.473   0.917   5.850 -0.3642 -0.9493 -2.9218
 9225SOL    HW229993   7.334   0.856   5.850 -0.5150 -0.9472  1.4878
 9226SOL     OW29994   4.311   0.697   1.984  0.2307  0.6211 -0.2436
 9226SOL    HW129995   4.312   0.650   1.900 -0.0301 -0.8134  0.5330
 9226SOL    HW229996   4.232   0.751   1.980 -0.8990 -0.9767 -0.1183
 9227SOL     OW29997   6.923   3.249   2.844 -0.0575 -0.2006  0.1018
 9227SOL    HW129998   6.872   3.190   2.789  0.2468 -0.2391 -0.1426
 9227SOL    HW229999   6.884   3.335   2.829 -0.8978 -0.4201  0.9288
 9228SOL     OW30000   4.465   3.422   0.318  0.4519 -0.3062  0.4709
 9228SOL    HW130001   4.499   3.421   0.228  1.6770  0.1596  0.9025
 9228SOL    HW230002   4.419   3.339   0.328  0.0113 -0.2132 -0.6998
 9229SOL     OW30003   3.297   9.411   2.921 -0.2632  0.4953 -0.1018
 9229SOL    HW130004   3.259   9.401   2.834  0.3480  0.5087 -0.3713
 9229SOL    HW230005   3.379   9.362   2.918 -1.0304 -0.9458  0.9867
 9230SOL     OW30006   1.335   6.132   5.275  0.0251 -0.1319  1.2143
 9230SOL    HW130007   1.379   6.136   5.360 -1.1240  0.5567  1.8021
 9230SOL    HW230008   1.242   6.126   5.296 -0.2474 -0.3925  0.0023
 9231SOL     OW30009   3.096   6.025   8.465  0.1114  0.4082 -0.3648
 9231SOL    HW130010   3.142   5.962   8.410  0.3802 -1.5320  1.8871
 9231SOL    HW230011   3.126   6.110   8.434  2.6869 -0.6731 -1.1670
 9232SOL     OW30012   6.235   9.527   2.847  0.1424  0.3238  0.5555
 9232SOL    HW130013   6.260   9.487   2.764 -0.8431 -0.4941  0.6283
 9232SOL    HW230014   6.279   9.474   2.914  1.2606  1.2253  0.5648
 9233SOL     OW30015   3.580   8.668   0.736  0.3801 -0.0328 -0.5804
 9233SOL    HW130016   3.577   8.644   0.643 -1.0183 -1.0592 -0.3030
 9233SOL    HW230017   3.489   8.662   0.765  1.0778 -2.2738  1.4707
 9234SOL     OW30018   6.683   2.619   0.502 -0.5789  0.2955 -0.1748
 9234SOL    HW130019   6.678   2.597   0.409  1.9616 -0.3982 -0.2454
 9234SOL    HW230020   6.713   2.538   0.543 -4.5880 -0.4156  1.8351
 9235SOL     OW30021   1.566   2.225   7.707 -0.1354 -0.4073  0.1263
 9235SOL    HW130022   1.581   2.176   7.788 -0.3931  1.5960  1.4537
 9235SOL    HW230023   1.540   2.312   7.736 -1.7131 -0.0450 -2.1361
 9236SOL     OW30024   0.606   9.000   8.597  0.2786  0.6810 -0.5706
 9236SOL    HW130025   0.561   9.043   8.524  0.3344 -1.6315 -2.0631
 9236SOL    HW230026   0.609   8.908   8.572  1.6755  0.0488  1.6890
 9237SOL     OW30027   8.093   1.534   9.445 -0.2399 -0.1693 -0.3469
 9237SOL    HW130028   8.166   1.502   9.391  0.1761 -0.7660  0.5375
 9237SOL    HW230029   8.103   1.629   9.444  0.3394 -0.2254 -0.5502
 9238SOL     OW30030   3.212   2.080   2.098  0.5335 -0.4898  0.4619
 9238SOL    HW130031   3.193   2.071   2.191  1.5971 -0.9012  0.6391
 9238SOL    HW230032   3.285   2.141   2.094 -1.5856  2.2100 -0.3019
 9239SOL     OW30033   9.492  10.435   8.751  0.1783 -0.2295 -0.1551
 9239SOL    HW130034   9.532  10.509   8.796 -1.2198  0.5666 -0.1591
 9239SOL    HW230035   9.474  10.372   8.821  0.1086  0.0229  0.0553
 9240SOL     OW30036   8.430   3.420   0.555  0.6092 -0.0355  0.1858
 9240SOL    HW130037   8.427   3.461   0.641  1.7371  0.6200 -0.0649
 9240SOL    HW230038   8.520   3.387   0.547  0.2390 -0.9703 -0.3453
 9241SOL     OW30039   4.896   4.047   3.390 -0.0533  0.8461  0.5488
 9241SOL    HW130040   4.809   4.050   3.349 -0.5167  1.4116  1.5567
 9241SOL    HW230041   4.931   4.135   3.376  0.2601  0.6944  0.3725
 9242SOL     OW30042   4.649   2.981   3.195 -0.0613  0.5463 -0.4859
 9242SOL    HW130043   4.722   3.042   3.204  1.1390 -0.6142 -1.7207
 9242SOL    HW230044   4.614   2.998   3.108 -2.7137  2.5100  0.8358
 9243SOL     OW30045   3.060  10.507   8.217  0.1291 -0.0123  0.0622
 9243SOL    HW130046   3.006  10.563   8.273  0.8835  1.4402 -0.5810
 9243SOL    HW230047   2.998  10.469   8.155 -0.4393 -0.0931  0.6655
 9244SOL     OW30048   6.612   7.167   7.610  0.3030  0.0945 -0.2086
 9244SOL    HW130049   6.614   7.225   7.686  1.3159 -1.2353  0.8205
 9244SOL    HW230050   6.553   7.097   7.634 -2.6129  1.6410 -2.2596
 9245SOL     OW30051  10.391   9.302   7.794 -0.2928 -0.5283 -0.3020
 9245SOL    HW130052  10.416   9.266   7.880 -2.7916 -2.1229 -0.1236
 9245SOL    HW230053  10.465   9.281   7.737  1.2869  0.2760  1.3517
 9246SOL     OW30054   8.608   0.892   7.669  0.9897  0.0733  0.3042
 9246SOL    HW130055   8.619   0.797   7.676  2.9848  0.3510  1.5979
 9246SOL    HW230056   8.617   0.910   7.576  0.1371 -1.0252 -0.0246
 9247SOL     OW30057   9.361   9.269   9.565  0.0052  0.2579 -0.0279
 9247SOL    HW130058   9.444   9.227   9.591 -0.4485  0.7003  2.3718
 9247SOL    HW230059   9.305   9.197   9.539  0.1702 -0.4038  1.3306
 9248SOL     OW30060  10.052   1.540   4.785  0.0525 -0.0687 -0.2484
 9248SOL    HW130061  10.025   1.583   4.866  3.4906 -0.3417  1.1771
 9248SOL    HW230062  10.147   1.550   4.783  0.3513 -2.3873 -2.9354
 9249SOL     OW30063   9.861   7.526   1.270 -0.4508  0.0389 -0.5769
 9249SOL    HW130064   9.916   7.447   1.264 -1.1416 -0.6665  1.4529
 9249SOL    HW230065   9.850   7.554   1.179  2.0658 -0.6007 -1.1559
 9250SOL     OW30066   1.220   9.344   3.221 -0.1484  0.8056  0.4719
 9250SOL    HW130067   1.191   9.256   3.247  0.2273  0.8384  1.0229
 9250SOL    HW230068   1.209   9.346   3.126  2.2515 -0.7694  0.0650
 9251SOL     OW30069   7.284  10.359   3.894 -0.4478  0.1468 -0.3272
 9251SOL    HW130070   7.364  10.323   3.855  0.4389  1.2445  0.4098
 9251SOL    HW230071   7.309  10.383   3.983 -1.6517  0.3712 -0.0307
 9252SOL     OW30072   1.923   0.020   6.680  0.3347  0.1813 -0.1661
 9252SOL    HW130073   1.996  -0.005   6.623 -0.5256  0.1033 -1.2492
 9252SOL    HW230074   1.886   0.098   6.639 -2.0219 -1.4196 -1.3235
 9253SOL     OW30075   2.955   2.209   6.840 -0.9027  0.1804  0.3392
 9253SOL    HW130076   3.029   2.181   6.894  0.1503 -1.9631 -1.9826
 9253SOL    HW230077   2.889   2.240   6.902  1.2596  0.4991  2.5982
 9254SOL     OW30078  10.523   9.696   1.450  0.4579  0.8982  0.0543
 9254SOL    HW130079  10.440   9.705   1.495  0.7105  0.8451  0.5384
 9254SOL    HW230080  10.500   9.679   1.358 -0.0531  1.6548  0.0389
 9255SOL     OW30081   8.613   9.962   7.420 -0.4800 -0.0568  0.2455
 9255SOL    HW130082   8.546   9.907   7.379 -1.3512  0.8221  0.4592
 9255SOL    HW230083   8.665   9.902   7.473 -0.7661 -0.8354 -0.3455
 9256SOL     OW30084   1.819   8.753   5.663  0.9084 -0.3814  0.3956
 9256SOL    HW130085   1.849   8.678   5.715  1.2999 -1.6992 -1.6209
 9256SOL    HW230086   1.838   8.728   5.572 -1.0938  1.1804 -0.5143
 9257SOL     OW30087   7.228   2.645   2.141 -0.0778  0.4154  0.1330
 9257SOL    HW130088   7.279   2.717   2.177  0.4957 -0.3402  0.8771
 9257SOL    HW230089   7.293   2.583   2.108 -0.5209 -0.2182  0.4113
 9258SOL     OW30090   5.114   7.254   0.231  0.2771  0.0916  0.5812
 9258SOL    HW130091   5.092   7.312   0.158  0.4018 -0.1150  0.3769
 9258SOL    HW230092   5.146   7.313   0.300  1.8229  0.1653 -0.1447
 9259SOL     OW30093   6.891   9.854   1.326  0.0632 -0.1721 -0.1415
 9259SOL    HW130094   6.849   9.806   1.254 -0.7977 -0.4047  0.4998
 9259SOL    HW230095   6.976   9.812   1.337  0.1792 -0.1711 -0.9859
 9260SOL     OW30096   5.183   6.821  10.055 -0.5302  0.4075  0.4079
 9260SOL    HW130097   5.102   6.772  10.071  0.0564 -0.1553  1.8674
 9260SOL    HW230098   5.251   6.766  10.093  0.3024  1.7466  0.9041
 9261SOL     OW30099  10.334   0.389   7.225  0.4812  0.0394  0.2278
 9261SOL    HW130100  10.295   0.476   7.233  0.1564 -0.1825  1.1941
 9261SOL    HW230101  10.287   0.348   7.153 -0.0714  0.2942  0.4400
 9262SOL     OW30102   6.085   5.106   2.990 -0.1243  0.0017 -0.0843
 9262SOL    HW130103   6.122   5.099   3.078 -2.7826  0.1920  1.1315
 9262SOL    HW230104   6.049   5.019   2.972  0.8772 -0.2059 -1.2758
 9263SOL     OW30105   5.396   6.990   5.937 -0.0713 -0.0210 -0.0656
 9263SOL    HW130106   5.373   6.908   5.894 -2.4983  0.8108 -0.4623
 9263SOL    HW230107   5.440   7.042   5.869  0.5675 -0.5730 -0.0874
 9264SOL     OW30108   8.383   2.468   9.863  0.1149  0.2624  0.7867
 9264SOL    HW130109   8.443   2.424   9.803  1.6657 -0.4588  2.7688
 9264SOL    HW230110   8.395   2.561   9.845  2.6385  0.2063  1.7993
 9265SOL     OW30111   9.949   1.702   4.579  0.2970 -0.1849 -0.5183
 9265SOL    HW130112   9.932   1.636   4.511  0.0026  0.0236 -0.6493
 9265SOL    HW230113   9.986   1.652   4.652 -0.5831 -0.6158 -0.3469
 9266SOL     OW30114   3.881   9.024   7.509  0.6826 -0.4300  0.1107
 9266SOL    HW130115   3.959   9.079   7.504  1.2839 -1.3413 -1.0258
 9266SOL    HW230116   3.899   8.951   7.449  0.1890 -2.2011  1.9874
 9267SOL     OW30117   3.013   4.545   0.361  0.0713  0.2736  0.2494
 9267SOL    HW130118   3.074   4.545   0.287 -0.0791  0.4380  0.1251
 9267SOL    HW230119   2.935   4.590   0.329 -0.6606 -1.1438 -0.0320
 9268SOL     OW30120   0.991   9.236   8.868  0.5094  0.0305  0.3087
 9268SOL    HW130121   0.956   9.149   8.847 -0.7721  0.6831 -0.4078
 9268SOL    HW230122   1.079   9.236   8.829  0.5083 -0.9158  0.2701
 9269SOL     OW30123   2.165   6.912  10.396 -0.0776  0.4381  0.0303
 9269SOL    HW130124   2.084   6.948  10.361  0.2301 -0.2308 -1.4445
 9269SOL    HW230125   2.177   6.829  10.350  0.8980  0.0061  1.0076
 9270SOL     OW30126   9.172   5.342   5.619  0.2837  0.6221 -1.1086
 9270SOL    HW130127   9.138   5.337   5.530 -3.1110  1.2168 -0.0034
 9270SOL    HW230128   9.155   5.433   5.645 -2.1289 -0.3400  1.1790
 9271SOL     OW30129   6.168   7.521   1.521  0.1600  0.3994  0.5166
 9271SOL    HW130130   6.102   7.527   1.451 -0.7724  2.7931  1.5156
 9271SOL    HW230131   6.119   7.486   1.595  0.9208 -1.2042  0.3028
 9272SOL     OW30132   1.199   8.788   6.458  0.6786  0.4185 -0.8961
 9272SOL    HW130133   1.171   8.749   6.375 -1.3270  0.2310 -0.1816
 9272SOL    HW230134   1.216   8.880   6.436 -2.5884  1.1207 -1.1000
 9273SOL     OW30135   4.405   1.259   5.891  0.6902  0.0623  0.2375
 9273SOL    HW130136   4.343   1.331   5.907  1.5063  0.4960  1.6666
 9273SOL    HW230137   4.409   1.252   5.796  0.0187  1.4193  0.0721
 9274SOL     OW30138   5.759   4.419   4.732 -0.1353 -0.0652  0.2568
 9274SOL    HW130139   5.772   4.362   4.656  0.4965  0.1579  0.1905
 9274SOL    HW230140   5.837   4.475   4.733 -0.0203 -0.2317  1.2145
 9275SOL     OW30141   9.835   8.211   2.034 -0.3650 -0.4865  0.1852
 9275SOL    HW130142   9.791   8.159   1.966 -0.1279  0.2788 -0.5781
 9275SOL    HW230143   9.846   8.298   1.994  0.6063 -0.2793  0.8599
 9276SOL     OW30144   3.201  10.411   8.425 -0.3142 -0.2978 -0.0483
 9276SOL    HW130145   3.151  10.454   8.356  0.0179 -0.2985 -0.2917
 9276SOL    HW230146   3.139  10.399   8.496 -1.0140 -1.4709 -0.8274
 9277SOL     OW30147   5.712   3.712   3.747  0.1169  0.9027  0.2881
 9277SOL    HW130148   5.651   3.772   3.704 -1.6851 -0.2440  1.1242
 9277SOL    HW230149   5.702   3.729   3.841 -0.5024 -0.7096  0.5526
 9278SOL     OW30150   7.006   9.119   3.085 -0.0254  0.5261  0.1602
 9278SOL    HW130151   7.012   9.034   3.042  0.4931  0.2752  0.7167
 9278SOL    HW230152   7.028   9.182   3.017 -3.2754  0.4979 -1.1242
 9279SOL     OW30153   6.331   9.045   2.692 -0.4284  0.2340 -0.0010
 9279SOL    HW130154   6.323   8.967   2.638  3.7369 -1.3750  1.3141
 9279SOL    HW230155   6.373   9.109   2.635  0.8087 -0.2933  0.2821
 9280SOL     OW30156   3.142   0.634   3.459  0.6405  0.8305  0.0645
 9280SOL    HW130157   3.169   0.604   3.546 -0.1698 -0.0642  0.0274
 9280SOL    HW230158   3.112   0.554   3.414 -1.7148  1.6724 -0.0011
 9281SOL     OW30159   4.117   0.390   4.398  0.1407 -0.3424 -0.4818
 9281SOL    HW130160   4.143   0.383   4.306  0.2118 -3.1613 -0.3390
 9281SOL    HW230161   4.154   0.312   4.439 -1.6808 -0.2634  1.4701
 9282SOL     OW30162   1.236   3.264   4.593  0.6198 -0.4223  0.9621
 9282SOL    HW130163   1.188   3.343   4.569  0.6907 -0.3976  0.9026
 9282SOL    HW230164   1.203   3.197   4.533 -0.5922 -0.8228  2.0371
 9283SOL     OW30165   8.960   6.712   6.633 -0.3733 -0.2218  0.5008
 9283SOL    HW130166   8.984   6.742   6.720 -0.9148 -0.8683  0.8794
 9283SOL    HW230167   8.883   6.764   6.609  0.5512  0.9034 -0.1625
 9284SOL     OW30168   9.485   8.720   0.208 -0.3894  0.4697  0.3073
 9284SOL    HW130169   9.406   8.708   0.156  0.3239  0.1553 -0.7118
 9284SOL    HW230170   9.461   8.788   0.272 -1.5419  0.2220  0.1568
 9285SOL     OW30171   4.945   0.399   2.373  0.7622  0.1942 -0.0071
 9285SOL    HW130172   4.882   0.457   2.416  1.0031 -0.3666  1.1522
 9285SOL    HW230173   5.028   0.447   2.374  1.2616 -0.6121  2.0946
 9286SOL     OW30174  10.092   0.208   1.027  0.1325 -0.8077 -0.3299
 9286SOL    HW130175  10.094   0.298   0.995 -1.0000 -0.3953  0.7098
 9286SOL    HW230176  10.118   0.214   1.119 -1.6085 -1.2941  0.2294
 9287SOL     OW30177   4.874   1.331   4.653  0.2815 -0.4548  0.3446
 9287SOL    HW130178   4.884   1.307   4.561 -0.5324  0.4606 -0.0053
 9287SOL    HW230179   4.784   1.307   4.676 -0.0346  0.7346  0.4325
 9288SOL     OW30180   1.511   5.215   8.380  0.0988  0.0347  0.1212
 9288SOL    HW130181   1.433   5.194   8.432 -0.3451 -1.9809 -1.2097
 9288SOL    HW230182   1.484   5.288   8.325  0.1226  1.2499  1.6520
 9289SOL     OW30183   7.612   0.029   0.250 -0.1687 -0.3174 -0.1606
 9289SOL    HW130184   7.636  -0.006   0.336 -1.5715 -1.5678 -0.2231
 9289SOL    HW230185   7.643   0.119   0.251  1.2745 -0.7897  1.0349
 9290SOL     OW30186  10.257   7.549   1.571 -0.1714 -0.0113  0.1100
 9290SOL    HW130187  10.179   7.538   1.626 -0.3373  0.1351 -0.0940
 9290SOL    HW230188  10.330   7.527   1.628 -0.3067  0.6236  0.5343
 9291SOL     OW30189   5.464   0.450   9.094  0.5233  0.6893 -0.1412
 9291SOL    HW130190   5.450   0.518   9.159 -1.3410  1.4266 -1.2163
 9291SOL    HW230191   5.508   0.379   9.141 -0.0811  1.4983  1.7095
 9292SOL     OW30192   6.889   5.594   2.504  0.7367  0.0970  0.0860
 9292SOL    HW130193   6.807   5.571   2.459  0.3734  0.0544  0.7558
 9292SOL    HW230194   6.958   5.558   2.448  0.2305 -1.8652  0.6537
 9293SOL     OW30195   1.699   6.966   2.981 -0.2013 -0.2659 -0.1167
 9293SOL    HW130196   1.627   6.903   2.987  1.1410 -1.9897 -1.1100
 9293SOL    HW230197   1.695   7.001   2.892  0.4547 -0.7502 -0.3489
 9294SOL     OW30198   1.107   6.310   9.396 -0.0601 -0.3040 -0.0900
 9294SOL    HW130199   1.147   6.259   9.467  1.6069  2.3881  1.0709
 9294SOL    HW230200   1.160   6.389   9.391  0.2752 -0.5423 -4.7771
 9295SOL     OW30201   7.832   4.566   8.826 -0.1893 -0.0453 -0.3368
 9295SOL    HW130202   7.778   4.636   8.863  0.8513  0.0898  1.0381
 9295SOL    HW230203   7.800   4.486   8.868  1.2605  0.1576  1.2844
 9296SOL     OW30204   2.273   3.487   8.757  0.1310  0.1659  0.0080
 9296SOL    HW130205   2.243   3.418   8.816 -2.3683  0.4458 -0.8126
 9296SOL    HW230206   2.287   3.562   8.815 -1.2559  0.1396  0.4238
 9297SOL     OW30207   1.093   3.390   4.891 -0.3676 -0.1614  0.4530
 9297SOL    HW130208   1.087   3.336   4.812 -3.3831  1.2217 -0.4369
 9297SOL    HW230209   1.185   3.387   4.916  0.0075 -3.8140 -0.8126
 9298SOL     OW30210   2.557   6.635   0.116  0.5533  0.1981  0.3243
 9298SOL    HW130211   2.483   6.612   0.172 -0.0527  1.2543 -0.0154
 9298SOL    HW230212   2.522   6.700   0.055  0.7163 -2.1622 -2.4969
 9299SOL     OW30213   3.040   0.603   3.102 -0.4248 -0.1790  0.0421
 9299SOL    HW130214   3.029   0.546   3.178 -0.1561  0.2276  0.3907
 9299SOL    HW230215   3.112   0.564   3.052 -2.2734 -1.9565 -1.4192
 9300SOL     OW30216   2.149   8.345   8.263 -0.1627  0.3810 -0.2181
 9300SOL    HW130217   2.065   8.333   8.308  0.3647  0.4830  0.8186
 9300SOL    HW230218   2.156   8.271   8.203  0.3494 -1.2997  1.8209
 9301SOL     OW30219   4.623  10.284   6.203 -0.2585 -0.4751 -0.0245
 9301SOL    HW130220   4.642  10.251   6.115 -0.5595 -1.7045  0.3540
 9301SOL    HW230221   4.532  10.311   6.200 -0.6430 -1.6680  0.2199
 9302SOL     OW30222   7.191   0.165  10.399 -0.5066 -0.6062  0.4896
 9302SOL    HW130223   7.113   0.122  10.363 -0.5474 -0.4798  0.4251
 9302SOL    HW230224   7.229   0.101  10.458 -0.3523 -0.8790  0.0990
 9303SOL     OW30225  10.183   2.433  10.227  0.2456  0.2018  0.4025
 9303SOL    HW130226  10.182   2.370  10.155 -1.2823  0.2446  0.3644
 9303SOL    HW230227  10.194   2.518  10.184 -2.2419  0.4066  0.0032
 9304SOL     OW30228   1.430   7.577   4.494 -0.0525  0.6990 -0.3504
 9304SOL    HW130229   1.355   7.517   4.493  0.0745  0.5296 -0.0080
 9304SOL    HW230230   1.503   7.522   4.522 -0.1283  1.2462  0.9695
 9305SOL     OW30231   4.408   0.289   0.618  0.2714 -0.7220 -0.5043
 9305SOL    HW130232   4.369   0.206   0.590  1.5662 -1.2857 -0.7406
 9305SOL    HW230233   4.475   0.264   0.682  0.7905  0.1190 -0.6959
 9306SOL     OW30234   9.901   0.316   5.120 -0.1479 -0.1666  0.2844
 9306SOL    HW130235   9.958   0.390   5.100 -0.6757  0.0149 -0.6380
 9306SOL    HW230236   9.956   0.239   5.105  0.0526  0.0229  0.0358
 9307SOL     OW30237   9.714   3.778   4.328 -0.9812 -0.4014  1.1256
 9307SOL    HW130238   9.722   3.817   4.414  1.7007 -0.7227  1.1100
 9307SOL    HW230239   9.755   3.692   4.337  0.9570  0.2194 -0.7987
 9308SOL     OW30240   1.765   1.905   7.556 -0.0566  0.4555 -0.5261
 9308SOL    HW130241   1.750   1.978   7.497  0.5035  0.1346 -1.0742
 9308SOL    HW230242   1.825   1.940   7.622  1.3241  0.1293 -1.5570
 9309SOL     OW30243   8.291   5.604   2.775  0.0289 -0.0652  0.0414
 9309SOL    HW130244   8.260   5.561   2.695 -1.0982  1.5227 -0.4064
 9309SOL    HW230245   8.380   5.570   2.786 -0.9727 -3.0027  0.0952
 9310SOL     OW30246   0.122   1.059   0.804  0.9435  0.2986 -0.3640
 9310SOL    HW130247   0.055   1.128   0.795  1.7367  1.1099 -0.2017
 9310SOL    HW230248   0.094   0.990   0.744 -0.4725  0.2719  0.2863
 9311SOL     OW30249   3.037  10.013   3.800 -0.8770 -0.3367  0.0560
 9311SOL    HW130250   2.994   9.933   3.830  0.5369 -1.7223 -1.4173
 9311SOL    HW230251   3.119  10.017   3.850 -0.0731 -0.8546 -1.1741
 9312SOL     OW30252   2.978   2.537   8.663 -0.2513  0.2143  0.2477
 9312SOL    HW130253   3.025   2.549   8.581 -0.4863  0.9963  0.2157
 9312SOL    HW230254   3.044   2.543   8.731 -0.0774 -0.2920  0.1285
 9313SOL     OW30255   5.414   6.994   5.167 -0.4511  0.0233  0.0979
 9313SOL    HW130256   5.380   6.972   5.081  0.4140 -1.0030 -0.0015
 9313SOL    HW230257   5.496   6.945   5.174 -1.3023 -1.2212  2.1629
 9314SOL     OW30258   8.078   8.336   5.037  0.1880 -0.0754 -0.3038
 9314SOL    HW130259   8.065   8.431   5.034 -0.2466 -0.1290 -0.1995
 9314SOL    HW230260   8.073   8.314   5.130  0.5153 -0.1719 -0.3071
 9315SOL     OW30261   3.073   3.175   4.866  0.7100  0.1142 -0.0126
 9315SOL    HW130262   3.155   3.215   4.835  0.0871  1.0401 -0.5013
 9315SOL    HW230263   3.039   3.128   4.790  0.2820  0.5729 -0.1088
 9316SOL     OW30264   8.187   6.662   9.833 -0.3140 -0.1464  0.0113
 9316SOL    HW130265   8.282   6.665   9.823 -0.0215 -5.0143 -0.7554
 9316SOL    HW230266   8.172   6.648   9.926 -0.0528 -1.8593 -0.1799
 9317SOL     OW30267   7.454   1.722   4.808 -0.0216 -0.2558 -0.3745
 9317SOL    HW130268   7.493   1.655   4.865 -0.0099  0.7522  0.8448
 9317SOL    HW230269   7.364   1.691   4.795 -0.0277 -0.5071  0.1982
 9318SOL     OW30270   1.808   5.916   4.796  0.1275 -0.4834  0.0500
 9318SOL    HW130271   1.755   5.995   4.807 -0.3746 -0.4440 -2.2247
 9318SOL    HW230272   1.896   5.942   4.825 -0.0037  0.9653 -0.7572
 9319SOL     OW30273   4.927   3.758   9.657  0.4932  0.1122 -0.2244
 9319SOL    HW130274   4.942   3.848   9.685  2.2400  1.1309 -3.8067
 9319SOL    HW230275   4.877   3.766   9.576 -0.0356 -2.2476 -0.2142
 9320SOL     OW30276   1.831   6.241   2.243  0.0337  0.0015  0.3335
 9320SOL    HW130277   1.784   6.174   2.194  0.0938  0.6328 -0.6133
 9320SOL    HW230278   1.882   6.192   2.308 -1.7722 -0.7184  1.2950
 9321SOL     OW30279   3.100   1.124   1.991 -0.7988 -0.1591  0.7591
 9321SOL    HW130280   3.064   1.168   1.915 -0.2057  0.9641  1.1114
 9321SOL    HW230281   3.188   1.160   2.000 -1.1892  0.4350  2.5291
 9322SOL     OW30282   7.253   1.806   9.511  0.5152  0.2119 -0.0192
 9322SOL    HW130283   7.319   1.836   9.450  3.0034 -1.2647  1.7283
 9322SOL    HW230284   7.206   1.736   9.464  0.8185  0.6362 -0.9691
 9323SOL     OW30285   9.732   1.328   9.303  0.6972 -0.0252 -0.4062
 9323SOL    HW130286   9.648   1.356   9.340  1.4034 -0.0601  1.3107
 9323SOL    HW230287   9.721   1.234   9.287 -0.2020  0.3114 -2.0275
 9324SOL     OW30288   5.173   3.484   1.919  0.1860 -0.1795 -0.3561
 9324SOL    HW130289   5.085   3.483   1.881 -0.0482  0.4505  0.1593
 9324SOL    HW230290   5.186   3.575   1.947  0.2109 -0.6867  1.3828
 9325SOL     OW30291   8.207   4.372   7.974  0.6146 -0.1868  0.1910
 9325SOL    HW130292   8.285   4.402   7.929  1.1267 -1.8541 -0.1143
 9325SOL    HW230293   8.238   4.302   8.032 -0.1954  1.1796  2.3706
 9326SOL     OW30294   7.037   4.315   9.999 -0.2013  0.2248  0.4676
 9326SOL    HW130295   7.000   4.239  10.044 -0.5348  0.3944  0.4821
 9326SOL    HW230296   7.128   4.291   9.982 -0.6940 -0.7668 -0.8740
 9327SOL     OW30297   7.938   8.926   8.908 -0.4604 -0.8525 -0.3473
 9327SOL    HW130298   7.917   8.962   8.822 -0.3418  0.4842  0.1683
 9327SOL    HW230299   8.019   8.969   8.933 -1.1194 -0.3395  0.9498
 9328SOL     OW30300   1.678   3.552   1.980 -0.3122 -0.0870 -0.1951
 9328SOL    HW130301   1.774   3.558   1.980 -0.2526 -0.9107 -0.1789
 9328SOL    HW230302   1.648   3.642   1.975  0.4691  0.1825 -0.0987
 9329SOL     OW30303   8.122   0.568   5.473  0.3645 -0.4130  0.3771
 9329SOL    HW130304   8.122   0.549   5.379 -0.1857 -2.0347  0.6629
 9329SOL    HW230305   8.214   0.562   5.499  0.8593  2.3165 -0.4060
 9330SOL     OW30306   4.391   8.557   5.560 -0.0122 -0.1190  0.2215
 9330SOL    HW130307   4.374   8.514   5.476 -2.8568 -0.6629  0.9631
 9330SOL    HW230308   4.383   8.651   5.541  3.4327  0.1001 -0.8303
 9331SOL     OW30309   7.574   7.525   0.432 -0.6721  0.7165  0.0256
 9331SOL    HW130310   7.589   7.558   0.520 -0.6480 -0.8510  0.6415
 9331SOL    HW230311   7.661   7.527   0.390 -0.1769 -0.8326  0.8944
 9332SOL     OW30312   9.591   5.787   5.190  0.1998 -0.1435 -0.0651
 9332SOL    HW130313   9.534   5.822   5.120 -0.3593  0.0556  0.4720
 9332SOL    HW230314   9.607   5.696   5.165  2.5383  0.6987 -2.0483
 9333SOL     OW30315   4.122   2.474   6.345 -0.0009  0.7494 -0.0187
 9333SOL    HW130316   4.144   2.491   6.436 -1.1002  1.0152  0.2113
 9333SOL    HW230317   4.074   2.552   6.317 -2.4139 -0.6113  0.1191
 9334SOL     OW30318   0.491   0.525   0.637 -0.2761 -0.1686  0.0600
 9334SOL    HW130319   0.425   0.505   0.571  0.7262 -0.3951 -0.9101
 9334SOL    HW230320   0.519   0.439   0.670  2.0608 -0.3995 -2.1389
 9335SOL     OW30321   1.485   1.521   3.095 -0.0758 -0.1551 -0.2290
 9335SOL    HW130322   1.426   1.564   3.157  0.6684  0.6071 -0.0394
 9335SOL    HW230323   1.502   1.435   3.133 -0.0195  0.1180  0.3769
 9336SOL     OW30324   1.869   8.934  10.071 -0.3036 -0.3757  0.0056
 9336SOL    HW130325   1.815   8.871  10.024  0.4042 -1.0125  0.0232
 9336SOL    HW230326   1.807   8.988  10.119 -1.0248  0.0985 -1.4076
 9337SOL     OW30327   0.018   7.098   6.559 -0.5745  0.0295 -0.1817
 9337SOL    HW130328   0.004   7.193   6.560 -0.1233  0.1074  1.1844
 9337SOL    HW230329  -0.053   7.063   6.613  0.0045 -0.2845  0.3851
 9338SOL     OW30330   5.841   0.403   2.013  0.0453 -0.0389 -0.0247
 9338SOL    HW130331   5.849   0.493   1.981 -0.3315  0.2586  0.6848
 9338SOL    HW230332   5.929   0.383   2.046  0.1972 -0.0239 -0.4124
 9339SOL     OW30333   5.056   3.650   4.199  0.7090 -0.2665 -0.2385
 9339SOL    HW130334   5.029   3.708   4.128  0.2203  0.0727  0.2207
 9339SOL    HW230335   5.152   3.649   4.195  0.7099  0.4144 -0.3689
 9340SOL     OW30336   4.607   3.016   7.342  0.2589 -0.5453  0.0568
 9340SOL    HW130337   4.633   3.067   7.265  0.4682 -2.8425 -1.4990
 9340SOL    HW230338   4.600   3.080   7.412  1.8649  1.3957 -1.4407
 9341SOL     OW30339   4.668   6.325   0.364  0.2909  0.2299 -0.5062
 9341SOL    HW130340   4.659   6.359   0.275 -2.4998  1.3321  0.0710
 9341SOL    HW230341   4.654   6.230   0.355 -0.0867  0.3462 -1.2250
 9342SOL     OW30342   8.581   5.231   9.410 -0.2753 -0.3825 -0.0257
 9342SOL    HW130343   8.555   5.242   9.501  1.9194  1.4856  0.4758
 9342SOL    HW230344   8.569   5.318   9.371  0.7159 -0.6327 -0.9507
 9343SOL     OW30345  10.445   9.920   4.732  0.5372  0.4704 -0.1800
 9343SOL    HW130346  10.458  10.013   4.712 -0.1473  0.7419  0.5910
 9343SOL    HW230347  10.369   9.894   4.681  0.8005  0.2971 -0.4874
 9344SOL     OW30348   9.615   9.933   9.515  0.3087 -0.6655  0.5009
 9344SOL    HW130349   9.665   9.855   9.488  0.0373 -0.0899 -1.8116
 9344SOL    HW230350   9.618   9.991   9.440 -0.3753  1.1665  1.8197
 9345SOL     OW30351   0.886   8.662   4.765 -0.2373  0.4199  0.1343
 9345SOL    HW130352   0.908   8.712   4.686 -0.8789  1.5435  0.6574
 9345SOL    HW230353   0.886   8.571   4.735  3.7788  0.3602 -0.2055
 9346SOL     OW30354   9.621   6.072   9.285  0.0380 -0.5583 -0.2091
 9346SOL    HW130355   9.589   6.157   9.254 -0.7600 -0.4735  0.7807
 9346SOL    HW230356   9.716   6.077   9.277  0.0101  0.5177  0.0286
 9347SOL     OW30357  10.369   9.095   5.330  0.1541 -0.3198  0.1516
 9347SOL    HW130358  10.452   9.055   5.356  0.5053 -0.5673 -1.2501
 9347SOL    HW230359  10.358   9.069   5.239 -1.7458 -0.7453  0.4608
 9348SOL     OW30360   9.142   3.322   1.081  0.2403  0.0360 -0.3648
 9348SOL    HW130361   9.179   3.389   1.139 -0.0470  0.7398 -0.9654
 9348SOL    HW230362   9.059   3.360   1.051 -0.2858 -0.9215 -0.1362
 9349SOL     OW30363   4.276   0.165   5.172 -0.1226  0.1199  0.2171
 9349SOL    HW130364   4.195   0.200   5.209 -0.2512  0.4251 -0.3452
 9349SOL    HW230365   4.252   0.079   5.138  0.3207 -0.8284  2.1158
 9350SOL     OW30366   1.618   5.534   8.542 -0.3695 -0.3083 -0.1964
 9350SOL    HW130367   1.567   5.551   8.462 -1.1089 -1.2901  0.0447
 9350SOL    HW230368   1.651   5.620   8.569 -2.5891  0.4972  0.0991
 9351SOL     OW30369   3.679   2.081   4.808  0.3454  0.0966 -0.6267
 9351SOL    HW130370   3.749   2.115   4.864 -2.0525  1.2653  1.9095
 9351SOL    HW230371   3.647   2.158   4.760 -1.4540  0.4100  0.9495
 9352SOL     OW30372   4.328   4.516   3.755 -0.2680 -0.0373 -0.7159
 9352SOL    HW130373   4.309   4.496   3.847  0.3429 -2.6622 -1.0901
 9352SOL    HW230374   4.278   4.595   3.737 -1.9856 -0.5783  1.3278
 9353SOL     OW30375   7.547   9.319   1.987  0.0442 -0.6914  0.5108
 9353SOL    HW130376   7.468   9.373   1.987 -0.2174 -1.0565 -0.6856
 9353SOL    HW230377   7.591   9.342   2.070 -0.5062  0.6765  0.4613
 9354SOL     OW30378   9.397   7.196  10.589 -0.2092 -0.2023  1.0713
 9354SOL    HW130379   9.427   7.277  10.546  0.3957 -1.0377 -0.1441
 9354SOL    HW230380   9.305   7.213  10.609 -1.0971 -0.3985 -2.3008
 9355SOL     OW30381   8.413   6.003   9.205 -0.1320 -0.4729  0.2939
 9355SOL    HW130382   8.426   6.004   9.300 -1.8099  1.5819  0.5608
 9355SOL    HW230383   8.500   5.985   9.169  1.1985  1.6885  2.1731
 9356SOL     OW30384   8.921   8.684   8.897  0.0986 -0.0286 -0.0465
 9356SOL    HW130385   8.997   8.700   8.953 -1.9152  0.0613  2.8616
 9356SOL    HW230386   8.927   8.592   8.874  1.7544  0.2839 -1.0495
 9357SOL     OW30387   4.642   8.596  10.206 -0.0839  0.4799  0.1935
 9357SOL    HW130388   4.620   8.594  10.113  0.0665  0.2174  0.1635
 9357SOL    HW230389   4.566   8.635  10.248  0.0964  1.1759 -0.1100
 9358SOL     OW30390   3.411   7.245   2.641 -0.0301  0.2834 -0.0970
 9358SOL    HW130391   3.370   7.322   2.680 -3.0450 -0.7582 -0.9401
 9358SOL    HW230392   3.366   7.234   2.557 -1.7626 -3.8506  1.1199
 9359SOL     OW30393   5.222   0.850   6.107 -0.1765  0.1434  0.6536
 9359SOL    HW130394   5.148   0.833   6.166 -0.6817 -0.5900 -0.1787
 9359SOL    HW230395   5.294   0.799   6.144 -0.4886 -0.3039  0.6573
 9360SOL     OW30396   9.194   8.825  10.518 -0.1958 -0.0487  0.4031
 9360SOL    HW130397   9.208   8.913  10.553  1.1900 -0.1942  0.2903
 9360SOL    HW230398   9.183   8.770  10.595 -3.5416  0.5049  0.4795
 9361SOL     OW30399   4.569   9.766   7.261 -0.1217 -0.3508 -0.2653
 9361SOL    HW130400   4.647   9.770   7.206 -0.6681  0.2142 -1.0338
 9361SOL    HW230401   4.599   9.790   7.348  0.6933 -0.8832 -0.3914
 9362SOL     OW30402   9.473   3.897   3.853 -0.1002 -0.4285  0.2598
 9362SOL    HW130403   9.559   3.936   3.833  0.3670 -0.2676  2.3509
 9362SOL    HW230404   9.491   3.836   3.924 -1.4099 -1.9604 -0.6768
 9363SOL     OW30405   0.559   0.094   8.282  0.1732 -0.0830  0.3766
 9363SOL    HW130406   0.480   0.041   8.273 -0.1270  0.3978  0.1431
 9363SOL    HW230407   0.627   0.044   8.238 -0.7470  1.1201 -2.6277
 9364SOL     OW30408  10.319   2.212  10.539 -0.1731  0.3952  0.2630
 9364SOL    HW130409  10.341   2.158  10.615 -0.5881 -0.7754 -0.4311
 9364SOL    HW230410  10.351   2.162  10.464 -0.8854  0.9541 -0.4215
 9365SOL     OW30411   8.256   2.999   2.793 -0.7068  0.1074  0.3094
 9365SOL    HW130412   8.205   3.041   2.723  1.3871  1.5964 -0.4130
 9365SOL    HW230413   8.235   2.906   2.785 -2.7127  0.5723 -0.4105
 9366SOL     OW30414   5.421   2.659   7.696  0.3702  0.0241  0.4909
 9366SOL    HW130415   5.467   2.590   7.744  0.2702 -0.0623  0.4644
 9366SOL    HW230416   5.426   2.633   7.604  0.6474  0.2413  0.4430
 9367SOL     OW30417   4.356   9.123   7.297  0.6758  0.3962  0.0675
 9367SOL    HW130418   4.420   9.119   7.226  0.8038 -1.7668  0.2592
 9367SOL    HW230419   4.409   9.139   7.375  0.7927  0.4001 -0.0122
 9368SOL     OW30420   4.766  10.591   4.079  0.2233 -0.8578  0.2319
 9368SOL    HW130421   4.784  10.640   3.999 -0.5930  2.3413  1.8333
 9368SOL    HW230422   4.680  10.552   4.065 -0.5150  0.7804 -0.0364
 9369SOL     OW30423   2.924   8.911   6.635 -0.6807 -0.3428 -0.6522
 9369SOL    HW130424   2.840   8.936   6.596 -1.3290 -2.1776 -0.5425
 9369SOL    HW230425   2.905   8.902   6.728  0.1342  1.0621 -0.3171
 9370SOL     OW30426   8.149   6.881   0.899 -0.1504 -0.4647 -0.1131
 9370SOL    HW130427   8.154   6.793   0.862 -1.0274 -0.5648 -0.0189
 9370SOL    HW230428   8.182   6.938   0.830 -1.4898 -0.6750 -0.9822
 9371SOL     OW30429   3.445   1.182   6.440  0.4955  0.2491  0.1328
 9371SOL    HW130430   3.360   1.196   6.399  0.7005 -1.1055 -0.8622
 9371SOL    HW230431   3.505   1.239   6.391  0.1670  1.2883  0.9092
 9372SOL     OW30432   0.154   6.386   7.858 -0.0172 -0.0256 -0.3909
 9372SOL    HW130433   0.223   6.324   7.834  0.5431  0.0416  0.9606
 9372SOL    HW230434   0.127   6.360   7.946 -1.5717  0.1012 -0.7971
 9373SOL     OW30435   0.195   3.974   7.819  0.0135 -0.1176 -0.4270
 9373SOL    HW130436   0.208   3.996   7.727  2.3261 -1.1769 -0.4179
 9373SOL    HW230437   0.281   3.984   7.860  0.2054 -4.0483  0.5901
 9374SOL     OW30438   1.554   6.901   9.556  0.1815 -0.0198  0.3674
 9374SOL    HW130439   1.459   6.904   9.570  0.2617 -0.2604  0.9586
 9374SOL    HW230440   1.590   6.958   9.623  0.6199 -1.8287  1.7391
 9375SOL     OW30441   6.244   6.174   0.423  0.1608  0.0956  0.3324
 9375SOL    HW130442   6.201   6.246   0.377  0.7761  0.6059  0.5480
 9375SOL    HW230443   6.336   6.198   0.426  0.1708  0.0165  1.7062
 9376SOL     OW30444   7.756   4.827   0.425  0.2072 -0.2340  0.0158
 9376SOL    HW130445   7.765   4.921   0.409  0.3868 -0.3033 -0.3047
 9376SOL    HW230446   7.794   4.786   0.347 -0.5761 -0.5643 -0.1958
 9377SOL     OW30447   3.475   8.160   5.436 -0.3097 -0.1566 -0.1588
 9377SOL    HW130448   3.483   8.235   5.377 -1.9470  0.3065  0.1807
 9377SOL    HW230449   3.425   8.192   5.510  1.0929 -0.9401  1.1769
 9378SOL     OW30450   3.587   6.711   7.736 -0.3102  0.1465  0.0475
 9378SOL    HW130451   3.553   6.694   7.823 -0.2463  3.3773  0.8187
 9378SOL    HW230452   3.681   6.725   7.750 -0.5292  2.0960 -0.2601
 9379SOL     OW30453   8.107   5.156  10.184 -0.4335 -0.3743 -0.1291
 9379SOL    HW130454   8.033   5.195  10.139 -1.5081 -2.5529 -0.3745
 9379SOL    HW230455   8.173   5.144  10.115 -0.0275  1.0642 -0.0182
 9380SOL     OW30456   4.338   7.590   5.476  0.7819  0.3156 -0.0031
 9380SOL    HW130457   4.307   7.502   5.495 -0.7272  1.1165  1.6172
 9380SOL    HW230458   4.354   7.629   5.563  0.1424  2.0151 -0.5888
 9381SOL     OW30459   0.032   7.827   4.636  0.2501  0.1673  0.2357
 9381SOL    HW130460  -0.021   7.826   4.716  0.6685  1.5801  0.5705
 9381SOL    HW230461   0.119   7.799   4.664  0.9285  2.5226  0.7616
 9382SOL     OW30462   8.220   4.076   4.808  0.0980  0.1527 -0.8340
 9382SOL    HW130463   8.246   4.161   4.844 -2.2720  0.4235  0.4255
 9382SOL    HW230464   8.286   4.015   4.841  0.9450  1.2381 -0.4413
 9383SOL     OW30465   5.871   2.717   0.716 -0.4396  0.0077 -0.3710
 9383SOL    HW130466   5.919   2.763   0.785 -1.6072 -0.8465  1.0792
 9383SOL    HW230467   5.859   2.628   0.751 -0.0783 -0.7999 -2.1803
 9384SOL     OW30468   8.119   5.415   2.101  0.6502  0.3483  0.3835
 9384SOL    HW130469   8.032   5.451   2.118  0.0979 -0.1964 -1.1622
 9384SOL    HW230470   8.164   5.484   2.051  0.7200  0.1855  0.2200
 9385SOL     OW30471   1.449   1.943   4.874  0.1781  0.0575  0.0951
 9385SOL    HW130472   1.518   1.989   4.826  0.8764 -0.3313  0.6967
 9385SOL    HW230473   1.449   1.984   4.960  1.3457 -1.5231  0.9063
 9386SOL     OW30474   3.087   3.957  10.266 -0.1560  0.3664 -0.0496
 9386SOL    HW130475   3.127   3.871  10.274  1.8878  1.4302  2.4969
 9386SOL    HW230476   2.993   3.939  10.268  0.1891 -1.7381  2.3653
 9387SOL     OW30477   6.163   2.316   9.096 -0.3377  0.2849 -0.1030
 9387SOL    HW130478   6.097   2.315   9.027 -0.2559  0.6181 -0.1902
 9387SOL    HW230479   6.218   2.240   9.078 -0.4888  0.2057 -0.2345
 9388SOL     OW30480   8.726   5.854   2.447  0.2243 -0.3546 -0.6476
 9388SOL    HW130481   8.677   5.909   2.386  0.4453 -1.3666 -1.7600
 9388SOL    HW230482   8.812   5.894   2.452 -0.5806  1.3574  1.2133
 9389SOL     OW30483   1.123   4.038   2.677  0.7393  0.5419 -0.1818
 9389SOL    HW130484   1.206   4.062   2.717  1.3564  1.2749 -1.8053
 9389SOL    HW230485   1.105   4.110   2.616 -0.4249 -0.2543 -0.8043
 9390SOL     OW30486   0.268   8.995   3.510 -0.3127  0.2896 -0.2792
 9390SOL    HW130487   0.220   9.077   3.521  0.6399  1.0981 -1.8086
 9390SOL    HW230488   0.288   8.991   3.417 -0.7573 -1.9575 -0.3359
 9391SOL     OW30489   7.643   3.674   2.907 -0.1814  0.1453 -0.1903
 9391SOL    HW130490   7.621   3.583   2.887  0.1897  0.1082 -0.4483
 9391SOL    HW230491   7.710   3.668   2.975  2.8538  0.0419 -2.9425
 9392SOL     OW30492   4.900   7.071   0.380  0.0953 -0.0584 -0.3775
 9392SOL    HW130493   4.879   7.127   0.304  0.8023  1.8338  0.7438
 9392SOL    HW230494   4.856   7.114   0.454  1.0565 -0.7288  0.6075
 9393SOL     OW30495   0.361   4.276   5.729 -0.1576  0.1861  0.0316
 9393SOL    HW130496   0.448   4.313   5.712  0.5054 -0.1629  2.2723
 9393SOL    HW230497   0.360   4.194   5.680  1.1964 -0.2833  0.7277
 9394SOL     OW30498   6.442   6.028   9.983  0.4527 -0.2017  0.0133
 9394SOL    HW130499   6.531   5.994   9.984  0.4746 -0.1613  0.9800
 9394SOL    HW230500   6.451   6.120   9.959  0.6804 -0.1763  0.1947
 9395SOL     OW30501   5.751   6.071   8.372 -0.3565  0.3938 -0.1062
 9395SOL    HW130502   5.793   6.007   8.431 -0.3583 -0.0883 -0.6191
 9395SOL    HW230503   5.807   6.073   8.295 -0.5937  0.6969 -0.2733
 9396SOL     OW30504   7.660   0.374   8.674  0.7819 -0.0865 -0.3138
 9396SOL    HW130505   7.572   0.410   8.685  0.6987 -0.1752 -0.6775
 9396SOL    HW230506   7.700   0.431   8.609  0.7978 -0.3960 -0.5754
 9397SOL     OW30507   3.096   2.609   5.385 -0.1326  0.6811  0.2671
 9397SOL    HW130508   3.067   2.629   5.474 -0.8014  1.0926 -0.0280
 9397SOL    HW230509   3.050   2.674   5.331  0.3496  0.5019 -0.3607
 9398SOL     OW30510   2.212  10.494   2.013 -0.7225  0.2191 -0.6128
 9398SOL    HW130511   2.162  10.412   2.018  0.0826 -0.3006 -0.8055
 9398SOL    HW230512   2.242  10.498   1.922  0.3993 -0.0018 -0.2792
 9399SOL     OW30513   2.474   0.918   9.041  0.2278  0.4060  0.0848
 9399SOL    HW130514   2.418   0.996   9.042  2.3647  2.0851 -1.2066
 9399SOL    HW230515   2.442   0.865   9.114 -1.4407  2.4170  0.9284
 9400SOL     OW30516   0.841   1.638   1.664  0.6024  0.1532 -0.5056
 9400SOL    HW130517   0.782   1.706   1.697  0.4182  0.5611 -1.6278
 9400SOL    HW230518   0.824   1.562   1.720 -2.2609 -0.2903 -1.7565
 9401SOL     OW30519   4.010   1.816   2.088 -0.2925  0.0278 -0.3121
 9401SOL    HW130520   3.953   1.773   2.153  1.5620 -1.7565  0.2385
 9401SOL    HW230521   3.967   1.800   2.004 -1.9998  1.1349  0.3075
 9402SOL     OW30522   5.954   0.646   1.145  0.1488 -0.4467 -0.8541
 9402SOL    HW130523   5.865   0.622   1.123 -0.6896  1.9474 -0.3580
 9402SOL    HW230524   6.003   0.637   1.063 -1.0773  0.3847 -1.7110
 9403SOL     OW30525   0.191   2.679   3.733  0.3217 -0.1014  0.0220
 9403SOL    HW130526   0.218   2.589   3.715 -0.9581 -0.8721  1.6551
 9403SOL    HW230527   0.230   2.699   3.817  0.6979  0.9487 -0.3867
 9404SOL     OW30528   9.829   2.991   7.976 -0.3925  0.2112  0.5118
 9404SOL    HW130529   9.900   2.932   7.952 -0.1544  0.2333  1.1459
 9404SOL    HW230530   9.863   3.041   8.050 -0.6490  1.0447  0.0719
 9405SOL     OW30531   4.842   8.767   0.095  0.5164 -0.2100  0.2452
 9405SOL    HW130532   4.913   8.791   0.036  1.0372  0.9850  1.3045
 9405SOL    HW230533   4.779   8.721   0.039  2.1690 -1.4683 -0.6870
 9406SOL     OW30534   0.108   1.817   1.638  0.0470 -0.2046  0.7834
 9406SOL    HW130535   0.118   1.734   1.684  0.1429  0.0230  1.1800
 9406SOL    HW230536   0.025   1.853   1.671 -0.8551 -0.9187 -0.6350
 9407SOL     OW30537   0.142   5.644   2.077  0.2491 -0.0221 -0.6331
 9407SOL    HW130538   0.148   5.591   2.157  1.1864 -2.6592 -2.2996
 9407SOL    HW230539   0.227   5.633   2.035  1.0887  4.1525 -0.4727
 9408SOL     OW30540   6.245   8.885   1.230  0.1987  0.1319  0.2708
 9408SOL    HW130541   6.340   8.902   1.232  0.2742 -0.3079  0.5985
 9408SOL    HW230542   6.233   8.827   1.155  0.1403  0.4684  0.0200
 9409SOL     OW30543   1.116   2.407   2.264  0.4701  0.1361 -0.3746
 9409SOL    HW130544   1.025   2.377   2.265  0.8803 -1.2457 -1.6656
 9409SOL    HW230545   1.111   2.499   2.238 -0.5745  0.2057  0.0329
 9410SOL     OW30546   9.490   8.515   1.342  0.1138 -0.3200 -0.0631
 9410SOL    HW130547   9.496   8.558   1.256 -0.0578  0.6395  0.3868
 9410SOL    HW230548   9.398   8.490   1.350 -0.0984  0.5414  0.2755
 9411SOL     OW30549   8.706   5.484   5.038  0.1071 -0.3721 -0.2327
 9411SOL    HW130550   8.759   5.514   4.963 -0.4978 -0.0222 -0.5264
 9411SOL    HW230551   8.759   5.416   5.078  1.3498  0.8152  0.2246
 9412SOL     OW30552   1.261   2.166   8.245  0.4125  0.2633 -0.7124
 9412SOL    HW130553   1.241   2.217   8.322  0.7847 -0.0677 -0.3921
 9412SOL    HW230554   1.253   2.227   8.172  1.9477  1.0788 -0.2448
 9413SOL     OW30555   2.947   3.931   6.167  0.1486  0.0769  0.1370
 9413SOL    HW130556   2.959   3.848   6.121 -0.9831  0.0234 -0.0970
 9413SOL    HW230557   3.031   3.949   6.208  0.7901 -0.5457 -0.8647
 9414SOL     OW30558   2.392   0.512   5.049 -1.0746 -0.4168  0.4214
 9414SOL    HW130559   2.321   0.461   5.089 -1.6946  1.2529  1.5628
 9414SOL    HW230560   2.405   0.471   4.963 -2.5064 -1.6017  0.7185
 9415SOL     OW30561   6.957  10.139   8.877  0.3199 -0.7503 -0.2544
 9415SOL    HW130562   7.048  10.167   8.862 -0.2052  1.0230 -0.3882
 9415SOL    HW230563   6.919  10.132   8.790 -0.2864  0.8251 -0.1494
 9416SOL     OW30564   3.397   5.210   6.035  0.2414  0.0702 -0.2916
 9416SOL    HW130565   3.367   5.295   6.002  1.2029  0.6993  0.3804
 9416SOL    HW230566   3.446   5.232   6.114 -1.8395 -1.3715  1.4947
 9417SOL     OW30567   8.148   5.133   4.108 -0.4932 -0.3815  0.1841
 9417SOL    HW130568   8.228   5.089   4.079 -1.2310 -2.0358  0.5476
 9417SOL    HW230569   8.087   5.121   4.035 -0.4352  0.8928 -0.0980
 9418SOL     OW30570   0.957   0.927   7.617 -0.4088  0.0889  0.5598
 9418SOL    HW130571   0.932   1.017   7.639  0.4262 -0.1458  2.7057
 9418SOL    HW230572   1.028   0.937   7.553 -1.4708  0.8758 -0.5475
 9419SOL     OW30573   8.020  10.053   9.117  0.3468  0.3568  0.6262
 9419SOL    HW130574   7.947  10.084   9.170  0.4029 -0.4930  1.2204
 9419SOL    HW230575   8.077  10.129   9.106 -0.3744  0.8972  0.5771
 9420SOL     OW30576   6.443   5.177   0.662 -0.4232 -0.0809  0.1436
 9420SOL    HW130577   6.480   5.263   0.684 -1.4866  0.0797  1.3791
 9420SOL    HW230578   6.517   5.129   0.624  0.3363  1.1707 -0.0342
 9421SOL     OW30579   5.780   7.453   0.574 -0.5120  0.3206 -0.0694
 9421SOL    HW130580   5.833   7.382   0.538 -1.2728  0.0009 -0.5851
 9421SOL    HW230581   5.698   7.449   0.525 -1.8287 -0.4940  2.0721
 9422SOL     OW30582   1.190   5.733   8.836  0.3390  0.3517 -0.2434
 9422SOL    HW130583   1.279   5.730   8.802  0.3599  0.4882 -0.2005
 9422SOL    HW230584   1.185   5.814   8.886 -0.2182  1.0406 -1.3811
 9423SOL     OW30585   2.598   6.776   6.825 -0.6113  0.0822 -0.0939
 9423SOL    HW130586   2.567   6.755   6.913  0.4967 -2.2529 -0.1918
 9423SOL    HW230587   2.526   6.750   6.767 -1.1461  1.1587  0.0726
 9424SOL     OW30588   8.656   3.513   5.740  0.3601 -0.3566  0.6141
 9424SOL    HW130589   8.609   3.596   5.732  0.8051 -0.0225  1.4209
 9424SOL    HW230590   8.605   3.452   5.687  0.0951  0.4534 -0.0914
 9425SOL     OW30591   4.484   7.392   5.274  0.6120  0.1219  0.3387
 9425SOL    HW130592   4.547   7.349   5.215  1.2587  0.3650  0.8459
 9425SOL    HW230593   4.417   7.325   5.288  1.3650 -0.5735  0.7383
 9426SOL     OW30594   2.186   7.544   4.298 -0.3088 -0.3355 -0.0179
 9426SOL    HW130595   2.142   7.503   4.372 -2.8679 -1.3495 -1.9732
 9426SOL    HW230596   2.140   7.627   4.286  0.4528  0.0780 -0.1933
 9427SOL     OW30597   2.477   6.775   4.721  0.7468  0.1969  0.5354
 9427SOL    HW130598   2.401   6.719   4.732 -2.0476  3.4790 -0.2743
 9427SOL    HW230599   2.483   6.790   4.626  1.0609  1.6288  0.7567
 9428SOL     OW30600   2.812   8.501  10.318  0.2165  0.3240 -0.2624
 9428SOL    HW130601   2.792   8.584  10.276 -0.8967  0.7422  1.0256
 9428SOL    HW230602   2.890   8.518  10.371  0.1698  0.4595 -0.2388
 9429SOL     OW30603   1.224   6.365   2.835 -0.0511 -0.1332  0.1794
 9429SOL    HW130604   1.224   6.449   2.790  0.5163  0.2714  0.9112
 9429SOL    HW230605   1.173   6.380   2.915  0.7032 -0.2567  0.6975
 9430SOL     OW30606   9.695   2.976   9.026  0.2706 -0.2634 -0.3565
 9430SOL    HW130607   9.680   2.934   9.111  2.0588  1.4338  0.8746
 9430SOL    HW230608   9.621   3.036   9.015  0.2091 -0.2422  0.1713
 9431SOL     OW30609  10.280   1.423   9.193  0.4283  0.5434 -0.2174
 9431SOL    HW130610  10.370   1.451   9.178  0.7037  0.1734  0.6427
 9431SOL    HW230611  10.230   1.504   9.194  0.0862  0.5784 -4.4106
 9432SOL     OW30612   9.552   8.146   1.207 -0.2447 -0.0191 -0.0389
 9432SOL    HW130613   9.571   8.235   1.179 -2.5410  0.2453 -1.0019
 9432SOL    HW230614   9.615   8.092   1.159  1.3037  1.0542  0.7034
 9433SOL     OW30615   1.209   9.283   4.667 -0.5317  0.3105 -0.1318
 9433SOL    HW130616   1.273   9.347   4.697 -0.2138 -0.5818  1.1900
 9433SOL    HW230617   1.262   9.209   4.636 -0.9017  0.3367 -0.8445
 9434SOL     OW30618   1.317   3.408   2.762 -0.1421  0.1259 -0.0940
 9434SOL    HW130619   1.314   3.313   2.776  3.6874 -0.0467  0.5759
 9434SOL    HW230620   1.370   3.419   2.684 -2.2026  1.7889 -1.3858
 9435SOL     OW30621   7.291   9.616   9.129  0.6039 -0.0028  0.7763
 9435SOL    HW130622   7.211   9.626   9.077  0.3715 -0.7189  0.9832
 9435SOL    HW230623   7.330   9.704   9.131  0.7374  0.0033 -0.7960
 9436SOL     OW30624  10.574   6.137   7.723 -0.6435  0.4042 -0.2732
 9436SOL    HW130625  10.668   6.131   7.705 -0.5344  1.4831 -0.1388
 9436SOL    HW230626  10.558   6.068   7.787  0.1855  0.5846  0.1556
 9437SOL     OW30627   1.661   5.130   3.514 -0.4394  0.1429 -0.2976
 9437SOL    HW130628   1.638   5.037   3.508 -0.5886  0.1283  0.4266
 9437SOL    HW230629   1.657   5.150   3.607 -2.5162  1.4081 -0.5784
 9438SOL     OW30630   5.489   0.621   4.780  0.1961  0.4059  0.1060
 9438SOL    HW130631   5.446   0.565   4.715 -2.6628  1.4774  0.9328
 9438SOL    HW230632   5.574   0.641   4.741 -0.7666 -0.2495 -2.5880
 9439SOL     OW30633   0.921  10.285   8.654 -0.6441 -0.4399  0.0392
 9439SOL    HW130634   0.944  10.288   8.747 -1.6436 -1.0108  0.3217
 9439SOL    HW230635   0.967  10.359   8.615  2.0266 -1.7704  0.4694
 9440SOL     OW30636   9.297   7.266   3.680  0.6260 -0.6113  0.3213
 9440SOL    HW130637   9.249   7.310   3.750 -0.7068 -2.4286  0.5989
 9440SOL    HW230638   9.379   7.316   3.673 -0.0945  0.8722  1.7252
 9441SOL     OW30639   0.898   2.519   9.301 -0.7189 -0.0297 -0.1799
 9441SOL    HW130640   0.917   2.571   9.223 -2.1770  0.0285 -0.5224
 9441SOL    HW230641   0.803   2.524   9.311 -0.6905 -1.0855  0.8686
 9442SOL     OW30642   5.480   4.823   9.956  0.3322  0.3443 -0.0098
 9442SOL    HW130643   5.427   4.901   9.974 -0.4025 -0.5481  1.9665
 9442SOL    HW230644   5.534   4.812  10.034  1.7919 -0.1050 -1.0409
 9443SOL     OW30645   7.855   4.897   5.460  0.3779  0.1117  0.3867
 9443SOL    HW130646   7.895   4.959   5.399  0.8377  0.3938  0.9684
 9443SOL    HW230647   7.847   4.816   5.409  0.9180  0.2960 -0.0029
 9444SOL     OW30648   5.435  10.003   3.930 -0.1820  0.0292 -0.1630
 9444SOL    HW130649   5.416   9.916   3.964  1.0778  0.0848  0.7342
 9444SOL    HW230650   5.425   9.994   3.835  0.1454 -1.1577 -0.1028
 9445SOL     OW30651   3.627   6.380  10.267 -0.0957  0.9273 -0.1310
 9445SOL    HW130652   3.593   6.458  10.310 -0.5581  0.8871 -0.4148
 9445SOL    HW230653   3.548   6.330  10.243 -0.1037  2.4913 -3.9896
 9446SOL     OW30654   4.486   8.530   5.862 -0.3122  0.2742  0.0422
 9446SOL    HW130655   4.493   8.441   5.827  2.2063  0.0594  0.9013
 9446SOL    HW230656   4.488   8.587   5.785  0.1767 -0.3365 -0.4013
 9447SOL     OW30657   0.954   8.729   4.465  0.4031 -0.8154  0.1303
 9447SOL    HW130658   0.914   8.761   4.384 -1.3460 -1.2332  0.7807
 9447SOL    HW230659   1.014   8.799   4.491 -0.9111  0.4863 -0.2038
 9448SOL     OW30660   0.463   1.375   2.502  0.2749 -0.2333  0.4517
 9448SOL    HW130661   0.458   1.318   2.579  1.0490  0.0725  0.7380
 9448SOL    HW230662   0.539   1.431   2.519  0.8257 -0.5739 -0.8055
 9449SOL     OW30663   5.957   6.849   4.968  0.2789  0.9683  0.0625
 9449SOL    HW130664   5.864   6.829   4.953  0.5521 -0.4942  0.1410
 9449SOL    HW230665   5.956   6.930   5.018 -1.0498  0.0195  1.6987
 9450SOL     OW30666   4.436   1.010   2.996  0.1729  0.2864 -0.0409
 9450SOL    HW130667   4.387   0.950   2.941  1.5253 -0.8058 -0.1250
 9450SOL    HW230668   4.370   1.069   3.032 -0.8861  0.3473 -1.9344
 9451SOL     OW30669   4.818   6.819   3.556  0.4209 -0.2053 -0.1444
 9451SOL    HW130670   4.829   6.806   3.650  2.8274  0.4379 -0.2880
 9451SOL    HW230671   4.889   6.878   3.531 -1.2216  1.1052 -2.0850
 9452SOL     OW30672   0.646   6.877   3.461  0.7132 -0.7557 -0.1680
 9452SOL    HW130673   0.614   6.787   3.453 -0.6320 -0.1924 -1.5659
 9452SOL    HW230674   0.722   6.881   3.403  1.0322 -1.0818  0.2185
 9453SOL     OW30675   4.136   0.568   2.147 -0.0501 -0.0205 -0.4791
 9453SOL    HW130676   4.136   0.480   2.107  0.7073 -0.3548  0.2126
 9453SOL    HW230677   4.209   0.613   2.105  0.9889 -0.4986  0.7352
 9454SOL     OW30678   8.655   8.934   9.228 -0.5021  0.8696  0.1883
 9454SOL    HW130679   8.696   8.956   9.312 -1.1181  1.6844  0.2891
 9454SOL    HW230680   8.639   9.019   9.187 -2.7829  0.6391  0.4987
 9455SOL     OW30681   2.376   3.481   9.232 -0.2959 -0.2021 -0.5130
 9455SOL    HW130682   2.410   3.399   9.197  1.6880  0.3844 -0.0496
 9455SOL    HW230683   2.416   3.489   9.318 -1.1191  0.8686 -0.2087
 9456SOL     OW30684   1.165   8.955   1.468 -0.0521  0.1549 -0.3474
 9456SOL    HW130685   1.168   9.029   1.408  0.0085  1.1887  0.8721
 9456SOL    HW230686   1.099   8.897   1.432  0.3528  0.4907 -1.6795
 9457SOL     OW30687   1.466  10.280  10.242  0.1067 -0.1455 -0.4878
 9457SOL    HW130688   1.518  10.257  10.319 -1.2870 -0.5349  0.3744
 9457SOL    HW230689   1.469  10.375  10.237 -0.1660 -0.0892  0.3316
 9458SOL     OW30690   2.196   6.374   1.792  0.1084  0.1358  0.3040
 9458SOL    HW130691   2.290   6.390   1.800  0.0771 -0.4448  2.2588
 9458SOL    HW230692   2.160   6.458   1.762  1.1521  0.6114  0.3397
 9459SOL     OW30693   5.854   6.965   2.248 -1.0029  0.3043 -0.4787
 9459SOL    HW130694   5.874   6.963   2.342  0.1577  1.0333 -0.6941
 9459SOL    HW230695   5.930   6.927   2.206 -1.1496  0.7558 -1.1740
 9460SOL     OW30696   3.982   3.506   4.788 -0.4382  0.2600  0.2966
 9460SOL    HW130697   4.011   3.569   4.854  1.5821 -1.5711  1.3047
 9460SOL    HW230698   4.063   3.472   4.750 -1.5134  0.7320 -2.7367
 9461SOL     OW30699  10.512   5.566   6.810  0.5424  0.2861 -0.0019
 9461SOL    HW130700  10.578   5.560   6.741 -0.5222 -1.6767 -0.9173
 9461SOL    HW230701  10.429   5.573   6.763 -0.1541 -0.4605  1.0918
 9462SOL     OW30702   6.476   8.063   2.187 -0.3805  0.2861 -0.1044
 9462SOL    HW130703   6.418   8.074   2.262 -1.9510 -1.0417 -1.0500
 9462SOL    HW230704   6.545   8.004   2.218 -2.0721 -1.8680 -0.1439
 9463SOL     OW30705  10.232   9.834   7.159 -0.1133 -0.2065 -0.1475
 9463SOL    HW130706  10.247   9.749   7.117  3.9687  0.8721 -1.3712
 9463SOL    HW230707  10.176   9.882   7.099 -0.1363 -1.0847 -0.8386
 9464SOL     OW30708   4.867   2.884   8.308  0.1493 -0.3809 -0.0392
 9464SOL    HW130709   4.887   2.901   8.399 -0.4382 -0.2400  0.0669
 9464SOL    HW230710   4.913   2.952   8.259 -2.6482  1.9927  0.4079
 9465SOL     OW30711   4.281  10.092   2.145  0.1835 -0.0853 -0.0054
 9465SOL    HW130712   4.376  10.098   2.152  0.2995 -1.4746 -0.0038
 9465SOL    HW230713   4.259  10.150   2.072  1.1163 -0.2786 -0.4569
 9466SOL     OW30714   3.907   5.952   2.303  0.2350  0.4764  0.3980
 9466SOL    HW130715   3.889   6.031   2.252  1.8424  0.7741  0.2310
 9466SOL    HW230716   3.872   5.880   2.250 -1.1033  1.0354  0.4835
 9467SOL     OW30717   3.399   9.396   1.071 -0.4081 -0.5176  0.2078
 9467SOL    HW130718   3.379   9.489   1.064 -2.3678 -0.8443  0.8589
 9467SOL    HW230719   3.348   9.355   1.001  1.3102 -1.0277 -0.8022
 9468SOL     OW30720   9.995   3.185   5.126 -0.1634  0.1414 -0.1800
 9468SOL    HW130721  10.008   3.102   5.172  0.9990  0.8212  0.7759
 9468SOL    HW230722  10.074   3.235   5.144  0.4243  0.4177 -3.0653
 9469SOL     OW30723   4.030   7.761   2.970  0.3211 -0.0300  0.1916
 9469SOL    HW130724   4.091   7.688   2.972 -0.8508 -1.0317  0.8326
 9469SOL    HW230725   4.064   7.823   3.035  1.1997 -0.0972 -0.1968
 9470SOL     OW30726   4.470   8.624   8.995  0.0367 -0.4394  0.1125
 9470SOL    HW130727   4.382   8.590   8.978 -0.2758 -0.1071  1.0147
 9470SOL    HW230728   4.524   8.584   8.927 -1.1246  0.7695 -1.5910
 9471SOL     OW30729   2.335   8.958   3.591  0.0652 -0.6817 -0.4280
 9471SOL    HW130730   2.376   9.040   3.565  0.5661 -0.5053  0.8490
 9471SOL    HW230731   2.385   8.929   3.667  0.6856 -2.8267 -1.5737
 9472SOL     OW30732   0.644   0.830   8.510 -0.4111  0.1986 -0.5101
 9472SOL    HW130733   0.688   0.887   8.447 -1.2051  0.0503 -1.2191
 9472SOL    HW230734   0.585   0.777   8.456 -1.5977  0.5352  0.4308
 9473SOL     OW30735   6.259   7.725   2.239 -0.0188  0.5955  0.4697
 9473SOL    HW130736   6.203   7.801   2.223  2.3964  2.4110  0.2345
 9473SOL    HW230737   6.245   7.669   2.163 -1.0154  1.2840  0.1210
 9474SOL     OW30738   3.413   4.312   9.858  0.0366 -0.1020  0.4550
 9474SOL    HW130739   3.401   4.218   9.848 -1.0351  0.1304 -0.7282
 9474SOL    HW230740   3.448   4.323   9.946  2.1972 -1.7409 -0.1244
 9475SOL     OW30741   7.830   6.328   9.600  0.0672  0.2078  0.1396
 9475SOL    HW130742   7.900   6.389   9.624  1.3308 -0.8663 -0.7006
 9475SOL    HW230743   7.819   6.273   9.678  2.4735 -1.6965 -0.7325
 9476SOL     OW30744   7.622   3.882   9.299  0.0214 -0.1673 -0.2497
 9476SOL    HW130745   7.711   3.916   9.298 -0.5471  1.4249  0.0140
 9476SOL    HW230746   7.630   3.792   9.270  1.6634  0.0753 -0.6291
 9477SOL     OW30747   4.861   5.710   1.985  0.0178 -0.2328  0.1438
 9477SOL    HW130748   4.867   5.787   2.040 -0.1629  0.5005 -0.8368
 9477SOL    HW230749   4.774   5.675   2.001 -0.3312  0.4349 -0.2579
 9478SOL     OW30750   2.336   0.125   8.975  0.3631 -0.0509  0.5341
 9478SOL    HW130751   2.293   0.164   9.051  0.5829  1.0063  0.1268
 9478SOL    HW230752   2.341   0.031   8.995 -2.8751 -0.3816  0.2634
 9479SOL     OW30753   1.507   7.948   7.310  0.1510  0.5643 -0.1260
 9479SOL    HW130754   1.412   7.938   7.321 -0.1200 -0.6666 -2.7803
 9479SOL    HW230755   1.517   8.034   7.271 -0.0058  0.2549 -0.8653
 9480SOL     OW30756   9.328   2.331   6.584 -0.1080  0.4643 -0.9263
 9480SOL    HW130757   9.337   2.244   6.624 -0.0973  1.0688  0.4516
 9480SOL    HW230758   9.407   2.341   6.531 -0.4027 -0.5984 -1.5889
 9481SOL     OW30759   0.429   5.458   1.763  0.0350 -0.1232  0.2263
 9481SOL    HW130760   0.383   5.473   1.846  1.9932 -0.2455  1.3946
 9481SOL    HW230761   0.359   5.441   1.700 -1.4923 -2.6543  2.3835
 9482SOL     OW30762   3.030   5.232   1.947  0.4994 -0.1861 -0.5316
 9482SOL    HW130763   3.098   5.189   1.894  0.3288 -0.9009 -0.1800
 9482SOL    HW230764   2.952   5.179   1.932  0.5509 -0.6531  0.7621
 9483SOL     OW30765   4.721   4.415   4.348  0.0966  0.1365  0.2287
 9483SOL    HW130766   4.771   4.340   4.314  2.4478  1.9084 -0.4775
 9483SOL    HW230767   4.680   4.382   4.428  1.5453 -1.7488  0.2596
 9484SOL     OW30768   0.029   2.362  10.176 -0.6998  0.1073 -0.3951
 9484SOL    HW130769   0.002   2.346  10.086 -2.4140 -1.0751  0.2760
 9484SOL    HW230770  -0.053   2.363  10.226  0.2652 -0.2021  1.2768
 9485SOL     OW30771   2.298   5.599   7.544  0.3126  0.0024  0.5120
 9485SOL    HW130772   2.365   5.667   7.553 -0.1073  0.2460  2.0305
 9485SOL    HW230773   2.217   5.647   7.527 -0.3840  0.1207  3.6055
 9486SOL     OW30774   6.685   4.325   6.260 -0.3693 -0.1008 -0.4589
 9486SOL    HW130775   6.691   4.333   6.165  0.7117 -2.8409 -0.7052
 9486SOL    HW230776   6.771   4.354   6.292 -0.3474 -0.2180 -0.4112
 9487SOL     OW30777   0.897   8.936   8.817 -0.3195 -0.2332 -0.5584
 9487SOL    HW130778   0.832   8.880   8.774 -1.1472 -0.2989  0.7408
 9487SOL    HW230779   0.967   8.876   8.842 -1.7385 -0.9875  1.9020
 9488SOL     OW30780   4.103   9.273   4.124 -0.2409  0.0410 -0.5283
 9488SOL    HW130781   4.086   9.339   4.056  1.3383  1.5563  0.4759
 9488SOL    HW230782   4.198   9.265   4.126 -0.2961 -0.5132  1.0165
 9489SOL     OW30783   3.391   0.854   0.555  0.5816  0.3304 -0.0361
 9489SOL    HW130784   3.461   0.831   0.495  0.4704 -0.4904  0.1454
 9489SOL    HW230785   3.417   0.940   0.590 -0.7868  2.3555 -3.4492
 9490SOL     OW30786   5.242  10.549   7.115  0.0428 -0.3773  0.4961
 9490SOL    HW130787   5.300  10.596   7.176  0.7443 -0.4673 -0.0920
 9490SOL    HW230788   5.154  10.574   7.142  0.2253 -1.9978  2.8945
 9491SOL     OW30789   4.850   3.461   3.096  0.0061 -0.5674 -0.3787
 9491SOL    HW130790   4.806   3.516   3.160  1.2341 -1.3892  1.2339
 9491SOL    HW230791   4.872   3.381   3.143  2.7507 -0.4009 -1.2123
 9492SOL     OW30792   9.923   3.566   4.421  0.1603  0.4015 -0.1879
 9492SOL    HW130793   9.962   3.532   4.502  0.9582  1.6701 -0.0107
 9492SOL    HW230794   9.998   3.593   4.368 -0.1813 -2.4997 -2.3915
 9493SOL     OW30795   3.866   8.300   0.157 -0.5377  1.0051  0.3510
 9493SOL    HW130796   3.935   8.278   0.220  0.3589  0.8664 -0.6511
 9493SOL    HW230797   3.818   8.372   0.198  0.1279  1.0211  1.1243
 9494SOL     OW30798   3.933   5.608   8.168 -0.4737 -0.6863 -0.1671
 9494SOL    HW130799   3.866   5.615   8.237  0.1057 -2.9179  0.7092
 9494SOL    HW230800   3.955   5.699   8.147 -2.2735  0.0869  0.9816
 9495SOL     OW30801   5.045   6.238   6.703 -0.0120  0.1579  0.4257
 9495SOL    HW130802   5.080   6.300   6.639 -1.4451  1.9024  1.2562
 9495SOL    HW230803   5.073   6.152   6.670  0.3149  1.0665 -1.8876
 9496SOL     OW30804   7.333   9.989   0.254 -0.2328  0.1205  0.1036
 9496SOL    HW130805   7.373  10.075   0.240  0.6111  0.0976  2.0372
 9496SOL    HW230806   7.240  10.004   0.243 -0.0919  1.2900  0.3534
 9497SOL     OW30807   9.835   8.532   5.353 -0.2842 -0.2724  0.0792
 9497SOL    HW130808   9.808   8.470   5.420  0.3235  1.0117  1.5779
 9497SOL    HW230809   9.753   8.570   5.320 -0.5659 -0.2635  0.7657
 9498SOL     OW30810   1.839   3.853  10.090  0.4579  0.3662  0.3087
 9498SOL    HW130811   1.890   3.772  10.089 -0.1924 -0.0367 -0.0594
 9498SOL    HW230812   1.902   3.920  10.064  0.6191 -0.2395 -0.9294
 9499SOL     OW30813   0.282   0.781   4.663  0.5056  0.0025 -0.2844
 9499SOL    HW130814   0.366   0.812   4.696  1.2669  0.5554 -2.5647
 9499SOL    HW230815   0.256   0.846   4.597  0.3806 -2.2492 -2.6183
 9500SOL     OW30816   1.704   9.417   4.343 -0.8090 -0.8072  0.4714
 9500SOL    HW130817   1.718   9.499   4.391 -1.0774 -1.7704  2.2813
 9500SOL    HW230818   1.656   9.444   4.265  1.1750  1.0520 -0.2075
 9501SOL     OW30819   6.951   3.769  10.015  0.2110 -0.3018 -0.8494
 9501SOL    HW130820   6.971   3.676  10.019  0.1104 -0.2944  0.0949
 9501SOL    HW230821   6.897   3.786  10.093  2.1836  1.0053  0.3175
 9502SOL     OW30822   8.627   7.201   7.409 -0.3174 -0.2399  0.1834
 9502SOL    HW130823   8.711   7.248   7.401  0.7902 -1.0407  4.7145
 9502SOL    HW230824   8.644   7.115   7.371  0.2835  0.1879 -0.5617
 9503SOL     OW30825   6.531   5.911   4.687 -0.1409  0.2047 -0.0897
 9503SOL    HW130826   6.614   5.959   4.691 -0.0852  0.0586  2.4611
 9503SOL    HW230827   6.533   5.867   4.602  1.8075  1.2180 -0.6328
 9504SOL     OW30828   0.578   7.885   2.769 -0.3651 -0.2151 -0.5338
 9504SOL    HW130829   0.484   7.886   2.790 -0.1978  0.1187  0.2519
 9504SOL    HW230830   0.589   7.810   2.711 -0.9854 -0.7525  0.0212
 9505SOL     OW30831   8.377   0.680   0.994 -0.2779  0.2564  0.3174
 9505SOL    HW130832   8.430   0.706   1.069 -2.0016 -0.4828  1.8778
 9505SOL    HW230833   8.379   0.584   0.996 -0.1218  0.2310 -0.7588
 9506SOL     OW30834   5.475   0.665   6.704  0.5453 -0.4080 -0.2937
 9506SOL    HW130835   5.545   0.653   6.768 -1.9224  1.6143  3.1254
 9506SOL    HW230836   5.419   0.732   6.742 -1.3013  0.8378 -4.6160
 9507SOL     OW30837   6.984   3.573   2.169  0.2596 -0.0632  0.3017
 9507SOL    HW130838   6.986   3.570   2.264 -2.6329  1.0047  0.4941
 9507SOL    HW230839   6.997   3.482   2.142 -0.0249 -0.5599  1.7583
 9508SOL     OW30840   1.053   0.112   3.285 -0.0793  0.2491 -0.5187
 9508SOL    HW130841   1.031   0.185   3.344 -0.8617 -0.3420 -0.0584
 9508SOL    HW230842   0.971   0.094   3.239 -0.1973 -1.0749  0.1825
 9509SOL     OW30843   5.898   1.741   9.636  0.0421  0.2467 -0.1696
 9509SOL    HW130844   5.890   1.789   9.718  0.8241 -0.4400  0.3343
 9509SOL    HW230845   5.848   1.792   9.573 -0.4280  0.8822  0.6937
 9510SOL     OW30846   6.961   9.120   0.178 -0.4317 -0.2341  0.6821
 9510SOL    HW130847   7.045   9.075   0.181 -0.2021 -0.3363 -3.0283
 9510SOL    HW230848   6.983   9.211   0.158 -1.1786 -0.0886  0.4857
 9511SOL     OW30849   3.676   5.486   8.650  0.5560  0.4500 -0.2171
 9511SOL    HW130850   3.601   5.505   8.593  1.5193  0.2154 -1.6146
 9511SOL    HW230851   3.654   5.527   8.733  0.0620  2.8140 -1.4211
 9512SOL     OW30852   3.518   1.227   7.696 -0.7328  0.2153  0.2232
 9512SOL    HW130853   3.576   1.168   7.648 -1.3401  0.9904 -1.5798
 9512SOL    HW230854   3.568   1.254   7.773  1.2557  0.7359 -1.1908
 9513SOL     OW30855   0.620   3.936   1.741  0.2253 -0.0990  0.5409
 9513SOL    HW130856   0.581   3.996   1.806  0.4203 -1.3062  1.8185
 9513SOL    HW230857   0.572   3.954   1.660 -0.7296  0.7404  1.2615
 9514SOL     OW30858   2.418   1.184   8.616 -0.0152  0.0633 -0.1174
 9514SOL    HW130859   2.349   1.186   8.683 -0.8533  0.7013 -0.9732
 9514SOL    HW230860   2.496   1.157   8.664 -0.5786  0.5698  1.1457
 9515SOL     OW30861   2.504   9.271   2.898  0.3242  0.3504  0.4631
 9515SOL    HW130862   2.410   9.266   2.917  0.4994 -0.0340  1.2758
 9515SOL    HW230863   2.539   9.187   2.928  0.0710 -2.2540 -5.3385
 9516SOL     OW30864   2.615   7.107   2.493 -0.1747  0.5564  0.2683
 9516SOL    HW130865   2.638   7.114   2.586 -2.3312  2.0490  0.7518
 9516SOL    HW230866   2.520   7.102   2.492 -0.1388 -3.5579 -1.7058
 9517SOL     OW30867   9.204   3.604   2.032  0.1495 -0.5374 -0.2123
 9517SOL    HW130868   9.167   3.645   2.110 -0.2992 -2.5729  0.7132
 9517SOL    HW230869   9.297   3.593   2.053  0.3696  0.4113 -0.6576
 9518SOL     OW30870   3.684   9.075   4.918  0.3481  0.2793  0.4056
 9518SOL    HW130871   3.772   9.058   4.953  0.5278  1.1094  0.3770
 9518SOL    HW230872   3.627   9.016   4.967  0.8012  0.4029  1.0936
 9519SOL     OW30873   6.190   8.946   4.366  0.1199 -0.7491 -0.4618
 9519SOL    HW130874   6.246   8.955   4.443 -1.8027 -1.6474  1.1548
 9519SOL    HW230875   6.177   9.035   4.334  1.6932 -0.4539 -0.3420
 9520SOL     OW30876   2.638   6.488   6.523  0.8634 -0.3796  0.0192
 9520SOL    HW130877   2.667   6.575   6.551 -0.6043  0.3650 -0.6583
 9520SOL    HW230878   2.708   6.457   6.465  1.9014 -0.1410  1.0794
 9521SOL     OW30879   5.025   7.901   0.996 -0.2411  0.0982  0.4132
 9521SOL    HW130880   4.933   7.883   0.977 -0.0287 -1.2575  0.5798
 9521SOL    HW230881   5.052   7.962   0.927 -1.2712  0.5308  0.3833
 9522SOL     OW30882   6.489   8.768   2.150  0.1963  0.7394 -0.1319
 9522SOL    HW130883   6.407   8.818   2.143  0.1333  0.6413 -0.0916
 9522SOL    HW230884   6.529   8.801   2.231 -0.0119  0.4789  0.0800
 9523SOL     OW30885   1.232   8.652   7.106  0.5710  0.0528  0.2938
 9523SOL    HW130886   1.162   8.600   7.143  0.6885 -0.2339  0.1129
 9523SOL    HW230887   1.198   8.742   7.106  1.1926  0.3534  2.6844
 9524SOL     OW30888   4.523   3.807   4.215  0.2654  0.4398 -0.2140
 9524SOL    HW130889   4.580   3.741   4.253 -0.9938 -0.5004  0.1322
 9524SOL    HW230890   4.528   3.792   4.120 -0.9362 -1.0161 -0.0944
 9525SOL     OW30891   7.603   8.235   3.195  0.1442  0.4890  0.7443
 9525SOL    HW130892   7.667   8.306   3.204  0.9433 -0.3757  2.1264
 9525SOL    HW230893   7.617   8.179   3.271 -1.5647 -0.3008  0.5393
 9526SOL     OW30894   6.521   5.532   9.874  0.5942  0.5966 -0.1678
 9526SOL    HW130895   6.454   5.471   9.903  1.2733  0.0466  0.2608
 9526SOL    HW230896   6.513   5.607   9.933  1.6135 -0.2842  1.1502
 9527SOL     OW30897   3.376   3.024   1.775 -0.1699  0.0052 -0.3968
 9527SOL    HW130898   3.431   2.947   1.787  1.4211  1.1486 -0.0294
 9527SOL    HW230899   3.381   3.070   1.859 -3.0346 -0.6333  0.2450
 9528SOL     OW30900   5.333   1.379   5.730 -0.1454  0.0226 -0.2319
 9528SOL    HW130901   5.410   1.392   5.785 -0.1912 -0.9869  0.1041
 9528SOL    HW230902   5.286   1.307   5.772 -0.2244 -0.7315 -1.5383
 9529SOL     OW30903   5.667   4.809   4.816 -0.0350  0.2461  0.3810
 9529SOL    HW130904   5.651   4.732   4.871  1.2563  0.6550  1.3705
 9529SOL    HW230905   5.643   4.780   4.728 -1.7104 -0.5667  1.0614
 9530SOL     OW30906   6.107   2.106   7.358  0.1874  0.1389  0.1692
 9530SOL    HW130907   6.067   2.063   7.282  2.1210  1.2834 -1.6178
 9530SOL    HW230908   6.170   2.042   7.391  0.2068  0.0942  0.0458
 9531SOL     OW30909   2.921   9.291   7.066  0.7698 -0.2654 -0.2251
 9531SOL    HW130910   2.855   9.236   7.023 -0.7375 -0.4295  2.1064
 9531SOL    HW230911   2.895   9.380   7.045  0.4984 -0.3576 -0.2934
 9532SOL     OW30912   2.664   9.482   3.378 -0.3178  0.8700  0.3054
 9532SOL    HW130913   2.638   9.548   3.314 -2.4268  0.0143  0.2009
 9532SOL    HW230914   2.602   9.410   3.366  0.7877 -0.3827  1.6292
 9533SOL     OW30915   9.563   1.811   3.216 -0.1234 -0.4578 -0.8447
 9533SOL    HW130916   9.503   1.859   3.273 -2.0423 -1.5773 -1.7886
 9533SOL    HW230917   9.533   1.831   3.127  1.6946 -0.1225 -1.4241
 9534SOL     OW30918   4.923   0.104   1.296  0.4545 -0.0647 -0.0392
 9534SOL    HW130919   4.923   0.166   1.223  1.4723  1.8690  1.5205
 9534SOL    HW230920   5.015   0.100   1.323 -0.1846  0.9890  2.5084
 9535SOL     OW30921   2.730   3.122   1.194  0.0341 -0.0774 -0.0032
 9535SOL    HW130922   2.699   3.114   1.104  1.6592 -1.2882 -0.5120
 9535SOL    HW230923   2.765   3.036   1.215  0.9937  0.5888  1.2888
 9536SOL     OW30924   6.649   2.655   9.556 -0.3143 -0.5617 -0.4799
 9536SOL    HW130925   6.571   2.699   9.521 -0.7117 -0.3376  0.6474
 9536SOL    HW230926   6.655   2.685   9.646  0.8491 -0.9081 -0.4231
 9537SOL     OW30927   8.722   1.013   7.892 -0.4572 -0.1589 -0.3249
 9537SOL    HW130928   8.660   1.086   7.897 -1.6180 -1.0994 -0.3666
 9537SOL    HW230929   8.686   0.956   7.824  0.0934 -1.0556  0.1198
 9538SOL     OW30930   9.790   1.029   1.569 -0.2490 -0.4807  0.0181
 9538SOL    HW130931   9.778   0.944   1.611 -0.7166 -0.0150  0.8581
 9538SOL    HW230932   9.803   1.090   1.642  0.2715  0.1363 -0.5822
 9539SOL     OW30933   2.464   2.499  10.171 -0.2785 -0.2904  0.2829
 9539SOL    HW130934   2.386   2.447  10.191  0.0306 -0.4177  1.1720
 9539SOL    HW230935   2.429   2.585  10.146 -0.7846 -0.8651 -1.0995
 9540SOL     OW30936   5.026   0.140   8.115  0.4312 -0.1283  0.2478
 9540SOL    HW130937   5.107   0.122   8.068  0.9648  0.7968  0.7792
 9540SOL    HW230938   5.032   0.090   8.196  0.8545  0.5709  0.6586
 9541SOL     OW30939   3.893   0.449   2.433  0.1645  0.6069  0.1544
 9541SOL    HW130940   3.987   0.463   2.444  0.3495 -0.0223 -0.5204
 9541SOL    HW230941   3.864   0.525   2.383  0.4645  0.4346 -0.2939
 9542SOL     OW30942   6.052   2.329   1.113  0.0750 -0.1129 -0.0101
 9542SOL    HW130943   5.989   2.397   1.137  0.1881 -0.0403  0.0857
 9542SOL    HW230944   6.017   2.290   1.033 -0.0570 -0.0291  0.0066
 9543SOL     OW30945   9.097   7.861  10.554  0.6798 -0.2672  1.0009
 9543SOL    HW130946   9.060   7.890  10.471 -0.7252 -0.2596  1.6058
 9543SOL    HW230947   9.031   7.883  10.619  0.6614 -2.5212  1.8114
 9544SOL     OW30948   4.257   0.672   1.723  0.2518 -0.2040 -0.2464
 9544SOL    HW130949   4.274   0.761   1.693  1.0581 -0.1732  0.2691
 9544SOL    HW230950   4.294   0.616   1.654  1.9923 -0.1324  0.5877
 9545SOL     OW30951   5.571   2.334   5.994 -0.0313 -0.2683  0.0563
 9545SOL    HW130952   5.480   2.362   5.987  0.4711  1.3590 -0.3871
 9545SOL    HW230953   5.575   2.254   5.942 -0.9350  0.3715 -1.0640
 9546SOL     OW30954   8.053   0.195   4.896  0.7992  0.2992 -0.2702
 9546SOL    HW130955   7.993   0.159   4.961 -0.0675  1.7343 -0.2435
 9546SOL    HW230956   8.125   0.131   4.892  0.0462 -0.6575  0.8389
 9547SOL     OW30957   6.192   3.048   5.645 -0.2282 -0.7499  0.2135
 9547SOL    HW130958   6.200   3.107   5.720 -0.9545  0.0298 -0.3169
 9547SOL    HW230959   6.167   2.964   5.684 -0.2721 -0.4372  0.8749
 9548SOL     OW30960   5.340  10.159  10.361 -0.0323  0.0357  0.4863
 9548SOL    HW130961   5.287  10.080  10.352  1.8028 -1.1728 -0.2879
 9548SOL    HW230962   5.286  10.228  10.323 -0.0125 -1.6530 -3.1205
 9549SOL     OW30963   8.435   2.603   1.902  0.0439  0.2859  0.2942
 9549SOL    HW130964   8.520   2.577   1.938  0.1019  0.1615  0.0667
 9549SOL    HW230965   8.440   2.699   1.899  0.4936  0.2478 -0.4793
 9550SOL     OW30966   9.193   1.440   1.305 -0.0323  0.2648 -0.3638
 9550SOL    HW130967   9.132   1.368   1.287 -0.7209 -0.0190  2.5885
 9550SOL    HW230968   9.257   1.403   1.366  0.7876  1.6293 -0.3548
 9551SOL     OW30969   1.163   9.314   2.046 -0.5339 -0.1424  0.3421
 9551SOL    HW130970   1.093   9.357   2.096  0.0660  0.3599  0.7650
 9551SOL    HW230971   1.187   9.237   2.098 -0.8078 -0.3469  0.1685
 9552SOL     OW30972   9.642   6.816   3.460  0.4715 -0.2088 -0.0457
 9552SOL    HW130973   9.709   6.853   3.403  0.6440  2.4762  1.7137
 9552SOL    HW230974   9.691   6.774   3.531  0.3770  1.5305  1.1043
 9553SOL     OW30975   0.731   9.103   4.455 -0.2330  0.1753  0.2367
 9553SOL    HW130976   0.816   9.094   4.413 -0.1829 -1.0328  0.5666
 9553SOL    HW230977   0.670   9.117   4.382  0.2067  0.7917 -0.0185
 9554SOL     OW30978   3.814   8.557   2.509  0.4936  0.3261  0.6592
 9554SOL    HW130979   3.870   8.508   2.449  0.3779  0.8363  0.1192
 9554SOL    HW230980   3.766   8.490   2.558 -0.1598 -0.1151 -0.5465
 9555SOL     OW30981   7.588   8.072   7.367 -0.0142 -0.4271 -0.5268
 9555SOL    HW130982   7.640   8.138   7.322 -0.3424 -0.1950 -0.5687
 9555SOL    HW230983   7.652   8.013   7.406  0.4291  1.5128  2.0014
 9556SOL     OW30984  10.251   1.027   1.898 -0.2453 -0.1386  0.3456
 9556SOL    HW130985  10.210   1.065   1.976 -0.4899 -0.2409  0.2669
 9556SOL    HW230986  10.330   0.984   1.931 -0.5401 -0.4990  0.5878
 9557SOL     OW30987   6.120   1.368   8.722 -0.0468  0.0970  0.1730
 9557SOL    HW130988   6.163   1.435   8.668 -0.9354  0.8841  0.4088
 9557SOL    HW230989   6.151   1.285   8.687  1.1783  0.6299 -0.0613
 9558SOL     OW30990   1.382   1.037   5.267  0.0025 -0.2759  0.4896
 9558SOL    HW130991   1.365   0.945   5.249 -0.2915 -0.1239 -0.0375
 9558SOL    HW230992   1.443   1.037   5.340  0.3655 -0.8973  0.1847
 9559SOL     OW30993   5.815   7.497   1.916  0.1037  0.0320 -0.1368
 9559SOL    HW130994   5.841   7.413   1.877  0.6162  0.5643 -0.9640
 9559SOL    HW230995   5.799   7.476   2.008  1.7176 -0.6945  0.0132
 9560SOL     OW30996  10.270   6.806   9.669  0.2438 -0.0666  0.0038
 9560SOL    HW130997  10.208   6.739   9.641 -2.5797  0.0228  4.8497
 9560SOL    HW230998  10.219   6.887   9.669  1.5278  0.7730  0.5210
 9561SOL     OW30999   1.421   6.408   3.306  0.2037  0.2449 -0.0991
 9561SOL    HW131000   1.410   6.329   3.360 -0.4374  1.3663  1.5061
 9561SOL    HW231001   1.339   6.456   3.319  0.5887  1.1790 -1.0578
 9562SOL     OW31002  10.557   3.371  10.251 -0.4412 -0.0586  0.1300
 9562SOL    HW131003  10.509   3.319  10.186 -2.2520  1.2328  0.3407
 9562SOL    HW231004  10.575   3.309  10.322 -2.6204 -0.4670  0.4136
 9563SOL     OW31005   6.458   9.306   2.874  0.3036  0.5929  0.0894
 9563SOL    HW131006   6.547   9.277   2.894 -0.0432 -0.0367  0.7636
 9563SOL    HW231007   6.407   9.225   2.869 -0.4158  1.0037  0.6278
 9564SOL     OW31008   2.995   7.513   2.820 -0.2190  0.1437 -0.5191
 9564SOL    HW131009   3.076   7.502   2.771  0.8691 -2.6238  1.6276
 9564SOL    HW231010   2.931   7.458   2.775  0.7440 -2.2948  0.9312
 9565SOL     OW31011   4.921   3.814   8.983  0.7586 -0.7143  0.1227
 9565SOL    HW131012   4.934   3.887   9.044  1.0665 -2.0467  1.7281
 9565SOL    HW231013   4.827   3.799   8.983  0.3884  1.0925 -2.0103
 9566SOL     OW31014   5.678   9.733   0.985 -0.2465  0.4236 -0.0746
 9566SOL    HW131015   5.592   9.771   1.005 -0.0418  0.1179  1.5504
 9566SOL    HW231016   5.700   9.768   0.899  0.1085  4.4665  1.4082
 9567SOL     OW31017   0.904   6.793   7.777  0.0764 -0.2026 -0.1558
 9567SOL    HW131018   0.890   6.700   7.759  0.4500 -0.0300 -1.3798
 9567SOL    HW231019   0.817   6.833   7.770  0.0136 -0.3522 -0.2224
 9568SOL     OW31020   0.256   0.563   1.166 -0.4566 -0.2746  0.1350
 9568SOL    HW131021   0.244   0.656   1.148 -0.8708 -0.2430  0.5498
 9568SOL    HW231022   0.270   0.559   1.261  1.9647 -0.4046 -0.1489
 9569SOL     OW31023   8.395   6.741   3.186 -0.1436 -0.0763  0.1794
 9569SOL    HW131024   8.345   6.683   3.129  0.4297 -0.3814 -0.0133
 9569SOL    HW231025   8.482   6.745   3.147  0.4692 -0.8337  1.3922
 9570SOL     OW31026   8.530   6.819  10.278 -0.1329 -0.0946 -0.1853
 9570SOL    HW131027   8.481   6.769  10.343 -1.2052  0.7620 -0.3038
 9570SOL    HW231028   8.483   6.805  10.196  0.4395 -0.1050 -0.5172
 9571SOL     OW31029   2.295   1.575   0.148  0.4271 -0.2325  0.4241
 9571SOL    HW131030   2.298   1.671   0.152  1.1567 -0.2727  1.1592
 9571SOL    HW231031   2.262   1.556   0.060  0.1410  0.6914  0.3159
 9572SOL     OW31032   9.063   6.849   1.394 -0.3797 -0.2077 -0.3280
 9572SOL    HW131033   9.126   6.842   1.322  0.3920 -0.7579  0.3808
 9572SOL    HW231034   8.980   6.819   1.356  0.4449 -2.4562 -0.4790
 9573SOL     OW31035   1.037   2.813   3.947 -0.5532  0.3248 -0.3300
 9573SOL    HW131036   1.085   2.896   3.943 -1.4999  0.8300 -2.6220
 9573SOL    HW231037   1.008   2.807   4.038 -0.6249  2.6077 -0.1318
 9574SOL     OW31038   6.160   5.070   6.314 -0.4195  0.0001 -0.3804
 9574SOL    HW131039   6.138   5.110   6.229  1.3294 -1.9876 -1.8496
 9574SOL    HW231040   6.184   5.144   6.369 -1.7399  1.3644 -1.5233
 9575SOL     OW31041   5.336   2.252   9.701 -0.0836 -0.6195 -0.0404
 9575SOL    HW131042   5.396   2.216   9.635 -1.8945  0.4027 -2.3840
 9575SOL    HW231043   5.389   2.316   9.749  1.3708 -1.5986 -0.2655
 9576SOL     OW31044   2.392   6.065   5.523  0.7088 -0.0609  0.5368
 9576SOL    HW131045   2.321   6.082   5.461  1.0707  1.6182  0.5455
 9576SOL    HW231046   2.457   6.016   5.473  0.2336 -0.2336  0.0859
 9577SOL     OW31047   3.098   2.930   8.143  0.3173  0.5506  0.1563
 9577SOL    HW131048   3.170   2.986   8.115  0.9480 -0.4456 -0.2730
 9577SOL    HW231049   3.053   2.980   8.211  1.5184  1.1190  0.5497
 9578SOL     OW31050   3.328   6.769   2.623 -0.3408  0.2131 -0.1960
 9578SOL    HW131051   3.289   6.824   2.692 -1.1297  0.1693 -0.5949
 9578SOL    HW231052   3.406   6.732   2.663 -1.6584 -1.1361  1.2587
 9579SOL     OW31053   2.172   9.064   7.285 -0.6465 -0.3583 -0.2506
 9579SOL    HW131054   2.137   9.088   7.199 -0.4728 -0.5019 -0.3627
 9579SOL    HW231055   2.110   9.000   7.319 -0.9469  0.0203 -0.0823
 9580SOL     OW31056   8.449   5.792   7.845 -0.0935  0.4238 -0.7947
 9580SOL    HW131057   8.474   5.871   7.797 -0.1015  0.5315 -0.6223
 9580SOL    HW231058   8.506   5.724   7.809  1.6778  0.9930  0.7276
 9581SOL     OW31059   9.353   2.961   9.746 -0.3965 -1.0333 -0.0702
 9581SOL    HW131060   9.306   3.006   9.817  1.7651 -0.4663  1.0928
 9581SOL    HW231061   9.406   3.029   9.706  0.8192 -1.9790 -0.1270
 9582SOL     OW31062   5.021   4.008   8.276 -0.2996  0.6727 -0.0860
 9582SOL    HW131063   5.078   3.941   8.313 -0.2024  0.3114 -0.8555
 9582SOL    HW231064   4.962   4.031   8.347 -1.5761 -1.5925 -0.3144
 9583SOL     OW31065   7.068   7.090   7.843 -0.4328 -0.0236 -0.5105
 9583SOL    HW131066   7.101   7.161   7.788  2.6886 -1.1735 -0.3079
 9583SOL    HW231067   7.015   7.036   7.784  0.4295  0.3530 -1.6665
 9584SOL     OW31068   9.580   4.897   5.750  0.8616  0.2699  0.6785
 9584SOL    HW131069   9.596   4.981   5.793  0.0569  2.3493 -2.6656
 9584SOL    HW231070   9.495   4.907   5.707  1.0200 -2.0477 -0.3412
 9585SOL     OW31071   9.170   0.149   7.336 -0.0822 -0.2619  0.2750
 9585SOL    HW131072   9.196   0.085   7.402  0.0118  1.2570  1.8058
 9585SOL    HW231073   9.253   0.184   7.303 -0.0202  1.5992  2.1263
 9586SOL     OW31074   2.473   8.666   4.907  0.2093 -0.2507  0.6600
 9586SOL    HW131075   2.405   8.705   4.962 -0.3412  0.2451 -0.3317
 9586SOL    HW231076   2.428   8.596   4.859  0.2726  0.3481 -0.3104
 9587SOL     OW31077   4.479   6.217   6.791  0.3847 -0.0325 -0.3899
 9587SOL    HW131078   4.493   6.123   6.781 -0.3112 -0.3372  1.1433
 9587SOL    HW231079   4.557   6.258   6.755  0.9218 -1.2197 -0.5990
 9588SOL     OW31080   9.960   7.634   7.313  0.1767  0.4505  0.2946
 9588SOL    HW131081   9.945   7.676   7.228  2.5083 -0.4042 -0.6132
 9588SOL    HW231082  10.051   7.656   7.335  0.4937 -1.5624  1.2464
 9589SOL     OW31083   8.289   1.243   3.229 -0.4171 -0.0900 -0.5131
 9589SOL    HW131084   8.334   1.314   3.184 -1.8617  1.4091  0.3223
 9589SOL    HW231085   8.280   1.175   3.162  2.3366 -0.1732 -0.9146
 9590SOL     OW31086   0.598   3.681   6.256  0.5073 -0.0427  0.4694
 9590SOL    HW131087   0.607   3.593   6.293 -0.2142  0.1707  1.1829
 9590SOL    HW231088   0.661   3.684   6.184  0.4732 -1.1697  0.3846
 9591SOL     OW31089   6.636   6.825   6.292  0.3424 -0.0040  0.0922
 9591SOL    HW131090   6.578   6.886   6.337  1.0219  0.0076  0.9803
 9591SOL    HW231091   6.724   6.849   6.322  0.5641 -2.0422  1.2653
 9592SOL     OW31092   8.765   1.811   1.572  0.1802  0.3358  0.0959
 9592SOL    HW131093   8.774   1.863   1.652  0.3158 -0.5995  0.7155
 9592SOL    HW231094   8.676   1.776   1.577  0.0764  0.5410 -0.3333
 9593SOL     OW31095   7.198   5.303   2.554  0.6863 -0.0721 -0.2240
 9593SOL    HW131096   7.145   5.323   2.631  1.8846 -0.1043  0.6339
 9593SOL    HW231097   7.149   5.342   2.481 -0.4144  0.0570  0.5444
 9594SOL     OW31098   5.081   2.673   8.271  0.6930  0.5974 -0.9466
 9594SOL    HW131099   5.073   2.588   8.314  0.9053  0.9917 -0.1065
 9594SOL    HW231100   5.007   2.724   8.304 -1.1473 -0.1251 -3.6129
 9595SOL     OW31101   2.444   2.033   9.961 -0.2926  0.0312  0.4967
 9595SOL    HW131102   2.459   2.127   9.962 -0.9705  0.1431  0.7722
 9595SOL    HW231103   2.517   1.997   9.910 -0.5774  0.8002 -0.4705
 9596SOL     OW31104   8.991   4.869   6.382  0.8437 -0.1397  0.2029
 9596SOL    HW131105   8.968   4.824   6.301 -1.9496 -0.7110  1.2088
 9596SOL    HW231106   8.964   4.809   6.451 -1.7307  2.3587  1.5762
 9597SOL     OW31107   8.034   6.579   9.400 -0.4777 -0.2082  0.5105
 9597SOL    HW131108   8.057   6.623   9.482 -0.8220 -0.6297  0.8369
 9597SOL    HW231109   8.027   6.487   9.423  0.7516 -0.5204 -0.2771
 9598SOL     OW31110   7.037   3.880   2.762 -0.1195 -0.2830  0.2305
 9598SOL    HW131111   6.997   3.938   2.826  0.7661 -1.4732  1.9246
 9598SOL    HW231112   7.079   3.939   2.699 -1.4304  0.9161  0.4426
 9599SOL     OW31113   3.860   4.972   1.904 -0.0494 -0.3103 -0.0161
 9599SOL    HW131114   3.869   4.902   1.839  0.3959  1.1439 -1.5987
 9599SOL    HW231115   3.951   4.999   1.922 -0.0616 -1.4953  2.2142
 9600SOL     OW31116   8.415   4.295   8.712  0.5127  0.0133  0.6320
 9600SOL    HW131117   8.469   4.234   8.763  0.1301 -0.4258  0.5225
 9600SOL    HW231118   8.471   4.372   8.700  0.3521  0.4624  2.3741
 9601SOL     OW31119  10.151   5.244   6.310 -0.0978  0.2260 -0.2166
 9601SOL    HW131120  10.122   5.230   6.220  2.2089 -0.1954 -0.9620
 9601SOL    HW231121  10.230   5.297   6.302  1.2151 -1.3618  1.3963
 9602SOL     OW31122   0.725   3.816   6.447 -0.5245  0.1431  0.2305
 9602SOL    HW131123   0.771   3.741   6.484  0.1365  0.8250  0.8310
 9602SOL    HW231124   0.683   3.782   6.368  3.3275  0.0632 -2.0399
 9603SOL     OW31125   0.145   4.232   2.472 -0.1810  0.1436  0.4370
 9603SOL    HW131126   0.214   4.269   2.527 -0.5313  0.5322  0.6253
 9603SOL    HW231127   0.162   4.138   2.471 -0.2095  0.1213  1.2736
 9604SOL     OW31128   4.788   5.521   5.941 -0.0208  0.5104  0.0258
 9604SOL    HW131129   4.796   5.578   5.865 -0.1756  0.1314 -0.2816
 9604SOL    HW231130   4.824   5.571   6.013  2.4882 -0.0329 -0.7439
 9605SOL     OW31131   9.839   6.869   0.411 -0.4481  0.3040 -0.1602
 9605SOL    HW131132   9.752   6.875   0.449 -0.5730  2.2911 -0.6450
 9605SOL    HW231133   9.898   6.871   0.486 -0.7940 -1.6850  0.2073
 9606SOL     OW31134   4.020   7.259   2.631  0.2785 -0.3413  0.0860
 9606SOL    HW131135   4.037   7.333   2.689  1.0497 -0.3445 -0.1288
 9606SOL    HW231136   3.956   7.291   2.568 -1.7023 -0.7665  1.7901
 9607SOL     OW31137   0.589   9.712   8.431 -0.7165  0.6026  0.0824
 9607SOL    HW131138   0.512   9.751   8.471 -0.7039 -0.4456  1.1771
 9607SOL    HW231139   0.599   9.628   8.474  1.1698  0.8027  0.1337
 9608SOL     OW31140   7.423   8.606   1.451  0.7674  0.3443 -0.1519
 9608SOL    HW131141   7.417   8.685   1.396  2.8379  0.3102 -0.4956
 9608SOL    HW231142   7.447   8.639   1.538 -0.7441  0.2465  0.3354
 9609SOL     OW31143   2.075   1.206   9.822  0.1197 -0.2449 -0.1262
 9609SOL    HW131144   2.113   1.228   9.737 -1.0172 -0.5223 -0.7342
 9609SOL    HW231145   1.982   1.228   9.813 -0.1014 -0.7065  0.8907
 9610SOL     OW31146  10.163   7.764   8.016  0.3249 -0.5328  0.5100
 9610SOL    HW131147  10.069   7.771   7.999 -0.1285 -1.0094  2.5873
 9610SOL    HW231148  10.171   7.694   8.081  2.5070 -3.2046 -2.3127
 9611SOL     OW31149   0.250   4.830   8.516 -0.0875 -0.3919  0.1132
 9611SOL    HW131150   0.255   4.761   8.582  0.6195 -0.5512 -0.1030
 9611SOL    HW231151   0.156   4.837   8.497 -0.2008 -1.0430  0.3963
 9612SOL     OW31152   4.193   3.814  10.397  0.1064 -0.0624 -0.3019
 9612SOL    HW131153   4.165   3.809  10.306 -0.0910 -0.4005 -0.2223
 9612SOL    HW231154   4.139   3.883  10.435  1.4481  1.3899 -0.8892
 9613SOL     OW31155   7.820   2.935   6.334  0.3198  0.3930 -0.2635
 9613SOL    HW131156   7.790   2.873   6.269 -2.5610  1.0040  0.3270
 9613SOL    HW231157   7.859   2.881   6.403 -1.7967 -0.8131  0.0818
 9614SOL     OW31158   9.180   0.803   2.274  0.1899 -0.8212 -0.1907
 9614SOL    HW131159   9.124   0.751   2.216  0.2083  0.5368 -1.5090
 9614SOL    HW231160   9.120   0.864   2.317  0.1772 -1.8377  1.2752
 9615SOL     OW31161   0.282   7.147   6.904 -0.2940 -0.3784  0.5722
 9615SOL    HW131162   0.193   7.112   6.911 -0.3947 -1.0734 -2.8612
 9615SOL    HW231163   0.269   7.241   6.887 -0.3691 -0.4253  0.3658
 9616SOL     OW31164   1.890   7.701  10.182  0.0090  0.0051  0.0567
 9616SOL    HW131165   1.964   7.679  10.126 -0.3201  0.1459 -0.4420
 9616SOL    HW231166   1.923   7.692  10.271  0.8657  0.8764 -0.1617
 9617SOL     OW31167   0.798   7.912   3.530  0.4074 -0.2280  0.0215
 9617SOL    HW131168   0.803   7.977   3.460  0.5036 -0.4928 -0.2200
 9617SOL    HW231169   0.759   7.835   3.489 -1.0384  0.1342  0.6413
 9618SOL     OW31170  10.141   4.977  10.275  0.0240 -0.0889  0.1428
 9618SOL    HW131171  10.085   5.009  10.345  0.1352  1.4339 -0.4166
 9618SOL    HW231172  10.132   5.042  10.206 -1.4301 -2.3848 -2.0130
 9619SOL     OW31173   9.126  10.379   5.154 -0.2449  0.2004 -0.0385
 9619SOL    HW131174   9.152  10.413   5.240  0.1061 -0.1873  0.0052
 9619SOL    HW231175   9.204  10.336   5.120 -0.7021 -0.6031 -0.0813
 9620SOL     OW31176   9.815   2.758   4.423  0.0302  0.3904 -0.3398
 9620SOL    HW131177   9.790   2.815   4.350 -0.6838  1.3432  0.6207
 9620SOL    HW231178   9.903   2.788   4.447  0.4057 -0.1446 -0.9944
 9621SOL     OW31179   1.431   3.805   4.594  0.0687  0.1511  0.1580
 9621SOL    HW131180   1.358   3.849   4.637 -0.2077 -0.2220  0.0746
 9621SOL    HW231181   1.453   3.733   4.653  0.6258  0.4863  0.3750
 9622SOL     OW31182   7.815   3.115   3.441 -0.0665  0.2836  0.0729
 9622SOL    HW131183   7.910   3.122   3.438 -0.1011  0.6009 -1.4131
 9622SOL    HW231184   7.785   3.205   3.454 -0.1665  0.5247 -1.5253
 9623SOL     OW31185   8.265   7.948   4.880  0.0347 -0.0295  0.0074
 9623SOL    HW131186   8.307   7.863   4.890 -1.2869 -0.7812 -0.5511
 9623SOL    HW231187   8.330   8.001   4.833  0.8921 -0.6990  0.4011
 9624SOL     OW31188   1.369   7.863   6.429  0.5920 -0.4716 -0.6083
 9624SOL    HW131189   1.365   7.770   6.406 -1.8265 -0.4082 -0.7191
 9624SOL    HW231190   1.322   7.907   6.358 -2.5313  0.2593  1.6772
 9625SOL     OW31191   7.162   8.875   3.858 -0.2095 -0.3721 -0.4735
 9625SOL    HW131192   7.118   8.878   3.943  1.7229 -1.9309  0.6596
 9625SOL    HW231193   7.253   8.854   3.878  0.9644  1.8729 -2.7749
 9626SOL     OW31194   8.088   3.645   1.073  0.1393 -0.1724  0.0766
 9626SOL    HW131195   8.025   3.588   1.030  0.3448 -0.6751  0.4405
 9626SOL    HW231196   8.057   3.651   1.164  0.3415 -0.0187  0.1358
 9627SOL     OW31197  10.236   1.997   5.982  0.0049  0.1889  0.4710
 9627SOL    HW131198  10.327   2.026   5.981  0.0531  0.0244 -0.2904
 9627SOL    HW231199  10.231   1.930   5.913 -0.2099 -1.2717  1.8468
 9628SOL     OW31200   1.295   0.458   5.686  0.0354  0.2743 -0.3287
 9628SOL    HW131201   1.372   0.415   5.724  0.1206  0.8855  0.2196
 9628SOL    HW231202   1.331   0.530   5.634 -0.1408  0.2395 -0.4979
 9629SOL     OW31203   6.644   2.451   3.953 -0.2001 -0.6105 -0.2694
 9629SOL    HW131204   6.669   2.402   3.875  0.1777 -2.3619  0.8874
 9629SOL    HW231205   6.548   2.446   3.955 -0.3887  1.3608 -1.7552
 9630SOL     OW31206   0.373   9.170   7.740  0.4839  0.0297 -0.4357
 9630SOL    HW131207   0.428   9.215   7.804  0.5729 -0.4248 -0.1879
 9630SOL    HW231208   0.365   9.081   7.774 -0.3692  0.0788 -0.4970
 9631SOL     OW31209   0.452   6.613   3.440 -0.7739  0.0471 -0.0484
 9631SOL    HW131210   0.398   6.534   3.436 -3.0028  1.3932  1.5150
 9631SOL    HW231211   0.469   6.626   3.534  1.1901  0.4344 -0.3970
 9632SOL     OW31212   2.899   9.283   7.891  0.6276 -0.1025  0.2667
 9632SOL    HW131213   2.893   9.261   7.984 -2.4315 -0.5624  0.0777
 9632SOL    HW231214   2.857   9.368   7.883  3.7742  1.5439 -0.3593
 9633SOL     OW31215   7.593   1.362   2.057  0.1944 -0.1440  0.6230
 9633SOL    HW131216   7.515   1.384   2.109  0.1195  0.5730  0.2195
 9633SOL    HW231217   7.666   1.385   2.114  0.1154  1.1234  0.2295
 9634SOL     OW31218   2.752   1.781   1.761  0.4113  0.0559  0.0185
 9634SOL    HW131219   2.807   1.713   1.723 -0.6590  0.3925 -2.3714
 9634SOL    HW231220   2.812   1.854   1.778  1.0178 -0.2661 -0.7002
 9635SOL     OW31221   0.103  10.531   6.774 -0.1208  0.0915  0.1266
 9635SOL    HW131222   0.162  10.477   6.828 -3.9650 -1.0956  3.6436
 9635SOL    HW231223   0.060  10.589   6.837 -1.6206  1.9840 -2.4827
 9636SOL     OW31224   5.622   3.213   8.954  0.3341 -0.2617 -0.0114
 9636SOL    HW131225   5.690   3.162   8.998  0.1858 -1.4575 -1.1153
 9636SOL    HW231226   5.670   3.282   8.908  0.6781 -0.3418  0.2257
 9637SOL     OW31227   0.746   9.442   1.120 -0.1484  1.0573  0.0334
 9637SOL    HW131228   0.678   9.391   1.076  1.1671 -1.6981  0.9405
 9637SOL    HW231229   0.775   9.506   1.055 -0.7370 -0.4534 -1.7954
 9638SOL     OW31230   5.715   9.539   3.920  0.8839 -0.6309 -0.0249
 9638SOL    HW131231   5.643   9.595   3.892  1.5225  0.0028 -0.4210
 9638SOL    HW231232   5.724   9.556   4.014 -0.1712 -1.5164  0.2582
 9639SOL     OW31233   9.200   7.248   6.285 -0.0834  0.2275 -0.4669
 9639SOL    HW131234   9.180   7.303   6.210 -0.7504 -0.9395 -1.1619
 9639SOL    HW231235   9.246   7.307   6.346 -0.7778  1.5407 -1.1697
 9640SOL     OW31236   3.367   7.453  10.472 -0.3010  0.1827  0.0818
 9640SOL    HW131237   3.457   7.481  10.488  0.2204 -0.8622 -0.8120
 9640SOL    HW231238   3.370   7.358  10.484 -0.9293 -0.0520 -1.3674
 9641SOL     OW31239   8.041   1.745   2.485 -0.6784  0.0862 -0.4829
 9641SOL    HW131240   8.111   1.710   2.430 -2.0983  0.2988 -2.5112
 9641SOL    HW231241   8.067   1.722   2.574  1.2784 -1.0268 -1.2855
 9642SOL     OW31242   8.674   1.504   9.906  0.8831 -0.1815 -0.2183
 9642SOL    HW131243   8.649   1.429   9.961 -0.0698  0.0151 -0.3695
 9642SOL    HW231244   8.615   1.574   9.933  1.0568  0.2043 -0.8300
 9643SOL     OW31245   4.482  10.164   6.834 -0.1213 -0.3294  0.5096
 9643SOL    HW131246   4.561  10.169   6.887  0.8542  2.0178 -1.0183
 9643SOL    HW231247   4.430  10.240   6.861 -1.4766 -1.3193  0.8360
 9644SOL     OW31248   1.937   3.925   1.706  0.3450 -0.1851  0.1608
 9644SOL    HW131249   1.935   3.995   1.642 -1.1906  0.4005  0.8056
 9644SOL    HW231250   1.976   3.964   1.784  0.1976 -0.2746  0.2803
 9645SOL     OW31251   5.180   0.582  10.152 -0.0371  0.1066  0.4582
 9645SOL    HW131252   5.093   0.546  10.165  0.0764  0.0304  1.0255
 9645SOL    HW231253   5.233   0.542  10.221  0.3542  0.4566  0.3620
 9646SOL     OW31254   4.740   1.629   7.585 -0.0389  0.3061  0.1054
 9646SOL    HW131255   4.732   1.692   7.513 -1.9414 -0.2653 -0.2332
 9646SOL    HW231256   4.774   1.550   7.543 -0.6754  0.1303 -0.0983
 9647SOL     OW31257   9.796   6.785  10.431 -0.3902  0.7082 -0.4701
 9647SOL    HW131258   9.708   6.767  10.398  0.1189 -2.5203 -0.2997
 9647SOL    HW231259   9.854   6.760  10.359  0.4704  2.8760 -0.6080
 9648SOL     OW31260   5.252   0.827   6.735 -0.3591 -0.3358  0.0254
 9648SOL    HW131261   5.229   0.875   6.655  0.4421 -3.5685 -2.3427
 9648SOL    HW231262   5.168   0.801   6.773 -0.7315  0.2692 -0.3809
 9649SOL     OW31263   9.190   9.862   0.648 -0.8643  0.3318  0.2415
 9649SOL    HW131264   9.201   9.782   0.698 -2.3599  0.1512  0.3294
 9649SOL    HW231265   9.277   9.881   0.613 -0.2540 -0.7010  1.1461
 9650SOL     OW31266   8.432   6.090   8.828  0.3323  0.0360  0.2216
 9650SOL    HW131267   8.411   6.182   8.814  0.5724 -0.1283 -1.3618
 9650SOL    HW231268   8.522   6.081   8.796  0.1904 -0.8173  0.0292
 9651SOL     OW31269   0.644   6.102   6.765 -0.3051  0.7753 -0.5944
 9651SOL    HW131270   0.596   6.082   6.685  1.3006  2.3091 -2.0017
 9651SOL    HW231271   0.606   6.184   6.796 -0.6551  0.3889  0.0217
 9652SOL     OW31272   0.774  10.467   9.861 -0.0866  0.3770  0.7603
 9652SOL    HW131273   0.798  10.558   9.846  0.5443 -0.1576 -1.9255
 9652SOL    HW231274   0.842  10.416   9.817 -0.5627 -1.4108  1.9837
 9653SOL     OW31275   8.355   1.105   5.070 -0.0291  0.7140  0.1225
 9653SOL    HW131276   8.349   1.079   5.162 -0.0203  0.2036 -0.0166
 9653SOL    HW231277   8.424   1.049   5.034 -1.7317 -0.9226 -0.7999
 9654SOL     OW31278   8.529   4.841   2.541 -0.2054 -0.3632  0.8199
 9654SOL    HW131279   8.534   4.759   2.589 -0.8795  0.1792  1.8567
 9654SOL    HW231280   8.445   4.838   2.496 -0.6655  0.1469  1.6223
 9655SOL     OW31281   5.819   0.398   7.392 -0.2114 -0.0546 -0.3684
 9655SOL    HW131282   5.750   0.406   7.326 -0.9289  0.1073  0.3867
 9655SOL    HW231283   5.829   0.304   7.405  1.5844 -0.2076 -2.3839
 9656SOL     OW31284   3.738   3.454   6.926 -0.2462 -0.3230  0.2630
 9656SOL    HW131285   3.807   3.482   6.865 -0.9274 -0.8887 -0.8092
 9656SOL    HW231286   3.679   3.529   6.931 -2.0700 -1.4150 -2.6059
 9657SOL     OW31287   7.237  10.207   8.511  0.5160 -0.1484 -0.1003
 9657SOL    HW131288   7.166  10.151   8.479  0.8674 -1.4076  1.2160
 9657SOL    HW231289   7.202  10.296   8.503 -1.0318 -0.7029  0.0566
 9658SOL     OW31290  10.493   8.022   3.421  0.0228  0.1585 -0.2227
 9658SOL    HW131291  10.548   7.944   3.423 -0.5779 -0.2558  1.1252
 9658SOL    HW231292  10.462   8.027   3.330  1.6640 -0.0100 -0.8258
 9659SOL     OW31293   9.557  10.340   0.467  0.2072  0.0238  0.1463
 9659SOL    HW131294   9.484  10.385   0.511 -1.1357 -0.7318 -1.2293
 9659SOL    HW231295   9.520  10.256   0.440  1.6627 -0.4584 -0.4126
 9660SOL     OW31296   8.277   9.622   6.921  0.4754 -0.0404 -0.3341
 9660SOL    HW131297   8.347   9.684   6.900  0.1128  0.8613  0.9767
 9660SOL    HW231298   8.201   9.656   6.874  0.8976 -1.0993 -1.8730
 9661SOL     OW31299   0.007   7.261   1.370  0.0552 -0.1239  0.3001
 9661SOL    HW131300   0.019   7.234   1.461  1.5901 -0.4798  0.0275
 9661SOL    HW231301  -0.072   7.314   1.370 -0.1315 -0.3718  1.7842
 9662SOL     OW31302   7.123   3.693   0.127 -0.2582 -0.1285 -0.3509
 9662SOL    HW131303   7.083   3.607   0.141  0.1299 -0.2669 -0.0779
 9662SOL    HW231304   7.214   3.674   0.107  0.0184  0.2582  0.5166
 9663SOL     OW31305   3.785  10.454   3.311  0.5228  0.1255  0.0662
 9663SOL    HW131306   3.864  10.399   3.305 -0.3962 -1.1629 -0.5235
 9663SOL    HW231307   3.735  10.416   3.384 -0.1728  0.0949 -0.4193
 9664SOL     OW31308   6.147   2.214   3.444  0.5115  0.8236 -0.5141
 9664SOL    HW131309   6.152   2.302   3.406  0.1240  1.1281  0.1134
 9664SOL    HW231310   6.102   2.162   3.378  1.4464  0.8948 -1.2265
 9665SOL     OW31311   1.326   5.858   9.682 -0.6072 -0.4721  0.5042
 9665SOL    HW131312   1.277   5.828   9.758  1.6460 -1.0319  1.8149
 9665SOL    HW231313   1.365   5.778   9.646 -1.9361 -0.2724 -1.5252
 9666SOL     OW31314   5.074   3.606   3.004  0.3883 -0.2167  0.0285
 9666SOL    HW131315   4.998   3.559   3.038 -0.6486  1.0426 -0.4784
 9666SOL    HW231316   5.053   3.698   3.017  0.3700  0.3135 -3.0012
 9667SOL     OW31317   7.845   9.004   6.405 -0.1201 -0.2788  0.2064
 9667SOL    HW131318   7.934   9.041   6.406  0.6515 -2.0316  1.1387
 9667SOL    HW231319   7.819   9.009   6.313  0.4927  1.2094  0.0684
 9668SOL     OW31320   8.568   9.088   9.500 -0.2951 -0.1067  0.5799
 9668SOL    HW131321   8.531   9.004   9.525 -0.4562  0.0055  0.7254
 9668SOL    HW231322   8.618   9.116   9.577 -0.5250  0.0894  0.6597
 9669SOL     OW31323  10.362   8.179   5.445  0.6064 -0.3605  0.5945
 9669SOL    HW131324  10.270   8.177   5.417  0.3588  4.5888  0.0315
 9669SOL    HW231325  10.411   8.171   5.363  0.3878  1.3824  0.2458
 9670SOL     OW31326   5.030   0.121   2.446  0.1756  1.0117 -0.5108
 9670SOL    HW131327   4.968   0.050   2.463  0.9382  0.6602  1.0288
 9670SOL    HW231328   4.978   0.190   2.404 -1.0221  0.3202 -0.1915
 9671SOL     OW31329   9.957   7.572   6.485  0.3415 -0.0338  0.6900
 9671SOL    HW131330  10.021   7.501   6.488 -0.5580 -0.8969  0.1242
 9671SOL    HW231331   9.939   7.593   6.576 -0.1521 -1.2574  0.8899
 9672SOL     OW31332   7.542   6.860   3.496  0.2286  0.0621 -0.1408
 9672SOL    HW131333   7.506   6.862   3.584 -0.6281 -0.5857 -0.4633
 9672SOL    HW231334   7.466   6.848   3.439  0.7923  0.2434 -0.9539
 9673SOL     OW31335   8.523   3.565   8.970  0.0284  0.4837  0.4432
 9673SOL    HW131336   8.481   3.582   8.885  0.4386  0.3715  0.2137
 9673SOL    HW231337   8.473   3.617   9.032 -1.4584 -0.8639  0.4364
 9674SOL     OW31338   2.686  10.010   6.654  0.3987 -0.0367  0.4726
 9674SOL    HW131339   2.694  10.096   6.612  0.5763  0.5543  1.6648
 9674SOL    HW231340   2.594  10.005   6.680 -0.1137 -1.0886 -1.3364
 9675SOL     OW31341   6.090   1.080   1.484 -0.4063 -1.0050  0.2606
 9675SOL    HW131342   6.106   1.049   1.574 -4.4826  0.6786  1.7896
 9675SOL    HW231343   6.020   1.024   1.452 -0.8657  0.1405 -0.8050
 9676SOL     OW31344   2.259   2.456   0.633  0.3137  0.4028 -0.0421
 9676SOL    HW131345   2.289   2.374   0.672 -0.6128  0.2778  0.4390
 9676SOL    HW231346   2.306   2.463   0.550 -2.2381 -2.4689 -1.9258
 9677SOL     OW31347   0.218   8.474   4.484  0.5781  0.0497 -0.2181
 9677SOL    HW131348   0.141   8.447   4.534 -0.5391  2.0798 -0.7164
 9677SOL    HW231349   0.270   8.395   4.476 -2.2269 -1.8496 -1.2519
 9678SOL     OW31350   0.837   5.571   3.944 -0.2900  0.4164 -0.4908
 9678SOL    HW131351   0.767   5.519   3.905 -0.6845  0.8639 -0.3819
 9678SOL    HW231352   0.843   5.649   3.889 -0.5748  0.8601  0.1053
 9679SOL     OW31353   3.988   8.292   5.071  0.6287  0.2573 -0.0747
 9679SOL    HW131354   3.960   8.281   4.980 -2.1285  1.7258  0.4578
 9679SOL    HW231355   4.074   8.334   5.066  1.6002 -1.8044 -1.9261
 9680SOL     OW31356   8.309   7.436   7.623  0.2222  0.3619  0.2755
 9680SOL    HW131357   8.389   7.383   7.622  1.0125  1.4874  0.7526
 9680SOL    HW231358   8.338   7.520   7.659 -1.6611 -0.0044  2.9028
 9681SOL     OW31359   5.500   8.150   0.800 -0.7191 -0.0004  0.1556
 9681SOL    HW131360   5.498   8.173   0.707 -0.6256  3.1849  0.8382
 9681SOL    HW231361   5.577   8.093   0.809 -0.4362  0.0395 -1.5989
 9682SOL     OW31362   1.233   9.198   8.723  0.2202  0.2527 -0.0054
 9682SOL    HW131363   1.300   9.258   8.690  1.4703 -0.7558  0.5934
 9682SOL    HW231364   1.185   9.170   8.645  1.9591 -0.7145 -0.7876
 9683SOL     OW31365   0.344   7.473   8.373  0.2548 -0.1353 -0.3239
 9683SOL    HW131366   0.426   7.477   8.422  0.1917  2.4894 -0.2665
 9683SOL    HW231367   0.346   7.550   8.317 -0.7209 -1.8111 -2.8404
 9684SOL     OW31368   3.594   3.900   1.037  0.2247  0.5799 -0.0081
 9684SOL    HW131369   3.637   3.937   1.114  0.4723  3.6651 -1.4633
 9684SOL    HW231370   3.501   3.905   1.057  0.3295  0.1214  0.5998
 9685SOL     OW31371   3.799   9.711   3.745  0.4587 -0.7403 -0.2545
 9685SOL    HW131372   3.784   9.758   3.827 -1.6645 -0.8212 -0.5520
 9685SOL    HW231373   3.768   9.622   3.761  0.6655 -0.9516 -0.9506
 9686SOL     OW31374   5.025   0.947   0.934 -0.4109 -0.0093 -0.7891
 9686SOL    HW131375   5.109   0.984   0.964 -0.5419  0.0056 -0.4322
 9686SOL    HW231376   5.050   0.882   0.869  0.0311 -1.4806  0.7816
 9687SOL     OW31377   8.025   1.948   0.870 -0.1450 -0.0270  0.1536
 9687SOL    HW131378   8.058   1.864   0.901 -0.1038 -1.0386 -2.4058
 9687SOL    HW231379   7.930   1.943   0.885 -0.0877 -0.3450  0.4236
 9688SOL     OW31380   2.937   0.908   6.443 -0.5137  0.8040 -0.2658
 9688SOL    HW131381   2.901   0.824   6.472  0.2128  0.7440  0.5177
 9688SOL    HW231382   2.861   0.957   6.410 -1.0381  0.0704 -0.1714
 9689SOL     OW31383   1.433   8.834   9.140 -0.4867  0.2612  0.1145
 9689SOL    HW131384   1.490   8.894   9.091  0.2750 -0.9568 -0.5440
 9689SOL    HW231385   1.471   8.748   9.125 -2.0600 -0.4984  0.3466
 9690SOL     OW31386   9.059   3.556   8.655  0.3563 -0.2110  0.9094
 9690SOL    HW131387   9.044   3.615   8.581 -0.9360 -1.4029  0.1508
 9690SOL    HW231388   9.139   3.509   8.631  2.9545  2.9133  2.7468
 9691SOL     OW31389   9.338   9.943   9.404  0.6098 -0.1015 -0.0942
 9691SOL    HW131390   9.429   9.924   9.382  0.5811  0.2968 -0.5881
 9691SOL    HW231391   9.322   9.896   9.486  0.4968 -2.2941 -1.2929
 9692SOL     OW31392   6.671   2.373   5.282  0.3297  0.0196 -0.3679
 9692SOL    HW131393   6.636   2.294   5.323  3.7373 -1.7516 -0.5216
 9692SOL    HW231394   6.606   2.398   5.217 -2.4336 -0.5823  1.9482
 9693SOL     OW31395   0.463   6.781   2.050 -0.4164  0.0785 -0.0990
 9693SOL    HW131396   0.503   6.744   2.128  0.1891 -1.4548 -1.0725
 9693SOL    HW231397   0.491   6.722   1.979 -2.7722  0.0788 -1.1287
 9694SOL     OW31398   4.805   2.091  10.493  0.4345 -0.3450  0.1633
 9694SOL    HW131399   4.798   2.159  10.561 -2.1141  1.2442 -1.5129
 9694SOL    HW231400   4.849   2.134  10.420 -0.0738 -0.8783 -0.4715
 9695SOL     OW31401   3.479   2.373   8.376 -0.2136  0.3066  0.1228
 9695SOL    HW131402   3.426   2.414   8.445 -0.4864  0.4666 -0.1764
 9695SOL    HW231403   3.414   2.336   8.316 -0.0876  2.4167 -1.4440
 9696SOL     OW31404   0.452   3.448   3.975  0.1304 -0.1057 -0.4716
 9696SOL    HW131405   0.465   3.361   3.938 -1.2496 -1.0127  1.0332
 9696SOL    HW231406   0.487   3.508   3.909  1.8397 -1.7994 -1.2056
 9697SOL     OW31407  10.182  10.107   3.246  0.5704 -0.0665 -0.5235
 9697SOL    HW131408  10.245  10.144   3.183  0.1184 -0.2107 -1.0690
 9697SOL    HW231409  10.122  10.179   3.264  0.2069 -0.2703 -0.9073
 9698SOL     OW31410   1.453   1.484   0.970 -0.4141 -0.0306  0.3423
 9698SOL    HW131411   1.446   1.481   0.874 -0.9719 -1.4792  0.4113
 9698SOL    HW231412   1.542   1.453   0.988  0.0748  1.2692  0.2661
 9699SOL     OW31413   2.539   2.037   1.950  0.2873  0.4726  0.3027
 9699SOL    HW131414   2.584   1.994   2.023  1.2966 -0.6457 -0.9302
 9699SOL    HW231415   2.455   2.065   1.987  0.1944 -1.2658  1.5685
 9700SOL     OW31416   5.453   0.869   2.043  0.0928 -0.2156  0.2430
 9700SOL    HW131417   5.465   0.962   2.027 -0.5097 -0.2484 -0.4327
 9700SOL    HW231418   5.358   0.856   2.040  0.2355 -1.0888 -1.1002
 9701SOL     OW31419   8.802   5.905   3.117  0.4992 -0.0190 -0.4067
 9701SOL    HW131420   8.784   5.996   3.096 -0.8492 -0.7539 -2.9260
 9701SOL    HW231421   8.719   5.860   3.098  1.2853 -1.8447  0.2694
 9702SOL     OW31422  10.476   2.625   3.995 -0.9109  0.3145  0.0522
 9702SOL    HW131423  10.552   2.567   4.002 -2.5102 -2.0173 -0.8021
 9702SOL    HW231424  10.505   2.695   3.937  0.8809  0.0655  0.5780
 9703SOL     OW31425   8.643   7.028   9.941 -0.0173  0.2577 -0.1260
 9703SOL    HW131426   8.692   7.088   9.997  1.4644  1.2542 -2.3874
 9703SOL    HW231427   8.567   7.079   9.913 -0.1977  0.1180  0.0986
 9704SOL     OW31428   4.442   9.102   6.663 -0.0859  0.1247 -0.0656
 9704SOL    HW131429   4.438   9.196   6.680 -2.4979 -0.3219  2.7165
 9704SOL    HW231430   4.501   9.068   6.731 -0.6810 -0.5541  0.1175
 9705SOL     OW31431   4.173   0.169   9.430  0.0446 -0.2015 -0.1092
 9705SOL    HW131432   4.094   0.126   9.463  1.0823 -1.7743  0.5213
 9705SOL    HW231433   4.241   0.141   9.492  1.5382 -0.9205 -1.9816
 9706SOL     OW31434   2.601   7.795   2.214  0.0702  0.5868  0.0474
 9706SOL    HW131435   2.529   7.832   2.266 -1.0175 -1.2108 -0.1051
 9706SOL    HW231436   2.599   7.844   2.132 -0.9600  0.6124  0.0749
 9707SOL     OW31437   1.623   2.092   3.416 -0.2015  0.5874  0.0829
 9707SOL    HW131438   1.638   2.181   3.383  0.0906  1.1699  1.6931
 9707SOL    HW231439   1.662   2.092   3.503 -0.4597 -1.0453  0.2285
 9708SOL     OW31440   8.823   4.148   3.607 -0.4325 -0.1314  0.7150
 9708SOL    HW131441   8.899   4.111   3.563 -0.9877  1.6884 -2.0671
 9708SOL    HW231442   8.853   4.230   3.644 -0.6221 -0.3316  1.3323
 9709SOL     OW31443   3.901   5.008   5.691  0.1767  0.3747  0.4379
 9709SOL    HW131444   3.939   5.081   5.642  0.3793  0.3515  0.5640
 9709SOL    HW231445   3.839   4.968   5.629 -1.3372  1.7951  0.9599
 9710SOL     OW31446   6.139   7.449   4.451 -0.5119  0.1126 -0.4225
 9710SOL    HW131447   6.154   7.515   4.383 -1.3918 -1.0803 -1.8178
 9710SOL    HW231448   6.195   7.376   4.426  0.6955  0.3905  1.2898
 9711SOL     OW31449   0.489   1.112   2.564 -0.5292  0.0919  0.0927
 9711SOL    HW131450   0.526   1.169   2.497 -1.3091  2.5988  1.6610
 9711SOL    HW231451   0.540   1.131   2.642 -1.6736 -0.3694  0.9863
 9712SOL     OW31452   8.134   3.595   3.033  0.1828  0.1047  0.1212
 9712SOL    HW131453   8.143   3.607   3.127  0.4807 -0.1043  0.1201
 9712SOL    HW231454   8.115   3.683   2.999  1.4959  0.4444  0.2078
 9713SOL     OW31455   3.180   2.636   7.480 -0.3660 -0.2799  0.0922
 9713SOL    HW131456   3.118   2.654   7.410  0.9090 -1.1442 -1.3235
 9713SOL    HW231457   3.230   2.560   7.450 -0.2520 -1.1593  2.2782
 9714SOL     OW31458   1.523   4.317   1.365 -0.6198  0.1996  0.0542
 9714SOL    HW131459   1.612   4.325   1.332  0.1606  0.3433  2.0703
 9714SOL    HW231460   1.523   4.237   1.416 -1.2576  0.8807  1.1591
 9715SOL     OW31461   1.169   1.745   5.841  0.4079 -0.7551  0.5262
 9715SOL    HW131462   1.185   1.667   5.788  0.2908 -0.7278  0.4500
 9715SOL    HW231463   1.148   1.711   5.928  0.1663 -0.8166  0.4454
 9716SOL     OW31464   1.982   9.733   2.908 -0.1286  1.1197  0.1979
 9716SOL    HW131465   1.919   9.717   2.837  1.0812  0.6331 -0.8083
 9716SOL    HW231466   1.947   9.809   2.954 -1.1919  1.1708 -0.6537
 9717SOL     OW31467   1.463   4.139   5.679 -0.0363  0.5844 -0.3006
 9717SOL    HW131468   1.506   4.099   5.755  0.5542 -0.8747 -1.3711
 9717SOL    HW231469   1.482   4.080   5.607 -0.8384  1.7993 -1.5444
 9718SOL     OW31470   1.606   1.385   1.500 -0.9162 -0.2226  0.3287
 9718SOL    HW131471   1.547   1.403   1.573  0.4014 -0.1400  1.4210
 9718SOL    HW231472   1.629   1.472   1.466  0.0628 -0.1349  1.1622
 9719SOL     OW31473   2.679  10.224   3.091 -0.0185 -0.0557 -0.1933
 9719SOL    HW131474   2.665  10.197   3.000 -0.3729 -0.5987  0.0212
 9719SOL    HW231475   2.772  10.210   3.107  0.0888  0.2458 -0.5368
 9720SOL     OW31476   3.735   1.381   3.108  0.1740  0.1547  0.6055
 9720SOL    HW131477   3.677   1.307   3.091  0.4079 -0.1185  0.9985
 9720SOL    HW231478   3.805   1.371   3.043 -0.9436  1.3023 -0.8665
 9721SOL     OW31479   0.095   4.996   4.406  0.0048  0.3442 -0.6032
 9721SOL    HW131480   0.025   5.045   4.450  0.4537 -0.2337  0.7997
 9721SOL    HW231481   0.073   4.904   4.423  0.4659  0.1242 -1.1760
 9722SOL     OW31482   8.471   0.082   9.291 -0.1774 -0.0487  0.3959
 9722SOL    HW131483   8.551   0.044   9.328  0.6941  2.2855  1.0874
 9722SOL    HW231484   8.423   0.113   9.368 -0.3662  1.0987 -0.1674
 9723SOL     OW31485   4.315   9.171   3.234  0.4106  0.0296  0.1913
 9723SOL    HW131486   4.371   9.166   3.156  0.7840 -1.4779  0.5137
 9723SOL    HW231487   4.375   9.160   3.307 -0.0804  0.2743  0.6350
 9724SOL     OW31488   1.916   7.823   2.284 -0.4626  0.1033 -0.1115
 9724SOL    HW131489   1.902   7.735   2.247 -1.5513  1.1314 -2.3387
 9724SOL    HW231490   1.828   7.854   2.305 -0.4687  1.7705 -2.2319
 9725SOL     OW31491   0.689   6.770   2.758  0.6821 -0.4596 -0.1742
 9725SOL    HW131492   0.598   6.798   2.747  0.1239 -1.7519  0.8561
 9725SOL    HW231493   0.737   6.850   2.776 -0.3985  0.1513  0.0618
 9726SOL     OW31494  10.535   0.600   9.561  0.0788  0.0832  0.0191
 9726SOL    HW131495  10.567   0.666   9.500 -1.3864  2.0709  1.2958
 9726SOL    HW231496  10.440   0.602   9.551 -0.1689  0.1405  1.9949
 9727SOL     OW31497   0.842   0.665   0.374 -0.0724 -0.5080  0.0742
 9727SOL    HW131498   0.927   0.688   0.411  0.2401 -1.7402  0.1473
 9727SOL    HW231499   0.849   0.572   0.353 -0.9950 -0.3460 -1.0375
 9728SOL     OW31500   3.419   3.491  10.155 -0.3444 -0.6088 -0.0899
 9728SOL    HW131501   3.338   3.531  10.126  0.4564  0.1221 -1.4548
 9728SOL    HW231502   3.441   3.536  10.237 -1.1206 -0.5603  0.0937
 9729SOL     OW31503   1.908   6.485   5.401 -0.0072 -0.0078 -0.1037
 9729SOL    HW131504   1.959   6.559   5.436  0.1587 -0.2224  0.1082
 9729SOL    HW231505   1.924   6.488   5.307 -2.2096  1.9438 -0.5222
 9730SOL     OW31506   4.202   7.210   4.992  0.0801  0.1966 -0.2880
 9730SOL    HW131507   4.278   7.173   4.946 -0.5136  1.5759 -2.5483
 9730SOL    HW231508   4.129   7.152   4.968 -0.0114  0.2081 -0.0416
 9731SOL     OW31509   7.050   4.751   9.843  0.1754  0.3097 -0.2175
 9731SOL    HW131510   7.111   4.677   9.837  0.8688  0.8396  0.3027
 9731SOL    HW231511   6.969   4.712   9.877  0.2810 -0.3468 -0.6863
 9732SOL     OW31512   5.122   7.499   3.125  0.3275 -0.5259 -0.3387
 9732SOL    HW131513   5.172   7.417   3.120  0.2529 -0.6079  0.2265
 9732SOL    HW231514   5.051   7.481   3.186  0.7034  0.1576  0.3291
 9733SOL     OW31515   1.935   4.084   4.016  0.4033 -0.1582  0.1037
 9733SOL    HW131516   1.860   4.052   4.067  0.2396  0.3101  0.1641
 9733SOL    HW231517   1.939   4.178   4.037  1.2533 -0.2576  0.4113
 9734SOL     OW31518   0.100   0.993   9.685 -0.0021 -0.0167 -0.6162
 9734SOL    HW131519   0.077   0.919   9.740 -0.9136 -0.7760 -1.9633
 9734SOL    HW231520   0.019   1.017   9.640  0.0749  2.3333  0.3681
 9735SOL     OW31521   7.920   4.789  10.330 -0.3711 -0.4063  0.2201
 9735SOL    HW131522   7.841   4.748  10.295 -0.6289 -0.5404  0.9397
 9735SOL    HW231523   7.950   4.729  10.398  0.2279 -0.2422  0.1100
 9736SOL     OW31524   9.360   1.578   5.118  0.1791 -0.0531  0.2430
 9736SOL    HW131525   9.440   1.526   5.121  0.5881  0.5736  0.6135
 9736SOL    HW231526   9.375   1.642   5.048 -0.2618 -0.3477 -0.1220
 9737SOL     OW31527   5.080   9.799   4.296 -0.0405  0.0657 -0.5994
 9737SOL    HW131528   5.068   9.867   4.363  1.9121  0.0775 -0.2013
 9737SOL    HW231529   4.992   9.782   4.263 -0.6976  2.1015 -0.0331
 9738SOL     OW31530   0.698   6.135  10.429  0.6647  0.4154  0.8104
 9738SOL    HW131531   0.773   6.098  10.476 -0.8194  0.7201  3.6853
 9738SOL    HW231532   0.627   6.072  10.445 -0.4404  1.6324  0.8041
 9739SOL     OW31533   4.883   7.494   7.665 -0.0916  0.3558  0.1605
 9739SOL    HW131534   4.921   7.533   7.586 -0.9471  1.7164  0.3901
 9739SOL    HW231535   4.812   7.439   7.631  0.4191 -0.1737 -0.0875
 9740SOL     OW31536   3.431   5.201   2.590  0.4213 -0.0675 -0.4519
 9740SOL    HW131537   3.411   5.264   2.522  0.5325  1.2905  0.7292
 9740SOL    HW231538   3.508   5.154   2.558 -0.1293 -0.1575 -1.6898
 9741SOL     OW31539   5.593   6.089   9.410 -0.2938  0.2544  0.4051
 9741SOL    HW131540   5.684   6.059   9.412 -1.0457 -2.1819  1.4116
 9741SOL    HW231541   5.599   6.184   9.422  2.1340  0.2711 -0.4395
 9742SOL     OW31542   3.892   4.778   1.709  0.8434  0.3885  0.2996
 9742SOL    HW131543   3.809   4.732   1.700 -0.0365  1.8880  0.4109
 9742SOL    HW231544   3.944   4.748   1.635  0.1620 -0.4661  0.1453
 9743SOL     OW31545   2.561   3.606  10.069  0.4822 -0.3815  0.0505
 9743SOL    HW131546   2.597   3.518  10.057  0.8249 -0.3961  1.0369
 9743SOL    HW231547   2.617   3.645  10.137 -0.2926  0.2301  0.3505
 9744SOL     OW31548   9.918   3.588  10.058  0.6019 -0.3146 -0.1128
 9744SOL    HW131549   9.976   3.636   9.998  1.0792 -0.2884  0.3645
 9744SOL    HW231550   9.832   3.589  10.014  0.9718 -0.4092 -0.8549
 9745SOL     OW31551   7.671   8.030   7.767 -0.4896  0.1918 -0.0137
 9745SOL    HW131552   7.697   8.117   7.736  1.3219  0.6376  2.4643
 9745SOL    HW231553   7.678   7.974   7.689  0.6615  1.8083 -1.1507
 9746SOL     OW31554   0.835   3.396   2.087 -0.1745  0.0207 -0.3142
 9746SOL    HW131555   0.918   3.433   2.057 -0.7321  1.9016  0.3291
 9746SOL    HW231556   0.780   3.472   2.105 -2.3553 -1.1539 -1.5177
 9747SOL     OW31557   7.178   9.264   2.306  0.3431  0.1858 -0.3918
 9747SOL    HW131558   7.203   9.336   2.364 -0.3433  0.7462 -0.7778
 9747SOL    HW231559   7.180   9.302   2.218  1.3635 -0.6529 -0.7501
 9748SOL     OW31560   6.414   0.619   5.290  0.4896  0.2607  0.0705
 9748SOL    HW131561   6.425   0.669   5.371  1.2092  1.1398 -0.5410
 9748SOL    HW231562   6.492   0.565   5.284 -0.2578 -0.9184  0.6946
 9749SOL     OW31563   1.532   1.105   7.511  0.0045  0.3786 -0.7960
 9749SOL    HW131564   1.528   1.135   7.602  1.8541 -2.2009  0.2674
 9749SOL    HW231565   1.621   1.127   7.482  0.2507 -0.9522 -1.1184
 9750SOL     OW31566   7.922   4.133   4.410 -0.8160  0.1779 -0.5630
 9750SOL    HW131567   7.953   4.145   4.320 -0.8308  0.6369 -0.5096
 9750SOL    HW231568   7.946   4.043   4.432  2.0264  0.9892  0.0613
 9751SOL     OW31569   8.696   7.219   1.103 -0.3225 -0.5501  0.0513
 9751SOL    HW131570   8.758   7.277   1.149 -1.7754 -0.8419  2.5506
 9751SOL    HW231571   8.636   7.279   1.059 -0.3126 -0.2004  0.5090
 9752SOL     OW31572   8.653   0.096   4.045  0.1229  0.0275  0.3239
 9752SOL    HW131573   8.683   0.017   4.090 -0.3609  0.1805  0.9325
 9752SOL    HW231574   8.718   0.163   4.068  0.3574 -0.1137  0.0715
 9753SOL     OW31575  10.119   5.512   7.578  0.0755 -0.1725  0.0792
 9753SOL    HW131576  10.057   5.445   7.548 -1.5304  1.5499 -0.6322
 9753SOL    HW231577  10.133   5.491   7.671  0.5652 -2.1532 -0.3910
 9754SOL     OW31578   0.782   1.655   6.072  0.2778  0.3484  0.1460
 9754SOL    HW131579   0.826   1.739   6.058  0.3997  0.5359  1.5860
 9754SOL    HW231580   0.814   1.600   6.000  2.4938  0.6355  0.8391
 9755SOL     OW31581   0.182   6.066   2.896 -0.0421  0.5599 -0.2416
 9755SOL    HW131582   0.178   6.089   2.989  0.6360 -1.3919  0.2976
 9755SOL    HW231583   0.136   5.983   2.889 -0.0774  0.6723 -1.6626
 9756SOL     OW31584   8.929   6.882   9.713  0.3645 -0.5284 -0.8316
 9756SOL    HW131585   8.981   6.900   9.792  0.1907 -0.5504 -0.7108
 9756SOL    HW231586   8.879   6.803   9.735 -0.3511 -0.0348 -0.6312
 9757SOL     OW31587   0.748   1.003   0.664  0.6480 -0.1665 -0.2708
 9757SOL    HW131588   0.658   1.009   0.631  0.1357  2.4981  1.3053
 9757SOL    HW231589   0.749   0.923   0.716 -0.5745 -0.6666 -0.9846
 9758SOL     OW31590   3.940  10.505   8.759  0.6441  0.1078  0.1029
 9758SOL    HW131591   3.925  10.554   8.840  1.8355  0.1084  0.3342
 9758SOL    HW231592   3.863  10.524   8.705 -0.3361 -0.1745  1.3606
 9759SOL     OW31593   6.933   4.441   2.949 -0.7597  0.9448  0.1894
 9759SOL    HW131594   6.884   4.371   2.904 -1.3663  1.9013 -0.6964
 9759SOL    HW231595   6.891   4.449   3.034 -0.0297 -0.4425  0.7118
 9760SOL     OW31596   5.902   6.159   9.494  0.0097 -0.2602 -0.2874
 9760SOL    HW131597   5.899   6.163   9.398  2.3861  0.5486 -0.4043
 9760SOL    HW231598   5.949   6.077   9.512  1.3710  0.5666  0.0659
 9761SOL     OW31599   5.778  10.539   4.756 -0.5691  0.3867  0.1506
 9761SOL    HW131600   5.782  10.627   4.794 -0.6084  0.0819  0.8844
 9761SOL    HW231601   5.819  10.548   4.670 -1.4917  1.3409 -0.2148
 9762SOL     OW31602   8.571   7.220   7.101  0.3144  0.1075  0.3102
 9762SOL    HW131603   8.616   7.284   7.156  0.6506  0.0857  0.0669
 9762SOL    HW231604   8.607   7.235   7.013  0.3017 -0.3275  0.2265
 9763SOL     OW31605  10.215   2.654   9.307 -0.1660  0.2580 -0.1833
 9763SOL    HW131606  10.215   2.685   9.217  1.3945  3.3841  0.7321
 9763SOL    HW231607  10.123   2.653   9.333 -0.4995  1.0469 -1.2891
 9764SOL     OW31608   5.933   3.064   6.554  0.5632 -0.3719 -0.5612
 9764SOL    HW131609   5.916   2.970   6.548  1.8629 -0.6862  0.3284
 9764SOL    HW231610   5.990   3.083   6.479  0.8377 -0.4242 -0.3658
 9765SOL     OW31611   9.933  10.571   7.611 -0.1912  0.1561  0.1536
 9765SOL    HW131612  10.027  10.570   7.631 -0.0696  2.9958  0.2193
 9765SOL    HW231613   9.923  10.508   7.539  1.8205 -0.0360 -0.0234
 9766SOL     OW31614   3.001   9.051   7.665  0.0405  0.1116 -0.1974
 9766SOL    HW131615   3.006   9.129   7.721 -2.5475  0.1236  0.1129
 9766SOL    HW231616   2.932   9.071   7.602 -0.7159 -1.9203 -0.0736
 9767SOL     OW31617   9.861   6.935   0.992 -0.1074 -0.0470  0.4226
 9767SOL    HW131618   9.944   6.907   1.030 -0.2876 -1.6821 -0.3314
 9767SOL    HW231619   9.845   6.873   0.921 -2.8982 -0.9361  1.7179
 9768SOL     OW31620   5.054   7.147   9.745  0.0368  0.1105  0.5599
 9768SOL    HW131621   4.973   7.195   9.729 -1.3808 -2.5085 -0.8783
 9768SOL    HW231622   5.109   7.165   9.669 -0.2565 -0.1160  0.2949
 9769SOL     OW31623   2.600   2.693   7.332 -0.2641  0.4205  0.1016
 9769SOL    HW131624   2.623   2.706   7.240  0.8189  2.6420  0.6139
 9769SOL    HW231625   2.524   2.750   7.346  0.5301  1.3334  0.9009
 9770SOL     OW31626   1.847   6.146   8.786 -0.0720  0.3594  0.2997
 9770SOL    HW131627   1.881   6.167   8.872  1.1814 -2.2089  0.5109
 9770SOL    HW231628   1.851   6.051   8.780 -1.9268  0.3169 -1.8825
 9771SOL     OW31629  10.145   6.523   4.105 -0.6387 -0.0523 -0.4907
 9771SOL    HW131630  10.077   6.487   4.162  2.0874  0.6307  3.6903
 9771SOL    HW231631  10.149   6.616   4.128  1.7007 -0.0963 -0.4854
 9772SOL     OW31632   9.911   6.203   3.730 -0.5773 -0.3606 -0.2345
 9772SOL    HW131633   9.961   6.284   3.739  1.0526 -1.1138 -1.6991
 9772SOL    HW231634   9.853   6.218   3.656  0.8182 -0.9839 -1.5035
 9773SOL     OW31635   3.618   0.550   0.513  0.3373 -0.2108 -0.1107
 9773SOL    HW131636   3.530   0.523   0.537  0.2031  0.5930  0.3372
 9773SOL    HW231637   3.675   0.506   0.576  0.0678  1.0692  1.0645
 9774SOL     OW31638   5.082   0.098   4.428  0.0666  0.2770  0.3467
 9774SOL    HW131639   5.126   0.035   4.371  0.9822  1.3513 -0.1484
 9774SOL    HW231640   5.137   0.101   4.507  0.3535  0.9143  0.1197
 9775SOL     OW31641   9.781   3.539   9.517  0.4927  0.0046 -0.3195
 9775SOL    HW131642   9.789   3.454   9.473 -0.0451  0.0625 -0.5403
 9775SOL    HW231643   9.689   3.564   9.503  0.4653  0.2907  0.3481
 9776SOL     OW31644   1.055   6.129   5.374 -0.9769  0.1996  0.3162
 9776SOL    HW131645   1.070   6.207   5.427 -1.8310  0.5679  0.0421
 9776SOL    HW231646   0.964   6.138   5.345 -1.4328 -1.4347  1.1618
 9777SOL     OW31647   1.919   9.511   6.334  0.1432  0.6994  0.4378
 9777SOL    HW131648   2.011   9.532   6.321  0.5134 -0.2944  1.3210
 9777SOL    HW231649   1.911   9.495   6.428 -0.8443  0.3982  0.3149
 9778SOL     OW31650   8.088   2.693  10.155  0.2000  0.3557 -0.2857
 9778SOL    HW131651   8.043   2.759  10.208  1.2166  0.8574 -0.0179
 9778SOL    HW231652   8.116   2.626  10.217 -0.6127 -0.2070 -0.5226
 9779SOL     OW31653   6.536   1.931   3.062  0.4837  0.1332  0.7535
 9779SOL    HW131654   6.479   1.946   3.138 -0.3037 -1.0944  0.4357
 9779SOL    HW231655   6.519   1.840   3.037  0.2788  0.6727 -1.2603
 9780SOL     OW31656  10.531   3.545   0.786  0.4707  0.3530 -0.0714
 9780SOL    HW131657  10.442   3.509   0.784  0.5888  0.0556  0.0090
 9780SOL    HW231658  10.520   3.637   0.762 -0.0644  0.7319  1.5187
 9781SOL     OW31659   2.016   9.668   8.339 -1.0528 -0.4118 -0.1172
 9781SOL    HW131660   1.929   9.657   8.301 -1.8311  0.2244  1.3727
 9781SOL    HW231661   2.059   9.583   8.327 -1.7512 -0.6429 -1.1341
 9782SOL     OW31662   8.526   7.854   3.522 -0.6007 -0.4258 -0.0857
 9782SOL    HW131663   8.574   7.847   3.604 -0.0290  0.3430 -0.3495
 9782SOL    HW231664   8.545   7.942   3.489  0.7293 -1.3645 -2.0048
 9783SOL     OW31665   2.620   3.862   3.512 -0.2776 -0.4028  0.4471
 9783SOL    HW131666   2.618   3.923   3.586 -0.3277  1.2679 -0.8457
 9783SOL    HW231667   2.533   3.869   3.473  0.4303  0.5463 -1.0814
 9784SOL     OW31668   4.145   0.877   2.266 -0.3340 -0.0825  0.3089
 9784SOL    HW131669   4.159   0.971   2.262 -1.3658  0.0505 -2.4738
 9784SOL    HW231670   4.061   0.863   2.224 -1.0115 -2.1551  2.1388
 9785SOL     OW31671   8.311   8.019   5.871 -0.0670  0.3298  0.1698
 9785SOL    HW131672   8.301   8.102   5.917 -0.1269  0.1900  0.4122
 9785SOL    HW231673   8.262   8.030   5.790 -2.2424 -0.3437  1.3335
 9786SOL     OW31674   6.936   4.939   6.773 -0.6840  0.0567  0.2012
 9786SOL    HW131675   6.880   4.999   6.723 -0.2589 -0.9652 -1.6079
 9786SOL    HW231676   7.015   4.990   6.792 -0.3252  0.1187 -1.3142
 9787SOL     OW31677   6.044  10.173   6.176 -0.3375 -0.7587 -0.4336
 9787SOL    HW131678   5.989  10.132   6.109  0.5378  0.1125 -1.7431
 9787SOL    HW231679   6.105  10.228   6.126  1.6675 -1.6290  0.9236
 9788SOL     OW31680   6.860   3.943   1.608 -0.0539  0.1710 -0.6010
 9788SOL    HW131681   6.936   3.888   1.624 -0.0023 -0.2946 -2.2545
 9788SOL    HW231682   6.792   3.882   1.578 -0.8562  0.6671  0.1680
 9789SOL     OW31683   0.601   4.781   5.863  0.0022  0.1813  0.3508
 9789SOL    HW131684   0.624   4.689   5.874 -0.0449  0.3398  2.0329
 9789SOL    HW231685   0.593   4.792   5.769 -1.0106 -1.7842  0.1435
 9790SOL     OW31686   7.539   8.290   6.518  0.1886 -0.5103 -0.5050
 9790SOL    HW131687   7.566   8.203   6.488 -0.0357 -1.0901  0.8728
 9790SOL    HW231688   7.580   8.299   6.604  0.3861  0.8517 -0.7208
 9791SOL     OW31689   3.848   0.920   2.391 -0.0445  0.8813  0.9929
 9791SOL    HW131690   3.866   0.835   2.352  0.8593  0.7724  1.6316
 9791SOL    HW231691   3.887   0.916   2.478 -0.1141  1.9003  1.0844
 9792SOL     OW31692   8.815  10.508   2.342 -0.1137 -0.5844  0.5352
 9792SOL    HW131693   8.884  10.528   2.279 -1.2453  1.4355 -0.1812
 9792SOL    HW231694   8.821  10.578   2.407 -0.8979 -0.9141  0.9780
 9793SOL     OW31695   8.588   0.828   7.261 -0.3535 -0.2522  0.4413
 9793SOL    HW131696   8.603   0.902   7.321 -1.2353 -0.5652  1.0552
 9793SOL    HW231697   8.628   0.753   7.305  0.4971 -0.1717 -0.1600
 9794SOL     OW31698   9.618   0.084   8.861  0.2702  0.1887 -0.4837
 9794SOL    HW131699   9.674   0.161   8.849  0.0306  0.0107 -3.3669
 9794SOL    HW231700   9.673   0.022   8.908  1.2894  1.2583 -0.2131
 9795SOL     OW31701   7.584   1.160   4.743  0.2441  0.3409  0.1192
 9795SOL    HW131702   7.518   1.187   4.679 -0.2356 -1.0183 -0.0038
 9795SOL    HW231703   7.639   1.098   4.695  0.7988  0.4546  0.6026
 9796SOL     OW31704   1.329   7.568   6.850 -0.4963  0.3764  0.1062
 9796SOL    HW131705   1.308   7.513   6.775  2.1408 -0.7205  0.0700
 9796SOL    HW231706   1.305   7.516   6.926  0.1146 -0.0102  0.0425
 9797SOL     OW31707   1.260   0.397   7.556  0.2435 -0.4227  0.0338
 9797SOL    HW131708   1.249   0.478   7.606  0.4454 -0.4631  0.1432
 9797SOL    HW231709   1.299   0.335   7.618 -2.6685 -1.5558  0.8908
 9798SOL     OW31710   8.944   9.249  10.594 -0.4659  0.6325  0.2623
 9798SOL    HW131711   8.946   9.184  10.664  0.4512  0.0638 -0.2800
 9798SOL    HW231712   8.963   9.332  10.639 -0.3089  0.3390  0.7437
 9799SOL     OW31713   2.132   4.721   3.180  0.4802 -0.2436 -0.2258
 9799SOL    HW131714   2.224   4.725   3.206  0.4456 -1.2908  0.0915
 9799SOL    HW231715   2.088   4.784   3.238  1.2782  1.8840 -1.8133
 9800SOL     OW31716   4.442   9.310   2.834  0.4964 -0.0487  0.1675
 9800SOL    HW131717   4.358   9.318   2.879  0.2185 -1.9772  0.1060
 9800SOL    HW231718   4.423   9.336   2.744 -0.2234 -1.0402  0.0109
 9801SOL     OW31719   7.680   7.514   1.349  0.0404 -0.0089 -0.6396
 9801SOL    HW131720   7.588   7.536   1.333 -0.0384 -1.6224 -2.9815
 9801SOL    HW231721   7.684   7.490   1.441 -1.3303  2.4420  0.1354
 9802SOL     OW31722  10.253   1.174   8.388  0.2829 -0.2663 -0.5374
 9802SOL    HW131723  10.198   1.196   8.464  1.5414  0.4045  0.2097
 9802SOL    HW231724  10.213   1.094   8.353 -0.9765  0.0193  0.1683
 9803SOL     OW31725   8.155   3.900   5.623  0.1713  0.6780  0.0486
 9803SOL    HW131726   8.230   3.944   5.581  0.6568 -0.5817 -0.4554
 9803SOL    HW231727   8.089   3.894   5.554  0.8491 -1.1041 -0.5084
 9804SOL     OW31728   1.612   9.637   1.275  0.4339 -0.2464  0.0837
 9804SOL    HW131729   1.565   9.558   1.299  2.5662 -1.5926  0.1307
 9804SOL    HW231730   1.626   9.682   1.359  1.6393 -1.3016  0.4916
 9805SOL     OW31731   0.423   5.008   4.690 -0.4209  0.4781  0.3640
 9805SOL    HW131732   0.381   5.067   4.752  0.7247 -0.5636  2.2420
 9805SOL    HW231733   0.506   5.051   4.667 -0.5386  0.5574  0.0885
 9806SOL     OW31734   8.864   4.938  10.593 -0.1589  0.0996 -0.1475
 9806SOL    HW131735   8.813   4.858  10.608  0.3933 -0.4826 -1.1876
 9806SOL    HW231736   8.842   4.963  10.503 -0.9009  1.5779  0.4017
 9807SOL     OW31737   7.806   1.326  10.101  0.5053  0.0662 -0.2444
 9807SOL    HW131738   7.735   1.381  10.068 -0.0056 -0.5055 -0.1179
 9807SOL    HW231739   7.765   1.269  10.166  1.1606  0.0047  0.1304
 9808SOL     OW31740   8.756   0.958   9.668 -0.5082  0.2325  0.1943
 9808SOL    HW131741   8.772   0.907   9.748 -1.2423 -1.0859 -0.4620
 9808SOL    HW231742   8.740   1.047   9.700 -0.5888 -0.2171  1.4976
 9809SOL     OW31743   0.240   9.478   4.309  1.1159 -0.2873 -0.5533
 9809SOL    HW131744   0.157   9.469   4.356  0.6654  2.5731 -0.6080
 9809SOL    HW231745   0.300   9.418   4.353 -1.0468 -2.7685 -0.8026
 9810SOL     OW31746   6.047   0.722   0.386  0.1769  0.4732 -0.1464
 9810SOL    HW131747   6.031   0.640   0.433  1.5325  0.4451  0.3163
 9810SOL    HW231748   6.046   0.698   0.294 -1.0462  0.2535 -0.0947
 9811SOL     OW31749   1.629   6.208   1.443  0.0997 -0.4335 -0.2054
 9811SOL    HW131750   1.674   6.161   1.373  2.2863  1.3599 -0.1235
 9811SOL    HW231751   1.689   6.206   1.517 -0.7745  0.4501  0.5676
 9812SOL     OW31752   9.574   1.668   8.588 -0.0215  0.4281  0.2060
 9812SOL    HW131753   9.573   1.722   8.509  0.8874  1.6095  0.9709
 9812SOL    HW231754   9.666   1.662   8.611 -0.2713  0.0069  1.1227
 9813SOL     OW31755   5.379   5.843   1.427  0.0084 -0.4624  0.1964
 9813SOL    HW131756   5.379   5.909   1.497  2.1556 -0.4161  0.2409
 9813SOL    HW231757   5.292   5.805   1.429 -0.7428  1.2159  1.2942
 9814SOL     OW31758   0.953   7.152   0.044  0.4059 -0.3662 -0.0166
 9814SOL    HW131759   0.939   7.202   0.124 -1.1513  0.2211 -0.6247
 9814SOL    HW231760   0.907   7.070   0.059 -0.2369 -0.0890 -0.4623
 9815SOL     OW31761   3.286   3.033   2.913 -0.2914 -0.3019  0.2078
 9815SOL    HW131762   3.238   2.979   2.851 -0.3956 -1.8014  1.5568
 9815SOL    HW231763   3.378   3.015   2.893 -0.3259 -1.0238  0.6853
 9816SOL     OW31764   3.046   0.735   5.920  0.4979  0.2561 -0.3980
 9816SOL    HW131765   3.056   0.665   5.855 -1.3547 -2.1139  1.6710
 9816SOL    HW231766   2.953   0.756   5.919  0.7469  1.4775  0.2363
 9817SOL     OW31767   5.294   9.877   9.461 -0.0147 -0.5413 -0.0896
 9817SOL    HW131768   5.206   9.910   9.479  0.8750  1.6980  0.5736
 9817SOL    HW231769   5.323   9.927   9.385  0.8266 -0.9586 -0.0532
 9818SOL     OW31770   7.527   0.443   2.322  0.5886 -0.3528 -0.2040
 9818SOL    HW131771   7.443   0.431   2.367  0.5599  1.7602  0.4107
 9818SOL    HW231772   7.590   0.461   2.392  0.4815  3.3113 -0.8491
 9819SOL     OW31773   7.549   9.183   4.270 -0.2813 -0.4569 -0.4991
 9819SOL    HW131774   7.549   9.173   4.365 -1.4767 -0.7188 -0.5139
 9819SOL    HW231775   7.639   9.162   4.244 -0.4128 -2.3262  0.3810
 9820SOL     OW31776   6.826   0.140   8.139  0.2703  0.3535 -0.1541
 9820SOL    HW131777   6.778   0.219   8.164 -1.6298 -0.0797 -2.1006
 9820SOL    HW231778   6.883   0.168   8.067  1.1167  0.3450  0.4998
 9821SOL     OW31779   5.192   3.185  10.231 -0.4322  0.1823 -0.1452
 9821SOL    HW131780   5.234   3.219  10.310 -0.8018  0.4108 -0.0425
 9821SOL    HW231781   5.148   3.262  10.193  0.9865  0.4232 -1.3945
 9822SOL     OW31782   4.636   2.382   9.414 -0.2610 -0.0816  0.6721
 9822SOL    HW131783   4.548   2.410   9.436 -1.2599 -2.1635 -0.3648
 9822SOL    HW231784   4.630   2.350   9.324  1.4413 -0.7210  0.7364
 9823SOL     OW31785   8.988   4.542   9.308 -0.2690 -0.7437 -0.4934
 9823SOL    HW131786   8.967   4.566   9.398  0.3991  2.3456 -1.0632
 9823SOL    HW231787   8.910   4.495   9.277  0.1803 -3.5030  2.1369
 9824SOL     OW31788   0.655   6.690   8.084  0.4803 -0.1896  0.5931
 9824SOL    HW131789   0.569   6.657   8.109  0.8064 -1.2387  0.4114
 9824SOL    HW231790   0.653   6.691   7.988  0.5742  0.0442  0.5938
 9825SOL     OW31791   9.018   9.706   7.487  0.3566  0.7220 -0.2449
 9825SOL    HW131792   8.974   9.786   7.517  0.3676  1.6593 -2.4929
 9825SOL    HW231793   9.107   9.735   7.467  1.3132 -0.5969  1.8282
 9826SOL     OW31794   3.486   1.361   6.832  0.0008 -0.1933  0.1113
 9826SOL    HW131795   3.430   1.385   6.906  1.4461  1.7479  0.6600
 9826SOL    HW231796   3.525   1.444   6.804  0.1520 -1.0050 -2.3079
 9827SOL     OW31797   9.288   7.752   8.496 -0.0002  0.3870  0.2539
 9827SOL    HW131798   9.237   7.681   8.537 -2.8098  0.2108 -3.0861
 9827SOL    HW231799   9.315   7.716   8.412  2.4606  1.8668  0.3310
 9828SOL     OW31800   4.460   9.148   0.663 -0.1695 -0.0065 -0.6129
 9828SOL    HW131801   4.494   9.232   0.633  0.2364  0.3268  0.7259
 9828SOL    HW231802   4.377   9.169   0.705  0.2596 -0.1565  0.3425
 9829SOL     OW31803   2.684   5.205   3.762 -0.3104 -0.4267  0.2746
 9829SOL    HW131804   2.739   5.213   3.840 -0.3338 -0.1299  0.2617
 9829SOL    HW231805   2.623   5.278   3.768  2.2771  2.1973 -2.0774
 9830SOL     OW31806   3.986   7.910   0.828 -0.0174  0.3315 -0.1639
 9830SOL    HW131807   3.998   7.914   0.923  1.0542  1.4697 -0.3112
 9830SOL    HW231808   4.017   7.823   0.803  0.0021  0.1478  0.4948
 9831SOL     OW31809   5.952   1.694   5.788  0.5025 -0.1352  0.2779
 9831SOL    HW131810   5.870   1.721   5.829  0.5540  2.5988 -1.1759
 9831SOL    HW231811   6.013   1.683   5.861 -0.5505  0.1133  1.2163
 9832SOL     OW31812   2.144   2.263   8.188  0.2241  0.0562 -0.0826
 9832SOL    HW131813   2.090   2.224   8.119 -0.2228 -1.4882  1.0697
 9832SOL    HW231814   2.130   2.357   8.181 -1.3622 -0.2129 -0.8453
 9833SOL     OW31815   4.166   9.943   4.001 -0.1814  0.0159  0.0227
 9833SOL    HW131816   4.162   9.983   3.915 -0.8286  2.6630  1.1764
 9833SOL    HW231817   4.136   9.853   3.988 -3.7603  1.3037 -1.9929
 9834SOL     OW31818   5.132   1.798  10.358 -0.2361  0.5391 -0.2954
 9834SOL    HW131819   5.126   1.778  10.451 -1.0122  2.7017  0.1593
 9834SOL    HW231820   5.050   1.766  10.321 -0.8354  1.5316  0.1542
 9835SOL     OW31821   7.418   8.311   8.960 -0.0832  1.1984 -0.0849
 9835SOL    HW131822   7.448   8.282   9.046 -0.4248  1.3409  0.0838
 9835SOL    HW231823   7.371   8.393   8.978 -2.0380  0.1307 -0.1232
 9836SOL     OW31824   7.155   4.082   7.404  0.7092 -0.3356 -0.2803
 9836SOL    HW131825   7.179   4.073   7.312  0.7641 -1.4687 -0.1685
 9836SOL    HW231826   7.161   3.993   7.440 -1.4434 -0.3064  0.2972
 9837SOL     OW31827   9.122   9.480   2.442 -0.9973 -0.4909  0.0819
 9837SOL    HW131828   9.070   9.559   2.453  1.9148  1.5362  0.3715
 9837SOL    HW231829   9.147   9.481   2.350 -0.7698 -0.9496  0.1374
 9838SOL     OW31830   2.689   8.544   9.202 -0.0885  0.4762  0.3690
 9838SOL    HW131831   2.690   8.448   9.195 -1.0023  0.5167 -0.6394
 9838SOL    HW231832   2.659   8.561   9.291 -1.0104 -0.1961  0.2024
 9839SOL     OW31833   0.222   1.427   0.033 -0.1105 -0.0392  0.0110
 9839SOL    HW131834   0.274   1.498  -0.002 -0.6695 -0.2971 -1.3995
 9839SOL    HW231835   0.229   1.437   0.128  2.4710 -0.0875 -0.1298
 9840SOL     OW31836   0.076   1.395   1.163 -0.0975  0.1145  0.2574
 9840SOL    HW131837   0.143   1.441   1.114  1.3758 -0.4947  1.5954
 9840SOL    HW231838  -0.007   1.422   1.123  0.7360  3.0470  0.3069
 9841SOL     OW31839   7.388   4.215   3.603  0.1722 -0.3381 -0.0241
 9841SOL    HW131840   7.464   4.173   3.645  0.2858 -0.4122 -0.2983
 9841SOL    HW231841   7.404   4.309   3.614 -0.0390 -0.3591  0.5148
 9842SOL     OW31842   6.021   0.611   0.137 -0.2316 -0.4691  0.0293
 9842SOL    HW131843   5.975   0.667   0.074 -0.1015  1.6977  1.7239
 9842SOL    HW231844   5.982   0.524   0.125 -1.3295  0.2288 -1.8823
 9843SOL     OW31845   5.823   6.676   6.286  0.5557  0.5415 -0.1818
 9843SOL    HW131846   5.910   6.694   6.251  0.5132  0.9987 -0.0557
 9843SOL    HW231847   5.799   6.592   6.248  0.8158  0.6844 -0.6722
 9844SOL     OW31848   4.739   5.610   7.060  0.1618 -0.4687 -0.6451
 9844SOL    HW131849   4.650   5.612   7.024  0.2711 -2.0719 -1.0951
 9844SOL    HW231850   4.795   5.634   6.986  0.0707  2.0138  0.0030
 9845SOL     OW31851   8.158   7.505   7.943 -0.3075 -0.1654 -0.6053
 9845SOL    HW131852   8.068   7.492   7.973 -1.2934 -1.1949 -3.6707
 9845SOL    HW231853   8.157   7.591   7.901  0.3689  0.1136 -0.0882
 9846SOL     OW31854   0.667   5.054   8.103 -0.1139 -0.5664  0.3526
 9846SOL    HW131855   0.723   5.127   8.127 -0.7647  0.4322 -1.0399
 9846SOL    HW231856   0.643   5.014   8.187 -0.1647  1.1260  1.1958
 9847SOL     OW31857   5.937   0.145   0.720 -0.1170 -0.7817  0.2677
 9847SOL    HW131858   5.920   0.191   0.639 -0.8835 -1.0372  0.2685
 9847SOL    HW231859   6.031   0.156   0.736 -0.1035 -0.1113 -0.2609
 9848SOL     OW31860   3.337   2.478   4.247  0.1546 -0.2774 -0.2437
 9848SOL    HW131861   3.349   2.553   4.189  1.7046  1.4226  2.1044
 9848SOL    HW231862   3.289   2.513   4.322 -0.2698 -1.9816  0.3223
 9849SOL     OW31863   6.382   5.285   2.966 -0.5351  0.2537  0.5217
 9849SOL    HW131864   6.342   5.330   2.891  0.1925 -0.9123 -0.6114
 9849SOL    HW231865   6.397   5.196   2.934  0.9717  0.0802  1.6308
 9850SOL     OW31866   4.283   1.622   4.815 -0.4122  0.5175  0.1919
 9850SOL    HW131867   4.249   1.668   4.738 -0.9604  0.4907  0.4092
 9850SOL    HW231868   4.325   1.544   4.779 -2.0655 -0.3423 -0.0068
 9851SOL     OW31869   5.376   9.899   3.654  0.9191 -0.1128 -0.5721
 9851SOL    HW131870   5.413   9.973   3.604 -0.5943  0.6977 -0.5467
 9851SOL    HW231871   5.331   9.846   3.588  0.2242  0.1340 -0.3067
 9852SOL     OW31872  10.087   9.218   2.572 -0.4713 -0.2907 -0.6587
 9852SOL    HW131873  10.013   9.178   2.618 -1.0656 -0.0149 -1.3683
 9852SOL    HW231874  10.152   9.147   2.566  0.4454  0.1596  2.2882
 9853SOL     OW31875   1.882   2.840   1.329 -0.3228 -0.3352  0.0964
 9853SOL    HW131876   1.842   2.926   1.318  0.0092  0.1324  2.0517
 9853SOL    HW231877   1.822   2.793   1.388  1.3425 -0.0094  2.1848
 9854SOL     OW31878   4.292   1.971   8.393 -0.0577  0.5524  0.4433
 9854SOL    HW131879   4.285   1.894   8.337  0.6414 -0.3744  1.5840
 9854SOL    HW231880   4.385   1.994   8.390  0.4836 -0.8976  2.9127
 9855SOL     OW31881   6.136   4.870   1.817 -0.3684  0.0966 -0.3258
 9855SOL    HW131882   6.070   4.810   1.782  1.0846 -1.3191 -0.7246
 9855SOL    HW231883   6.123   4.867   1.912 -1.3711  0.4620 -0.4328
 9856SOL     OW31884   5.889   4.264   0.214 -0.8778 -0.2647 -0.5561
 9856SOL    HW131885   5.870   4.358   0.214 -2.0053 -0.4699 -0.5870
 9856SOL    HW231886   5.962   4.254   0.154 -1.0959  0.5336 -0.9754
 9857SOL     OW31887   3.483   9.925  10.053  0.1350  0.1049  0.4253
 9857SOL    HW131888   3.479  10.008  10.006 -2.3930 -0.4296 -0.4514
 9857SOL    HW231889   3.439   9.863   9.995  1.5452 -1.7660  1.2646
 9858SOL     OW31890   3.615   6.478   9.799 -0.3378  0.3554 -0.1561
 9858SOL    HW131891   3.670   6.438   9.867 -0.5341 -1.5491 -1.0516
 9858SOL    HW231892   3.663   6.465   9.718 -1.5028 -0.2004 -0.7840
 9859SOL     OW31893   8.439   7.445   5.811 -0.2116  0.3769 -0.1905
 9859SOL    HW131894   8.413   7.534   5.837  2.2793  0.9476  0.7293
 9859SOL    HW231895   8.399   7.389   5.877  0.0491  1.0946  0.6123
 9860SOL     OW31896   2.246   0.402   9.697 -0.3836 -0.3694 -0.1345
 9860SOL    HW131897   2.331   0.404   9.652 -1.0925  0.5279 -1.5219
 9860SOL    HW231898   2.191   0.348   9.640 -1.0322 -0.0476  0.1809
 9861SOL     OW31899   7.386   7.464   2.883  0.4661 -0.0223  0.5593
 9861SOL    HW131900   7.320   7.457   2.952  0.8569  1.0741  1.0660
 9861SOL    HW231901   7.378   7.383   2.834 -1.4462  0.2009  0.4442
 9862SOL     OW31902   6.579   9.309   1.263 -0.6431 -0.0342  0.7410
 9862SOL    HW131903   6.560   9.403   1.258 -0.9673 -0.1137  0.4134
 9862SOL    HW231904   6.493   9.268   1.273 -0.6600 -0.3966 -0.6773
 9863SOL     OW31905   5.197   5.034   2.293  0.1727  0.2500  0.4992
 9863SOL    HW131906   5.140   4.963   2.265  0.5645  0.0374  0.2266
 9863SOL    HW231907   5.143   5.113   2.285  0.6855  0.4327 -2.4064
 9864SOL     OW31908   5.292   3.360   5.756 -0.1679 -0.0147  0.3277
 9864SOL    HW131909   5.234   3.308   5.812  0.4238 -0.5217  0.4848
 9864SOL    HW231910   5.379   3.321   5.769  0.0843  0.2736 -0.4522
 9865SOL     OW31911   0.631  10.355   1.230  0.1851  0.2777  0.6476
 9865SOL    HW131912   0.550  10.349   1.180  0.0215 -0.9230  1.0128
 9865SOL    HW231913   0.602  10.355   1.322  0.5980 -0.3709  0.7827
 9866SOL     OW31914  10.054   4.191   0.146  0.2435 -0.1048 -0.1503
 9866SOL    HW131915  10.089   4.234   0.223  1.0122 -1.1217  0.0861
 9866SOL    HW231916  10.105   4.226   0.073  0.5978 -0.3195 -0.0065
 9867SOL     OW31917   3.787   4.902   5.481  0.2065  0.3625 -0.2969
 9867SOL    HW131918   3.796   4.959   5.404 -0.7035 -0.9054 -1.3875
 9867SOL    HW231919   3.851   4.833   5.468 -1.6375 -1.2511 -1.2514
 9868SOL     OW31920   2.934   8.664   0.027 -0.4500  0.2196  0.0626
 9868SOL    HW131921   2.971   8.636  -0.057 -0.1293  0.2389  0.1935
 9868SOL    HW231922   2.988   8.739   0.053 -1.2217  0.8889 -0.2252
 9869SOL     OW31923   0.144   3.097   2.332  0.0099  0.0405  0.4561
 9869SOL    HW131924   0.195   3.117   2.411 -1.9901  2.1604  1.3181
 9869SOL    HW231925   0.208   3.102   2.261  1.4070  0.4880  1.6838
 9870SOL     OW31926   0.485   6.999   9.837 -0.0051  0.2086  0.4986
 9870SOL    HW131927   0.428   7.070   9.867  1.3067  0.7766  1.7874
 9870SOL    HW231928   0.433   6.920   9.850 -0.4634  0.6930  1.8571
 9871SOL     OW31929   0.955   5.270   4.517  0.3379  0.3922 -0.4627
 9871SOL    HW131930   1.001   5.354   4.516 -1.1251  1.4303  3.0400
 9871SOL    HW231931   0.874   5.287   4.470 -0.2610  1.2340  0.8136
 9872SOL     OW31932   3.163   7.127   7.251  0.4368  0.6711  0.0371
 9872SOL    HW131933   3.160   7.178   7.332 -0.5609 -0.6821  0.9106
 9872SOL    HW231934   3.236   7.163   7.202  0.5670  2.0568  1.1854
 9873SOL     OW31935   2.959   9.503   6.227 -0.7059  0.3773  0.1042
 9873SOL    HW131936   2.945   9.591   6.264 -2.4936  0.0292  0.3406
 9873SOL    HW231937   2.885   9.490   6.167 -0.0543 -0.6827 -0.4973
 9874SOL     OW31938   7.782   4.469   8.425  0.0810  0.1590 -0.4197
 9874SOL    HW131939   7.701   4.431   8.460  0.5671 -0.0613  0.4929
 9874SOL    HW231940   7.818   4.401   8.368  0.5837 -0.4952  0.6545
 9875SOL     OW31941   5.467   1.631   2.824 -0.1750  0.4576  0.3332
 9875SOL    HW131942   5.521   1.623   2.903  0.9887 -1.2735 -0.5586
 9875SOL    HW231943   5.378   1.640   2.857  0.1762 -1.0801  1.8787
 9876SOL     OW31944   4.346   1.953   1.781 -0.4223  0.3070 -0.0381
 9876SOL    HW131945   4.324   1.862   1.801 -0.5813  0.2821 -0.3228
 9876SOL    HW231946   4.420   1.947   1.720  0.6550  0.3927  1.2127
 9877SOL     OW31947   9.835   9.957  10.583 -0.3801 -1.0298 -0.0748
 9877SOL    HW131948   9.914   9.944  10.636 -0.7398  1.3564  1.1871
 9877SOL    HW231949   9.867  10.001  10.504 -0.5281  1.5834  1.2104
 9878SOL     OW31950   4.176   9.492   7.127  0.0035 -0.3010 -0.1865
 9878SOL    HW131951   4.224   9.412   7.104  2.8498  1.3789 -0.6204
 9878SOL    HW231952   4.172   9.491   7.222 -0.7878 -1.3456 -0.2126
 9879SOL     OW31953   4.895   6.581   5.109 -0.5258 -0.1381 -0.1287
 9879SOL    HW131954   4.816   6.585   5.163 -0.7329 -3.1085 -0.0279
 9879SOL    HW231955   4.966   6.569   5.172 -0.2866  0.1982 -0.3323
 9880SOL     OW31956   4.339   7.029   7.778 -0.0645 -0.3612  0.4032
 9880SOL    HW131957   4.283   7.023   7.855 -0.4100  0.0471  0.1916
 9880SOL    HW231958   4.417   6.979   7.800  0.4223  0.8480  1.5226
 9881SOL     OW31959   7.756   8.115   0.250  0.3720  0.1198  0.2470
 9881SOL    HW131960   7.759   8.044   0.187 -0.0264 -0.0934  0.4645
 9881SOL    HW231961   7.697   8.084   0.319  0.9359  0.2745  0.8127
 9882SOL     OW31962   2.123   0.088   0.571 -0.9320  0.5799 -0.0646
 9882SOL    HW131963   2.050   0.094   0.510 -0.3214 -0.3190 -0.9127
 9882SOL    HW231964   2.140  -0.005   0.581 -1.2017  0.6791  1.7488
 9883SOL     OW31965   2.169   3.191   6.050  0.0260  0.1507  0.0599
 9883SOL    HW131966   2.220   3.117   6.016 -2.0520 -0.9544 -0.8692
 9883SOL    HW231967   2.118   3.153   6.121 -0.2720  0.9839  0.3007
 9884SOL     OW31968  10.365   9.856   2.748 -0.4950  0.5291 -0.3095
 9884SOL    HW131969  10.345   9.875   2.840 -1.7638  1.1574 -0.6948
 9884SOL    HW231970  10.351   9.761   2.740 -0.8002  0.5437  0.0411
 9885SOL     OW31971   1.145   9.569  10.100  0.1384  0.1468 -0.2074
 9885SOL    HW131972   1.144   9.570  10.004 -0.7451  0.8175 -0.2050
 9885SOL    HW231973   1.107   9.653  10.125  2.3948  0.9540  0.7550
 9886SOL     OW31974   3.925   8.185   6.751  0.3253 -0.3225 -0.0469
 9886SOL    HW131975   3.963   8.260   6.798 -0.3528  0.5311 -0.8054
 9886SOL    HW231976   3.946   8.202   6.659  0.2670 -1.1410 -0.2182
 9887SOL     OW31977   4.917   9.175   0.727  0.5957 -0.0769  0.1616
 9887SOL    HW131978   4.842   9.145   0.676  0.2786  1.0861 -0.0827
 9887SOL    HW231979   4.993   9.153   0.673  0.2906  0.7048 -0.6159
 9888SOL     OW31980   6.072   4.329   8.799  0.4508  0.2322 -0.3731
 9888SOL    HW131981   6.064   4.234   8.794 -0.1039  0.2222  0.4702
 9888SOL    HW231982   5.984   4.361   8.780  0.6574  0.5849 -0.7511
 9889SOL     OW31983   4.495   8.240   4.647 -0.1110  0.1396  0.1411
 9889SOL    HW131984   4.475   8.209   4.736 -1.4722 -0.9500 -0.5065
 9889SOL    HW231985   4.527   8.329   4.659  1.3944 -0.5614  1.8674
 9890SOL     OW31986   1.061   0.057   6.322 -0.1653 -0.2933 -0.0958
 9890SOL    HW131987   1.046  -0.037   6.314  0.1139 -0.4085  0.6288
 9890SOL    HW231988   1.069   0.088   6.231  2.2704 -1.3993 -0.3279
 9891SOL     OW31989   9.808   6.162   6.643  0.1158 -0.5751 -0.2469
 9891SOL    HW131990   9.758   6.240   6.669 -1.4932 -1.3115 -0.9821
 9891SOL    HW231991   9.745   6.091   6.647  1.3211 -1.6960 -0.4955
 9892SOL     OW31992   0.175   1.992   7.252  0.8428 -0.1490  0.7413
 9892SOL    HW131993   0.219   1.971   7.335  1.7390  0.0486  0.3249
 9892SOL    HW231994   0.242   2.036   7.200  0.4782 -0.8721 -0.3559
 9893SOL     OW31995   5.011   9.963   2.727 -0.3650 -0.0009  0.4587
 9893SOL    HW131996   4.952   9.989   2.657 -0.0444 -1.3144 -0.3387
 9893SOL    HW231997   4.958   9.907   2.784 -0.2709 -0.0155  0.5328
 9894SOL     OW31998   9.109   8.114   6.851  0.2407  0.0980 -0.1230
 9894SOL    HW131999   9.072   8.036   6.892  1.7643  0.2256  1.6197
 9894SOL    HW232000   9.188   8.083   6.808  1.2120  0.7296  1.1291
 9895SOL     OW32001   7.909   3.457   3.318 -0.4710  0.4046  0.5165
 9895SOL    HW132002   7.996   3.449   3.357  0.4914  1.5436 -1.2573
 9895SOL    HW232003   7.915   3.409   3.235 -1.6208  0.2734  0.4904
 9896SOL     OW32004   1.807   1.228   6.709 -0.5111 -0.1621  0.1765
 9896SOL    HW132005   1.903   1.220   6.711 -0.3230  0.1760 -2.6461
 9896SOL    HW232006   1.778   1.147   6.666 -1.1050  1.1684 -2.1315
 9897SOL     OW32007   8.308   7.959   9.669  0.3449  0.5649 -0.3340
 9897SOL    HW132008   8.314   7.954   9.574  0.0340  0.2419 -0.3381
 9897SOL    HW232009   8.390   8.001   9.696  1.0442 -0.5327 -0.6504
 9898SOL     OW32010   8.446   4.978   5.990  0.1181  0.3888  0.1050
 9898SOL    HW132011   8.444   5.074   5.987  0.4434  0.4254  0.8205
 9898SOL    HW232012   8.355   4.952   6.001  0.2198  0.7103  1.9278
 9899SOL     OW32013   6.784   7.214   3.077 -0.5722  0.2230  0.6117
 9899SOL    HW132014   6.807   7.305   3.058 -0.4529  0.0364 -0.1544
 9899SOL    HW232015   6.695   7.204   3.044 -0.6136  0.0814  0.7650
 9900SOL     OW32016   0.937   2.703   6.313  0.1891 -0.0705 -0.0833
 9900SOL    HW132017   0.866   2.678   6.372 -1.2100  0.4040 -1.4882
 9900SOL    HW232018   0.900   2.696   6.226  2.0670 -0.3405 -0.9168
 9901SOL     OW32019   9.521   5.962   2.224  0.5060 -0.0944  0.5254
 9901SOL    HW132020   9.545   6.021   2.296  0.6580  0.3896  0.0819
 9901SOL    HW232021   9.459   6.013   2.171 -0.6553 -0.9263  1.0421
 9902SOL     OW32022   3.827  10.416   7.388  0.0347  0.2191  0.3039
 9902SOL    HW132023   3.892  10.439   7.321  0.9904 -0.4592  0.9696
 9902SOL    HW232024   3.793  10.331   7.360 -1.1452  0.9210 -0.4490
 9903SOL     OW32025   0.548   5.692   6.937  0.6359 -0.6878  0.0773
 9903SOL    HW132026   0.475   5.704   6.876  2.5353 -0.8761 -2.3722
 9903SOL    HW232027   0.555   5.597   6.947  2.2385 -0.8456 -1.9879
 9904SOL     OW32028   0.837   2.474   5.563  0.7343 -0.6637 -0.2252
 9904SOL    HW132029   0.804   2.408   5.503 -1.6506 -0.2606  0.5462
 9904SOL    HW232030   0.879   2.425   5.633  0.4865 -1.2943 -0.5153
 9905SOL     OW32031   1.646   2.855   3.402  0.1962 -0.3525  0.7068
 9905SOL    HW132032   1.734   2.825   3.423  1.0799  1.6518  0.0519
 9905SOL    HW232033   1.611   2.787   3.344  2.4020  0.1831 -1.3742
 9906SOL     OW32034   1.511   0.015   3.054 -0.0996 -0.6312  0.4244
 9906SOL    HW132035   1.466   0.004   2.970 -1.5091  0.4292  0.9794
 9906SOL    HW232036   1.590   0.064   3.033 -1.1071  0.8142 -0.1464
 9907SOL     OW32037   5.464   7.732   7.263 -0.5884  0.1402  0.4808
 9907SOL    HW132038   5.489   7.641   7.276 -1.5462 -0.1448  0.4313
 9907SOL    HW232039   5.408   7.730   7.185 -0.3624  0.8146  0.2976
 9908SOL     OW32040   7.202   8.142   6.732  0.0319 -0.1236 -0.4063
 9908SOL    HW132041   7.282   8.088   6.732 -0.1769 -0.4379  0.0339
 9908SOL    HW232042   7.134   8.083   6.764 -0.0889  0.5639  0.6443
 9909SOL     OW32043   7.932   7.916   5.350 -0.3167 -0.0397 -0.0543
 9909SOL    HW132044   7.889   7.940   5.432 -0.8313  0.1071 -0.3617
 9909SOL    HW232045   7.927   7.995   5.296  3.0582  1.0409  0.9609
 9910SOL     OW32046   0.000   2.549   3.430 -0.0298 -0.1554  0.3541
 9910SOL    HW132047  -0.028   2.549   3.521 -1.0085  1.0718  0.0854
 9910SOL    HW232048  -0.069   2.597   3.384 -0.4073 -2.1596 -1.3103
 9911SOL     OW32049   0.732   5.360   7.874 -0.3904 -0.0664  0.6171
 9911SOL    HW132050   0.724   5.449   7.843  0.8037 -0.4343 -0.8528
 9911SOL    HW232051   0.734   5.368   7.970 -1.8979  1.2941  0.5721
 9912SOL     OW32052  10.595   4.762   4.468 -0.6225 -0.1984  0.4453
 9912SOL    HW132053  10.525   4.757   4.533 -2.1404 -0.9944 -1.1618
 9912SOL    HW232054  10.618   4.671   4.450  1.7384  0.0440  1.7941
 9913SOL     OW32055   4.936   5.195   9.829  0.1952  1.0127  0.2806
 9913SOL    HW132056   4.896   5.252   9.896  0.6706  0.0566  1.4198
 9913SOL    HW232057   5.023   5.232   9.816  0.4565  0.6536  0.9265
 9914SOL     OW32058   7.319   7.570   1.822 -0.3686 -0.4997 -0.2022
 9914SOL    HW132059   7.354   7.497   1.872 -0.5849  0.0362  0.7536
 9914SOL    HW232060   7.270   7.529   1.750  1.2191 -1.2598 -0.8953
 9915SOL     OW32061   6.188   7.674   7.064  0.4289  0.2798 -0.5929
 9915SOL    HW132062   6.136   7.742   7.021 -0.6194  0.3014  0.6612
 9915SOL    HW232063   6.241   7.721   7.128 -0.1992 -0.0599  0.1851
 9916SOL     OW32064   0.422   2.245   6.210  0.2986  0.2741  0.0783
 9916SOL    HW132065   0.409   2.296   6.290  0.5271 -0.9090  0.8786
 9916SOL    HW232066   0.484   2.298   6.159 -0.2197  1.2715  0.4537
 9917SOL     OW32067   5.451   8.390   5.016 -0.3340 -0.0784  0.4921
 9917SOL    HW132068   5.361   8.367   5.037 -0.6522  0.2503 -0.4651
 9917SOL    HW232069   5.469   8.469   5.066 -0.0748 -0.9540  1.8255
 9918SOL     OW32070   5.153   0.587   1.367 -0.5244 -0.3873 -0.0297
 9918SOL    HW132071   5.217   0.516   1.373 -1.3373 -1.0503  1.4828
 9918SOL    HW232072   5.186   0.654   1.427  1.6019  1.7612 -3.3161
 9919SOL     OW32073   2.208  10.525   0.330 -0.2089 -0.0109  0.0493
 9919SOL    HW132074   2.270  10.480   0.272 -1.3511 -0.7836 -0.6146
 9919SOL    HW232075   2.203  10.468   0.407 -0.9817 -0.5983 -0.4143
 9920SOL     OW32076   3.678   1.017   5.172 -0.0329 -0.5714  0.6413
 9920SOL    HW132077   3.597   1.062   5.196  0.1288 -0.2108  0.5111
 9920SOL    HW232078   3.649   0.929   5.146 -0.4923 -0.1822 -0.2223
 9921SOL     OW32079   0.794   3.595   6.103 -0.5549 -0.0694 -0.4588
 9921SOL    HW132080   0.747   3.589   6.020 -0.5352 -1.2225 -0.4121
 9921SOL    HW232081   0.851   3.671   6.093 -2.3985  1.3806 -0.5174
 9922SOL     OW32082   4.681   0.575   3.541  0.5855  0.9184  0.1111
 9922SOL    HW132083   4.590   0.583   3.567  0.6201 -1.8829  1.5471
 9922SOL    HW232084   4.708   0.489   3.576  3.0163  0.4863 -2.4753
 9923SOL     OW32085   2.926  10.287   4.101  0.7853  0.4965  0.4267
 9923SOL    HW132086   3.015  10.279   4.067  0.3647  2.7384 -1.4348
 9923SOL    HW232087   2.922  10.375   4.139 -0.7731  0.6635 -0.0552
 9924SOL     OW32088   8.439   5.443   4.013  0.2784  0.0470  0.0865
 9924SOL    HW132089   8.391   5.513   3.969  0.8524  0.5785  0.2859
 9924SOL    HW232090   8.380   5.413   4.081 -0.4526 -0.5042 -0.7759
 9925SOL     OW32091   2.145   4.331   0.462 -0.6049 -0.1625  0.3361
 9925SOL    HW132092   2.131   4.278   0.540  2.2260 -1.9003 -0.1673
 9925SOL    HW232093   2.135   4.270   0.389  0.5249  0.4933 -0.4037
 9926SOL     OW32094   2.362   4.467   9.525 -0.1346  0.3549 -0.0593
 9926SOL    HW132095   2.377   4.444   9.617  0.5558  0.3775 -0.1646
 9926SOL    HW232096   2.309   4.546   9.529  0.5003  0.7644  0.3280
 9927SOL     OW32097   8.501   9.806   9.402  0.4081 -0.5780  0.0078
 9927SOL    HW132098   8.573   9.754   9.440  0.1518 -1.8118 -1.1229
 9927SOL    HW232099   8.529   9.822   9.312  1.0709  2.4270  0.6298
 9928SOL     OW32100   3.407   5.110   9.366  0.0520  0.0705  0.5990
 9928SOL    HW132101   3.315   5.119   9.389 -0.2768  2.8743 -1.2809
 9928SOL    HW232102   3.406   5.084   9.273  1.1647  0.0195  0.5838
 9929SOL     OW32103  10.214   1.169   6.609 -0.0721  0.6238 -0.0951
 9929SOL    HW132104  10.195   1.102   6.544  3.1428  0.6713 -1.2683
 9929SOL    HW232105  10.196   1.252   6.564  1.8415  0.6468 -0.9034
 9930SOL     OW32106  10.185   4.525   4.634 -0.1685  0.0822  0.7511
 9930SOL    HW132107  10.112   4.490   4.583  0.0819  0.1683  0.3274
 9930SOL    HW232108  10.255   4.460   4.623 -0.2901 -0.1632  1.4255
 9931SOL     OW32109   6.896   6.097   4.022 -0.3182  0.1275  0.3911
 9931SOL    HW132110   6.967   6.035   4.002  0.3553  1.0790 -0.2504
 9931SOL    HW232111   6.827   6.042   4.058  0.0109 -1.1138 -0.7537
 9932SOL     OW32112   3.144   6.655   0.375 -0.0090 -0.3299 -0.1975
 9932SOL    HW132113   3.147   6.559   0.376  1.3232 -0.3136  0.3389
 9932SOL    HW232114   3.082   6.678   0.443 -2.3379 -0.8044 -2.0289
 9933SOL     OW32115   9.147   7.595   1.486  0.1045  0.4865  0.3893
 9933SOL    HW132116   9.207   7.550   1.426 -0.2434  1.9542 -1.1249
 9933SOL    HW232117   9.075   7.534   1.498  0.8495 -0.4036  0.4633
 9934SOL     OW32118   7.560   0.401   6.163  0.2945 -0.9962 -0.1762
 9934SOL    HW132119   7.535   0.470   6.102 -0.4034 -1.9158 -0.9642
 9934SOL    HW232120   7.480   0.351   6.176  0.5864 -1.1739  1.0404
 9935SOL     OW32121   7.216   3.042   1.561  0.1509  0.2488  0.6273
 9935SOL    HW132122   7.183   3.132   1.570 -0.5402  0.2152 -1.1161
 9935SOL    HW232123   7.305   3.052   1.529 -0.0960  0.3350 -0.0583
 9936SOL     OW32124   9.050   2.061  10.592  0.4800 -0.6604 -0.1172
 9936SOL    HW132125   8.964   2.103  10.589  0.3868 -0.8536 -0.1472
 9936SOL    HW232126   9.039   1.988  10.652  0.0248 -2.0140 -1.7494
 9937SOL     OW32127   7.086   6.326   9.920  0.6276 -0.6352 -0.2210
 9937SOL    HW132128   7.166   6.341   9.970  1.0659 -1.0000 -0.7996
 9937SOL    HW232129   7.017   6.322   9.986  0.6492  2.3993  0.1280
 9938SOL     OW32130   1.100   6.857   7.601  0.1143 -0.8425  0.1049
 9938SOL    HW132131   1.098   6.778   7.547  0.4493 -1.3695  0.8462
 9938SOL    HW232132   1.023   6.849   7.658 -0.6056  0.0234 -0.7057
 9939SOL     OW32133   8.216   5.811   1.477 -0.0334  0.2075 -0.0677
 9939SOL    HW132134   8.136   5.797   1.527 -0.2712  0.8792 -0.2462
 9939SOL    HW232135   8.190   5.797   1.386  0.7677 -2.7156  0.0266
 9940SOL     OW32136   9.803   7.923   0.571 -0.1277  0.0277 -0.0252
 9940SOL    HW132137   9.714   7.951   0.593  0.1367  1.0706 -0.1947
 9940SOL    HW232138   9.805   7.923   0.475 -0.3719 -1.4577 -0.0455
 9941SOL     OW32139   3.771   1.055   5.989  0.2309 -0.6036  0.4049
 9941SOL    HW132140   3.731   1.041   6.074  0.3069 -0.6031  0.4406
 9941SOL    HW232141   3.812   0.971   5.967  1.1823 -0.2741  0.8772
 9942SOL     OW32142   8.182   1.147   9.315 -0.2184  0.1014 -0.1920
 9942SOL    HW132143   8.262   1.196   9.299 -0.1155  0.1026  0.3282
 9942SOL    HW232144   8.113   1.201   9.277 -0.1545  0.8280  0.6969
 9943SOL     OW32145   2.054   8.995   5.497  0.2041  0.3658 -0.0868
 9943SOL    HW132146   1.963   8.987   5.471  0.2658  1.4113 -0.6731
 9943SOL    HW232147   2.098   8.921   5.455 -0.2451  0.2972 -0.4413
 9944SOL     OW32148   0.998   0.193   1.036 -0.1872 -0.2411  0.0505
 9944SOL    HW132149   0.914   0.166   0.999 -1.2209  1.0967  1.3279
 9944SOL    HW232150   1.062   0.170   0.968 -1.4077 -2.3370 -0.4759
 9945SOL     OW32151   9.999   3.350   0.886 -0.3924 -0.1426 -0.3649
 9945SOL    HW132152   9.999   3.259   0.915  0.0696  0.2611  0.9823
 9945SOL    HW232153  10.090   3.368   0.863 -0.6685 -0.3147 -1.6844
 9946SOL     OW32154   6.806   7.554   7.630  0.4147 -0.2633  0.1437
 9946SOL    HW132155   6.818   7.556   7.536 -0.5321  1.4947  0.0149
 9946SOL    HW232156   6.884   7.598   7.665 -0.1424  0.8198  0.0448
 9947SOL     OW32157   0.543   2.942   5.746  0.4387 -0.3318  0.1671
 9947SOL    HW132158   0.458   2.906   5.773  1.6565 -1.1418  3.3442
 9947SOL    HW232159   0.592   2.866   5.715  0.9764 -0.4147  1.1792
 9948SOL     OW32160   2.576   5.648   4.377 -0.2207 -0.5154  0.1588
 9948SOL    HW132161   2.672   5.645   4.373 -0.2418 -0.2554 -0.8146
 9948SOL    HW232162   2.548   5.624   4.288 -1.1318 -2.9451  1.0305
 9949SOL     OW32163   1.779   6.380   3.642 -0.0351  0.5416  0.0847
 9949SOL    HW132164   1.724   6.459   3.644  0.3686  0.8279 -0.0721
 9949SOL    HW232165   1.841   6.396   3.571  1.0934  0.7884  1.0867
 9950SOL     OW32166   0.118   2.831   7.204  0.5832  0.4857 -0.7452
 9950SOL    HW132167   0.180   2.862   7.138  0.3858  2.8487  0.0725
 9950SOL    HW232168   0.172   2.808   7.279  0.6481 -0.0972 -0.9662
 9951SOL     OW32169   9.371   9.171   8.125 -0.3920 -0.6464  0.1296
 9951SOL    HW132170   9.362   9.097   8.065  0.0379 -1.8392  1.4750
 9951SOL    HW232171   9.392   9.131   8.209  0.4368  1.0587  0.7733
 9952SOL     OW32172   1.107   7.258   1.800  0.0489  0.3650 -0.6220
 9952SOL    HW132173   1.036   7.194   1.808 -1.4112  2.1178  2.3604
 9952SOL    HW232174   1.180   7.218   1.847 -0.8275  0.7328  1.1461
 9953SOL     OW32175   5.420   0.028   1.198 -0.5439 -0.5108 -0.0012
 9953SOL    HW132176   5.498  -0.015   1.163 -0.4052 -0.0114 -0.3075
 9953SOL    HW232177   5.429   0.119   1.172 -0.6374 -0.2096  1.0070
 9954SOL     OW32178   6.850   8.475   7.767  0.2369  0.4066 -0.2094
 9954SOL    HW132179   6.855   8.503   7.676  1.4018 -2.1316 -1.0026
 9954SOL    HW232180   6.782   8.408   7.767  1.2430 -0.6334  0.4842
 9955SOL     OW32181   1.178   4.714   0.463 -0.2503 -0.0327 -0.1769
 9955SOL    HW132182   1.196   4.742   0.552  0.5211  0.3486 -0.4405
 9955SOL    HW232183   1.198   4.620   0.463  0.4593  0.1133 -0.1247
 9956SOL     OW32184   0.085   4.717   5.802  0.1929 -0.2729 -0.2381
 9956SOL    HW132185   0.061   4.761   5.721  1.0568  0.6037 -0.0375
 9956SOL    HW232186   0.152   4.654   5.777  1.6368  1.0965 -0.0209
 9957SOL     OW32187   8.789   6.801   1.289  0.1703 -0.7574  0.0471
 9957SOL    HW132188   8.717   6.864   1.286  0.3540 -0.5352  0.2280
 9957SOL    HW232189   8.746   6.715   1.287 -0.0457 -0.6326 -1.0463
 9958SOL     OW32190   1.953   5.574   1.818  0.0215  0.9160  0.3247
 9958SOL    HW132191   2.011   5.521   1.763 -0.8415  1.9253 -1.6851
 9958SOL    HW232192   1.988   5.662   1.813  0.4823  0.8817  2.2754
 9959SOL     OW32193   4.993   9.739   7.987 -0.2140  0.0361  0.3402
 9959SOL    HW132194   4.992   9.757   7.893 -1.6018  1.2612  0.5451
 9959SOL    HW232195   4.985   9.644   7.994  2.9847 -0.4309 -0.7739
 9960SOL     OW32196   8.316   8.273   5.676  0.6909 -0.5526 -0.2864
 9960SOL    HW132197   8.288   8.365   5.684 -2.3441 -1.4133  0.4497
 9960SOL    HW232198   8.352   8.252   5.762  0.4879 -0.2991 -0.1353
 9961SOL     OW32199   4.275   7.923   5.957  0.2172 -0.7319 -0.0898
 9961SOL    HW132200   4.218   7.991   5.920 -0.2968 -1.3415 -0.4221
 9961SOL    HW232201   4.233   7.899   6.039  0.6402 -0.3462  0.2531
 9962SOL     OW32202   8.777   6.178   3.022 -0.4071 -0.6643 -0.0753
 9962SOL    HW132203   8.735   6.248   3.072 -1.3041 -0.1480 -1.5026
 9962SOL    HW232204   8.871   6.193   3.033 -0.5901  0.6986 -0.2569
 9963SOL     OW32205   1.263   7.728   9.411  0.1037 -0.2078  0.8589
 9963SOL    HW132206   1.357   7.746   9.420  0.0775 -1.0009  3.3393
 9963SOL    HW232207   1.259   7.642   9.370  0.5755 -1.1355  2.6383
 9964SOL     OW32208   3.780   6.103   1.006 -1.2220 -0.6179 -0.0605
 9964SOL    HW132209   3.784   6.008   1.021  0.1181 -0.6167 -0.3702
 9964SOL    HW232210   3.784   6.112   0.911  0.6216 -0.1764  0.0405
 9965SOL     OW32211   7.606   1.048   8.852  0.0156  0.3291  0.0559
 9965SOL    HW132212   7.640   0.962   8.827 -0.3200  0.4664 -0.9138
 9965SOL    HW232213   7.516   1.048   8.821 -0.4634  0.4911  1.3745
 9966SOL     OW32214  10.548   6.784   4.749 -0.3710  0.2631 -0.5089
 9966SOL    HW132215  10.588   6.824   4.827  0.6560 -0.2890 -0.7388
 9966SOL    HW232216  10.470   6.838   4.732 -0.2439  0.7953  0.5018
 9967SOL     OW32217   7.526   2.848   8.831  0.3305  0.2031 -0.5192
 9967SOL    HW132218   7.476   2.879   8.907  1.2531  1.7218 -0.4825
 9967SOL    HW232219   7.539   2.754   8.848 -1.9380 -0.1320 -0.2566
 9968SOL     OW32220   0.521   4.674   9.384  0.0004 -0.0970  0.0613
 9968SOL    HW132221   0.587   4.678   9.452 -0.2257  1.2656  0.2390
 9968SOL    HW232222   0.562   4.716   9.308  0.1919 -1.4488 -0.6007
 9969SOL     OW32223  10.044   0.677   6.912  0.2209  0.3127 -0.4766
 9969SOL    HW132224   9.982   0.716   6.973 -0.6777 -1.3255 -0.3060
 9969SOL    HW232225   9.997   0.673   6.829 -0.3210 -1.8517 -0.1131
 9970SOL     OW32226   6.930   1.460   0.083  0.1309 -0.4175 -0.1346
 9970SOL    HW132227   6.919   1.554   0.094 -1.0597 -0.4638 -0.7905
 9970SOL    HW232228   7.021   1.450   0.053 -0.4610  0.7681 -2.5536
 9971SOL     OW32229   9.237   2.090   3.820 -0.1076 -0.0747 -0.2750
 9971SOL    HW132230   9.199   2.012   3.779 -2.8956  1.4130 -0.7578
 9971SOL    HW232231   9.188   2.101   3.901  0.0016  1.3510 -0.3835
 9972SOL     OW32232   2.302   8.123   2.539 -0.2665 -0.4810  0.5280
 9972SOL    HW132233   2.249   8.051   2.505  0.3375 -0.8677  0.4091
 9972SOL    HW232234   2.358   8.084   2.605  1.7700 -0.6181 -1.1812
 9973SOL     OW32235   4.851   9.350   8.359  0.9199  0.1544 -0.1763
 9973SOL    HW132236   4.940   9.329   8.329  0.4088 -1.5693 -0.5463
 9973SOL    HW232237   4.794   9.298   8.303 -0.3808  1.5792 -0.2415
 9974SOL     OW32238   4.241   4.098   4.091  0.2994 -0.0811  0.2724
 9974SOL    HW132239   4.146   4.102   4.079  0.2123 -1.6976  0.1983
 9974SOL    HW232240   4.275   4.080   4.003  0.4479 -2.0389  0.6913
 9975SOL     OW32241   1.983   2.441   8.416 -0.1688  0.4437 -0.3285
 9975SOL    HW132242   2.073   2.459   8.442 -0.6718  0.6112  1.4013
 9975SOL    HW232243   1.939   2.525   8.422 -0.5235  0.2948 -0.8175
 9976SOL     OW32244   5.544   1.856   1.632 -0.3813  0.2037 -0.3039
 9976SOL    HW132245   5.584   1.929   1.679  0.9943 -0.8653  0.2504
 9976SOL    HW232246   5.611   1.828   1.569  0.2751 -2.2996  1.3536
 9977SOL     OW32247   8.790   9.906   0.094  0.0836 -0.0604 -0.3606
 9977SOL    HW132248   8.842   9.976   0.053 -0.3788  0.2255 -0.4699
 9977SOL    HW232249   8.845   9.874   0.165  0.0890  0.7769  0.0297
 9978SOL     OW32250   3.005   8.680   1.301  0.0288 -0.4160  0.4600
 9978SOL    HW132251   3.057   8.752   1.266  0.2359 -0.6260  0.3311
 9978SOL    HW232252   2.954   8.649   1.226 -2.1729  1.3937  1.1183
 9979SOL     OW32253   7.095   5.372   4.605  0.2392  0.3577  0.8123
 9979SOL    HW132254   7.175   5.422   4.591  0.0425  0.3878 -0.2853
 9979SOL    HW232255   7.101   5.299   4.544 -0.8730  0.7362  0.2254
 9980SOL     OW32256   5.248   5.294  10.111  0.3495 -0.2449  0.1442
 9980SOL    HW132257   5.274   5.202  10.107 -1.0280 -0.8751  3.2120
 9980SOL    HW232258   5.266   5.321  10.201 -0.8017  1.9933 -0.2150
 9981SOL     OW32259   5.653   3.214  10.009  0.4217 -0.2973 -0.4076
 9981SOL    HW132260   5.591   3.287  10.013  0.4904 -0.2139 -0.8783
 9981SOL    HW232261   5.644   3.171  10.094 -0.2307 -0.2420 -0.4448
 9982SOL     OW32262   6.115   4.157   1.618 -0.2471  0.0490 -0.0008
 9982SOL    HW132263   6.120   4.237   1.670  0.5165 -1.1113  1.8048
 9982SOL    HW232264   6.206   4.136   1.597 -0.5132  0.3154 -1.6358
 9983SOL     OW32265   7.226   9.955   7.395 -0.0137 -0.0403  0.2509
 9983SOL    HW132266   7.245  10.014   7.322  0.5897  0.0985  0.5083
 9983SOL    HW232267   7.150   9.995   7.439 -0.8646 -0.5358 -0.7300
 9984SOL     OW32268   7.075   4.452   4.728 -0.7950 -0.0424  0.1994
 9984SOL    HW132269   7.094   4.545   4.715 -1.3880  0.0300 -0.2355
 9984SOL    HW232270   7.048   4.446   4.819  1.8756 -0.2735  1.0594
 9985SOL     OW32271   5.948   3.989   1.729 -0.0580  0.0160  0.1478
 9985SOL    HW132272   6.000   4.061   1.696 -1.5318  0.4263 -1.4049
 9985SOL    HW232273   5.981   3.912   1.683 -1.0790  0.3508 -1.2096
 9986SOL     OW32274   9.058   2.985   0.843  0.3260  0.2710  0.6546
 9986SOL    HW132275   9.018   3.052   0.788  1.4591 -0.2661 -0.9102
 9986SOL    HW232276   9.021   2.999   0.930 -0.1316  2.3384  0.1689
 9987SOL     OW32277   0.476   6.070   2.848  0.3043  0.2349 -0.0239
 9987SOL    HW132278   0.500   5.997   2.905 -0.1462  0.4741  0.4743
 9987SOL    HW232279   0.382   6.061   2.837  0.7453 -2.1037 -3.8623
 9988SOL     OW32280   2.288   8.567   2.928 -0.6970 -0.0966 -0.1860
 9988SOL    HW132281   2.212   8.575   2.985 -0.6777  3.3928 -0.4681
 9988SOL    HW232282   2.363   8.586   2.985 -0.0910 -2.0139 -0.2574
 9989SOL     OW32283   5.948   4.063   8.531 -0.0615 -0.0330 -0.1530
 9989SOL    HW132284   5.979   3.978   8.499  1.7110  0.2562  0.6825
 9989SOL    HW232285   5.886   4.093   8.464  3.2246  0.4350 -3.2549
 9990SOL     OW32286  10.533   8.189   6.332 -0.3083 -0.1676  0.2681
 9990SOL    HW132287  10.516   8.282   6.320  0.0737 -0.1741 -0.3461
 9990SOL    HW232288  10.463   8.159   6.390 -0.3934  0.5130  0.5190
 9991SOL     OW32289   0.534   5.208   7.785 -0.0363  0.4213 -0.3333
 9991SOL    HW132290   0.541   5.239   7.695 -0.1138 -0.3949 -0.6371
 9991SOL    HW232291   0.614   5.237   7.827  1.0590 -1.0754 -1.2877
 9992SOL     OW32292   5.247   9.070   5.036 -0.0207  0.3204 -1.1824
 9992SOL    HW132293   5.335   9.041   5.056  0.6375  1.4223 -2.3234
 9992SOL    HW232294   5.258   9.156   4.996 -1.6583  0.7511 -0.8054
 9993SOL     OW32295   3.943   8.604   8.938  0.6870  0.1059 -0.4355
 9993SOL    HW132296   3.968   8.594   9.029 -0.2393  1.2068 -0.0359
 9993SOL    HW232297   3.933   8.699   8.926  2.1221  0.1071 -2.0441
 9994SOL     OW32298   7.642   6.614   0.563  0.5693  0.2589 -0.3539
 9994SOL    HW132299   7.661   6.707   0.547  1.0525 -0.0039 -1.3623
 9994SOL    HW232300   7.697   6.567   0.500 -1.1997 -0.6280 -1.3134
 9995SOL     OW32301   9.648   9.387   6.922 -0.4286  0.0388 -0.4834
 9995SOL    HW132302   9.637   9.355   7.012  2.6802 -0.6219 -0.2326
 9995SOL    HW232303   9.702   9.321   6.879  2.9811  2.8932 -1.1089
 9996SOL     OW32304   9.298   2.733   1.755  0.6179  0.0171  0.4624
 9996SOL    HW132305   9.356   2.656   1.758 -0.0103 -0.4435  1.0890
 9996SOL    HW232306   9.256   2.728   1.669 -1.1545 -1.6825  1.3370
 9997SOL     OW32307   2.785   1.754   2.777 -0.8070  0.3290  0.4519
 9997SOL    HW132308   2.696   1.774   2.747 -1.4240 -0.6117  1.5953
 9997SOL    HW232309   2.840   1.819   2.733 -2.0981  1.1517 -0.0011
 9998SOL     OW32310   5.610   4.419   9.114 -0.0529  0.1394  0.2343
 9998SOL    HW132311   5.623   4.399   9.207  1.4471 -0.6587 -0.1064
 9998SOL    HW232312   5.674   4.364   9.069 -0.1625  1.1469 -1.2204
 9999SOL     OW32313   9.761   1.250   8.892  0.2338 -0.7499 -0.1337
 9999SOL    HW132314   9.801   1.326   8.849  0.7458 -0.0098  1.5663
 9999SOL    HW232315   9.698   1.287   8.953  0.0456 -1.7192  0.2820
10000SOL     OW32316   1.941   4.177   3.254 -0.5285 -0.3759  0.2637
10000SOL    HW132317   2.019   4.124   3.241  0.2545  0.8036  0.0318
10000SOL    HW232318   1.950   4.212   3.343  1.4194  3.1627 -1.1286
10001SOL     OW32319   7.782   5.594   1.233 -0.2573  0.4364 -0.2860
10001SOL    HW132320   7.737   5.672   1.201  0.1348  1.8963  2.4373
10001SOL    HW232321   7.711   5.535   1.259 -0.5545  0.6035 -0.6970
10002SOL     OW32322   9.906   9.289   0.746  0.5813 -0.1524  0.4674
10002SOL    HW132323   9.967   9.239   0.692  0.3747  0.6535 -0.5467
10002SOL    HW232324   9.928   9.381   0.728 -1.9295  0.2382 -1.1813
10003SOL     OW32325   9.820   4.019   7.443 -0.1209  0.5211  0.0410
10003SOL    HW132326   9.740   3.966   7.437  0.5257 -0.3390 -2.6030
10003SOL    HW232327   9.873   3.975   7.510 -0.8443 -0.3894  0.0344
10004SOL     OW32328   2.483   5.434   6.883 -0.4415  0.4618  0.3615
10004SOL    HW132329   2.496   5.366   6.818 -1.3324  0.1558  0.4898
10004SOL    HW232330   2.447   5.388   6.959 -0.9507  1.0483  0.4886
10005SOL     OW32331   3.056   4.039   7.160  0.3723  0.3583  0.3286
10005SOL    HW132332   3.026   3.950   7.177  0.5993 -0.0301 -1.1153
10005SOL    HW232333   3.142   4.028   7.120  0.8998  1.2904  1.1650
10006SOL     OW32334   3.812   8.224   9.308  0.6929 -0.3588  0.1332
10006SOL    HW132335   3.860   8.305   9.323  1.4011 -0.4540 -1.3634
10006SOL    HW232336   3.868   8.156   9.346  1.2153 -0.3573 -0.6141
10007SOL     OW32337   6.064   4.322   0.870  0.0328 -0.3972  0.2027
10007SOL    HW132338   6.041   4.336   0.778  2.8236 -0.4381 -0.5944
10007SOL    HW232339   6.041   4.230   0.887 -0.2711 -0.4595 -0.5059
10008SOL     OW32340   8.243   0.076   2.162  0.5134 -0.0219  0.1462
10008SOL    HW132341   8.199  -0.002   2.128 -1.0835  0.8630  0.1305
10008SOL    HW232342   8.184   0.148   2.142 -0.0614  0.7127  3.7989
10009SOL     OW32343   7.909   4.355   9.816 -0.3249  0.5564  0.1660
10009SOL    HW132344   7.957   4.302   9.879 -1.7119 -1.2762 -0.2347
10009SOL    HW232345   7.966   4.359   9.739  0.6054  1.2928  0.8801
10010SOL     OW32346   6.814   8.384   0.720 -0.5785 -0.2637  0.2539
10010SOL    HW132347   6.874   8.309   0.729 -0.1066  0.0207 -0.3880
10010SOL    HW232348   6.823   8.433   0.802  0.3219 -0.0514  0.0365
10011SOL     OW32349   1.585   9.961   2.977 -0.0422  0.2133 -0.2261
10011SOL    HW132350   1.551   9.886   2.928 -0.0116 -0.6442  1.0026
10011SOL    HW232351   1.520   9.977   3.045  1.2051 -0.4512  1.1902
10012SOL     OW32352   9.916   5.941   2.716  0.1447 -0.3482  0.1418
10012SOL    HW132353   9.907   6.020   2.769 -0.8532 -0.5200  0.2522
10012SOL    HW232354   9.994   5.897   2.751  0.3775  0.3036  0.4491
10013SOL     OW32355   8.510   4.195   9.417  0.5773  0.0305  0.4008
10013SOL    HW132356   8.498   4.110   9.374  1.9780 -0.8032  1.5672
10013SOL    HW232357   8.596   4.188   9.460  0.9805  2.2408  0.0756
10014SOL     OW32358  10.259   7.031   8.881 -0.1318 -0.2970 -0.3736
10014SOL    HW132359  10.258   7.050   8.787 -0.3147 -1.1922 -0.5688
10014SOL    HW232360  10.352   7.028   8.904 -0.0451 -1.2968 -0.8048
10015SOL     OW32361   7.923   6.475   5.852 -0.2601  0.0149  0.1620
10015SOL    HW132362   7.886   6.529   5.782 -2.0834 -0.1092  0.9720
10015SOL    HW232363   7.862   6.402   5.860  0.9624 -0.9967  0.6090
10016SOL     OW32364   8.587   3.814   7.942  0.5535 -0.2995 -0.1393
10016SOL    HW132365   8.556   3.900   7.970  3.7452  0.8721  0.2490
10016SOL    HW232366   8.535   3.752   7.992 -0.6125  1.4593  0.9430
10017SOL     OW32367   4.291   2.557   8.300  0.0188  0.1040 -0.3910
10017SOL    HW132368   4.292   2.586   8.209  0.6605 -1.6583 -0.9843
10017SOL    HW232369   4.222   2.491   8.303  0.3065 -0.1735  0.2841
10018SOL     OW32370   5.222   2.402   5.918  0.0392 -0.0007  0.4277
10018SOL    HW132371   5.162   2.337   5.883 -0.1690 -0.2145  1.1766
10018SOL    HW232372   5.200   2.409   6.011 -0.4297  1.6463  0.2400
10019SOL     OW32373   1.969   8.422   2.887  0.4076  0.1514 -0.1555
10019SOL    HW132374   1.913   8.359   2.932 -0.4450 -0.5799 -2.1263
10019SOL    HW232375   2.010   8.372   2.816 -1.3279  1.9732 -2.6647
10020SOL     OW32376   0.743   8.874   5.707 -0.0681 -0.0274 -0.5928
10020SOL    HW132377   0.658   8.917   5.701 -1.1183 -2.0832 -1.1486
10020SOL    HW232378   0.785   8.891   5.623  0.3185  1.3829 -0.1500
10021SOL     OW32379   6.566   2.393   9.321 -0.3770  0.2098 -0.2731
10021SOL    HW132380   6.620   2.472   9.320  0.0268 -0.0682 -0.4098
10021SOL    HW232381   6.495   2.414   9.382  1.1943 -0.2935  1.8420
10022SOL     OW32382   6.454   7.715   4.821  0.1258 -0.0653  0.6276
10022SOL    HW132383   6.382   7.776   4.837  1.4145  1.6710  0.0860
10022SOL    HW232384   6.411   7.631   4.802 -1.7348  0.8993  0.3597
10023SOL     OW32385  10.370   2.209   9.368 -0.3673  0.0053  0.0177
10023SOL    HW132386  10.340   2.176   9.452  0.3698 -1.5483 -0.2936
10023SOL    HW232387  10.454   2.164   9.352 -1.6530 -1.7199 -2.6628
10024SOL     OW32388   1.845   0.252   5.484 -0.0102  0.1472  0.1472
10024SOL    HW132389   1.833   0.233   5.577 -1.3822 -0.0841 -0.0608
10024SOL    HW232390   1.882   0.172   5.448  0.8882  0.3674  0.5464
10025SOL     OW32391   0.331   4.849   9.987 -0.0081  0.0764 -0.1604
10025SOL    HW132392   0.359   4.800   9.910 -2.0652 -0.4911 -0.6048
10025SOL    HW232393   0.317   4.938   9.956  2.3593  0.7013  0.3436
10026SOL     OW32394   9.490   4.667   9.738  0.5320 -0.0299  0.6042
10026SOL    HW132395   9.536   4.592   9.700  0.2798  1.5211 -3.1874
10026SOL    HW232396   9.401   4.660   9.705 -0.1044  0.7720  2.0561
10027SOL     OW32397   3.768   1.866   5.173 -0.0305  0.9685  0.2984
10027SOL    HW132398   3.741   1.802   5.238 -1.4685  2.4338  1.2273
10027SOL    HW232399   3.858   1.843   5.152 -0.2256 -0.7926  1.2481
10028SOL     OW32400   6.205   1.762  10.402 -0.2515  0.2449 -0.3620
10028SOL    HW132401   6.237   1.714  10.479 -0.3900  1.9294  0.7968
10028SOL    HW232402   6.274   1.827  10.385 -0.2423 -0.0866 -1.6594
10029SOL     OW32403   2.564   8.428   1.498 -0.5572 -0.4917 -0.0069
10029SOL    HW132404   2.596   8.505   1.451  3.6507 -0.4093  2.4747
10029SOL    HW232405   2.605   8.354   1.453 -0.4628 -0.8026  0.5786
10030SOL     OW32406   2.796   4.044  10.518  0.5778 -0.2689 -0.2430
10030SOL    HW132407   2.715   4.081  10.483  0.3403  2.6472  2.7739
10030SOL    HW232408   2.863   4.107  10.494  1.4255 -1.1904 -0.3353
10031SOL     OW32409   5.476   8.905   6.297 -0.4548 -1.0160 -0.4986
10031SOL    HW132410   5.442   8.910   6.207  1.4858  2.5519 -1.2175
10031SOL    HW232411   5.441   8.983   6.340  0.5606 -1.4178  1.1279
10032SOL     OW32412   9.725   0.514   3.799 -0.5010 -0.0000  0.2588
10032SOL    HW132413   9.735   0.520   3.894 -0.6093 -0.6039  0.3150
10032SOL    HW232414   9.760   0.596   3.766 -0.1062  0.0528  0.7942
10033SOL     OW32415   3.811   8.586   0.864 -0.3991  0.3021  0.2308
10033SOL    HW132416   3.810   8.607   0.957  0.6434  0.9128  0.1220
10033SOL    HW232417   3.737   8.633   0.827 -0.6772  0.2427  0.7032
10034SOL     OW32418   2.246   4.487   4.156 -0.0475 -0.0748  0.4848
10034SOL    HW132419   2.220   4.516   4.244 -1.1906  0.5778 -0.0373
10034SOL    HW232420   2.270   4.395   4.167  4.1448  0.9848  2.3023
10035SOL     OW32421   7.890   8.861   2.224 -0.1319 -0.4059 -0.1385
10035SOL    HW132422   7.892   8.779   2.176  1.0242 -1.4432  1.5742
10035SOL    HW232423   7.797   8.880   2.236 -0.4186 -1.7314 -0.1266
10036SOL     OW32424   4.574   1.972   4.316  0.3672  0.1502 -0.3889
10036SOL    HW132425   4.550   2.059   4.347 -0.9793 -0.2977 -0.1275
10036SOL    HW232426   4.535   1.965   4.229 -2.0895 -1.2323  0.7377
10037SOL     OW32427  10.071   5.771   8.264  0.1262  0.4540  0.0593
10037SOL    HW132428  10.032   5.776   8.351  0.3027  1.8518  0.0818
10037SOL    HW232429  10.003   5.730   8.210 -0.4109  0.5721  0.6266
10038SOL     OW32430   9.986   7.344   9.227  0.0435 -0.2537 -0.1555
10038SOL    HW132431  10.044   7.403   9.276  1.5430 -2.1940  0.5364
10038SOL    HW232432  10.029   7.333   9.142 -1.5556  1.5676 -1.2884
10039SOL     OW32433   2.509   3.292   4.916 -0.5038 -0.3883  0.6285
10039SOL    HW132434   2.592   3.318   4.956 -1.3650  0.1022  2.1809
10039SOL    HW232435   2.498   3.201   4.942  0.4005 -1.0451 -1.1344
10040SOL     OW32436   9.405   5.166   8.871  0.5134 -0.2374 -0.4293
10040SOL    HW132437   9.483   5.217   8.889  1.2561 -0.9471 -1.5360
10040SOL    HW232438   9.436   5.089   8.822 -0.5977 -1.6076  0.9127
10041SOL     OW32439   9.258   9.861   6.777  0.1984  0.1933  0.3915
10041SOL    HW132440   9.210   9.881   6.697 -0.0870 -0.3113  0.4326
10041SOL    HW232441   9.194   9.875   6.847 -0.1571 -1.2722  0.3929
10042SOL     OW32442  10.353   0.750   0.721 -0.3590  0.5346  0.1142
10042SOL    HW132443  10.293   0.765   0.793  0.2580  0.2477  0.6963
10042SOL    HW232444  10.321   0.807   0.651 -1.1481  0.5762  0.4957
10043SOL     OW32445   3.174   4.711   6.005  0.0129 -0.2028 -0.2788
10043SOL    HW132446   3.157   4.798   5.969  0.0382 -0.1525 -0.1713
10043SOL    HW232447   3.232   4.727   6.079 -2.4424  0.0202  1.7247
10044SOL     OW32448   7.082   9.096   5.065 -0.5577  0.0121  0.2402
10044SOL    HW132449   7.155   9.074   5.006 -0.6886  0.2555 -0.0175
10044SOL    HW232450   7.039   9.013   5.083 -1.5247  0.1305 -1.3461
10045SOL     OW32451   5.917   1.162   2.621  0.1781  0.2995  0.2505
10045SOL    HW132452   5.894   1.171   2.528  1.6420  0.1786 -0.1572
10045SOL    HW232453   5.878   1.079   2.648  0.9230 -0.3714 -0.6666
10046SOL     OW32454  10.000   3.722   5.702 -0.5084 -0.3194 -0.1561
10046SOL    HW132455   9.948   3.687   5.630 -1.0562  0.8704 -0.3809
10046SOL    HW232456  10.071   3.660   5.714 -0.9886 -1.0623 -1.0410
10047SOL     OW32457   1.404   9.496   1.011  0.3402 -0.2027 -0.0536
10047SOL    HW132458   1.483   9.465   1.055  1.1039  0.9712 -0.5403
10047SOL    HW232459   1.434   9.521   0.923 -0.9699 -1.6209 -0.9654
10048SOL     OW32460   3.223   5.837   0.281  0.3324 -0.2879 -0.2951
10048SOL    HW132461   3.314   5.814   0.297  0.3737  0.5414  0.7908
10048SOL    HW232462   3.208   5.915   0.335 -1.0561 -0.4856 -0.3558
10049SOL     OW32463   8.293   5.067   3.435  0.2191  0.1190 -0.1998
10049SOL    HW132464   8.265   4.989   3.387  2.2291  0.5634 -2.2737
10049SOL    HW232465   8.233   5.135   3.406 -0.6092 -0.3099  0.4691
10050SOL     OW32466   6.427   3.167   3.261 -0.0172  0.5321 -0.2734
10050SOL    HW132467   6.372   3.174   3.339  1.0491 -2.4215  0.8685
10050SOL    HW232468   6.516   3.177   3.292  0.3559  1.1957 -1.4649
10051SOL     OW32469   6.919   9.725   4.652 -0.6125 -0.4832 -0.4035
10051SOL    HW132470   6.900   9.805   4.604  0.1601 -1.5925 -2.7417
10051SOL    HW232471   6.858   9.660   4.617 -0.9442 -1.0556  1.1341
10052SOL     OW32472   9.651  10.044  10.295 -0.1621 -0.3538  0.3113
10052SOL    HW132473   9.746  10.051  10.304 -0.1665 -0.6874  0.6259
10052SOL    HW232474   9.638   9.984  10.221 -0.1306  0.9676 -0.8119
10053SOL     OW32475   3.753   9.503   5.778 -0.1205  0.0997 -0.3792
10053SOL    HW132476   3.672   9.454   5.762 -0.4760  0.3108  0.6730
10053SOL    HW232477   3.726   9.576   5.833  0.4371  1.3791 -1.7181
10054SOL     OW32478   7.256   2.088   2.144  0.4286 -1.0711  0.3185
10054SOL    HW132479   7.337   2.115   2.100  0.5046 -1.8195 -0.0251
10054SOL    HW232480   7.224   2.014   2.091 -0.3885 -0.8906  0.5500
10055SOL     OW32481   6.408   4.907  10.075 -0.6070  0.2497  0.2923
10055SOL    HW132482   6.417   4.969  10.148 -0.2664  1.6078 -0.8606
10055SOL    HW232483   6.492   4.911  10.030  0.0814 -2.4263  1.1759
10056SOL     OW32484   9.233   1.284   0.371  0.7856  0.7642 -0.2355
10056SOL    HW132485   9.326   1.305   0.367  1.4362 -0.8902  3.0461
10056SOL    HW232486   9.230   1.190   0.386 -1.3490  0.9370  0.8031
10057SOL     OW32487   3.289   6.974   9.493 -0.1424  0.0374  0.0546
10057SOL    HW132488   3.204   6.991   9.534 -0.8113 -1.4983 -0.6211
10057SOL    HW232489   3.279   7.005   9.403  0.4919  1.1024  0.3293
10058SOL     OW32490   4.601  10.485   3.134 -0.0598  0.1493 -0.1515
10058SOL    HW132491   4.568  10.410   3.084  1.2676 -1.1296  0.7898
10058SOL    HW232492   4.568  10.470   3.223 -4.1468  3.4484 -0.7624
10059SOL     OW32493   4.231   5.973   2.017 -0.4716  0.4645  0.0816
10059SOL    HW132494   4.196   6.049   2.063  0.9149  1.9066 -1.1380
10059SOL    HW232495   4.325   5.988   2.014 -0.4109 -0.0177 -2.4096
10060SOL     OW32496   4.364   1.678   4.180 -0.1376 -0.0551 -0.2333
10060SOL    HW132497   4.312   1.743   4.227 -0.3895 -0.7579  0.4826
10060SOL    HW232498   4.420   1.639   4.248  1.7120  1.0241 -1.0560
10061SOL     OW32499   1.641   3.168   4.295  0.4514  0.3605 -0.6253
10061SOL    HW132500   1.721   3.218   4.305 -0.7045  2.2695 -0.4714
10061SOL    HW232501   1.571   3.233   4.300 -1.2812 -1.5197  2.0442
10062SOL     OW32502   0.158   2.838  10.457 -0.1983 -0.5325  0.9709
10062SOL    HW132503   0.098   2.765  10.440 -1.7109  0.7007  0.8646
10062SOL    HW232504   0.113   2.891  10.523  1.3109 -0.1771  1.7673
10063SOL     OW32505   8.329   9.276   6.510 -0.5821  0.3594 -0.1377
10063SOL    HW132506   8.361   9.294   6.599  1.3230  0.1937 -0.7296
10063SOL    HW232507   8.248   9.227   6.523  0.3649 -0.8803  1.5470
10064SOL     OW32508   4.563  10.012   4.266 -0.3213 -0.2259 -0.3120
10064SOL    HW132509   4.542  10.101   4.293 -1.3945 -0.7041  0.5163
10064SOL    HW232510   4.506   9.996   4.191 -0.4525 -0.3613 -0.1850
10065SOL     OW32511   3.186   3.324   2.782 -0.0240 -0.3032  0.2959
10065SOL    HW132512   3.218   3.252   2.728  0.8003 -0.4787  1.0172
10065SOL    HW232513   3.165   3.393   2.719 -1.2154 -1.2960 -0.4399
10066SOL     OW32514   9.261   9.598   1.923 -0.4403 -0.0357 -0.0609
10066SOL    HW132515   9.275   9.611   2.017 -0.9342 -0.3519  0.0604
10066SOL    HW232516   9.263   9.503   1.911  0.4698  0.0270 -0.5107
10067SOL     OW32517   4.249   0.353   6.740 -0.8285  0.1159  0.0609
10067SOL    HW132518   4.229   0.351   6.646 -0.1552 -0.8926 -0.0771
10067SOL    HW232519   4.234   0.444   6.766  0.6587  0.8406 -1.4090
10068SOL     OW32520   7.598   7.335   1.110 -0.6778  0.2639  0.1021
10068SOL    HW132521   7.602   7.352   1.204 -0.6039  2.5943 -0.2642
10068SOL    HW232522   7.508   7.356   1.086 -1.6384 -3.2465  0.0586
10069SOL     OW32523   5.512   6.299   3.831  0.1028 -0.1311 -0.4466
10069SOL    HW132524   5.567   6.223   3.811  0.9071  0.1719  0.5171
10069SOL    HW232525   5.505   6.299   3.927 -0.1006  0.8599 -0.4505
10070SOL     OW32526   0.379  10.388   5.167  0.6194  0.2836  0.0730
10070SOL    HW132527   0.458  10.338   5.187 -0.1170 -0.7306  0.5272
10070SOL    HW232528   0.338  10.401   5.253 -0.2388 -0.1187 -0.2725
10071SOL     OW32529  10.462   8.905   7.318 -0.6937  0.3181 -0.4392
10071SOL    HW132530  10.532   8.863   7.367 -1.7977 -0.1834  0.7678
10071SOL    HW232531  10.383   8.889   7.370 -1.2575  3.5669 -0.0650
10072SOL     OW32532   5.245   1.770   4.274  0.3331  0.4116 -0.6134
10072SOL    HW132533   5.209   1.841   4.221  0.5395 -0.0077 -1.3254
10072SOL    HW232534   5.331   1.753   4.237  0.9333  0.8319  0.5433
10073SOL     OW32535   4.847   4.835   9.896 -0.5891 -0.9328 -0.1511
10073SOL    HW132536   4.836   4.926   9.923  0.7979 -0.9473  0.5456
10073SOL    HW232537   4.897   4.841   9.814  0.9999 -1.0842  0.7646
10074SOL     OW32538   9.174   7.506   8.553  0.0093 -0.4536 -0.2610
10074SOL    HW132539   9.158   7.460   8.470  1.3356 -0.3211 -0.6200
10074SOL    HW232540   9.221   7.442   8.607  1.0864  0.1518 -0.4433
10075SOL     OW32541   1.638   9.017   2.446 -0.4105 -0.0073 -0.4241
10075SOL    HW132542   1.708   9.011   2.381  0.0714  0.8181  0.0197
10075SOL    HW232543   1.576   9.080   2.409 -1.0800 -0.9256 -0.9395
10076SOL     OW32544   2.055   1.233   9.269 -0.2727 -0.0337 -0.3788
10076SOL    HW132545   1.965   1.262   9.283 -1.2995 -1.8063 -2.6598
10076SOL    HW232546   2.093   1.298   9.211 -0.5966 -0.1011 -0.6642
10077SOL     OW32547   2.392   3.007   8.661 -1.1176 -0.4067 -0.0657
10077SOL    HW132548   2.419   3.013   8.569 -0.2462  1.2565  0.2818
10077SOL    HW232549   2.452   2.944   8.700 -1.0482 -0.5933 -0.4688
10078SOL     OW32550   1.424   5.680   1.422 -0.0258  0.6704  0.1408
10078SOL    HW132551   1.471   5.676   1.339 -1.1804 -2.0079 -0.4859
10078SOL    HW232552   1.493   5.692   1.488  0.8872  3.0674 -1.1480
10079SOL     OW32553   1.711   8.970   1.558 -0.0509 -0.2225 -0.3033
10079SOL    HW132554   1.739   9.002   1.644  0.5211 -0.4550 -0.3976
10079SOL    HW232555   1.630   8.923   1.575  0.8150 -1.5262  0.3429
10080SOL     OW32556   1.735   5.646  10.464 -0.2180 -0.4247 -0.2498
10080SOL    HW132557   1.771   5.688  10.386 -1.2226  0.4533 -0.2629
10080SOL    HW232558   1.808   5.596  10.500  0.2048 -1.0539 -1.8815
10081SOL     OW32559   1.025   3.266   8.149 -0.5093  0.3244 -0.5046
10081SOL    HW132560   1.000   3.195   8.090 -0.9237 -0.5190  0.6417
10081SOL    HW232561   1.106   3.235   8.191  0.1993  1.2388 -1.1603
10082SOL     OW32562   9.649   1.016   6.794 -0.2725  0.9799 -0.3428
10082SOL    HW132563   9.736   1.025   6.834 -0.6461  0.3237  0.6533
10082SOL    HW232564   9.650   0.929   6.755 -0.3790  1.0949 -0.6026
10083SOL     OW32565   1.081   8.912   0.260 -0.1909 -0.3168  0.0896
10083SOL    HW132566   1.006   8.852   0.262 -2.1792  1.9800  0.2583
10083SOL    HW232567   1.091   8.940   0.351 -0.0971  0.4665 -0.1526
10084SOL     OW32568   8.780   3.984   0.855  0.5788  0.3136  0.7949
10084SOL    HW132569   8.735   3.936   0.785 -1.2060  0.1041  2.0045
10084SOL    HW232570   8.722   4.058   0.875  1.5611  0.9559  1.3524
10085SOL     OW32571   8.756   7.931   8.843  0.1739 -0.0686  0.3961
10085SOL    HW132572   8.769   7.865   8.911  0.3597  0.2153  0.6372
10085SOL    HW232573   8.840   7.937   8.798  0.2027  0.1076  0.4707
10086SOL     OW32574   3.466   0.448   0.200  0.0815  0.5370  0.0862
10086SOL    HW132575   3.468   0.384   0.129 -0.3439 -1.0227  1.4120
10086SOL    HW232576   3.538   0.508   0.180  0.8762 -0.6899 -0.9141
10087SOL     OW32577   4.218   0.656   6.356 -0.1281 -0.3073 -0.0923
10087SOL    HW132578   4.164   0.721   6.402  3.4843  0.4410  3.6930
10087SOL    HW232579   4.246   0.701   6.276 -0.2449  1.6389  0.8915
10088SOL     OW32580   0.184   4.602   3.870  0.1734  0.2469 -0.0051
10088SOL    HW132581   0.131   4.650   3.933 -0.3824 -1.2104  0.7009
10088SOL    HW232582   0.273   4.631   3.885 -0.2418  1.6978 -0.2373
10089SOL     OW32583   9.392   4.283   4.681 -0.2516 -0.1010 -0.1477
10089SOL    HW132584   9.346   4.201   4.696  1.0485 -0.9143 -0.4992
10089SOL    HW232585   9.432   4.274   4.595  1.8398 -0.0765  0.7402
10090SOL     OW32586  10.525  10.274   8.978 -0.4941 -0.4053  0.7649
10090SOL    HW132587  10.559  10.320   9.056 -0.0096 -0.3286  0.5137
10090SOL    HW232588  10.438  10.245   9.004 -0.1061 -0.9058  1.5541
10091SOL     OW32589   5.870   8.726   1.811  0.0158  0.2727 -0.5169
10091SOL    HW132590   5.812   8.797   1.838 -0.1121  0.5954 -1.5928
10091SOL    HW232591   5.811   8.656   1.781  0.1531  0.5365 -1.4492
10092SOL     OW32592   3.520   5.215   0.175  0.0765 -0.2352 -0.1048
10092SOL    HW132593   3.548   5.274   0.245  0.5245 -2.0065  1.2887
10092SOL    HW232594   3.579   5.233   0.103 -1.0800  2.4043 -0.5027
10093SOL     OW32595   9.680   0.765   1.694 -0.3886 -0.2562  0.4477
10093SOL    HW132596   9.738   0.720   1.754 -0.8653 -0.2653  0.9078
10093SOL    HW232597   9.653   0.844   1.741 -2.3023 -1.2136  1.0519
10094SOL     OW32598   6.952   0.307   0.157 -0.3318  0.0179 -0.1894
10094SOL    HW132599   7.009   0.312   0.080 -0.4656 -0.8746 -0.3521
10094SOL    HW232600   6.960   0.393   0.198 -1.9390  1.2989 -2.3621
10095SOL     OW32601   5.807   3.494   0.480  0.5742  0.6523  0.2791
10095SOL    HW132602   5.892   3.534   0.500  0.2661  1.4477  0.0104
10095SOL    HW232603   5.770   3.549   0.411  1.3385 -1.6666 -2.1246
10096SOL     OW32604   2.157   2.613   6.112  0.6507 -0.6051  0.3713
10096SOL    HW132605   2.157   2.629   6.206  0.3006 -2.5724  0.7576
10096SOL    HW232606   2.131   2.696   6.073  1.1587  0.3500  1.9777
10097SOL     OW32607   9.317   5.436   6.234 -0.4710  0.2418 -0.5614
10097SOL    HW132608   9.305   5.386   6.315  0.7346 -1.2089 -1.2301
10097SOL    HW232609   9.322   5.527   6.262 -1.6881 -0.0655  0.8109
10098SOL     OW32610   9.265   1.041   4.883  0.0868 -0.0579 -0.5348
10098SOL    HW132611   9.306   0.963   4.846 -0.6259 -0.2159 -1.0130
10098SOL    HW232612   9.217   1.008   4.959  0.5893  0.0798 -0.1515
10099SOL     OW32613   2.133   3.692   1.654  0.4569  0.4512  0.6611
10099SOL    HW132614   2.195   3.712   1.724  1.3633  1.2839 -0.3270
10099SOL    HW232615   2.062   3.756   1.666  0.8150  0.8735  0.5897
10100SOL     OW32616   2.994   7.055   8.494  0.5361 -0.1284  0.5218
10100SOL    HW132617   2.906   7.039   8.460  1.0023 -1.2727 -0.2330
10100SOL    HW232618   3.051   7.003   8.437  1.5754 -0.4495  1.8203
10101SOL     OW32619   9.140   8.260   8.751 -0.0459  0.2299 -0.2420
10101SOL    HW132620   9.229   8.294   8.763 -0.4246  1.1533  0.0581
10101SOL    HW232621   9.143   8.172   8.789  0.4565  0.6836  0.8398
10102SOL     OW32622   9.787   8.321   5.027 -0.2979 -0.0417  0.3347
10102SOL    HW132623   9.877   8.346   5.008 -0.1246 -1.4313 -0.8726
10102SOL    HW232624   9.774   8.240   4.977 -2.5558  0.6917 -0.3767
10103SOL     OW32625   8.305   2.441   8.541 -0.2331  0.4508 -0.4476
10103SOL    HW132626   8.284   2.534   8.543  1.4553  0.9303 -2.0701
10103SOL    HW232627   8.350   2.425   8.624  0.5435  1.3762 -0.6761
10104SOL     OW32628   6.238   1.859  10.052 -0.0557  0.0310  0.3198
10104SOL    HW132629   6.287   1.781  10.027  2.0349  0.6044  2.1848
10104SOL    HW232630   6.273   1.881  10.139 -0.8744  2.7739  0.0419
10105SOL     OW32631   2.662   7.718  10.197  0.7646  0.0707  0.3148
10105SOL    HW132632   2.662   7.778  10.123 -0.0983 -0.0210  0.2271
10105SOL    HW232633   2.644   7.773  10.273 -1.5637 -0.2269  0.0586
10106SOL     OW32634   6.972   6.446   0.052 -0.3765 -0.5687  0.4118
10106SOL    HW132635   6.964   6.486   0.139 -3.1742  1.2044 -0.5244
10106SOL    HW232636   6.897   6.387   0.047  1.1809 -2.5987  0.0667
10107SOL     OW32637   8.707   7.577   8.823  0.3308  0.3045 -0.2595
10107SOL    HW132638   8.693   7.485   8.843 -1.9054  0.3511 -1.2483
10107SOL    HW232639   8.790   7.580   8.775  2.2662 -0.6485  2.7620
10108SOL     OW32640   4.270   5.241   5.291 -0.0730 -0.3473 -0.1111
10108SOL    HW132641   4.308   5.173   5.347  0.0958 -0.1657 -0.0036
10108SOL    HW232642   4.224   5.193   5.223  1.4217 -0.6028 -1.0012
10109SOL     OW32643   8.872   2.283   9.689 -0.4816 -0.7631 -0.1938
10109SOL    HW132644   8.863   2.278   9.593 -1.2149 -1.2141 -0.1124
10109SOL    HW232645   8.966   2.290   9.704 -0.4633  1.5078 -1.0359
10110SOL     OW32646   0.571   7.789   5.709 -0.3445  0.2479 -0.3628
10110SOL    HW132647   0.483   7.752   5.717  0.0335 -0.2963  2.1765
10110SOL    HW232648   0.594   7.817   5.798  2.1527  0.1130 -0.8785
10111SOL     OW32649   6.563   4.665   7.932 -0.2076  0.0664  0.6942
10111SOL    HW132650   6.494   4.638   7.871 -0.5234 -0.8010  1.4077
10111SOL    HW232651   6.520   4.663   8.018 -0.1337  2.4707  0.8672
10112SOL     OW32652   9.747   0.390   2.165  0.0664 -0.2914 -0.0363
10112SOL    HW132653   9.691   0.439   2.104 -0.9152 -1.2135  0.0930
10112SOL    HW232654   9.714   0.413   2.251  1.6252  1.2181  0.2138
10113SOL     OW32655   8.987   2.836   4.027 -0.5373 -0.0697  0.5091
10113SOL    HW132656   9.064   2.810   4.077  0.8199 -0.5353 -1.7127
10113SOL    HW232657   8.955   2.915   4.072  2.3136  1.2089  0.4877
10114SOL     OW32658   7.126   3.224   9.848 -0.0352  0.2405 -0.9022
10114SOL    HW132659   7.202   3.241   9.904 -1.8499  1.6352  1.3079
10114SOL    HW232660   7.085   3.146   9.886 -0.5125  0.3524 -1.1763
10115SOL     OW32661   1.720   8.421   8.637 -0.3038  0.7856  0.6062
10115SOL    HW132662   1.792   8.383   8.687 -0.2441  2.1262  1.5913
10115SOL    HW232663   1.762   8.477   8.572 -0.4491  1.1489  0.8247
10116SOL     OW32664   4.698   7.745   4.149 -0.4403 -0.0777  0.3439
10116SOL    HW132665   4.631   7.747   4.217  0.5833  2.3066  1.3708
10116SOL    HW232666   4.781   7.743   4.197  0.2920 -0.9388 -0.8949
10117SOL     OW32667   7.698   7.432   9.091 -0.8423 -0.0263  0.1620
10117SOL    HW132668   7.751   7.509   9.115 -1.0590  0.1088  0.2080
10117SOL    HW232669   7.760   7.359   9.097 -1.0958 -0.1426  2.1185
10118SOL     OW32670   9.125   4.215   3.804 -0.1240  0.3834 -0.3955
10118SOL    HW132671   9.076   4.292   3.777  1.5002  1.1708 -1.1984
10118SOL    HW232672   9.119   4.215   3.900 -0.4680  1.2739 -0.4126
10119SOL     OW32673   7.752   7.049   1.117 -0.2839 -0.4346  0.1455
10119SOL    HW132674   7.842   7.077   1.135  0.0416  0.3969 -2.5032
10119SOL    HW232675   7.699   7.125   1.138  0.0179  0.2699 -1.5076
10120SOL     OW32676   7.429   3.973   5.927  0.5158 -0.2872 -0.2999
10120SOL    HW132677   7.363   3.933   5.871  0.5564 -1.6915  0.5959
10120SOL    HW232678   7.423   3.925   6.010  1.8652  0.3197  0.1895
10121SOL     OW32679   1.086   5.185   0.779  0.1504 -1.0370 -0.0339
10121SOL    HW132680   1.010   5.230   0.815 -0.8569 -0.7164 -2.3589
10121SOL    HW232681   1.052   5.102   0.747  0.5978 -0.6467 -1.6288
10122SOL     OW32682   6.428   1.824   4.823  0.6626  0.4759 -0.1781
10122SOL    HW132683   6.412   1.730   4.825  1.3925  0.3576  0.5139
10122SOL    HW232684   6.523   1.832   4.816  0.7271  1.1495  1.1390
10123SOL     OW32685   3.830   4.782   4.595  0.0129  0.4913 -0.5506
10123SOL    HW132686   3.816   4.713   4.530 -1.7166 -0.5412  0.8129
10123SOL    HW232687   3.902   4.834   4.560 -0.7113 -0.1224 -3.1736
10124SOL     OW32688   0.495   1.798   5.678 -0.1298  0.1721 -0.1328
10124SOL    HW132689   0.418   1.758   5.718 -0.9827  0.9199 -0.9710
10124SOL    HW232690   0.498   1.886   5.715  0.0069  0.3267 -0.5082
10125SOL     OW32691   8.629   8.634   7.568 -0.1119  0.1526 -0.1161
10125SOL    HW132692   8.700   8.693   7.592 -0.0767 -0.2730  0.8503
10125SOL    HW232693   8.596   8.669   7.485 -0.8144  2.1950  0.9491
10126SOL     OW32694   1.515   8.553   9.114 -0.0351 -0.2961  0.4113
10126SOL    HW132695   1.487   8.527   9.202  0.2356  0.0834  0.6159
10126SOL    HW232696   1.608   8.532   9.111 -0.2862 -1.3791 -0.1993
10127SOL     OW32697   4.678   5.524   4.635  0.2402  0.2021 -0.1021
10127SOL    HW132698   4.656   5.511   4.727  0.3383 -0.6954 -0.1997
10127SOL    HW232699   4.600   5.497   4.587  0.1023  0.8923 -0.2848
10128SOL     OW32700   3.581   1.554   5.631 -0.5174  0.2957  0.0415
10128SOL    HW132701   3.512   1.580   5.693 -0.8653  1.9542 -0.9769
10128SOL    HW232702   3.549   1.473   5.592 -1.5894  0.6795  0.0868
10129SOL     OW32703   5.377   6.994   7.502  0.4595  0.0188 -0.4792
10129SOL    HW132704   5.391   7.018   7.411 -1.7330 -1.8081 -1.3980
10129SOL    HW232705   5.465   6.983   7.538  1.4546 -1.7545 -3.1279
10130SOL     OW32706   7.471   7.342   8.566 -0.2230  0.0368  0.0115
10130SOL    HW132707   7.549   7.288   8.579 -0.9868 -0.8604  1.0502
10130SOL    HW232708   7.464   7.393   8.646 -1.3466 -0.7641  0.4460
10131SOL     OW32709   2.797   2.202   0.479  0.4412  0.1940  0.0369
10131SOL    HW132710   2.824   2.220   0.389  0.2886 -0.7510 -0.2107
10131SOL    HW232711   2.873   2.225   0.532  1.7027 -2.1221 -0.6225
10132SOL     OW32712   0.753   5.859   6.939 -0.4254  0.3413  0.1435
10132SOL    HW132713   0.793   5.870   6.852  1.1717 -1.6002  0.5420
10132SOL    HW232714   0.677   5.803   6.923  1.4350 -2.4196  0.2085
10133SOL     OW32715   9.414   2.605   4.319  0.1431 -0.3024 -0.2554
10133SOL    HW132716   9.333   2.556   4.303  0.3807 -0.5971 -0.5624
10133SOL    HW232717   9.469   2.586   4.243  2.1968 -3.5057  1.7994
10134SOL     OW32718   6.723   1.426   6.850  0.3818 -0.1525 -0.1465
10134SOL    HW132719   6.672   1.366   6.904  0.6458 -0.2586 -0.0140
10134SOL    HW232720   6.743   1.499   6.908  0.8171 -0.3479 -0.0440
10135SOL     OW32721   3.014   2.677   7.266 -0.2931 -0.3441 -0.2333
10135SOL    HW132722   2.973   2.619   7.202  0.5743  0.1140 -1.2278
10135SOL    HW232723   2.966   2.759   7.257  0.3172 -0.0489 -0.8400
10136SOL     OW32724   8.869   1.680   7.047 -0.3269 -0.6608 -0.2832
10136SOL    HW132725   8.923   1.603   7.065  1.1428  0.5613  0.9049
10136SOL    HW232726   8.910   1.721   6.971  0.2983  0.1014  0.4328
10137SOL     OW32727   4.521   2.969  10.282 -0.5635 -0.0586 -0.0195
10137SOL    HW132728   4.590   2.906  10.262 -0.0676  0.5238 -0.1759
10137SOL    HW232729   4.441   2.917  10.283 -0.1198 -0.7491  0.2030
10138SOL     OW32730   6.150   1.723   9.524 -0.1916  0.1524  0.1492
10138SOL    HW132731   6.066   1.738   9.568 -0.1297 -0.8874  0.6454
10138SOL    HW232732   6.214   1.718   9.596  0.1290 -0.1582 -0.1541
10139SOL     OW32733  10.480   2.409   8.670 -0.4384 -0.1781  0.2973
10139SOL    HW132734  10.527   2.490   8.652  0.2890  0.0382  2.8011
10139SOL    HW232735  10.548   2.346   8.693 -1.0495 -1.3685 -0.9475
10140SOL     OW32736   7.877   2.849   9.927  0.0661  0.5312  0.2263
10140SOL    HW132737   7.846   2.783   9.989 -2.6266  0.4482 -1.0470
10140SOL    HW232738   7.866   2.932   9.973 -0.0288  0.3310  0.5703
10141SOL     OW32739   9.869  10.285   7.866 -0.4250  0.0403 -0.3087
10141SOL    HW132740   9.807  10.272   7.794  1.3281 -1.8372 -1.5945
10141SOL    HW232741   9.862  10.206   7.919  1.5182 -0.7092 -1.0748
10142SOL     OW32742   9.396   8.907   4.227  0.6714 -0.2086 -0.0302
10142SOL    HW132743   9.335   8.970   4.190 -0.0072  0.4785  2.1343
10142SOL    HW232744   9.482   8.933   4.192  0.3719  1.7805  0.6272
10143SOL     OW32745   9.238   1.083  10.384  0.1784 -0.3887  0.1140
10143SOL    HW132746   9.169   1.033  10.341  0.6543 -0.4292 -0.6248
10143SOL    HW232747   9.319   1.041  10.356  0.6580  1.4116 -1.4139
10144SOL     OW32748   1.705   8.001   5.395  0.2236  0.0334 -0.5262
10144SOL    HW132749   1.620   7.963   5.374  0.2418 -0.3983  0.1594
10144SOL    HW232750   1.686   8.094   5.409 -0.4181 -0.3110  1.1063
10145SOL     OW32751   4.603   6.121  10.497  0.2073  0.0712 -0.4410
10145SOL    HW132752   4.577   6.058  10.429 -0.4865 -1.0976  0.8568
10145SOL    HW232753   4.686   6.087  10.530  0.1898  0.2476 -0.2187
10146SOL     OW32754   1.640   9.933   6.123 -0.2492  0.3683 -0.3816
10146SOL    HW132755   1.650  10.019   6.163  0.4691  0.9677 -1.7587
10146SOL    HW232756   1.704   9.878   6.167  1.6127  1.4013 -1.6776
10147SOL     OW32757   3.354   1.889   7.242  0.5105  0.4912  0.3733
10147SOL    HW132758   3.363   1.906   7.336  0.6500  1.7572  0.1543
10147SOL    HW232759   3.264   1.915   7.221  0.7211  0.9643  0.0255
10148SOL     OW32760   0.554   6.627   7.363 -0.2296  1.0927 -0.0656
10148SOL    HW132761   0.487   6.615   7.430 -0.4228  3.7952  0.3277
10148SOL    HW232762   0.627   6.669   7.408 -0.0282  2.1947 -1.3536
10149SOL     OW32763   7.775   3.900   1.773  0.1225  0.3808 -0.3724
10149SOL    HW132764   7.726   3.928   1.850  0.5082 -0.8582  0.3482
10149SOL    HW232765   7.715   3.915   1.700 -1.6856 -1.8554  0.5583
10150SOL     OW32766   9.799   4.202   2.539 -0.0824  0.0636  0.5364
10150SOL    HW132767   9.792   4.127   2.598 -0.7281  0.7086  1.3064
10150SOL    HW232768   9.757   4.172   2.458  1.9886 -1.2856 -0.1239
10151SOL     OW32769   3.689  10.117   1.487  0.3578 -0.7477 -0.3614
10151SOL    HW132770   3.648  10.032   1.502  0.7141 -1.0699 -1.1566
10151SOL    HW232771   3.783  10.100   1.492  0.4315 -0.3766 -0.4050
10152SOL     OW32772   2.335   7.231   9.501  0.3745  0.0281 -0.2469
10152SOL    HW132773   2.331   7.319   9.465  4.0800 -0.4065 -2.2623
10152SOL    HW232774   2.346   7.174   9.425  2.7217 -1.5909  1.1735
10153SOL     OW32775   7.935   7.984  10.336 -0.0975  0.3091 -0.1912
10153SOL    HW132776   7.974   8.056  10.286  0.0428  0.9734  0.8503
10153SOL    HW232777   7.903   8.025  10.416  1.6109 -1.0718  1.2786
10154SOL     OW32778   4.316   3.599   4.310 -0.1822 -0.2104  0.3438
10154SOL    HW132779   4.271   3.683   4.312 -1.1251 -0.7090  1.4949
10154SOL    HW232780   4.376   3.601   4.385  0.6979 -0.0954 -0.3534
10155SOL     OW32781   2.877   2.196   1.600  0.3584 -0.4013  0.6462
10155SOL    HW132782   2.797   2.240   1.629  0.0403 -0.7685  0.3496
10155SOL    HW232783   2.896   2.133   1.670  1.6658  1.2063  1.8024
10156SOL     OW32784   7.512   8.199   1.399 -0.0981 -0.3894 -0.0137
10156SOL    HW132785   7.504   8.185   1.493 -1.7738  1.1293  0.1263
10156SOL    HW232786   7.559   8.122   1.367  0.4179 -0.9817  2.0365
10157SOL     OW32787   1.976   5.741   3.455 -0.0308  0.2147 -0.1560
10157SOL    HW132788   1.913   5.717   3.387 -0.2345 -0.1329  0.1518
10157SOL    HW232789   1.970   5.670   3.519  1.9432 -0.7554 -0.9695
10158SOL     OW32790   9.909   0.434   0.504  0.4192  0.3129  0.0805
10158SOL    HW132791   9.836   0.397   0.453  0.6139  1.9202 -1.4445
10158SOL    HW232792   9.891   0.406   0.594 -0.6621 -1.5118 -0.6258
10159SOL     OW32793   4.759   9.190   7.321  0.1443  0.0246 -0.5375
10159SOL    HW132794   4.738   9.218   7.232  1.1149  0.5735 -0.6018
10159SOL    HW232795   4.801   9.266   7.361  2.7259 -1.2590 -0.6586
10160SOL     OW32796   5.348   4.262   0.911  0.0082  0.5470  0.1563
10160SOL    HW132797   5.310   4.234   0.994 -0.9484  0.6937 -0.2140
10160SOL    HW232798   5.442   4.264   0.926 -0.1826  0.9795  1.3670
10161SOL     OW32799   4.935   4.240   7.859 -0.0825  0.1187  0.6113
10161SOL    HW132800   4.888   4.273   7.935 -0.6076 -0.2941  0.4672
10161SOL    HW232801   5.002   4.182   7.896  2.8721  3.4925  1.1410
10162SOL     OW32802   7.162   0.059   6.506  0.2798 -0.1545 -0.5365
10162SOL    HW132803   7.144   0.142   6.550 -1.8067 -1.5902  1.5847
10162SOL    HW232804   7.252   0.038   6.530 -0.1708  0.0516  1.5403
10163SOL     OW32805   1.277   7.976   3.944  0.2226  0.4569  0.2526
10163SOL    HW132806   1.210   8.028   3.989  0.3313 -0.6119  1.7221
10163SOL    HW232807   1.352   8.034   3.936  0.5476  0.4032  2.3964
10164SOL     OW32808   3.242   4.816   1.431  0.4094 -0.4463 -0.1138
10164SOL    HW132809   3.262   4.723   1.438  0.1225 -0.6778 -1.8343
10164SOL    HW232810   3.240   4.832   1.337 -1.0395  0.9855  0.1293
10165SOL     OW32811   7.420   3.897   7.604 -0.4843 -0.3094 -0.0785
10165SOL    HW132812   7.513   3.916   7.606 -0.5564  0.0595  1.7275
10165SOL    HW232813   7.380   3.967   7.656 -1.5665 -1.3766  0.5822
10166SOL     OW32814   4.601   0.223   5.767 -0.3332  0.2053 -0.3092
10166SOL    HW132815   4.636   0.248   5.681 -0.6106 -3.7318 -1.7563
10166SOL    HW232816   4.511   0.196   5.749  0.3459 -3.0589  0.5943
10167SOL     OW32817   1.197   3.291   0.646 -0.4623 -0.1977  0.2608
10167SOL    HW132818   1.142   3.237   0.702 -1.3243 -0.0365 -0.4052
10167SOL    HW232819   1.197   3.377   0.689  0.0785 -0.4533  0.7804
10168SOL     OW32820   7.514   4.825   1.231  0.9406  0.3302  0.0315
10168SOL    HW132821   7.576   4.775   1.285  0.1978  0.0666  0.6628
10168SOL    HW232822   7.428   4.792   1.257  0.4949  1.2105 -0.2938
10169SOL     OW32823   1.341  10.496   2.858 -0.1054 -0.5484  0.1929
10169SOL    HW132824   1.245  10.495   2.867 -0.2722 -1.2075 -1.3278
10169SOL    HW232825   1.367  10.405   2.876  0.2541 -0.3299  0.7697
10170SOL     OW32826   7.537   8.608   5.038  0.2111  0.4044  0.3832
10170SOL    HW132827   7.611   8.556   5.069 -0.0790  0.0186  0.4402
10170SOL    HW232828   7.544   8.607   4.943  0.4009  0.5479  0.3964
10171SOL     OW32829   1.300   3.149   5.220 -0.5212  0.6742 -0.1147
10171SOL    HW132830   1.230   3.111   5.168  0.2025  0.6745 -1.1192
10171SOL    HW232831   1.366   3.080   5.227 -0.0740  1.0806 -0.2509
10172SOL     OW32832   8.909   5.620   2.121  0.1389  0.1639  0.0378
10172SOL    HW132833   8.823   5.612   2.163 -0.3521  1.9356 -0.5443
10172SOL    HW232834   8.930   5.713   2.127  2.6081 -0.3830  1.2464
10173SOL     OW32835  10.368   6.427   8.078 -0.4131 -0.5872 -0.4177
10173SOL    HW132836  10.284   6.379   8.073  0.5561 -2.3371 -0.9813
10173SOL    HW232837  10.402   6.405   8.165 -1.6078  2.1491  0.8511
10174SOL     OW32838   9.837   8.916   1.252  0.0695 -0.4970  0.8539
10174SOL    HW132839   9.743   8.914   1.267  0.0533 -0.5901  0.7450
10174SOL    HW232840   9.854   8.838   1.198  0.4388 -1.3767  2.1825
10175SOL     OW32841   3.546   9.202   1.169 -0.2004  0.7730  0.1999
10175SOL    HW132842   3.592   9.169   1.092  1.4886  2.9332  0.2110
10175SOL    HW232843   3.498   9.279   1.139  0.7712  1.8691  1.3237
10176SOL     OW32844   7.768   5.868   8.747 -0.4079 -0.4653 -0.0339
10176SOL    HW132845   7.761   5.827   8.834  0.5480  0.5260  0.5394
10176SOL    HW232846   7.694   5.929   8.743  0.6007  0.8651  0.8802
10177SOL     OW32847   6.037   0.849   3.278  0.5254 -0.7829 -0.0138
10177SOL    HW132848   5.967   0.838   3.213 -0.8535  0.8131  1.1235
10177SOL    HW232849   6.034   0.769   3.330 -1.8100 -0.0382  1.1854
10178SOL     OW32850   9.975   5.757  10.053 -0.7132  0.2629  0.2515
10178SOL    HW132851  10.057   5.736  10.098 -1.0053 -1.4275  0.0900
10178SOL    HW232852   9.912   5.769  10.124 -0.8317 -0.8542  0.3579
10179SOL     OW32853   7.983   2.909  10.281 -0.6085  0.1682  0.4114
10179SOL    HW132854   7.904   2.953  10.250 -0.4140  0.1004 -0.2005
10179SOL    HW232855   8.029   2.975  10.333 -0.1124  0.8469 -0.8394
10180SOL     OW32856   2.750   5.382   6.692 -0.2634 -0.1104  0.1749
10180SOL    HW132857   2.740   5.433   6.772  1.6614 -0.0195  0.3853
10180SOL    HW232858   2.679   5.414   6.635 -0.0204  1.7431  0.8408
10181SOL     OW32859   6.543   3.928  10.447 -0.3039 -0.2353  0.2371
10181SOL    HW132860   6.487   3.951  10.522  0.9928 -0.2890  1.2474
10181SOL    HW232861   6.485   3.878  10.389 -1.3662 -0.0998  1.1446
10182SOL     OW32862   6.782   6.743   3.165  0.2565  0.3581  0.5115
10182SOL    HW132863   6.711   6.776   3.109 -0.8025 -0.4426  1.3355
10182SOL    HW232864   6.820   6.821   3.204 -1.9146  0.7073  2.1062
10183SOL     OW32865   2.492   8.828   2.095 -0.7877  0.2892  0.4592
10183SOL    HW132866   2.457   8.889   2.161 -1.7328  1.5752 -1.1574
10183SOL    HW232867   2.586   8.849   2.092 -0.6247 -0.1737  1.7671
10184SOL     OW32868   8.539   5.423   0.140  0.3142 -0.4680  0.2850
10184SOL    HW132869   8.602   5.488   0.171 -0.1129 -1.1164  2.7512
10184SOL    HW232870   8.591   5.344   0.127  0.9577  0.3877 -3.3597
10185SOL     OW32871   7.907   7.378   8.069 -0.0578 -0.0433  0.4799
10185SOL    HW132872   7.950   7.402   8.151  0.7433 -2.1590  0.7518
10185SOL    HW232873   7.814   7.376   8.090 -0.0314  1.2910  0.7995
10186SOL     OW32874   6.844   7.125   6.171 -0.2079  0.3530 -0.3088
10186SOL    HW132875   6.922   7.167   6.136  0.2680  0.8061  1.2340
10186SOL    HW232876   6.772   7.184   6.147 -0.1894 -0.2956 -2.1354
10187SOL     OW32877  10.536   5.280   9.542  0.1835 -0.2505 -0.4287
10187SOL    HW132878  10.579   5.341   9.482  1.2396 -3.3568 -3.0964
10187SOL    HW232879  10.606   5.249   9.599  0.3384 -1.1069 -1.0581
10188SOL     OW32880   1.169   9.826   9.613 -0.0074 -0.2598  0.6481
10188SOL    HW132881   1.226   9.812   9.538 -0.4620  1.9642 -0.1861
10188SOL    HW232882   1.085   9.787   9.587  0.2368 -0.7723  0.6132
10189SOL     OW32883   8.159  10.262   9.735  0.2308 -0.2734  0.1300
10189SOL    HW132884   8.143  10.176   9.695 -0.0060 -0.0749 -0.2097
10189SOL    HW232885   8.073  10.294   9.760  0.1775  0.3420 -0.7563
10190SOL     OW32886   3.722   0.632   3.031 -0.2873 -0.3977 -0.8887
10190SOL    HW132887   3.773   0.557   3.062 -1.3683 -0.3333  1.2450
10190SOL    HW232888   3.723   0.624   2.936  2.1426 -1.3972 -0.8442
10191SOL     OW32889   2.334   4.674   2.180  0.4187  0.3565 -0.2976
10191SOL    HW132890   2.243   4.687   2.207 -0.6141  0.1251 -3.2673
10191SOL    HW232891   2.341   4.721   2.097  2.7563 -0.4405 -0.6182
10192SOL     OW32892   7.292   2.760   1.504 -0.3307 -0.0091 -0.4502
10192SOL    HW132893   7.251   2.841   1.533 -1.3877  0.1393 -2.2159
10192SOL    HW232894   7.369   2.789   1.455  1.3279 -0.2487  1.8810
10193SOL     OW32895   7.162   5.134  10.101 -0.3386  0.3896  0.3628
10193SOL    HW132896   7.146   5.041  10.085  0.6274  0.3656 -0.5383
10193SOL    HW232897   7.123   5.178  10.025  0.4343  0.6153  0.0964
10194SOL     OW32898   6.659   0.100   2.761  0.2518  0.4659 -0.4136
10194SOL    HW132899   6.567   0.122   2.747  0.5626  0.8926 -1.9574
10194SOL    HW232900   6.666   0.089   2.856 -1.5313 -0.2659 -0.3214
10195SOL     OW32901   8.417   3.344   1.747 -0.0044 -0.2554 -0.1414
10195SOL    HW132902   8.428   3.284   1.674  0.1077 -0.0819 -0.2672
10195SOL    HW232903   8.372   3.292   1.814 -1.1357 -0.0961 -0.7466
10196SOL     OW32904  10.097   1.416   2.070 -0.0026  0.3821  0.1747
10196SOL    HW132905  10.073   1.347   2.008 -2.1504 -1.0870  2.4200
10196SOL    HW232906  10.191   1.404   2.085  0.2361 -0.2126 -1.5633
10197SOL     OW32907  10.266   9.465   8.058 -0.1738  0.6743 -0.4210
10197SOL    HW132908  10.305   9.493   8.141  0.3824 -1.7290  0.2213
10197SOL    HW232909  10.261   9.370   8.065 -3.6853  0.6055 -1.6011
10198SOL     OW32910   4.983   8.359   5.387 -0.0383  0.2464 -0.0208
10198SOL    HW132911   5.001   8.452   5.400 -0.6716  0.5804 -1.3904
10198SOL    HW232912   4.947   8.330   5.471  0.3042  1.1979  0.4663
10199SOL     OW32913   3.573   8.887   4.501 -0.1461  0.5751 -0.0759
10199SOL    HW132914   3.651   8.853   4.544  0.2583  0.8930 -0.5438
10199SOL    HW232915   3.517   8.810   4.487  0.0553  0.3595  0.3219
10200SOL     OW32916   5.168   2.337  10.554 -0.0692 -0.5714 -0.7867
10200SOL    HW132917   5.148   2.289  10.635 -0.6177  0.5347 -0.2471
10200SOL    HW232918   5.102   2.307  10.492 -0.4755 -0.4266 -0.4250
10201SOL     OW32919   2.216   1.893   5.569  0.1563  0.1448 -0.2033
10201SOL    HW132920   2.301   1.851   5.584 -0.5034 -0.5420  1.9599
10201SOL    HW232921   2.157   1.820   5.546 -0.4489  0.1850  1.1379
10202SOL     OW32922   8.757   1.659   5.019  0.2737 -0.0926  0.2174
10202SOL    HW132923   8.793   1.652   4.930 -0.3564 -2.0536  0.0898
10202SOL    HW232924   8.681   1.716   5.010  0.8854  0.6751 -0.2620
10203SOL     OW32925   0.249   1.836   6.603  0.3197 -0.7595 -0.5278
10203SOL    HW132926   0.253   1.801   6.692  0.1865 -2.9046 -1.3236
10203SOL    HW232927   0.236   1.760   6.547  1.8328  0.3617 -2.5356
10204SOL     OW32928   6.386   1.797   3.643  0.8584  0.2377  0.1922
10204SOL    HW132929   6.422   1.798   3.732  2.1590  0.8580 -0.3084
10204SOL    HW232930   6.339   1.879   3.636  1.4801  0.5868  0.0385
10205SOL     OW32931   1.468  10.121   2.655 -0.0426  0.3304  0.2034
10205SOL    HW132932   1.537  10.153   2.596 -0.2513 -1.4127 -1.0615
10205SOL    HW232933   1.484  10.027   2.662 -1.9002 -0.0004  0.4001
10206SOL     OW32934   2.961   0.361   4.089 -0.3785  0.7177 -0.8591
10206SOL    HW132935   2.939   0.447   4.124 -1.4619  0.0803  0.1029
10206SOL    HW232936   2.986   0.309   4.165 -3.1416 -0.7983 -0.8373
10207SOL     OW32937   6.417   6.412   2.379 -0.2546  0.4102  0.1149
10207SOL    HW132938   6.504   6.373   2.378 -1.4300 -2.4894  0.8973
10207SOL    HW232939   6.399   6.434   2.288  0.2945 -1.4418 -0.4690
10208SOL     OW32940   3.990   5.088   3.735  0.2212 -0.2533 -0.1779
10208SOL    HW132941   3.939   5.154   3.781 -2.0647 -1.0317 -1.4533
10208SOL    HW232942   4.081   5.107   3.759 -0.4312  2.6503  0.3493
10209SOL     OW32943   2.068   7.974   3.084 -0.0188  0.7079  0.3393
10209SOL    HW132944   2.130   7.911   3.049 -0.3972  0.3403  0.3263
10209SOL    HW232945   2.111   8.059   3.073  0.6809  0.4140  0.7703
10210SOL     OW32946   5.554   1.169   5.944 -0.2065  0.2710 -0.3738
10210SOL    HW132947   5.584   1.113   6.016 -2.6647  0.3258  0.8011
10210SOL    HW232948   5.634   1.209   5.910  1.2260 -1.1527  1.1370
10211SOL     OW32949   5.688   0.214   3.967  0.3143  0.0430  0.0202
10211SOL    HW132950   5.670   0.140   4.026 -0.1113  0.5497  0.5467
10211SOL    HW232951   5.616   0.212   3.904  0.7782 -0.5092 -0.4961
10212SOL     OW32952   6.576   9.780   2.821  0.0410  1.0842 -0.8232
10212SOL    HW132953   6.493   9.821   2.800 -0.4442 -0.6226 -2.5182
10212SOL    HW232954   6.572   9.694   2.780  1.3143 -0.3996  1.8642
10213SOL     OW32955   4.521   2.921   9.616 -0.7305 -0.2678  0.1728
10213SOL    HW132956   4.580   2.978   9.567  2.2207 -3.6300 -0.6009
10213SOL    HW232957   4.564   2.907   9.700 -2.3825  0.1091  1.1303
10214SOL     OW32958   0.194   5.881   3.164 -0.1101 -0.3045  0.2033
10214SOL    HW132959   0.110   5.871   3.120  0.4870  0.9769 -1.3288
10214SOL    HW232960   0.207   5.798   3.210 -2.6815 -0.1656  1.3909
10215SOL     OW32961   3.199   6.106   0.379  0.5187 -0.2783 -0.3353
10215SOL    HW132962   3.149   6.181   0.410  0.3800  0.3548 -1.9479
10215SOL    HW232963   3.290   6.136   0.379  1.0281 -1.5114  2.8336
10216SOL     OW32964   7.361   5.562   1.646 -0.1970  0.5103 -0.1034
10216SOL    HW132965   7.456   5.573   1.659 -0.0816  1.6463 -1.6674
10216SOL    HW232966   7.329   5.650   1.627 -1.5238  0.0742  0.0139
10217SOL     OW32967   4.683   5.074   7.079 -0.1463 -0.6213 -0.0387
10217SOL    HW132968   4.600   5.027   7.081 -0.2059 -0.5314 -0.3311
10217SOL    HW232969   4.687   5.120   7.163  0.1418 -1.5249  0.4584
10218SOL     OW32970   0.323   9.475   3.475  0.3911  0.0861  0.1648
10218SOL    HW132971   0.297   9.421   3.550  1.2663 -0.7320 -0.1122
10218SOL    HW232972   0.315   9.565   3.507  1.3056 -0.2633  1.4338
10219SOL     OW32973   5.940   1.202   0.770  0.1186 -0.2281 -0.4087
10219SOL    HW132974   5.960   1.112   0.794 -2.0415 -0.3268  1.4144
10219SOL    HW232975   5.845   1.209   0.780  0.2020  2.2178 -0.6447
10220SOL     OW32976   4.960   0.187   7.523  0.0416 -0.3772  0.0309
10220SOL    HW132977   4.962   0.253   7.593  0.2220  0.2754 -0.5834
10220SOL    HW232978   4.917   0.232   7.450  1.0632 -0.6112 -0.7254
10221SOL     OW32979   7.617  10.091   4.985 -0.0194  0.4597  0.2477
10221SOL    HW132980   7.601  10.185   4.990 -0.2648  0.3777  1.1216
10221SOL    HW232981   7.530  10.052   4.976  0.1250  0.3417 -0.8825
10222SOL     OW32982   2.470   8.440   1.206 -0.3931 -0.0120 -0.2821
10222SOL    HW132983   2.463   8.349   1.180 -1.6756 -0.0334  0.0720
10222SOL    HW232984   2.523   8.481   1.137  0.6816 -1.1195 -0.1454
10223SOL     OW32985   9.943  10.350   3.027  0.8943  0.2022 -0.1718
10223SOL    HW132986   9.962  10.363   3.120  1.4577 -1.1059 -0.0904
10223SOL    HW232987   9.873  10.284   3.026 -2.7643  3.6663 -0.5289
10224SOL     OW32988   9.063   1.314  10.490 -0.6696  0.3210  0.0450
10224SOL    HW132989   9.027   1.239  10.443 -0.6939 -0.7895  1.7408
10224SOL    HW232990   9.112   1.363  10.423  0.2719 -1.7961 -0.9152
10225SOL     OW32991   2.412   3.232   8.882  0.2400 -0.0260 -0.0961
10225SOL    HW132992   2.422   3.194   8.794  0.3215  0.2294 -0.1966
10225SOL    HW232993   2.456   3.316   8.877 -1.6354  0.9990 -0.4694
10226SOL     OW32994   2.853   2.916   1.345  0.0422 -0.2392 -0.1509
10226SOL    HW132995   2.915   2.856   1.304 -1.0810 -2.0164  0.6556
10226SOL    HW232996   2.776   2.863   1.364 -0.6399  1.2232  1.4946
10227SOL     OW32997  10.233  10.359   6.088  0.0046 -1.1640  0.3301
10227SOL    HW132998  10.295  10.287   6.089  0.2053 -0.9970 -0.0269
10227SOL    HW232999  10.191  10.356   6.174  1.3481 -0.5366  1.0373
10228SOL     OW33000   7.295   9.259   6.145 -0.0364 -0.1162  0.0797
10228SOL    HW133001   7.249   9.311   6.079  0.7301  0.8843  0.3128
10228SOL    HW233002   7.388   9.280   6.132  0.2333 -0.9426  0.5986
10229SOL     OW33003   7.426   6.450   0.546  0.4828  0.1739 -0.3431
10229SOL    HW133004   7.362   6.513   0.578  0.5547  0.7491 -1.3020
10229SOL    HW233005   7.508   6.498   0.544  0.7829 -0.3153  0.0860
10230SOL     OW33006   3.683   0.672   3.853  0.1400 -0.3700 -0.3553
10230SOL    HW133007   3.719   0.744   3.905 -1.2847 -0.0211  0.2061
10230SOL    HW233008   3.728   0.594   3.886  0.2191  0.0167  0.4749
10231SOL     OW33009   9.791   6.449   1.203 -0.3322 -0.4054 -0.2178
10231SOL    HW133010   9.856   6.519   1.214  0.0699 -0.6818 -0.8174
10231SOL    HW233011   9.720   6.473   1.264  0.1228  0.1375  0.1094
10232SOL     OW33012   9.891   5.325   9.700 -0.1921  0.1330 -0.1445
10232SOL    HW133013   9.909   5.355   9.789 -1.4157  0.0557  0.1383
10232SOL    HW233014   9.888   5.405   9.647 -0.7988  0.2973  0.1318
10233SOL     OW33015   8.753   8.064   2.667  0.1728 -0.4082  0.0636
10233SOL    HW133016   8.737   8.124   2.739 -0.8782  0.2747 -0.7100
10233SOL    HW233017   8.746   8.118   2.588 -0.5471 -1.4780 -0.6416
10234SOL     OW33018   0.371   0.719   5.458  0.4936 -0.1426  0.3614
10234SOL    HW133019   0.335   0.639   5.496  1.3803 -0.1772  1.1690
10234SOL    HW233020   0.459   0.726   5.496  1.5540 -0.3241 -1.8744
10235SOL     OW33021   3.833   4.433   9.954  0.4058 -0.1978  0.4560
10235SOL    HW133022   3.910   4.485   9.977  0.8693 -0.1455 -1.0930
10235SOL    HW233023   3.764   4.498   9.939  0.7298 -0.0767 -0.5532
10236SOL     OW33024   9.550  10.570   3.971 -0.6072 -0.3096  0.0112
10236SOL    HW133025   9.610  10.632   3.929 -0.2236 -0.8298 -0.2184
10236SOL    HW233026   9.506  10.526   3.898 -2.4759  1.1651  0.1450
10237SOL     OW33027   1.591   2.664   6.329 -0.0603 -0.1549 -0.0585
10237SOL    HW133028   1.554   2.739   6.283  0.0646  1.3928  2.2225
10237SOL    HW233029   1.518   2.601   6.334 -0.6342  0.4416 -0.6792
10238SOL     OW33030   0.873   8.315   9.259 -0.3098 -0.9714  0.4286
10238SOL    HW133031   0.958   8.330   9.217  0.3504  1.9276  2.4798
10238SOL    HW233032   0.880   8.228   9.297  2.5839 -0.0715  2.2097
10239SOL     OW33033   8.994   0.485   1.465 -0.2077  0.2224  0.3768
10239SOL    HW133034   9.068   0.429   1.488  1.1844  0.7329 -2.4436
10239SOL    HW233035   8.996   0.490   1.370 -2.9655  1.5464  0.2792
10240SOL     OW33036   2.884   3.463   0.224 -0.5617  0.0777 -0.5590
10240SOL    HW133037   2.924   3.513   0.296 -0.0073 -0.2192 -0.6581
10240SOL    HW233038   2.815   3.521   0.192 -0.9035  0.1633  0.2925
10241SOL     OW33039   8.854   6.582   9.777  0.0473  0.0158 -0.0227
10241SOL    HW133040   8.780   6.593   9.838 -0.6500 -0.8356 -0.6915
10241SOL    HW233041   8.926   6.552   9.831  0.2004  1.7377  0.8055
10242SOL     OW33042  10.418   8.650   2.766  0.2885  0.1318 -0.2412
10242SOL    HW133043  10.443   8.715   2.701  1.6190 -0.3557 -0.2525
10242SOL    HW233044  10.502   8.619   2.803 -0.4336  0.8826  2.2027
10243SOL     OW33045   9.683   3.602   2.697 -0.1106  0.4918  0.6937
10243SOL    HW133046   9.686   3.509   2.719  0.0501 -0.1137 -1.5915
10243SOL    HW233047   9.770   3.621   2.662 -0.1437  1.5068  1.1304
10244SOL     OW33048  10.319   3.227   0.300  0.8760 -0.3186  0.2932
10244SOL    HW133049  10.400   3.277   0.290  1.1650 -0.9409 -0.5460
10244SOL    HW233050  10.318   3.168   0.225  0.1637 -1.0442  0.8636
10245SOL     OW33051   1.881   6.564   8.718  0.2703  0.0948  0.2482
10245SOL    HW133052   1.833   6.532   8.642  0.1184  0.7716  0.0458
10245SOL    HW233053   1.823   6.547   8.792 -0.5302  1.3587 -0.0512
10246SOL     OW33054   2.790   4.064   9.788  0.3193 -0.5321 -0.3301
10246SOL    HW133055   2.753   3.980   9.812  0.4571 -1.2994 -2.5711
10246SOL    HW233056   2.723   4.128   9.813 -0.0728 -1.3456  0.7794
10247SOL     OW33057   2.456   7.783   7.106  0.7886 -0.5430  0.3784
10247SOL    HW133058   2.443   7.723   7.033  1.4435 -0.1596 -0.0648
10247SOL    HW233059   2.518   7.738   7.163  0.9848 -0.4558  0.2362
10248SOL     OW33060   3.581  10.467   9.804 -0.0776  0.3834 -0.3656
10248SOL    HW133061   3.625  10.552   9.812  0.3951  0.0476  0.9312
10248SOL    HW233062   3.588  10.445   9.711  0.9942  1.1440 -0.4867
10249SOL     OW33063   7.662   3.124   2.012 -0.1588 -0.6512 -0.0069
10249SOL    HW133064   7.675   3.217   1.992  0.5194 -0.4506  1.2453
10249SOL    HW233065   7.724   3.106   2.082 -0.7049 -1.9156  0.1789
10250SOL     OW33066   1.764   8.431   0.610 -0.4924 -0.0436  0.6369
10250SOL    HW133067   1.830   8.476   0.663  0.3048  0.9345 -1.1050
10250SOL    HW233068   1.774   8.338   0.632  2.0466 -0.0205 -0.1404
10251SOL     OW33069   1.940   2.912   7.100 -0.1959  0.1204  0.3460
10251SOL    HW133070   2.029   2.885   7.121 -0.0689 -1.7291 -2.0603
10251SOL    HW233071   1.884   2.849   7.147 -0.2020  0.4720  0.8167
10252SOL     OW33072   1.304   1.002   3.854 -0.0754 -0.1002  0.1854
10252SOL    HW133073   1.359   0.926   3.874 -0.4707 -0.1767  1.0213
10252SOL    HW233074   1.236   0.968   3.797 -0.4125 -0.4377  0.7844
10253SOL     OW33075   6.520  10.116  10.509  0.1648  0.3956  0.1745
10253SOL    HW133076   6.491  10.047  10.569  0.9117  0.7960  1.0133
10253SOL    HW233077   6.532  10.193  10.565 -0.8873  1.2955 -0.7784
10254SOL     OW33078   3.554   6.673   2.068 -0.3269  0.1490  0.0444
10254SOL    HW133079   3.524   6.653   1.979  1.3819 -2.0284 -0.1433
10254SOL    HW233080   3.494   6.625   2.125  1.1403 -2.1662 -0.2183
10255SOL     OW33081   5.357   2.897  10.592 -0.2557  0.4964 -0.0294
10255SOL    HW133082   5.429   2.835  10.578 -0.3992  0.2050  0.5166
10255SOL    HW233083   5.327   2.918  10.503  1.2543  1.5246 -0.3365
10256SOL     OW33084  10.573   3.781   6.435 -0.4013 -0.7953 -0.1857
10256SOL    HW133085  10.573   3.689   6.464  0.0545 -1.5105 -2.3351
10256SOL    HW233086  10.661   3.813   6.455 -0.5764 -0.7695  0.6145
10257SOL     OW33087   3.995   4.458   5.695  0.5066 -0.2239 -0.0356
10257SOL    HW133088   3.901   4.441   5.689  0.5380 -0.4169  0.0434
10257SOL    HW233089   4.001   4.553   5.709  0.2982 -0.3178  0.7182
10258SOL     OW33090   5.169  10.291   3.141 -0.1342  0.0795  0.1183
10258SOL    HW133091   5.120  10.249   3.070  1.0558 -1.7108  0.2791
10258SOL    HW233092   5.256  10.306   3.105 -0.2085  1.4479  0.4461
10259SOL     OW33093   6.846   4.011   8.622 -0.4377  0.2314  0.0084
10259SOL    HW133094   6.794   4.090   8.607 -2.1757 -0.4733  1.8882
10259SOL    HW233095   6.828   3.955   8.546 -1.9869  0.2637  0.3221
10260SOL     OW33096   7.182   9.630   2.943  0.7969 -0.2981 -0.2285
10260SOL    HW133097   7.191   9.699   2.878  1.2731 -1.1154 -1.0525
10260SOL    HW233098   7.091   9.602   2.936  0.5493  0.3570  0.2431
10261SOL     OW33099   5.214   0.524   2.640  0.1137 -0.1137 -0.0157
10261SOL    HW133100   5.167   0.441   2.654  0.8544 -0.8155 -1.5009
10261SOL    HW233101   5.305   0.504   2.660  0.1585  0.6435  0.6130
10262SOL     OW33102   6.842   8.863   1.531 -0.3182 -0.6458  0.7509
10262SOL    HW133103   6.872   8.953   1.525 -0.1840 -0.7211  0.2229
10262SOL    HW233104   6.874   8.832   1.616  0.5763 -0.5278  0.4724
10263SOL     OW33105   7.463   8.529   0.336 -0.0249  0.0688 -0.2398
10263SOL    HW133106   7.539   8.564   0.383  0.7852  0.2901 -1.6466
10263SOL    HW233107   7.476   8.434   0.337 -0.8357 -0.0639  1.2798
10264SOL     OW33108   6.585   9.988   8.449 -0.3722 -0.4884  0.1092
10264SOL    HW133109   6.590   9.914   8.388  0.2574  0.1943 -0.6941
10264SOL    HW233110   6.540  10.056   8.399  0.7391  0.3013  0.1600
10265SOL     OW33111   6.606   0.254  10.305  0.2508  0.3040 -0.3418
10265SOL    HW133112   6.643   0.205  10.379  2.1105  0.2632 -1.2586
10265SOL    HW233113   6.522   0.286  10.338  0.0456 -1.5207  1.0673
10266SOL     OW33114   9.968   9.499   1.551 -0.5728 -0.1180  0.2748
10266SOL    HW133115   9.949   9.539   1.467 -0.5762 -0.2550  0.2104
10266SOL    HW233116   9.885   9.503   1.599 -0.6237 -0.2274  0.1951
10267SOL     OW33117   7.397   0.161   3.557 -0.3602 -0.2113 -0.7213
10267SOL    HW133118   7.320   0.190   3.606  0.2914 -1.2938  1.0145
10267SOL    HW233119   7.467   0.157   3.622  0.8290 -0.6346 -1.9731
10268SOL     OW33120   6.914   6.953   2.721  0.1428  0.0172 -0.4272
10268SOL    HW133121   6.839   6.959   2.780  1.0210 -0.0573  0.7609
10268SOL    HW233122   6.922   6.860   2.701  1.0127 -0.2545  0.9992
10269SOL     OW33123   7.189   3.721   6.109 -0.4271  0.3347  0.4272
10269SOL    HW133124   7.124   3.709   6.040 -2.2399 -0.3664  2.1570
10269SOL    HW233125   7.273   3.716   6.064 -1.5315  0.8289 -1.8428
10270SOL     OW33126   0.993   6.891   8.290  0.3496  0.0518 -0.1602
10270SOL    HW133127   0.976   6.914   8.199  1.2573 -0.2277 -0.4089
10270SOL    HW233128   1.030   6.803   8.287  0.9983  0.2962  0.4221
10271SOL     OW33129   4.851   3.434   5.593 -0.6924 -0.4951  0.0613
10271SOL    HW133130   4.818   3.449   5.504  1.7264  0.7575 -0.7065
10271SOL    HW233131   4.889   3.518   5.619 -0.3789 -1.1584  1.8772
10272SOL     OW33132   6.109   6.997   1.653 -0.2184  0.0823  0.2162
10272SOL    HW133133   6.078   7.005   1.743  1.9786 -1.7306  1.2293
10272SOL    HW233134   6.046   6.938   1.611 -0.0244 -0.9133  1.2761
10273SOL     OW33135  10.150   3.219   6.857 -0.0421 -0.1130 -0.2619
10273SOL    HW133136  10.162   3.125   6.848 -0.9529 -0.2638  0.0246
10273SOL    HW233137  10.062   3.229   6.892  0.2597  0.8188  0.2828
10274SOL     OW33138   9.096   3.682  10.020 -0.6895 -0.4458  0.1375
10274SOL    HW133139   9.046   3.709   9.943  0.0861  0.2250 -0.1481
10274SOL    HW233140   9.140   3.601   9.992  0.6145  0.4692 -0.6069
10275SOL     OW33141   0.984   5.741  10.410  0.0847 -0.3624  0.1718
10275SOL    HW133142   1.007   5.819  10.360  0.6568 -0.8886 -0.4189
10275SOL    HW233143   0.981   5.770  10.501 -0.3395  0.4750 -0.0959
10276SOL     OW33144   0.922   4.406   4.658  0.7439 -0.5114 -0.2952
10276SOL    HW133145   0.862   4.422   4.731  0.9978 -0.8431 -0.0147
10276SOL    HW233146   0.946   4.314   4.666 -1.5654 -1.4306 -2.5364
10277SOL     OW33147   2.916   5.127   9.152  0.5283 -0.2697  0.0364
10277SOL    HW133148   2.950   5.212   9.122  1.0404 -0.3468  0.3917
10277SOL    HW233149   2.822   5.142   9.162 -0.1267 -0.8454 -3.7437
10278SOL     OW33150   8.181   3.856   8.458  0.1981 -0.1644  0.0168
10278SOL    HW133151   8.206   3.765   8.474 -0.8492 -0.2449  1.3769
10278SOL    HW233152   8.133   3.882   8.536  1.1572  1.8321 -0.0075
10279SOL     OW33153   9.873   0.734   5.898  0.1379 -0.5949 -0.1630
10279SOL    HW133154   9.845   0.707   5.811 -0.6890  1.1134 -0.4693
10279SOL    HW233155   9.811   0.801   5.924  2.1562  1.1890  0.3999
10280SOL     OW33156   1.345   6.856   7.703  0.0316  0.2514  0.6940
10280SOL    HW133157   1.327   6.950   7.692 -1.0113  0.1489  1.3321
10280SOL    HW233158   1.258   6.815   7.697  0.6590 -0.8882 -1.4263
10281SOL     OW33159   9.501   3.997   2.528 -0.1074 -0.0313 -0.3269
10281SOL    HW133160   9.579   3.976   2.579 -1.6623 -0.3297  2.1325
10281SOL    HW233161   9.440   3.926   2.547 -0.4291 -0.8192 -3.6628
10282SOL     OW33162   8.398   1.143   6.873 -0.1049  0.2985  0.1774
10282SOL    HW133163   8.466   1.088   6.912 -0.6883  0.8090  2.0695
10282SOL    HW233164   8.403   1.225   6.923 -1.8621  0.4555  0.1524
10283SOL     OW33165   2.347   5.328   9.150 -0.0016  0.2151  0.2534
10283SOL    HW133166   2.333   5.362   9.239 -0.1815  0.7227  0.0378
10283SOL    HW233167   2.337   5.405   9.094 -1.3531 -0.3538 -0.3321
10284SOL     OW33168   4.669   5.938   7.539  0.0914 -0.3677 -0.1787
10284SOL    HW133169   4.583   5.932   7.498  0.3069  0.7706 -0.8566
10284SOL    HW233170   4.723   5.876   7.490 -0.2540 -0.8417  0.0314
10285SOL     OW33171   1.737   1.921   1.569  0.0893  0.3729  0.0778
10285SOL    HW133172   1.702   2.009   1.557  0.4230  0.4485 -0.3827
10285SOL    HW233173   1.828   1.935   1.598 -0.0215  0.1793  0.5297
10286SOL     OW33174   0.225   5.563   8.243  0.0449  0.3067 -0.4558
10286SOL    HW133175   0.282   5.490   8.218  0.3321  0.1860  0.5047
10286SOL    HW233176   0.148   5.521   8.282  0.1496  0.5083 -0.0239
10287SOL     OW33177   4.295   4.783   8.179  0.6432  0.1536 -0.6587
10287SOL    HW133178   4.226   4.849   8.186  1.8293  1.4917 -1.1358
10287SOL    HW233179   4.346   4.793   8.260  0.8847 -0.1098 -0.7757
10288SOL     OW33180   9.499   4.767   2.466  0.6269  0.5305  0.1248
10288SOL    HW133181   9.410   4.793   2.492  0.6360  0.2441  0.4482
10288SOL    HW233182   9.535   4.724   2.543  1.2647  1.1676  0.1885
10289SOL     OW33183   7.341   2.787   4.628  0.4480  0.2042  0.6269
10289SOL    HW133184   7.325   2.766   4.536 -2.0802  1.1043  0.7946
10289SOL    HW233185   7.422   2.839   4.628  0.3779  0.3486 -1.0896
10290SOL     OW33186   9.291   9.403   6.190  0.2165  1.1648 -0.0355
10290SOL    HW133187   9.219   9.371   6.135  1.3227  0.4157 -1.0994
10290SOL    HW233188   9.247   9.449   6.262 -1.3240  0.6360 -0.5846
10291SOL     OW33189   2.501   0.848   1.417 -0.2389 -0.0209  0.1957
10291SOL    HW133190   2.556   0.827   1.493 -0.0636 -1.4061 -0.2921
10291SOL    HW233191   2.478   0.763   1.380  1.3191  0.6182 -2.4850
10292SOL     OW33192   7.723   2.949   4.114  0.0320  0.2520 -0.6478
10292SOL    HW133193   7.761   2.981   4.195  1.6631 -0.4412 -1.1105
10292SOL    HW233194   7.690   3.028   4.070 -3.2961  0.4393  1.7683
10293SOL     OW33195   9.089  10.470  10.395 -0.9331  1.0195 -0.4124
10293SOL    HW133196   9.028  10.539  10.368 -0.8216  1.2056 -0.2011
10293SOL    HW233197   9.173  10.516  10.407 -1.2265  1.1869  1.3804
10294SOL     OW33198   1.593   3.092   0.372 -0.3820 -0.4769  0.0612
10294SOL    HW133199   1.540   3.013   0.383  1.0765 -1.3811  0.9413
10294SOL    HW233200   1.597   3.131   0.459 -0.4482  0.1479 -0.2096
10295SOL     OW33201   9.857   2.806   6.956  0.1974  0.2256 -0.0775
10295SOL    HW133202   9.944   2.845   6.969  0.3630  0.1007 -0.7575
10295SOL    HW233203   9.803   2.879   6.924  0.6046 -0.1501 -1.7200
10296SOL     OW33204   1.060   8.128   8.693 -0.3370 -0.5519  0.3556
10296SOL    HW133205   1.081   8.035   8.684 -0.4370 -0.7375  1.8015
10296SOL    HW233206   1.142   8.168   8.723 -0.0143  0.0184 -1.1917
10297SOL     OW33207   7.523   4.148   1.881  0.1067  0.7816 -0.2733
10297SOL    HW133208   7.511   4.196   1.963 -1.6174 -0.7017  0.4159
10297SOL    HW233209   7.506   4.213   1.813  0.7719  1.8477  0.5346
10298SOL     OW33210   1.589   9.281   2.750 -0.0059  0.2786  0.4063
10298SOL    HW133211   1.572   9.372   2.725  1.1507  0.7511  1.2475
10298SOL    HW233212   1.681   9.266   2.727 -0.6835 -1.3384 -1.5643
10299SOL     OW33213   9.446   7.789   7.956 -0.3639 -0.0994  0.3514
10299SOL    HW133214   9.389   7.764   7.884  1.0301  1.8701 -1.5811
10299SOL    HW233215   9.391   7.844   8.012 -1.0703 -0.4557  0.0206
10300SOL     OW33216  10.596   5.484   8.459  0.3200  0.0807  0.1707
10300SOL    HW133217  10.603   5.553   8.524 -0.2917  0.4062 -0.1081
10300SOL    HW233218  10.528   5.513   8.399  0.6310 -0.3801 -0.4183
10301SOL     OW33219   4.120   9.978   5.454  0.0911  0.4580 -0.2277
10301SOL    HW133220   4.118  10.072   5.471 -0.0523  0.3637  0.2797
10301SOL    HW233221   4.028   9.954   5.441  0.0287  0.2211  0.5898
10302SOL     OW33222   0.230   4.819  10.223  0.0563  0.7130 -0.1774
10302SOL    HW133223   0.268   4.736  10.251 -0.6415  0.3019 -0.4107
10302SOL    HW233224   0.270   4.836  10.138 -0.5502  0.0866 -0.5997
10303SOL     OW33225   1.984   5.393   7.915  0.5604 -0.2477  0.3079
10303SOL    HW133226   1.926   5.331   7.958  0.3655  0.8310  1.6840
10303SOL    HW233227   2.034   5.432   7.987  1.3420  0.5026 -0.6153
10304SOL     OW33228   2.906   8.813   5.367  0.1147 -0.2660  0.7177
10304SOL    HW133229   2.913   8.729   5.322  0.9149  0.1027  0.1339
10304SOL    HW233230   2.864   8.791   5.450 -1.2327 -0.9799 -0.1138
10305SOL     OW33231   7.599   9.651   8.774 -0.4140  0.4784  0.7943
10305SOL    HW133232   7.596   9.604   8.858  3.5312  1.4115  1.6358
10305SOL    HW233233   7.554   9.593   8.713  2.3253 -3.5640  2.2042
10306SOL     OW33234   4.118   8.060   9.869  0.2793  0.5982  0.0779
10306SOL    HW133235   4.079   8.130   9.816  0.8631  0.9496  0.1038
10306SOL    HW233236   4.185   8.021   9.813  2.2823  2.2580  1.1805
10307SOL     OW33237   8.139   2.808   5.040  0.0492  0.8355  0.2295
10307SOL    HW133238   8.076   2.749   5.082  0.4609  0.1826 -0.0523
10307SOL    HW233239   8.085   2.866   4.986 -0.2017 -1.3990 -2.1339
10308SOL     OW33240   1.419   2.243   0.781  0.5004 -0.4156  0.1719
10308SOL    HW133241   1.465   2.239   0.865  0.8576 -0.6124 -0.0343
10308SOL    HW233242   1.471   2.189   0.722 -0.8459 -1.9614  0.3264
10309SOL     OW33243  10.335   4.571   6.193  0.3638 -0.0225 -0.0169
10309SOL    HW133244  10.409   4.595   6.137 -1.1393 -0.1022 -2.1501
10309SOL    HW233245  10.288   4.504   6.144 -0.8884 -0.3228  1.4957
10310SOL     OW33246   4.516   2.399   8.289  0.0473 -0.1778  0.1722
10310SOL    HW133247   4.451   2.466   8.309 -0.0044  0.2732 -1.3950
10310SOL    HW233248   4.590   2.419   8.347 -1.1319 -0.6515  1.9199
10311SOL     OW33249   1.469   8.900   5.347  0.0313 -0.3201 -0.0494
10311SOL    HW133250   1.495   8.926   5.436  1.4138 -0.0604 -0.5066
10311SOL    HW233251   1.374   8.890   5.352 -0.1685  1.5472  0.9936
10312SOL     OW33252   2.298   0.307   6.584  0.0611  0.1758  0.9350
10312SOL    HW133253   2.220   0.299   6.639 -0.4253 -0.1792  0.2028
10312SOL    HW233254   2.364   0.255   6.630 -0.3357 -0.1128  1.1888
10313SOL     OW33255   5.193   0.851   2.064  0.4294 -0.2371  0.3291
10313SOL    HW133256   5.151   0.935   2.079 -0.5453 -0.3900 -1.3090
10313SOL    HW233257   5.122   0.787   2.071  0.5175 -0.5944 -1.4381
10314SOL     OW33258   3.834   6.924   9.029 -0.0030  0.3386  0.0820
10314SOL    HW133259   3.811   6.930   9.121  1.5312 -0.3546  0.5611
10314SOL    HW233260   3.765   6.871   8.990 -0.1745 -0.1635  1.0421
10315SOL     OW33261   3.191   4.732   8.358  0.0342 -0.2511  0.6061
10315SOL    HW133262   3.197   4.790   8.282  0.0361 -1.2726 -0.1939
10315SOL    HW233263   3.261   4.669   8.346 -0.5407 -0.9751  0.9740
10316SOL     OW33264   7.526  10.024   3.950 -0.4553  0.3548  0.1171
10316SOL    HW133265   7.536  10.097   3.890 -0.3081 -0.1704 -0.5069
10316SOL    HW233266   7.431  10.012   3.958 -0.4769  0.5175  0.1039
10317SOL     OW33267   1.769   6.707   3.244 -0.0362  0.3179  0.5576
10317SOL    HW133268   1.707   6.635   3.234  0.6658 -0.3999  1.2964
10317SOL    HW233269   1.802   6.723   3.156  0.4168 -0.8218  0.5048
10318SOL     OW33270   2.672   7.862   9.757 -0.2120  0.4209 -0.6874
10318SOL    HW133271   2.644   7.906   9.677 -2.0003 -0.1909 -0.4311
10318SOL    HW233272   2.670   7.769   9.736 -0.8953  0.2405  0.1119
10319SOL     OW33273   5.471   8.947   4.109 -0.7960 -0.1431  0.0331
10319SOL    HW133274   5.470   8.962   4.014  0.7709 -0.0279 -0.0014
10319SOL    HW233275   5.401   9.002   4.143  0.4295  2.0715 -0.7950
10320SOL     OW33276  10.519   0.558   7.959  0.4154 -0.4588 -0.1552
10320SOL    HW133277  10.559   0.532   7.876  0.3647  1.7938 -0.9779
10320SOL    HW233278  10.427   0.574   7.937  0.3899  0.0811  0.3286
10321SOL     OW33279   1.648   1.744   3.340 -0.3296  0.5684 -0.6396
10321SOL    HW133280   1.723   1.697   3.303 -0.7846 -1.3021  0.6797
10321SOL    HW233281   1.599   1.774   3.264  1.6040  1.6741 -1.5465
10322SOL     OW33282   3.137   0.303   0.826 -0.6252 -0.0620 -0.6007
10322SOL    HW133283   3.168   0.379   0.875 -0.4267 -0.2924 -0.3695
10322SOL    HW233284   3.076   0.340   0.761 -2.7796  0.0408  1.3481
10323SOL     OW33285   2.501   3.222   5.667  0.3378  0.8939 -0.5309
10323SOL    HW133286   2.417   3.238   5.623  0.9464  0.5664 -1.8393
10323SOL    HW233287   2.565   3.219   5.597  1.3742  0.5107  0.4026
10324SOL     OW33288   0.029   7.553   8.955  0.1773 -0.0066  0.4846
10324SOL    HW133289  -0.064   7.562   8.934  0.4162  0.2660 -0.5367
10324SOL    HW233290   0.037   7.587   9.044 -0.4489  1.4297  0.0252
10325SOL     OW33291   6.362   4.230   9.496 -0.2937  0.0510  0.5365
10325SOL    HW133292   6.384   4.195   9.409 -0.4783  0.0503  0.4879
10325SOL    HW233293   6.268   4.247   9.491 -0.0231  1.5831  0.1933
10326SOL     OW33294   8.480   2.795   8.404  0.0408 -0.4239  0.5174
10326SOL    HW133295   8.534   2.741   8.345 -0.1898  1.3659 -1.4644
10326SOL    HW233296   8.500   2.762   8.492  2.5362 -1.4275 -0.3254
10327SOL     OW33297   6.861   4.947   2.913  0.6654  0.5449 -0.7759
10327SOL    HW133298   6.846   4.878   2.978 -1.3399  0.6383 -1.0873
10327SOL    HW233299   6.955   4.942   2.895  0.9343 -0.7462  0.7007
10328SOL     OW33300   3.903   9.915   8.728  0.2054  0.5679 -0.2744
10328SOL    HW133301   3.828   9.965   8.696  0.2638  1.6214  1.1592
10328SOL    HW233302   3.901   9.926   8.823  0.5092 -1.7782  0.0804
10329SOL     OW33303   3.594   4.750   0.377 -0.2733 -0.3556 -0.1171
10329SOL    HW133304   3.518   4.781   0.427 -0.0393  0.1712 -0.0774
10329SOL    HW233305   3.651   4.710   0.442  0.6371  1.4881  0.2891
10330SOL     OW33306   0.360   0.023   9.746  0.2335  0.1169 -0.8134
10330SOL    HW133307   0.281  -0.026   9.767  0.2459  0.7755  0.9215
10330SOL    HW233308   0.328   0.106   9.711 -0.1432  2.0674  3.4666
10331SOL     OW33309   7.253   9.286   7.196  0.1855 -0.4547  0.0310
10331SOL    HW133310   7.306   9.216   7.158 -0.6369 -0.5652 -0.9448
10331SOL    HW233311   7.308   9.364   7.190  1.4965 -1.1378  1.9862
10332SOL     OW33312  10.404  10.101   9.965 -0.6732 -0.1251 -0.0125
10332SOL    HW133313  10.375  10.025  10.015 -1.8441 -0.1472 -0.6907
10332SOL    HW233314  10.492  10.078   9.934 -1.2199 -1.4340 -0.6569
10333SOL     OW33315   2.075   7.179   2.789  0.1264  0.6434  0.0954
10333SOL    HW133316   2.122   7.109   2.745  0.1795  0.9448 -0.3308
10333SOL    HW233317   2.133   7.255   2.783 -0.7617  1.2686 -1.2221
10334SOL     OW33318   1.427   5.537   4.861 -0.0238 -0.4086 -0.0716
10334SOL    HW133319   1.457   5.551   4.771  1.1601 -0.8694  0.2320
10334SOL    HW233320   1.479   5.462   4.892  0.0790  0.1684  1.2215
10335SOL     OW33321   8.197   2.252   0.056 -0.0718  0.2496  0.6566
10335SOL    HW133322   8.143   2.289  -0.014 -0.1994 -0.0642  0.5861
10335SOL    HW233323   8.241   2.177   0.016 -0.3833 -0.1208  0.9893
10336SOL     OW33324   0.958   8.423   4.494  0.5878  0.4096 -0.2024
10336SOL    HW133325   1.008   8.369   4.433  2.9816 -0.3148  2.1650
10336SOL    HW233326   0.987   8.512   4.477  1.6929  0.1478  0.2131
10337SOL     OW33327   5.898   9.471   5.955  0.0187 -0.1119  0.5268
10337SOL    HW133328   5.979   9.459   5.905 -0.2422  0.3449 -0.0219
10337SOL    HW233329   5.925   9.514   6.036  0.2561  0.6211  0.0680
10338SOL     OW33330   9.407   4.306   9.204  0.5197 -0.1375  1.0801
10338SOL    HW133331   9.391   4.396   9.179  1.7423 -0.6446 -1.9099
10338SOL    HW233332   9.499   4.304   9.232  0.6757 -0.5607  0.5530
10339SOL     OW33333   8.021   6.023   6.311  0.1164 -0.1031  0.0722
10339SOL    HW133334   7.934   6.057   6.289 -0.2925 -1.2616 -0.1274
10339SOL    HW233335   8.038   5.957   6.244  0.0994 -1.6365  1.5284
10340SOL     OW33336   3.540   8.786   6.686  0.3474 -0.0695  0.4624
10340SOL    HW133337   3.589   8.832   6.754  0.6396 -0.0061  0.2092
10340SOL    HW233338   3.565   8.695   6.695  1.1800  0.0765 -0.2160
10341SOL     OW33339   6.612   4.179   8.931  0.1348 -0.6109  0.2471
10341SOL    HW133340   6.563   4.214   8.856  1.7855 -0.8474 -0.9937
10341SOL    HW233341   6.627   4.087   8.908  0.1577 -0.8348  1.1535
10342SOL     OW33342   2.734   7.167   3.287  0.1904 -0.0677  0.0316
10342SOL    HW133343   2.772   7.114   3.358  1.7884 -0.2191 -0.8830
10342SOL    HW233344   2.733   7.256   3.322 -0.7888 -0.4046  0.9108
10343SOL     OW33345   4.250   4.379   4.734 -0.0207  0.2283 -0.2882
10343SOL    HW133346   4.170   4.391   4.682 -1.0874  1.9641  1.6036
10343SOL    HW233347   4.288   4.298   4.700 -2.7027 -0.8190 -1.1149
10344SOL     OW33348   2.070   9.175  10.361 -0.0715 -0.6095 -0.0002
10344SOL    HW133349   2.030   9.225  10.291 -1.4743 -0.0795  1.1240
10344SOL    HW233350   2.096   9.092  10.320 -1.1471 -0.4468 -1.0601
10345SOL     OW33351   0.578   4.212   1.085 -0.4146 -0.2665 -0.2246
10345SOL    HW133352   0.534   4.264   1.017 -0.9348 -0.1022  0.2290
10345SOL    HW233353   0.658   4.181   1.043 -1.1436 -0.8939 -1.2144
10346SOL     OW33354   9.056   5.560   3.388 -0.1732  0.4500 -0.2142
10346SOL    HW133355   9.053   5.480   3.335 -1.7593  1.1780 -1.3237
10346SOL    HW233356   9.089   5.532   3.473  0.1187 -1.2245 -0.8443
10347SOL     OW33357  10.457   0.347   5.141 -0.4227 -0.5023  0.2362
10347SOL    HW133358  10.391   0.402   5.099  0.8460  0.1688 -0.9863
10347SOL    HW233359  10.526   0.409   5.167  0.1313 -1.2770  0.6393
10348SOL     OW33360   4.125   0.980   8.626  0.0326  0.0518  0.1442
10348SOL    HW133361   4.123   0.904   8.569  2.7953 -0.5727  0.7433
10348SOL    HW233362   4.055   0.963   8.690 -0.4988 -1.1552 -0.7143
10349SOL     OW33363   4.920   2.069   0.262 -0.1736  0.6293  0.5139
10349SOL    HW133364   4.905   2.052   0.355 -1.8923 -0.6507  0.0642
10349SOL    HW233365   5.013   2.091   0.256  0.1324  0.0634  2.4307
10350SOL     OW33366   8.572   7.439   0.993 -0.6388 -0.6836 -0.4864
10350SOL    HW133367   8.504   7.458   1.058 -0.6695 -0.1065 -0.6828
10350SOL    HW233368   8.630   7.515   0.995  0.4159 -1.4815  0.1841
10351SOL     OW33369   6.580   0.448   2.338 -0.6016 -0.0449  0.3631
10351SOL    HW133370   6.654   0.473   2.282 -0.4484 -1.0726  0.0914
10351SOL    HW233371   6.562   0.527   2.389 -1.1374  1.1581 -1.5445
10352SOL     OW33372   4.301   4.764   3.201  0.4475  0.3611  0.4519
10352SOL    HW133373   4.216   4.751   3.159  0.5943 -0.3313  0.3570
10352SOL    HW233374   4.290   4.841   3.255 -0.3051  0.1504  0.6034
10353SOL     OW33375   2.152   7.028   9.698 -0.2522 -0.5405  0.1501
10353SOL    HW133376   2.225   7.029   9.759  0.8974  1.9136 -1.1089
10353SOL    HW233377   2.193   7.021   9.612 -1.5119  0.4381 -0.5684
10354SOL     OW33378   2.367   9.022   9.887  0.3897  0.4593  0.1257
10354SOL    HW133379   2.343   9.040   9.796 -0.2744  0.2344  0.2535
10354SOL    HW233380   2.437   8.957   9.881 -0.6188 -0.6351 -0.1948
10355SOL     OW33381   6.774   1.237   1.633 -0.2958 -0.0726 -0.1943
10355SOL    HW133382   6.768   1.322   1.588 -0.0040 -0.5947 -1.2416
10355SOL    HW233383   6.868   1.222   1.642 -0.2718 -1.3386 -2.0929
10356SOL     OW33384  10.562  10.321   0.657 -0.2688  0.5217  0.4219
10356SOL    HW133385  10.610  10.366   0.587  0.4908  0.4871  0.9058
10356SOL    HW233386  10.611  10.342   0.737 -0.6493 -0.1181  0.8305
10357SOL     OW33387   3.997   0.422   1.018 -0.4821  0.2862 -0.0736
10357SOL    HW133388   4.089   0.442   1.003  0.2153 -0.2008  2.8676
10357SOL    HW233389   3.977   0.461   1.103 -1.9209 -2.6074  1.0717
10358SOL     OW33390  10.487   7.839   1.749  0.0075  0.1413  0.3533
10358SOL    HW133391  10.442   7.890   1.816 -1.1378  1.1470 -1.0858
10358SOL    HW233392  10.473   7.890   1.668  2.3372 -0.3867 -0.4506
10359SOL     OW33393   8.242   2.988   8.610  0.4769 -0.1569 -0.1142
10359SOL    HW133394   8.277   2.922   8.670  1.0259  0.2055 -0.0343
10359SOL    HW233395   8.154   3.006   8.643  0.7679  0.0230  0.5705
10360SOL     OW33396   9.254   6.554   6.976  0.1971  0.1347  0.3846
10360SOL    HW133397   9.275   6.644   6.999  0.0029  0.7307 -1.5514
10360SOL    HW233398   9.339   6.511   6.966  0.4664  1.1026 -2.1485
10361SOL     OW33399   5.356   2.684   3.340 -0.1173  0.4112  0.1018
10361SOL    HW133400   5.330   2.716   3.254 -2.1562  0.0102  0.5140
10361SOL    HW233401   5.275   2.652   3.379  0.7529  0.5979  2.1908
10362SOL     OW33402   7.333   1.028   9.833  0.2507 -0.6220 -0.4277
10362SOL    HW133403   7.373   1.113   9.816  0.9523 -1.0890 -1.2315
10362SOL    HW233404   7.401   0.979   9.880 -1.2320  0.2503  2.9540
10363SOL     OW33405   6.894   7.373   7.319 -0.1704 -0.2086 -0.4214
10363SOL    HW133406   6.845   7.297   7.350  0.6501 -0.3782  0.5027
10363SOL    HW233407   6.986   7.349   7.331  0.1139  0.6844 -0.7320
10364SOL     OW33408   9.611   4.456   8.095  0.4503 -0.0532 -0.0374
10364SOL    HW133409   9.593   4.386   8.158 -1.4963  1.0104  0.6787
10364SOL    HW233410   9.707   4.460   8.090  0.6274 -1.9559  0.7742
10365SOL     OW33411   6.758   0.956   3.991  0.1937 -0.0830  0.1199
10365SOL    HW133412   6.756   0.874   4.039 -0.7279 -0.5903 -0.7571
10365SOL    HW233413   6.776   1.023   4.058 -0.3416 -0.8472  1.0418
10366SOL     OW33414   9.995   5.446   6.465 -0.6833  0.0608  0.1261
10366SOL    HW133415  10.083   5.480   6.476 -1.0466  1.4804 -0.9802
10366SOL    HW233416  10.005   5.351   6.464  1.1678  0.1952 -2.3329
10367SOL     OW33417   7.479   1.517   1.362  0.2126 -0.1114 -0.2945
10367SOL    HW133418   7.456   1.479   1.446 -2.1295  0.8239 -0.4403
10367SOL    HW233419   7.517   1.602   1.383  0.1125 -0.0977 -0.1734
10368SOL     OW33420   4.359   4.572   2.380  0.5293 -0.3699 -0.5071
10368SOL    HW133421   4.274   4.536   2.406  0.7405 -0.4186  0.1361
10368SOL    HW233422   4.376   4.641   2.444  1.4266 -1.0242 -0.0254
10369SOL     OW33423   0.021   7.588   1.551  0.3674 -0.5069  0.4965
10369SOL    HW133424  -0.024   7.596   1.466  1.1674 -1.5393 -0.0551
10369SOL    HW233425   0.114   7.593   1.529  0.7102 -3.3960  0.9345
10370SOL     OW33426   9.068   7.719   4.525 -0.0401 -0.1624 -0.6238
10370SOL    HW133427   9.113   7.661   4.464  0.6070 -0.5562  0.1976
10370SOL    HW233428   8.983   7.735   4.485  0.5753  0.0587 -1.8984
10371SOL     OW33429   0.545   6.468   7.828 -0.4378 -0.1526 -0.2647
10371SOL    HW133430   0.614   6.439   7.888 -0.9131 -0.2519  0.2399
10371SOL    HW233431   0.473   6.406   7.842 -0.6081 -0.0836 -0.8292
10372SOL     OW33432   4.182   8.064   7.251 -0.3990 -0.4069  0.3187
10372SOL    HW133433   4.262   8.095   7.294 -0.9097  0.3737  0.7198
10372SOL    HW233434   4.147   7.998   7.310 -0.2882 -0.4260  0.3633
10373SOL     OW33435   1.085   6.455   3.078 -0.1437  0.3052  0.0415
10373SOL    HW133436   1.026   6.434   3.150 -0.2124 -0.6330 -0.2680
10373SOL    HW233437   1.082   6.550   3.071  0.0357  0.4206  1.4071
10374SOL     OW33438   5.724   2.832   9.079 -0.0732 -0.3360  0.6944
10374SOL    HW133439   5.751   2.741   9.070  2.2732  0.3123  0.4273
10374SOL    HW233440   5.722   2.865   8.989  0.2217  0.1500  0.8587
10375SOL     OW33441   2.483   4.201   4.444 -0.4584  0.2863  0.5195
10375SOL    HW133442   2.519   4.121   4.484  1.0951  0.9032  0.4436
10375SOL    HW233443   2.490   4.267   4.512  1.8846  1.2559 -0.5371
10376SOL     OW33444   9.322   3.381   4.419 -0.3435  0.2445  0.4085
10376SOL    HW133445   9.373   3.370   4.499  1.7060  1.1771 -0.7066
10376SOL    HW233446   9.231   3.365   4.447  0.2591  0.7683  2.9525
10377SOL     OW33447   7.120   0.727   8.919  0.0041  0.3101  0.9186
10377SOL    HW133448   7.091   0.774   8.840  2.3745  1.0135  0.3874
10377SOL    HW233449   7.063   0.760   8.988  0.1459  2.3764  0.1302
10378SOL     OW33450   1.049   4.672   9.429 -0.3357  0.4182  0.1242
10378SOL    HW133451   1.015   4.744   9.481  1.2603  0.6786  0.8656
10378SOL    HW233452   1.123   4.637   9.480 -0.3697 -1.0221 -0.7332
10379SOL     OW33453   4.646   9.563   6.238 -0.0542  0.6956  0.8091
10379SOL    HW133454   4.578   9.563   6.305 -0.2232 -0.2482  0.6506
10379SOL    HW233455   4.601   9.544   6.156  0.0923  2.2523  0.3295
10380SOL     OW33456   4.995   5.524   1.838 -0.3880  0.4115 -0.0863
10380SOL    HW133457   5.069   5.505   1.895 -0.2663 -0.8017 -0.6251
10380SOL    HW233458   4.939   5.583   1.890  0.2615  0.2271  0.8454
10381SOL     OW33459   3.184  10.509   3.038  0.0539 -0.2968  0.0609
10381SOL    HW133460   3.239  10.436   3.067 -0.6614 -0.5976  0.6946
10381SOL    HW233461   3.196  10.576   3.105  0.9531  0.3123 -0.6798
10382SOL     OW33462   6.459   7.733   4.138  0.2847 -0.4161 -0.0536
10382SOL    HW133463   6.452   7.774   4.052  1.0480 -0.8746 -0.3454
10382SOL    HW233464   6.386   7.768   4.188  0.5214  0.7661 -0.5103
10383SOL     OW33465   0.172   9.137   1.503  0.4924  0.1798 -0.1324
10383SOL    HW133466   0.209   9.169   1.585 -1.0616 -1.3009  1.2374
10383SOL    HW233467   0.247   9.102   1.455  1.7379  2.8773 -0.3074
10384SOL     OW33468   0.563   3.824   4.939  0.0665  0.3562  0.5503
10384SOL    HW133469   0.532   3.737   4.961  2.6058 -0.9480 -0.5267
10384SOL    HW233470   0.644   3.835   4.989 -0.0836  2.0261  0.5035
10385SOL     OW33471   3.414   9.327   9.669  0.3175  0.3863  0.4625
10385SOL    HW133472   3.381   9.240   9.693  1.0874 -0.3700 -1.0879
10385SOL    HW233473   3.344   9.366   9.617  1.4793 -1.0242 -2.4054
10386SOL     OW33474   1.778   7.752   4.800 -0.0737  0.2695 -0.0832
10386SOL    HW133475   1.808   7.667   4.833 -0.6652  0.2274  0.3702
10386SOL    HW233476   1.698   7.769   4.850 -0.5863  0.5493 -0.9921
10387SOL     OW33477   3.422   8.109   5.947  0.0229 -0.2363 -0.1890
10387SOL    HW133478   3.445   8.018   5.965 -0.7903 -0.5861 -0.8629
10387SOL    HW233479   3.421   8.151   6.034  0.1211 -0.9273  0.1549
10388SOL     OW33480   4.762   5.799  10.342 -0.1592  0.7387 -0.0063
10388SOL    HW133481   4.801   5.804  10.255  2.2859  2.6380  1.0833
10388SOL    HW233482   4.677   5.843  10.332  0.0905  0.9472 -1.4363
10389SOL     OW33483   5.104   2.544   3.439  0.0987 -0.0958 -0.1244
10389SOL    HW133484   5.072   2.541   3.529  0.4445  1.6973  0.1048
10389SOL    HW233485   5.036   2.500   3.388 -1.5148  1.3510  0.6632
10390SOL     OW33486   6.944   9.139   2.395 -0.1870  0.0664  0.1047
10390SOL    HW133487   6.985   9.099   2.318 -0.2433  0.7028 -0.2585
10390SOL    HW233488   7.015   9.189   2.436 -0.0114 -0.7167  0.7860
10391SOL     OW33489   4.134   7.080   3.502 -0.3518  0.2394 -0.0095
10391SOL    HW133490   4.062   7.020   3.483 -0.0643  0.2187 -1.0849
10391SOL    HW233491   4.208   7.045   3.452  0.1883  0.7139  0.4504
10392SOL     OW33492  10.105   6.364   3.131 -0.0640  0.3683  0.3931
10392SOL    HW133493  10.151   6.303   3.073 -0.2472  0.6264 -0.0248
10392SOL    HW233494  10.042   6.408   3.075 -0.0204  0.8561  0.7177
10393SOL     OW33495   1.628   2.428   3.501  0.0522  0.5420  0.2753
10393SOL    HW133496   1.562   2.489   3.534 -0.0535  0.8647 -0.5221
10393SOL    HW233497   1.670   2.394   3.580 -1.9937 -0.7335  0.9045
10394SOL     OW33498   5.521   1.400   1.084 -0.3019  0.7038  0.0016
10394SOL    HW133499   5.549   1.385   1.175  0.9215  0.6557 -0.3655
10394SOL    HW233500   5.426   1.404   1.089 -0.3512 -0.7384  1.0824
10395SOL     OW33501   6.396   8.516   8.122 -0.1586 -0.2002  0.3366
10395SOL    HW133502   6.480   8.552   8.092  0.8136  0.4633  3.4864
10395SOL    HW233503   6.330   8.572   8.081  0.9731  0.1647 -1.0770
10396SOL     OW33504   9.318   7.140   7.389 -0.2526  0.6054  0.2841
10396SOL    HW133505   9.241   7.158   7.335 -0.1604  0.6738  0.1747
10396SOL    HW233506   9.392   7.148   7.328 -0.2207 -0.3263  0.1883
10397SOL     OW33507   7.333   0.360   4.524  0.0807 -0.0998  0.2141
10397SOL    HW133508   7.373   0.389   4.442  0.1484 -0.4851  0.1075
10397SOL    HW233509   7.397   0.299   4.561 -0.6945 -1.2428 -0.2881
10398SOL     OW33510   1.208   5.634   2.717  0.4903  0.3144 -0.9473
10398SOL    HW133511   1.263   5.609   2.643 -0.0411 -0.3324 -1.1404
10398SOL    HW233512   1.253   5.708   2.757  1.2551  0.0906 -1.3719
10399SOL     OW33513   0.092   5.193   5.025 -0.8066  0.4943  0.6702
10399SOL    HW133514   0.053   5.164   4.942  0.4756 -2.3655  0.9497
10399SOL    HW233515   0.085   5.117   5.083  1.3437  1.2768  2.0706
10400SOL     OW33516   1.534   1.443   0.099  0.3180  0.6607 -0.1416
10400SOL    HW133517   1.488   1.439   0.015  1.1511  0.5604 -0.6081
10400SOL    HW233518   1.619   1.403   0.081  0.5852  0.8361  0.7006
10401SOL     OW33519  10.222   8.364   8.566  0.3756 -0.3067  0.1772
10401SOL    HW133520  10.238   8.312   8.488  1.0153  0.4398 -0.2057
10401SOL    HW233521  10.250   8.453   8.542 -0.7055  0.2295  0.7908
10402SOL     OW33522   7.088   0.354   3.182 -0.0779 -0.3543  0.3579
10402SOL    HW133523   7.094   0.318   3.270 -1.1626  2.2016  1.5602
10402SOL    HW233524   7.132   0.439   3.187  0.1438 -0.2863 -1.6844
10403SOL     OW33525   7.195   7.805   0.407  0.0105  1.0577 -0.1281
10403SOL    HW133526   7.128   7.736   0.409 -0.0064  1.0866  0.9319
10403SOL    HW233527   7.152   7.880   0.448  0.2484  1.4944 -0.6784
10404SOL     OW33528   7.004   9.874   8.880 -0.0422 -0.2632 -0.1752
10404SOL    HW133529   7.087   9.867   8.833  0.5411  0.6138  0.6803
10404SOL    HW233530   6.996   9.967   8.900  0.0527 -0.6681  2.0052
10405SOL     OW33531   7.521   2.830   6.164  0.1691  0.6502 -0.2379
10405SOL    HW133532   7.428   2.819   6.146  0.2439 -0.9027  0.1681
10405SOL    HW233533   7.561   2.843   6.077 -0.3461  0.7479 -0.4604
10406SOL     OW33534   5.525   2.446   9.107 -0.0260 -0.3139 -0.1830
10406SOL    HW133535   5.599   2.475   9.054  0.9096 -0.7355  0.8466
10406SOL    HW233536   5.459   2.514   9.095  1.7302  1.8393  1.4033
10407SOL     OW33537   7.149   9.763   1.630  0.0233  0.2667  0.4991
10407SOL    HW133538   7.227   9.717   1.598 -1.0970 -0.7883 -0.8079
10407SOL    HW233539   7.075   9.715   1.592 -1.3013  0.9497  2.0839
10408SOL     OW33540   2.510   8.717   6.077 -0.8037  0.3492 -0.0249
10408SOL    HW133541   2.562   8.716   6.158 -0.7616 -1.4562 -0.0323
10408SOL    HW233542   2.471   8.804   6.075 -0.3741  0.6190  1.6714
10409SOL     OW33543   0.425   3.727   1.307 -0.3936 -0.1595 -0.1125
10409SOL    HW133544   0.481   3.654   1.282  0.4250  1.0613 -2.1276
10409SOL    HW233545   0.348   3.719   1.251 -0.2283  0.5585 -0.4669
10410SOL     OW33546   5.123   1.027   3.715  0.0289  0.0121 -0.1737
10410SOL    HW133547   5.095   1.026   3.807 -2.4474  3.0024 -0.7222
10410SOL    HW233548   5.209   1.069   3.717 -0.7977  1.7564  0.6830
10411SOL     OW33549   4.430   9.538   3.206  0.0297 -0.1230 -0.4420
10411SOL    HW133550   4.337   9.534   3.185 -0.0894 -0.4231  0.1298
10411SOL    HW233551   4.471   9.476   3.146 -0.0878  0.2807 -0.9451
10412SOL     OW33552   8.552   4.699  10.164 -0.1846 -0.3793 -0.4266
10412SOL    HW133553   8.611   4.650  10.107 -0.5143 -0.2688 -0.8712
10412SOL    HW233554   8.569   4.791  10.143 -0.0925 -0.3268 -0.1285
10413SOL     OW33555   9.718   7.862   3.270  0.1189 -0.1463 -0.3852
10413SOL    HW133556   9.663   7.938   3.290  1.5138  0.9856 -0.6451
10413SOL    HW233557   9.792   7.870   3.330 -1.2650 -3.2176  1.9543
10414SOL     OW33558   1.588   5.942   6.505  0.6332 -0.1972 -0.4744
10414SOL    HW133559   1.533   5.864   6.515  1.6291 -0.9864 -0.9517
10414SOL    HW233560   1.548   6.008   6.562 -1.0118 -0.6198 -1.0762
10415SOL     OW33561   8.301   7.699   8.192  0.2105  0.3474  0.2128
10415SOL    HW133562   8.393   7.700   8.168  0.1468  0.2920 -0.0371
10415SOL    HW233563   8.288   7.617   8.239  0.8580  1.4668  2.5221
10416SOL     OW33564   7.817   9.895   4.532  0.1630 -0.3996  0.1592
10416SOL    HW133565   7.899   9.916   4.579 -0.3012 -0.7870  1.1759
10416SOL    HW233566   7.775   9.980   4.520 -0.0180 -0.3465  1.0577
10417SOL     OW33567   4.868   6.854   6.680 -0.4077 -0.2883 -0.4628
10417SOL    HW133568   4.842   6.924   6.739 -1.8830 -0.5536 -0.7587
10417SOL    HW233569   4.796   6.792   6.683  0.6624 -1.5931 -0.5476
10418SOL     OW33570   2.500   8.540   8.704  0.1210 -0.3371  0.1641
10418SOL    HW133571   2.572   8.535   8.640 -0.3617 -1.3129 -0.3309
10418SOL    HW233572   2.424   8.506   8.657 -0.3138 -0.7901  1.1676
10419SOL     OW33573   5.330   4.245   8.543  0.2216 -0.1718 -0.1180
10419SOL    HW133574   5.235   4.245   8.559  0.2450 -0.9620  0.0196
10419SOL    HW233575   5.338   4.269   8.450 -0.0533  1.0051  0.1434
10420SOL     OW33576   0.998   4.230   4.997  0.2573 -0.2810  0.5144
10420SOL    HW133577   0.931   4.163   4.984  1.2121 -1.4111  1.2162
10420SOL    HW233578   1.078   4.190   4.963  0.7439  0.7349  0.4388
10421SOL     OW33579   4.301   9.302   0.368  0.0381 -0.3854  0.2518
10421SOL    HW133580   4.250   9.379   0.341  0.7372  0.0976  0.2923
10421SOL    HW233581   4.347   9.331   0.447  0.7296 -0.6689 -0.0399
10422SOL     OW33582   0.963   9.328   4.967 -0.2225  0.2142 -0.0906
10422SOL    HW133583   0.929   9.344   4.879  0.7183 -0.2672 -0.5491
10422SOL    HW233584   0.903   9.263   5.004  1.6958 -2.8695 -1.9450
10423SOL     OW33585   5.340   6.362   7.618  0.3926  0.2785  0.2071
10423SOL    HW133586   5.277   6.333   7.683 -0.3580 -0.6650 -0.9068
10423SOL    HW233587   5.409   6.295   7.620 -1.0152 -1.3906 -1.8917
10424SOL     OW33588   8.059   2.600   9.241  0.2449  0.0785 -0.3578
10424SOL    HW133589   8.135   2.557   9.280 -0.1988 -0.6739 -0.2995
10424SOL    HW233590   7.987   2.582   9.302  0.0254  0.8252 -0.3850
10425SOL     OW33591   5.717   4.746   6.321  0.0957 -0.0458  0.5147
10425SOL    HW133592   5.627   4.771   6.299  0.0805  0.7393  1.3856
10425SOL    HW233593   5.759   4.733   6.236 -0.8305 -0.4191  0.0936
10426SOL     OW33594   1.440   8.669   6.575 -0.5705 -0.2021  0.0195
10426SOL    HW133595   1.477   8.697   6.659 -0.9881 -0.9033  0.4484
10426SOL    HW233596   1.360   8.721   6.565  0.4319  1.2489 -0.8652
10427SOL     OW33597  10.196   0.854   1.192  0.0253  0.2292  0.0320
10427SOL    HW133598  10.206   0.842   1.287  3.4099  1.4117 -0.0555
10427SOL    HW233599  10.114   0.903   1.183  1.1867  3.0000  2.7279
10428SOL     OW33600   3.714  10.036   5.113  0.0025  0.2424  0.9714
10428SOL    HW133601   3.715   9.951   5.070  1.3073  0.9690 -0.5773
10428SOL    HW233602   3.805  10.063   5.115 -0.4891  2.2289  0.0113
10429SOL     OW33603  10.391   7.396   3.091  0.0555 -0.0447  0.2168
10429SOL    HW133604  10.344   7.469   3.131 -0.4546 -0.4409  0.3624
10429SOL    HW233605  10.348   7.385   3.006  0.6950  0.3678 -0.1696
10430SOL     OW33606   1.535   0.084  10.523  0.3593 -0.0032  0.3040
10430SOL    HW133607   1.605   0.116  10.467  0.0783  0.5129  0.2360
10430SOL    HW233608   1.570   0.089  10.611  0.3945  0.2921  0.2734
10431SOL     OW33609   2.322   3.397   1.499 -0.9875  0.2620 -0.3073
10431SOL    HW133610   2.264   3.472   1.485 -1.4546  0.0090  0.2292
10431SOL    HW233611   2.280   3.347   1.569  0.2515  0.4481  0.6140
10432SOL     OW33612   4.906   3.585   9.858  0.0885 -0.4786  0.2612
10432SOL    HW133613   4.883   3.643   9.786  0.7478 -1.9552 -1.2010
10432SOL    HW233614   4.853   3.615   9.932 -1.6183  0.2418 -1.2005
10433SOL     OW33615   3.736   5.894   8.887  0.2582 -0.5784  0.1858
10433SOL    HW133616   3.710   5.909   8.978 -0.1564  0.4234 -0.0890
10433SOL    HW233617   3.702   5.806   8.867 -1.0415 -0.1720  0.5141
10434SOL     OW33618   5.852   2.348   0.927  0.3324 -0.3867 -0.1856
10434SOL    HW133619   5.942   2.372   0.905  1.0526 -3.4344 -1.0476
10434SOL    HW233620   5.797   2.400   0.869  1.6074  0.5880 -0.5466
10435SOL     OW33621   5.612   0.232   4.727 -0.1115  0.4145  0.1126
10435SOL    HW133622   5.703   0.258   4.746  0.9376 -1.6606 -1.6196
10435SOL    HW233623   5.590   0.281   4.648  0.2750 -0.5493 -0.6178
10436SOL     OW33624   2.024   1.449   8.514  0.1332  0.5671  0.3634
10436SOL    HW133625   2.102   1.393   8.514  0.0364  0.3613 -1.7845
10436SOL    HW233626   1.951   1.389   8.526  0.1301  0.4020 -0.4451
10437SOL     OW33627   4.488   0.333  10.333 -0.2515 -0.1389  0.7405
10437SOL    HW133628   4.428   0.298  10.399  3.0218 -2.8620  2.5860
10437SOL    HW233629   4.514   0.257  10.282  2.8066  0.5550  1.1048
10438SOL     OW33630   2.741   8.258   6.832 -0.4948  0.8443 -0.2630
10438SOL    HW133631   2.728   8.283   6.740 -5.1418  0.2968 -0.0223
10438SOL    HW233632   2.715   8.166   6.835  1.2352  0.3613  1.3822
10439SOL     OW33633   3.652   0.279   7.804 -0.2121 -0.2665  0.1957
10439SOL    HW133634   3.676   0.372   7.807 -1.1245 -0.0477  1.5549
10439SOL    HW233635   3.646   0.253   7.896 -1.9576 -1.1444 -0.1315
10440SOL     OW33636   9.036   4.746   9.138 -0.1133  0.1884  0.9938
10440SOL    HW133637   8.942   4.766   9.131 -0.3572 -1.2480 -0.1975
10440SOL    HW233638   9.039   4.659   9.177  0.6096 -0.8979 -1.3397
10441SOL     OW33639   6.143   6.010   2.804 -0.0488  0.0633 -0.5820
10441SOL    HW133640   6.107   5.942   2.861  0.0532  0.0296 -0.5560
10441SOL    HW233641   6.069   6.066   2.783 -0.4222 -0.8352 -1.7150
10442SOL     OW33642   6.666   4.662   3.513  0.0191 -0.3223 -0.3577
10442SOL    HW133643   6.701   4.749   3.534 -0.1910 -0.3986  0.3519
10442SOL    HW233644   6.604   4.677   3.443  0.4913  0.0035 -0.7148
10443SOL     OW33645   7.702  10.383   1.825  0.9031  0.1208 -0.6470
10443SOL    HW133646   7.751  10.399   1.745  1.4215 -1.7685 -0.7576
10443SOL    HW233647   7.674  10.470   1.854  0.6658  0.8615 -2.8808
10444SOL     OW33648   7.025   9.501   7.077  0.0742 -0.0509 -0.4407
10444SOL    HW133649   7.046   9.511   6.984 -0.4565  0.0149 -0.5598
10444SOL    HW233650   7.098   9.540   7.123 -0.4268  1.4355 -0.8509
10445SOL     OW33651   4.855   3.929   4.770 -0.2008 -0.0029 -0.5897
10445SOL    HW133652   4.879   3.986   4.697  1.4539  0.5856  0.3633
10445SOL    HW233653   4.905   3.849   4.756  1.1041  0.5799  0.5066
10446SOL     OW33654   4.085   4.067   0.200  0.3962  0.2990  0.0625
10446SOL    HW133655   4.086   3.988   0.255  1.0546  1.1022  1.2659
10446SOL    HW233656   3.996   4.099   0.205  0.4497  0.3673  0.6977
10447SOL     OW33657   0.774   7.763   6.320 -0.0355 -0.2344  0.1607
10447SOL    HW133658   0.804   7.853   6.312  0.2602 -0.3154  0.3653
10447SOL    HW233659   0.849   7.715   6.354 -0.1119 -0.6047 -0.1801
10448SOL     OW33660   5.013   2.861   1.906 -0.2602  0.2609  0.3692
10448SOL    HW133661   4.942   2.880   1.968  0.1040  0.0492  0.8633
10448SOL    HW233662   4.983   2.784   1.858 -1.2088  1.3114 -0.7880
10449SOL     OW33663   6.594   1.337   1.009  0.2805 -0.1591  0.5194
10449SOL    HW133664   6.635   1.407   0.957  0.0772  0.7239  1.5231
10449SOL    HW233665   6.500   1.352   0.998  0.1749 -1.5611 -0.9419
10450SOL     OW33666   4.327   2.131   7.823 -0.3837 -0.3916  0.3293
10450SOL    HW133667   4.321   2.211   7.875 -0.2229  1.0706 -1.7422
10450SOL    HW233668   4.247   2.083   7.843 -1.0249  0.8230  0.8186
10451SOL     OW33669   9.817   9.364   7.252  0.2502  0.4435 -0.2516
10451SOL    HW133670   9.861   9.433   7.202  1.0343 -0.1135 -0.3525
10451SOL    HW233671   9.886   9.325   7.305 -0.1791 -0.2604 -0.1941
10452SOL     OW33672   3.836   5.315  10.298  0.5781  0.1477 -0.2927
10452SOL    HW133673   3.823   5.242  10.238 -0.1284 -0.5027  0.6260
10452SOL    HW233674   3.828   5.393  10.242 -0.5526 -0.4156 -0.9770
10453SOL     OW33675   2.603   4.588   8.546  0.3099  0.9149 -0.0077
10453SOL    HW133676   2.552   4.663   8.516 -1.4696  0.2256  1.1419
10453SOL    HW233677   2.543   4.539   8.602  1.5090 -1.2237 -0.4786
10454SOL     OW33678   3.953  10.520   6.754  0.1805 -0.0416 -0.3998
10454SOL    HW133679   4.032  10.485   6.713  0.3013  1.5539 -1.6341
10454SOL    HW233680   3.969  10.615   6.759 -1.5613  0.2798 -0.4863
10455SOL     OW33681   8.406   1.295   8.316 -0.0652 -0.0674 -0.4323
10455SOL    HW133682   8.436   1.223   8.260 -0.5572 -1.8872  1.5553
10455SOL    HW233683   8.315   1.309   8.290  0.3487  0.6255 -1.5784
10456SOL     OW33684   9.992   9.490   8.187 -0.0580 -0.0403  0.2440
10456SOL    HW133685   9.986   9.402   8.151 -1.8214 -0.6120  1.7551
10456SOL    HW233686  10.063   9.486   8.252  0.4882 -0.0706 -0.3502
10457SOL     OW33687   9.692   4.690   9.062  0.2651  0.0024  0.3876
10457SOL    HW133688   9.659   4.715   9.148 -0.8064  0.1232 -0.0456
10457SOL    HW233689   9.763   4.752   9.045  0.7458 -0.2628  1.3349
10458SOL     OW33690   4.529   9.375   6.762 -0.0452  0.7608  0.7174
10458SOL    HW133691   4.606   9.344   6.714  0.4729  2.7231  0.1792
10458SOL    HW233692   4.551   9.465   6.786 -1.9656  1.1805  1.0311
10459SOL     OW33693   7.171   8.371   9.254 -0.0622  0.2683  0.0905
10459SOL    HW133694   7.181   8.430   9.180 -2.1858  0.1357 -0.3666
10459SOL    HW233695   7.245   8.391   9.311  1.3813  0.6650 -1.8389
10460SOL     OW33696   7.156   9.335   7.472 -0.3773  0.0619 -0.2845
10460SOL    HW133697   7.063   9.310   7.470 -0.5688  0.7633 -1.6857
10460SOL    HW233698   7.180   9.341   7.379  1.5749 -1.8754  0.0213
10461SOL     OW33699   3.164   9.961   8.834  0.2048 -0.0687 -1.0577
10461SOL    HW133700   3.113  10.028   8.879  2.1451  0.9313 -0.2412
10461SOL    HW233701   3.175   9.995   8.745  0.2455  0.1735 -0.9605
10462SOL     OW33702   3.098   1.546   0.978  0.1682  0.3103  0.7135
10462SOL    HW133703   3.090   1.502   0.893  0.1945 -0.5441  1.1376
10462SOL    HW233704   3.064   1.482   1.041  0.2620  0.8858  1.3601
10463SOL     OW33705   1.852   8.429   5.198 -0.2993  1.0315 -0.0739
10463SOL    HW133706   1.868   8.340   5.168 -0.1219  0.6680  1.0681
10463SOL    HW233707   1.806   8.471   5.125  1.7173  0.7345 -1.6101
10464SOL     OW33708   1.220   4.350   8.579  0.1025 -0.4743  0.2555
10464SOL    HW133709   1.281   4.283   8.611  0.2182  0.6224  2.5609
10464SOL    HW233710   1.273   4.405   8.522  0.2212 -1.8089 -0.9701
10465SOL     OW33711  10.514   3.388   0.195 -0.8514 -0.0861  0.1543
10465SOL    HW133712  10.546   3.405   0.284 -0.9755  1.2158 -0.0324
10465SOL    HW233713  10.586   3.417   0.138 -0.8093 -0.8320 -0.1794
10466SOL     OW33714   9.556   7.444   8.357  0.0307  0.5054  0.6604
10466SOL    HW133715   9.463   7.425   8.354  0.2551 -0.5251 -0.7636
10466SOL    HW233716   9.562   7.539   8.350 -0.8668  0.4247 -2.3041
10467SOL     OW33717   1.477   1.195   6.207 -0.5062 -0.7039 -0.0701
10467SOL    HW133718   1.395   1.215   6.252 -1.4361 -1.7181 -1.2413
10467SOL    HW233719   1.460   1.215   6.116  1.2200  0.9441 -0.0868
10468SOL     OW33720   4.607   6.877   1.932  0.7238  0.1813  0.1596
10468SOL    HW133721   4.578   6.793   1.896  0.2188  0.0711  0.8050
10468SOL    HW233722   4.690   6.856   1.975 -0.4622 -0.5127  2.2819
10469SOL     OW33723   5.832  10.515   3.396  0.0610  0.6093 -0.4434
10469SOL    HW133724   5.842  10.453   3.469 -1.0893 -0.2886 -1.0162
10469SOL    HW233725   5.844  10.601   3.436 -0.5874  0.1383  0.8308
10470SOL     OW33726   1.338   9.436   3.908 -0.1357 -0.5522 -0.2201
10470SOL    HW133727   1.297   9.483   3.980 -2.1352 -1.1871 -0.8853
10470SOL    HW233728   1.394   9.371   3.950 -0.1580  0.0297  0.7285
10471SOL     OW33729   2.285   0.345   6.156 -0.1235 -0.4290  0.1941
10471SOL    HW133730   2.360   0.291   6.132 -0.4819 -0.2602 -1.3908
10471SOL    HW233731   2.322   0.416   6.209  0.5890 -1.2404  0.7964
10472SOL     OW33732   8.736   1.610   6.398  0.2335 -0.1486 -0.1880
10472SOL    HW133733   8.707   1.581   6.484  0.7723  0.2096  0.1226
10472SOL    HW233734   8.657   1.607   6.344 -0.0080 -0.8361  0.1902
10473SOL     OW33735   3.064   4.538   2.281 -0.6637  0.0245 -0.6824
10473SOL    HW133736   2.999   4.505   2.220 -0.9312 -1.2794  0.2721
10473SOL    HW233737   3.026   4.524   2.368  1.1520 -1.4623 -0.0528
10474SOL     OW33738   4.564  10.526  10.424  0.2341  0.6064  0.3923
10474SOL    HW133739   4.544  10.435  10.398 -2.4603  1.4559 -0.8901
10474SOL    HW233740   4.497  10.547  10.489  1.0123  1.6144  0.8867
10475SOL     OW33741   4.331   5.192   6.937  0.2235 -0.5121  0.4432
10475SOL    HW133742   4.281   5.156   7.010  1.0884 -1.4272  0.6015
10475SOL    HW233743   4.405   5.133   6.927  1.2457  0.7675  0.1665
10476SOL     OW33744   5.000   3.285   9.172  0.3859 -0.4470 -0.5388
10476SOL    HW133745   5.023   3.308   9.262  1.0362  2.6001 -1.3843
10476SOL    HW233746   4.926   3.342   9.150  0.6399 -0.6839 -2.1435
10477SOL     OW33747   9.942   3.837   2.479  0.1605 -0.3896  0.1010
10477SOL    HW133748  10.024   3.790   2.464 -1.2771 -2.9321 -0.4766
10477SOL    HW233749   9.954   3.879   2.564  0.9846 -3.3803  1.6099
10478SOL     OW33750   8.812   0.538   8.232  0.5757 -0.0781 -0.2152
10478SOL    HW133751   8.727   0.566   8.265  0.5714 -0.1154 -0.1924
10478SOL    HW233752   8.860   0.510   8.311  1.9596  3.3745  0.3280
10479SOL     OW33753   0.381   2.658   0.986 -0.3510  0.3382  0.0273
10479SOL    HW133754   0.434   2.597   0.935 -0.4184 -1.2191  1.7024
10479SOL    HW233755   0.387   2.741   0.939  2.4402 -0.1150 -0.5693
10480SOL     OW33756   6.915   4.123   9.273  0.2474  0.1042 -0.2809
10480SOL    HW133757   6.997   4.131   9.321  0.4018 -0.5642 -0.4120
10480SOL    HW233758   6.901   4.028   9.267  0.9467  0.0872 -2.7138
10481SOL     OW33759   6.019   2.258   6.051  0.1192 -0.6191  0.1039
10481SOL    HW133760   6.050   2.176   6.013 -1.3827 -1.2130  0.1026
10481SOL    HW233761   5.941   2.234   6.100 -0.0474  0.7320  0.5470
10482SOL     OW33762   6.990   3.472   7.363 -0.1947  0.2210 -0.0857
10482SOL    HW133763   7.060   3.494   7.425  1.7794 -0.6479 -1.8804
10482SOL    HW233764   6.925   3.427   7.416  0.7064  0.8218  1.6250
10483SOL     OW33765   8.852   9.437   4.529  0.2025 -0.0558 -0.1819
10483SOL    HW133766   8.795   9.395   4.464  2.5319 -1.2998 -1.5941
10483SOL    HW233767   8.847   9.530   4.509  1.3080 -0.4393 -2.6841
10484SOL     OW33768   3.755   3.298   3.337 -0.0360  0.1011 -0.2404
10484SOL    HW133769   3.803   3.275   3.257 -0.4698  0.2862 -0.5507
10484SOL    HW233770   3.685   3.233   3.342  0.6515 -0.6011  0.5834
10485SOL     OW33771   2.268   7.162   6.827  0.4925 -0.1620 -0.2167
10485SOL    HW133772   2.174   7.175   6.839  0.5002 -1.1307  1.2058
10485SOL    HW233773   2.274   7.086   6.769  0.3798 -0.2923 -0.0616
10486SOL     OW33774   3.457   5.373   7.695  0.1945  0.3696  0.1989
10486SOL    HW133775   3.466   5.316   7.619  0.3022  0.8417 -0.1511
10486SOL    HW233776   3.542   5.368   7.739 -0.9230 -2.6337  2.2855
10487SOL     OW33777   6.335   5.931   0.057  0.6627  0.3110 -0.3924
10487SOL    HW133778   6.350   5.854   0.112 -1.3283  1.0831  1.3647
10487SOL    HW233779   6.268   5.902  -0.006  0.4672  0.3695 -0.2144
10488SOL     OW33780   7.638   3.495  10.475 -0.6316  0.1741 -0.8093
10488SOL    HW133781   7.691   3.415  10.472 -1.1544 -0.1643 -2.0055
10488SOL    HW233782   7.548   3.464  10.463 -0.9812  0.8400  0.0131
10489SOL     OW33783   6.878   9.654   7.937  0.1154  0.3971 -0.0726
10489SOL    HW133784   6.829   9.705   7.872 -0.5478 -0.3417 -0.1611
10489SOL    HW233785   6.960   9.631   7.893 -0.4967 -0.4408 -0.8026
10490SOL     OW33786   5.323   4.987   4.356  0.0736  0.0434  0.5526
10490SOL    HW133787   5.295   5.058   4.300  0.7721 -0.4493 -0.4573
10490SOL    HW233788   5.256   4.920   4.347 -0.0869  0.1787  0.7358
10491SOL     OW33789   0.382   4.958   0.792 -0.0706  0.4733 -0.3202
10491SOL    HW133790   0.301   4.971   0.842  0.3724 -1.0205  0.8601
10491SOL    HW233791   0.360   4.893   0.726  0.3953 -0.7399  0.6826
10492SOL     OW33792   3.031   3.011   0.842  0.1611 -0.7313 -0.7697
10492SOL    HW133793   3.057   3.051   0.758 -0.5631 -0.7504 -1.0134
10492SOL    HW233794   3.054   3.076   0.908  1.9836 -1.2676 -0.8381
10493SOL     OW33795   4.078   6.396  10.333 -0.2294  0.4141  0.1075
10493SOL    HW133796   4.041   6.361  10.414 -0.7381 -0.2810 -0.4090
10493SOL    HW233797   4.169   6.366  10.333 -0.7390 -1.2513 -0.4785
10494SOL     OW33798   6.615   8.946   8.149 -0.6579 -0.2049  0.3623
10494SOL    HW133799   6.688   8.899   8.107 -2.6051 -1.8447 -1.4379
10494SOL    HW233800   6.599   9.021   8.092 -0.4101  0.1401  0.7436
10495SOL     OW33801   8.967   8.417   3.229  0.3206 -0.4109 -0.1501
10495SOL    HW133802   9.006   8.485   3.284  0.3474 -0.7134  0.2081
10495SOL    HW233803   8.992   8.442   3.140 -1.1500  1.0374 -0.2036
10496SOL     OW33804   6.821   1.775   3.409  0.4208 -0.0863  0.1526
10496SOL    HW133805   6.758   1.742   3.345 -0.1078  1.4150 -0.1638
10496SOL    HW233806   6.892   1.811   3.356  0.8081 -0.3736  0.4681
10497SOL     OW33807   6.194   0.181   3.213  0.6329  0.2176  0.2342
10497SOL    HW133808   6.226   0.272   3.211 -2.1811  1.3408  1.3712
10497SOL    HW233809   6.192   0.158   3.306 -4.1842  1.3170  0.6726
10498SOL     OW33810   8.219   9.052  10.052  0.1691 -0.4302  0.1972
10498SOL    HW133811   8.130   9.075  10.023  0.8440 -0.6410 -2.2688
10498SOL    HW233812   8.249   9.129  10.100 -0.8896  0.1787 -0.0878
10499SOL     OW33813   5.879   4.270   2.298  0.1183  0.5643  0.4152
10499SOL    HW133814   5.857   4.289   2.207  0.1226  2.1639  0.7246
10499SOL    HW233815   5.802   4.223   2.332  0.7650 -1.5334 -0.8093
10500SOL     OW33816   3.006   8.404   6.130 -0.6492  0.1292 -0.4176
10500SOL    HW133817   2.922   8.363   6.153 -1.0520  1.3631  0.3861
10500SOL    HW233818   3.071   8.336   6.147 -1.2494 -0.0373  1.4270
10501SOL     OW33819   7.576  10.056   4.389 -0.2668  0.0932 -0.3649
10501SOL    HW133820   7.636  10.020   4.324 -1.6507 -0.1949 -1.5204
10501SOL    HW233821   7.557   9.983   4.448 -1.8348 -0.7139 -1.7897
10502SOL     OW33822  10.238   0.828   5.357  0.2667 -0.0345 -0.1488
10502SOL    HW133823  10.258   0.734   5.357  0.0906 -0.0755  0.3555
10502SOL    HW233824  10.322   0.870   5.337  0.3068 -0.3063 -0.5531
10503SOL     OW33825   2.911  10.004   4.519  0.1808  0.0008  0.7645
10503SOL    HW133826   2.879   9.970   4.435  2.1251 -1.8607  0.6976
10503SOL    HW233827   2.890  10.097   4.517 -1.2194 -0.3010 -1.1033
10504SOL     OW33828   5.022   3.662   1.739 -0.3736 -0.0285 -0.1414
10504SOL    HW133829   5.047   3.715   1.815  1.7492  0.7425 -1.3062
10504SOL    HW233830   4.974   3.723   1.682  1.2162  0.4370 -1.0348
10505SOL     OW33831   0.529   4.387   0.524  0.2761  0.3276 -0.0134
10505SOL    HW133832   0.437   4.410   0.535 -0.1248 -1.1197 -0.1514
10505SOL    HW233833   0.538   4.365   0.431  0.2601 -1.4192  0.3488
10506SOL     OW33834   6.712   5.433   3.949 -0.0202 -0.0618 -0.3144
10506SOL    HW133835   6.727   5.347   3.989 -2.9835 -0.3316  0.4202
10506SOL    HW233836   6.650   5.416   3.878 -2.5120  1.6419  1.2893
10507SOL     OW33837   9.602   2.583   2.996  0.2964  0.1694 -0.2362
10507SOL    HW133838   9.586   2.615   2.908 -0.5799  0.3128 -0.0329
10507SOL    HW233839   9.539   2.512   3.008  0.5296  0.0321  0.2136
10508SOL     OW33840   0.855   3.397   7.693 -0.2568 -0.6925 -0.4136
10508SOL    HW133841   0.896   3.406   7.607  1.7879 -2.4164  0.2839
10508SOL    HW233842   0.927   3.371   7.751 -1.3653  1.3549  2.0592
10509SOL     OW33843   4.518   7.530   1.077 -0.0664 -0.1181  0.0544
10509SOL    HW133844   4.443   7.498   1.127  0.1760 -0.7154  0.0422
10509SOL    HW233845   4.534   7.618   1.112 -0.2370 -0.3167  0.6525
10510SOL     OW33846   6.475   4.792   1.180  0.0973  0.3938 -0.0198
10510SOL    HW133847   6.485   4.879   1.220 -0.2914 -0.0671  1.1301
10510SOL    HW233848   6.538   4.737   1.227 -1.0978 -0.3985  0.7069
10511SOL     OW33849   0.999   0.737   6.808 -0.3995 -0.0439  0.3730
10511SOL    HW133850   1.060   0.693   6.867 -0.3716 -0.5785 -0.0459
10511SOL    HW233851   0.925   0.677   6.800 -0.7763  0.3897  0.5041
10512SOL     OW33852   4.608   8.310   3.876  0.4301 -0.4081 -0.1401
10512SOL    HW133853   4.567   8.295   3.962 -0.9248  1.0960 -0.4754
10512SOL    HW233854   4.698   8.335   3.896  0.1137 -0.0127  0.8535
10513SOL     OW33855   3.384   3.061   9.432 -0.0990 -0.1180 -0.5270
10513SOL    HW133856   3.342   2.981   9.465  1.3163 -0.2376  1.1186
10513SOL    HW233857   3.392   3.117   9.508  0.3359  0.9808 -1.3592
10514SOL     OW33858   6.255   5.865   1.793 -0.0421  0.6634  0.3441
10514SOL    HW133859   6.194   5.926   1.752  0.0446  0.2982 -0.3419
10514SOL    HW233860   6.306   5.919   1.853 -0.6975  1.0653  0.5525
10515SOL     OW33861   2.478   2.574   5.444  0.3150  0.0799  0.3776
10515SOL    HW133862   2.390   2.612   5.450  0.7204  1.0619  0.2179
10515SOL    HW233863   2.464   2.480   5.455 -0.9485  0.0374 -1.2260
10516SOL     OW33864   4.094   1.459   5.830  0.4860  0.0764 -0.2408
10516SOL    HW133865   4.052   1.376   5.810 -0.0086  0.3649 -0.4281
10516SOL    HW233866   4.084   1.470   5.924 -1.3817  0.9346 -0.5002
10517SOL     OW33867   6.072   5.476   3.654  0.2144 -0.1379  0.7353
10517SOL    HW133868   6.023   5.403   3.691  0.2917 -0.4582  0.2242
10517SOL    HW233869   6.016   5.552   3.666 -0.4394 -0.5104  0.1053
10518SOL     OW33870   9.318   1.329   4.802  0.2417 -0.2112  0.2659
10518SOL    HW133871   9.319   1.235   4.823  1.4250  0.1733  2.2153
10518SOL    HW233872   9.256   1.367   4.864  0.6940  0.4530  0.3226
10519SOL     OW33873   0.917   3.208   7.159  0.0413 -0.6296 -0.3252
10519SOL    HW133874   0.965   3.125   7.161  0.0996 -0.5962  0.7207
10519SOL    HW233875   0.827   3.184   7.182  0.3375 -0.2725  1.3880
10520SOL     OW33876   3.365   5.450   5.097  0.1017  0.1030  0.2113
10520SOL    HW133877   3.358   5.486   5.186  1.2694 -2.2514  1.3695
10520SOL    HW233878   3.301   5.378   5.096  0.4015 -0.1615 -0.6951
10521SOL     OW33879   1.730  10.160   5.226 -0.1499 -0.2135 -0.3671
10521SOL    HW133880   1.758  10.073   5.253 -0.0886 -0.3407 -0.8329
10521SOL    HW233881   1.700  10.149   5.136  0.8065  0.4464 -0.7873
10522SOL     OW33882   3.977   1.208   5.850 -0.2606  0.8353 -0.3204
10522SOL    HW133883   3.954   1.170   5.765 -0.8513 -0.0205  0.2156
10522SOL    HW233884   3.899   1.258   5.875 -1.3728 -1.4689  1.1530
10523SOL     OW33885   3.707   3.106   8.780  0.0611 -0.2647 -0.5558
10523SOL    HW133886   3.682   3.022   8.818  1.6071 -0.5447 -0.0779
10523SOL    HW233887   3.739   3.157   8.855 -1.2560  0.9264 -0.7629
10524SOL     OW33888  10.333   0.098   3.892  0.2075 -0.2558  0.0955
10524SOL    HW133889  10.363   0.122   3.804 -1.4158 -0.0134 -0.4236
10524SOL    HW233890  10.304   0.007   3.883 -1.0770  0.1366  0.0493
10525SOL     OW33891   9.772   4.511   1.027  0.5198 -1.0705  0.4852
10525SOL    HW133892   9.784   4.567   0.950 -3.0467  3.1530  2.5399
10525SOL    HW233893   9.732   4.431   0.992 -0.3035  0.3727 -2.1585
10526SOL     OW33894   2.010   2.100   6.876  0.3840  0.3251  0.4289
10526SOL    HW133895   2.023   2.020   6.928  0.5576  0.6773  0.9382
10526SOL    HW233896   2.041   2.171   6.933 -1.6141  0.9745  0.8238
10527SOL     OW33897   7.861   5.135   5.671 -0.4067  0.4404 -0.4652
10527SOL    HW133898   7.928   5.097   5.729 -1.4355 -0.5101  0.1377
10527SOL    HW233899   7.843   5.066   5.607 -0.4774  0.8658 -0.9065
10528SOL     OW33900   1.823   1.709  10.220 -0.0496  0.4022  1.1483
10528SOL    HW133901   1.882   1.642  10.257  0.2133  0.1870  0.3593
10528SOL    HW233902   1.874   1.748  10.149 -1.0659 -0.2144  0.0402
10529SOL     OW33903   6.566  10.390   1.564  0.2392  0.1264 -0.1798
10529SOL    HW133904   6.647  10.382   1.514  0.6332  1.0841  0.2754
10529SOL    HW233905   6.580  10.338   1.642  0.0569 -0.4508 -0.5270
10530SOL     OW33906   5.263   0.411   9.342 -0.1292  0.3839 -0.3143
10530SOL    HW133907   5.265   0.349   9.269 -1.2051  0.1120 -0.1200
10530SOL    HW233908   5.226   0.491   9.305  0.5346  0.6748 -0.3712
10531SOL     OW33909   3.719   6.384   9.268  0.1607 -0.4612 -0.5416
10531SOL    HW133910   3.809   6.415   9.258  1.0203 -2.8260 -0.9966
10531SOL    HW233911   3.673   6.416   9.191  1.3513 -1.3989 -1.6907
10532SOL     OW33912   7.945   0.465   6.166  0.3350 -0.6460  0.3873
10532SOL    HW133913   7.971   0.434   6.253  0.1512  0.5094  0.8803
10532SOL    HW233914   7.876   0.404   6.139  0.0927 -0.7771  1.2463
10533SOL     OW33915   4.298   1.219   6.150  0.4633  0.2423  0.1775
10533SOL    HW133916   4.210   1.189   6.126 -0.5001  1.6934  1.6438
10533SOL    HW233917   4.343   1.230   6.066 -0.8399 -0.2854 -0.6219
10534SOL     OW33918   7.137   5.862   0.133  0.3284 -0.0446 -0.3480
10534SOL    HW133919   7.150   5.831   0.222 -2.5301 -2.0925 -0.5195
10534SOL    HW233920   7.141   5.957   0.140 -0.9911 -0.0779  2.2331
10535SOL     OW33921   8.541   9.277   0.224 -0.1676  0.3704  0.2170
10535SOL    HW133922   8.526   9.371   0.213 -0.7806  0.2896  0.3627
10535SOL    HW233923   8.484   9.252   0.296  0.8359  0.1047  0.9359
10536SOL     OW33924   8.757   7.997   8.202  0.2313 -0.4288 -0.6203
10536SOL    HW133925   8.741   8.018   8.294 -0.2604  1.2371 -1.0443
10536SOL    HW233926   8.848   8.023   8.187 -0.2606  1.1501 -1.0488
10537SOL     OW33927   6.339   9.105   8.612 -0.1642 -0.3879 -0.4812
10537SOL    HW133928   6.417   9.156   8.634 -0.5883 -0.0271  0.2217
10537SOL    HW233929   6.343   9.096   8.516 -0.9348  2.4603 -0.8991
10538SOL     OW33930   8.828   4.477   5.306  0.7117  0.4015 -0.1287
10538SOL    HW133931   8.871   4.451   5.225 -1.5430 -0.2380 -1.2261
10538SOL    HW233932   8.890   4.455   5.375  2.9199  1.4681 -1.6852
10539SOL     OW33933   9.473   8.536   9.529 -0.2708 -0.5919 -0.1657
10539SOL    HW133934   9.534   8.606   9.505 -1.2348 -0.3643 -2.1452
10539SOL    HW233935   9.511   8.498   9.608  0.7887  1.5173  0.4173
10540SOL     OW33936   9.456   8.642   8.639 -0.7196  0.3937 -0.2401
10540SOL    HW133937   9.536   8.694   8.644 -1.1110  1.3228 -2.3631
10540SOL    HW233938   9.387   8.705   8.621 -1.9891 -0.3871  1.5615
10541SOL     OW33939   6.119   9.504   6.849  0.4196  0.5482 -0.6603
10541SOL    HW133940   6.204   9.533   6.815  0.5009  1.4802  0.2646
10541SOL    HW233941   6.136   9.418   6.888  1.1298  1.0467  0.1736
10542SOL     OW33942   0.888   1.505   6.892  0.4364  0.0217 -0.1996
10542SOL    HW133943   0.804   1.516   6.848  0.2743 -1.8817 -0.4658
10542SOL    HW233944   0.866   1.465   6.976  0.8686  2.2928  1.0829
10543SOL     OW33945   0.254   4.904   1.644  0.1345 -0.7854 -0.2163
10543SOL    HW133946   0.235   4.878   1.734 -0.8400  1.0391  0.1433
10543SOL    HW233947   0.186   4.967   1.622  2.2054  1.3033 -1.0815
10544SOL     OW33948   3.406   2.102   4.827  0.3563 -0.0324  0.0731
10544SOL    HW133949   3.492   2.063   4.840 -0.3380 -1.1008  1.9827
10544SOL    HW233950   3.424   2.189   4.791  2.1412 -0.6806 -0.7195
10545SOL     OW33951   5.411   6.731   4.966 -0.6717 -0.1876  0.0693
10545SOL    HW133952   5.464   6.710   4.890  1.2751  2.7117  0.4983
10545SOL    HW233953   5.340   6.786   4.932 -0.5057  0.0976  0.1830
10546SOL     OW33954   9.440   0.188   0.356  0.0336  0.2449  0.2617
10546SOL    HW133955   9.485   0.109   0.386  0.7921 -1.0879 -3.7809
10546SOL    HW233956   9.353   0.158   0.331  0.0187  0.8308 -0.4242
10547SOL     OW33957   2.358   1.882   5.985  0.0007  0.3034  0.3661
10547SOL    HW133958   2.339   1.789   5.974 -1.7616  0.7604 -0.7779
10547SOL    HW233959   2.303   1.909   6.059 -0.2651  0.6466  0.0457
10548SOL     OW33960   4.004   6.119   6.959 -0.7349  0.3525  0.0648
10548SOL    HW133961   3.955   6.064   7.020 -1.7390  0.4510 -0.6224
10548SOL    HW233962   3.937   6.175   6.919  0.3588  2.7354  1.3896
10549SOL     OW33963   3.226   4.274   0.450 -0.4124 -0.3857 -0.1479
10549SOL    HW133964   3.213   4.362   0.487  1.9954  0.3691 -0.9366
10549SOL    HW233965   3.297   4.237   0.501 -0.3106 -1.2336 -0.8915
10550SOL     OW33966   8.268   5.381   4.676  0.1761  0.1571 -0.1706
10550SOL    HW133967   8.313   5.355   4.596 -0.6189 -0.6526 -0.3806
10550SOL    HW233968   8.332   5.370   4.745  0.0164 -2.0509 -0.3109
10551SOL     OW33969   9.243   2.784   6.254  0.2111 -0.6611 -0.4823
10551SOL    HW133970   9.297   2.794   6.332  1.4593  0.5058 -1.4489
10551SOL    HW233971   9.185   2.861   6.255 -0.8058 -1.4014  0.0318
10552SOL     OW33972   1.555   4.271   9.387 -0.2419  0.2442  0.0828
10552SOL    HW133973   1.511   4.219   9.320  1.9462 -2.2132  0.3861
10552SOL    HW233974   1.520   4.359   9.376 -2.1332 -0.6929 -2.2987
10553SOL     OW33975   2.344   1.186   2.103 -0.0458  0.1222  0.0652
10553SOL    HW133976   2.321   1.264   2.051  0.7823  0.4838  0.2273
10553SOL    HW233977   2.311   1.113   2.051  1.8679  0.3810 -1.6630
10554SOL     OW33978   6.967   1.231   0.805  0.2501 -0.1993 -0.5862
10554SOL    HW133979   6.894   1.217   0.865 -0.3718 -0.0784 -1.3056
10554SOL    HW233980   6.977   1.326   0.802 -0.7254 -0.1177 -1.8456
10555SOL     OW33981   3.593   7.579   2.201  0.1131  0.1394 -0.0957
10555SOL    HW133982   3.555   7.608   2.118  0.3776  0.6315 -0.0496
10555SOL    HW233983   3.677   7.539   2.175 -1.0790 -2.3718 -0.3717
10556SOL     OW33984   0.794   9.113  10.324  0.4048  0.1051 -0.2549
10556SOL    HW133985   0.772   9.193  10.372  1.4543  0.0898  0.2773
10556SOL    HW233986   0.858   9.141  10.259  0.7655 -0.3033 -0.0781
10557SOL     OW33987   9.003   5.864   2.085  0.0981  0.9973 -0.0159
10557SOL    HW133988   8.986   5.949   2.125 -0.9877  0.6868  0.2065
10557SOL    HW233989   8.966   5.871   1.997  0.6241  0.9783 -0.2438
10558SOL     OW33990   4.224   7.323   7.018 -0.3600  0.1395  0.7310
10558SOL    HW133991   4.190   7.271   7.091 -1.6340 -1.1174 -0.6955
10558SOL    HW233992   4.147   7.341   6.963  0.4333  1.6942  0.0649
10559SOL     OW33993   2.214   6.017   6.695  0.6856  0.0503 -0.0412
10559SOL    HW133994   2.161   5.949   6.654 -0.2378  1.3841 -1.1513
10559SOL    HW233995   2.200   6.005   6.789 -0.5978 -0.4107 -0.2742
10560SOL     OW33996   2.694   1.028   6.769 -0.1137  0.0071  0.1692
10560SOL    HW133997   2.737   1.111   6.744 -1.6203  1.3283  1.7513
10560SOL    HW233998   2.665   1.042   6.859 -0.0796 -2.4246  0.6226
10561SOL     OW33999   3.601   8.484   6.738  0.2367 -0.1703 -0.0025
10561SOL    HW134000   3.655   8.451   6.666 -0.6499 -1.7510 -0.0046
10561SOL    HW234001   3.619   8.424   6.811  0.7156  1.0840  0.9639
10562SOL     OW34002   1.384   7.203   7.546  0.0833  0.4273 -0.1225
10562SOL    HW134003   1.444   7.262   7.502  1.2332 -0.6074  0.0102
10562SOL    HW234004   1.339   7.156   7.476  2.7250 -2.0432 -0.3352
10563SOL     OW34005   2.520   5.883   5.364 -0.2471  0.1983 -0.3724
10563SOL    HW134006   2.592   5.828   5.394 -1.3085 -1.5717 -0.9203
10563SOL    HW234007   2.471   5.828   5.303 -3.1171  0.6325  1.3340
10564SOL     OW34008   4.265  10.379   1.253  0.1567 -0.4247  0.5143
10564SOL    HW134009   4.232  10.358   1.340 -2.4441  0.3033 -0.2141
10564SOL    HW234010   4.298  10.469   1.261  1.5281 -0.9639  1.1238
10565SOL     OW34011   8.429   2.973  10.332  0.0451  0.0806  0.1233
10565SOL    HW134012   8.378   2.903  10.373 -1.4383  1.1461  0.2008
10565SOL    HW234013   8.431   3.042  10.399  2.4723 -0.2820  0.4917
10566SOL     OW34014   4.626   6.288   7.561 -0.2033  0.4050 -0.0699
10566SOL    HW134015   4.575   6.256   7.636 -2.3558  0.2688 -1.5207
10566SOL    HW234016   4.563   6.292   7.489  1.8165  0.4136 -1.9308
10567SOL     OW34017   2.246   1.093   2.449  0.3553  0.0706 -0.1056
10567SOL    HW134018   2.162   1.051   2.428 -0.6409  2.6008 -1.6820
10567SOL    HW234019   2.312   1.036   2.410 -0.5096 -2.3086  1.7064
10568SOL     OW34020   3.073   4.892   0.350  0.1448  0.3265 -0.0866
10568SOL    HW134021   3.146   4.885   0.288  1.3519  2.2030  1.0286
10568SOL    HW234022   3.111   4.933   0.427 -1.7541 -0.1874  1.1838
10569SOL     OW34023   1.255  10.533   8.120  0.0642  0.0814 -0.0533
10569SOL    HW134024   1.251  10.629   8.113  1.1626  0.1481  0.1088
10569SOL    HW234025   1.185  10.502   8.061 -0.9893  0.9834  0.6719
10570SOL     OW34026   1.490   6.236   5.461  0.0336  0.0982  0.2551
10570SOL    HW134027   1.459   6.266   5.547  0.2271 -1.3856  0.8783
10570SOL    HW234028   1.561   6.296   5.439 -0.0148  0.4967  1.1353
10571SOL     OW34029   8.361   3.592   9.507  0.4386  0.3239  0.8702
10571SOL    HW134030   8.448   3.624   9.480  0.0381  0.2885 -0.5507
10571SOL    HW234031   8.300   3.647   9.459 -0.2886 -2.0763 -1.2126
10572SOL     OW34032   8.188   0.593   1.261  0.1071  0.4032 -0.5164
10572SOL    HW134033   8.176   0.541   1.182  0.4034  1.2253 -1.1033
10572SOL    HW234034   8.100   0.627   1.281 -0.0241 -0.0411 -0.3149
10573SOL     OW34035   1.751   3.835   1.482  0.0471 -0.2427  0.2551
10573SOL    HW134036   1.709   3.761   1.526 -0.1746  1.0252  2.2835
10573SOL    HW234037   1.681   3.875   1.430  0.1115 -1.2757 -0.6695
10574SOL     OW34038   1.076   7.956   2.828  0.1921  0.1282 -0.1220
10574SOL    HW134039   1.070   7.992   2.739 -1.5317 -1.3314 -0.6666
10574SOL    HW234040   0.985   7.946   2.856  0.6927 -0.1884  1.5073
10575SOL     OW34041   6.775   7.688   6.437 -0.4520  0.0397 -0.2913
10575SOL    HW134042   6.779   7.761   6.375 -0.4203 -0.3239 -0.7273
10575SOL    HW234043   6.791   7.728   6.522  0.5064  0.4041 -0.6244
10576SOL     OW34044   7.067   0.557  10.369 -0.0468  0.0939 -0.9692
10576SOL    HW134045   7.121   0.600  10.302  1.0699  1.3075  0.6259
10576SOL    HW234046   7.000   0.510  10.319  2.7208 -1.9032 -3.0694
10577SOL     OW34047   5.296   5.018  10.108 -0.1114  0.0481 -0.2506
10577SOL    HW134048   5.301   4.985  10.198 -0.9445 -0.7976 -0.4902
10577SOL    HW234049   5.215   4.980  10.074  1.0337 -1.0760 -1.9073
10578SOL     OW34050   4.152   1.654   1.000  0.1796 -0.2670 -0.6407
10578SOL    HW134051   4.089   1.723   1.019 -0.5961 -1.0381 -0.3357
10578SOL    HW234052   4.103   1.590   0.950  0.3907 -1.4098  0.5549
10579SOL     OW34053   2.299   7.161   8.990 -0.7118  0.4739  1.2630
10579SOL    HW134054   2.364   7.128   8.928 -1.5348 -0.7573  1.0356
10579SOL    HW234055   2.284   7.252   8.962  0.1498  0.4594  0.7007
10580SOL     OW34056   1.514   2.497   4.184  0.0292 -0.0201  0.1338
10580SOL    HW134057   1.576   2.559   4.221  0.8601 -0.0827 -1.1130
10580SOL    HW234058   1.455   2.550   4.131 -0.3929 -0.0846  0.5277
10581SOL     OW34059   2.949   6.686   7.301  0.1732 -0.6133  0.5383
10581SOL    HW134060   2.989   6.720   7.220 -0.1755 -0.4123  0.4502
10581SOL    HW234061   2.976   6.748   7.369  0.3706 -0.7181  0.5563
10582SOL     OW34062   6.560   3.581   1.739 -0.3180 -0.0343 -0.4301
10582SOL    HW134063   6.523   3.499   1.709 -1.1735  0.0725  0.2668
10582SOL    HW234064   6.631   3.556   1.798 -0.8651 -0.2972  0.1331
10583SOL     OW34065  10.328   0.173   7.435 -0.2149  0.1216  0.1712
10583SOL    HW134066  10.378   0.211   7.363  0.4239  0.4431  0.7670
10583SOL    HW234067  10.251   0.229   7.444 -0.4426 -0.0925 -0.4495
10584SOL     OW34068   6.359   0.114   0.859  0.0917 -0.3913  0.4638
10584SOL    HW134069   6.319   0.040   0.905  1.2752 -0.9865  0.5724
10584SOL    HW234070   6.341   0.099   0.767 -1.2899  0.1962  0.6128
10585SOL     OW34071   1.739   7.475   5.148 -0.2250 -0.0518  0.5160
10585SOL    HW134072   1.758   7.447   5.237  0.6172 -1.0186  0.0487
10585SOL    HW234073   1.696   7.400   5.108  0.9030 -0.2560 -0.3744
10586SOL     OW34074   8.233   3.363  10.539 -0.3731 -0.2609 -0.1738
10586SOL    HW134075   8.218   3.430  10.472 -0.0404 -0.6105 -0.6073
10586SOL    HW234076   8.315   3.389  10.581  0.4476 -1.0908 -1.2223
10587SOL     OW34077  10.514   1.279   4.757  0.1428  0.2166 -0.2189
10587SOL    HW134078  10.551   1.344   4.698  0.5516 -0.5708 -0.8543
10587SOL    HW234079  10.528   1.315   4.845  0.1759  1.0679 -0.5638
10588SOL     OW34080   2.542   0.235   6.107 -0.0541 -0.3913  0.0343
10588SOL    HW134081   2.626   0.254   6.148 -0.0513  0.1698 -0.2174
10588SOL    HW234082   2.555   0.151   6.063  0.2299 -0.5312  0.3822
10589SOL     OW34083   2.587   0.743   8.475 -0.2197  0.2457 -0.2412
10589SOL    HW134084   2.557   0.754   8.385 -0.7018  2.5686  0.1434
10589SOL    HW234085   2.652   0.812   8.488  0.1623 -0.3236  1.0703
10590SOL     OW34086   1.434   9.123   8.084  0.0082  0.4016 -0.3583
10590SOL    HW134087   1.457   9.082   8.000 -1.3797  0.0940 -0.6059
10590SOL    HW234088   1.417   9.049   8.143  1.3652  0.6084  0.3364
10591SOL     OW34089  10.203   2.228   4.387 -0.3037  0.2703  1.2559
10591SOL    HW134090  10.155   2.251   4.467 -0.6923  2.8587  0.3960
10591SOL    HW234091  10.135   2.200   4.325 -0.6580  2.6717  0.4570
10592SOL     OW34092   5.890   2.570   1.643  0.1011  0.0442  0.3817
10592SOL    HW134093   5.872   2.505   1.711 -1.0329 -0.4657 -0.3899
10592SOL    HW234094   5.903   2.652   1.691 -0.7899 -0.2879  1.2126
10593SOL     OW34095   6.086   6.813   6.190  0.3585 -0.1478  0.6211
10593SOL    HW134096   6.163   6.849   6.235  0.1777 -1.2410  1.8725
10593SOL    HW234097   6.106   6.823   6.097  1.4584  0.7350  0.9297
10594SOL     OW34098   2.640   0.060   8.955  0.0227  0.0780 -0.1142
10594SOL    HW134099   2.711   0.121   8.975  1.2950 -1.0619 -1.0211
10594SOL    HW234100   2.587   0.058   9.035  1.3365  0.4808  0.8017
10595SOL     OW34101   9.805   1.647   8.191  0.2748 -0.0134  0.2653
10595SOL    HW134102   9.754   1.714   8.237 -0.9268  0.5665 -1.7513
10595SOL    HW234103   9.743   1.610   8.128  2.1204  0.1075 -1.7271
10596SOL     OW34104   9.098   6.492   3.217  0.1618  0.5905 -0.1669
10596SOL    HW134105   9.138   6.450   3.294  2.2244  2.3076 -0.2174
10596SOL    HW234106   9.135   6.445   3.143 -1.8537 -1.0877 -0.2218
10597SOL     OW34107   8.788   4.783   2.006  0.5202  0.3561  0.0038
10597SOL    HW134108   8.809   4.731   2.083 -0.6328  1.2676  0.9841
10597SOL    HW234109   8.866   4.777   1.951  0.3557 -2.5224 -0.0477
10598SOL     OW34110   0.868   4.247   7.802 -0.0327 -0.2761  0.2027
10598SOL    HW134111   0.935   4.180   7.817  0.6988 -0.1203 -1.9400
10598SOL    HW234112   0.898   4.323   7.853 -0.3606 -1.2452  1.8853
10599SOL     OW34113   2.496   9.934   1.445 -0.4498 -0.0266  0.5720
10599SOL    HW134114   2.573   9.970   1.488 -2.1494  0.5383  3.4351
10599SOL    HW234115   2.428   9.936   1.512 -2.8075 -1.1230 -1.5987
10600SOL     OW34116   3.796   1.324   3.356 -0.1944  0.2070  0.0731
10600SOL    HW134117   3.785   1.341   3.263  0.4648  0.7995  0.0932
10600SOL    HW234118   3.726   1.373   3.398 -0.8560 -0.5390 -0.1408
10601SOL     OW34119   7.330   2.055   9.643 -0.4122  0.1437 -0.3422
10601SOL    HW134120   7.327   2.093   9.555  0.3979 -1.8675 -1.3064
10601SOL    HW234121   7.272   1.979   9.638 -1.0159  0.4771  1.1483
10602SOL     OW34122   1.801  10.367   2.218 -0.2531  0.4733 -0.9090
10602SOL    HW134123   1.765  10.320   2.293 -1.1574  1.2105 -0.8763
10602SOL    HW234124   1.881  10.407   2.251  0.2662 -0.5967 -0.8011
10603SOL     OW34125   4.626   5.679   8.445  0.3810  0.4917 -0.5101
10603SOL    HW134126   4.569   5.745   8.406  0.6443 -0.7903 -3.4058
10603SOL    HW234127   4.568   5.605   8.463  0.2437  1.0968  1.8857
10604SOL     OW34128  10.453   1.835   7.903 -0.3821  0.0717 -0.2782
10604SOL    HW134129  10.511   1.902   7.867 -0.2769 -1.2102 -2.6925
10604SOL    HW234130  10.499   1.803   7.980  1.2491  0.3781 -1.0787
10605SOL     OW34131   9.489   7.528   1.591 -0.3139 -0.2543  0.0550
10605SOL    HW134132   9.475   7.591   1.662 -0.5747  0.1945 -0.3839
10605SOL    HW234133   9.573   7.554   1.553 -0.5314 -0.0194 -0.2738
10606SOL     OW34134   2.732   8.827   9.601  0.1734 -0.0638 -0.3459
10606SOL    HW134135   2.768   8.909   9.633 -0.1246  0.3897 -1.1443
10606SOL    HW234136   2.697   8.848   9.514  0.8308 -1.2127 -0.9164
10607SOL     OW34137   9.163   0.990   0.999 -0.5748  0.0102 -0.3903
10607SOL    HW134138   9.257   0.990   1.022 -0.4653 -1.5841 -0.7325
10607SOL    HW234139   9.150   1.072   0.952  1.3183 -0.9675 -2.8285
10608SOL     OW34140   3.623   9.598   4.919  0.6813  0.6078  0.0236
10608SOL    HW134141   3.542   9.548   4.911  1.3048 -1.0398  2.6330
10608SOL    HW234142   3.692   9.537   4.892  1.2482  1.0613  0.4038
10609SOL     OW34143   2.563   5.060   0.115  0.2137 -0.3818  0.8546
10609SOL    HW134144   2.535   4.969   0.109 -0.1299 -0.2084 -0.3882
10609SOL    HW234145   2.577   5.087   0.025  1.7837  0.3607  1.2890
10610SOL     OW34146   9.688   8.602   4.355  0.3723 -0.0877  0.3105
10610SOL    HW134147   9.642   8.520   4.339  0.3210 -0.5029  2.3220
10610SOL    HW234148   9.695   8.643   4.268 -1.8135 -1.0262 -0.3762
10611SOL     OW34149   9.372   6.686   2.770  0.0729 -0.0314  0.1036
10611SOL    HW134150   9.395   6.771   2.733  2.6480 -1.6652 -2.4569
10611SOL    HW234151   9.399   6.692   2.862  0.2934  1.8499 -0.0381
10612SOL     OW34152   0.421   7.446  10.354  0.4771  0.2859 -0.0965
10612SOL    HW134153   0.336   7.410  10.328  0.7370 -1.5408  1.3385
10612SOL    HW234154   0.461   7.474  10.272 -0.6917 -0.7022 -1.0567
10613SOL     OW34155   3.711   6.464   9.530  0.4304 -0.4282 -0.5915
10613SOL    HW134156   3.794   6.449   9.574  0.7586 -0.7160 -1.2894
10613SOL    HW234157   3.732   6.458   9.437 -0.0364  1.2302 -0.8275
10614SOL     OW34158   4.226   1.959   4.096 -0.6107  0.1965  0.2181
10614SOL    HW134159   4.254   2.039   4.142 -0.3905  0.5870 -0.5690
10614SOL    HW234160   4.260   1.970   4.007  0.2186 -1.2006  0.3259
10615SOL     OW34161   3.897   5.411   9.381 -0.4821 -1.2352  0.0681
10615SOL    HW134162   3.827   5.476   9.376 -0.3849 -1.1033  0.3532
10615SOL    HW234163   3.887   5.373   9.468  2.1935  1.5495  1.8084
10616SOL     OW34164   4.249   9.012   1.509 -0.0913 -0.5434 -0.3116
10616SOL    HW134165   4.302   9.080   1.551 -0.2860 -0.5250 -0.0891
10616SOL    HW234166   4.286   9.002   1.421 -0.3697  0.1998 -0.5191
10617SOL     OW34167   7.038   0.447   6.597 -0.3407 -0.0965 -0.2716
10617SOL    HW134168   7.111   0.492   6.554 -0.4547  1.0774  0.7190
10617SOL    HW234169   6.979   0.423   6.525 -0.8582  2.4203 -0.7820
10618SOL     OW34170   2.650   9.344   2.047  0.4434  0.3914  0.2248
10618SOL    HW134171   2.725   9.288   2.066  0.2770  0.4181  0.9919
10618SOL    HW234172   2.634   9.332   1.953  0.9739 -0.1466  0.1986
10619SOL     OW34173   4.480   0.252   8.583 -0.3045  0.0860  0.7242
10619SOL    HW134174   4.472   0.200   8.663 -0.3231 -0.0930  0.6079
10619SOL    HW234175   4.574   0.269   8.575 -0.1439 -0.9670  0.1196
10620SOL     OW34176  10.416   7.722   1.405  0.2088  0.1125 -0.3290
10620SOL    HW134177  10.343   7.670   1.439  2.2029 -1.6341  1.6863
10620SOL    HW234178  10.423   7.796   1.464 -0.0659  0.3970 -0.6529
10621SOL     OW34179   0.117  10.522   8.314 -0.4929  0.5620 -0.0050
10621SOL    HW134180   0.049  10.584   8.339  0.2522  1.2083  0.4779
10621SOL    HW234181   0.078  10.436   8.332 -2.0808  0.7809 -2.0656
10622SOL     OW34182   5.993   0.381   8.034  0.6677  0.4595  0.0795
10622SOL    HW134183   6.088   0.374   8.044  0.5545  1.5895  2.5133
10622SOL    HW234184   5.971   0.467   8.068 -1.2174  0.3602 -0.7523
10623SOL     OW34185   8.196   3.084   9.415  0.5268  0.4280 -0.4199
10623SOL    HW134186   8.262   3.152   9.403  0.9046  0.0096 -0.7543
10623SOL    HW234187   8.234   3.006   9.374  0.4867 -0.2198  0.7113
10624SOL     OW34188   8.528   8.804  10.127 -0.3646 -0.3299 -0.6556
10624SOL    HW134189   8.523   8.730  10.188 -0.1558 -0.7801 -1.1837
10624SOL    HW234190   8.549   8.879  10.183 -0.3653 -0.7014 -0.1453
10625SOL     OW34191   2.138   7.663   8.437 -0.1356  0.4579 -0.2608
10625SOL    HW134192   2.191   7.591   8.403  0.7793  0.1439  1.6731
10625SOL    HW234193   2.065   7.620   8.483 -0.0593  0.7879  0.1739
10626SOL     OW34194   7.164   2.800   0.369  0.6742 -0.2614 -0.7651
10626SOL    HW134195   7.180   2.819   0.461  0.4473  1.5761 -1.0654
10626SOL    HW234196   7.103   2.727   0.370 -1.3478  1.3484  0.6280
10627SOL     OW34197   7.375   9.342   7.632 -0.0939  1.3500 -0.5688
10627SOL    HW134198   7.299   9.364   7.578  1.1456  2.4095 -1.9556
10627SOL    HW234199   7.422   9.277   7.581 -0.1032  0.6025  0.3468
10628SOL     OW34200   9.416   2.404   4.626  0.8747  0.3438  0.1557
10628SOL    HW134201   9.455   2.411   4.539  0.9075 -0.9724  0.0444
10628SOL    HW234202   9.399   2.311   4.638  0.1607  0.5845  1.2581
10629SOL     OW34203  10.241   2.541   7.271 -0.4779 -0.2697 -0.4313
10629SOL    HW134204  10.164   2.596   7.276 -1.1759 -1.1496 -1.1708
10629SOL    HW234205  10.312   2.600   7.248 -1.0851  0.4135 -0.5561
10630SOL     OW34206   1.023   8.383   1.195  0.7461 -0.7230  0.1738
10630SOL    HW134207   1.072   8.383   1.113 -0.2075 -1.1019 -0.4168
10630SOL    HW234208   0.943   8.334   1.175  0.0582 -0.0018  1.0595
10631SOL     OW34209   1.163   3.272   7.808 -0.1369 -0.2013  0.9084
10631SOL    HW134210   1.199   3.235   7.728 -1.6145  0.6050 -0.1852
10631SOL    HW234211   1.143   3.197   7.864  1.6363 -0.7348  0.8973
10632SOL     OW34212   2.566   8.532   0.448  0.2277 -0.0020 -0.7201
10632SOL    HW134213   2.645   8.479   0.443  0.0917 -0.1546 -1.3511
10632SOL    HW234214   2.551   8.562   0.358  0.0219  0.6949 -0.4664
10633SOL     OW34215  10.129   0.110   8.592  0.0556  0.1748 -0.3143
10633SOL    HW134216  10.084   0.172   8.534 -1.2908 -0.6366 -0.1724
10633SOL    HW234217  10.101   0.134   8.680  0.9530  0.4860 -0.1052
10634SOL     OW34218   5.535   7.209   4.732 -0.1609 -0.3418  0.6025
10634SOL    HW134219   5.482   7.133   4.752 -2.1646  0.7746 -0.1211
10634SOL    HW234220   5.599   7.214   4.803  0.6982 -3.2064  0.1421
10635SOL     OW34221   4.370  10.081   7.712 -0.3747  0.9278 -0.3596
10635SOL    HW134222   4.434  10.085   7.783 -0.9660  0.4221  0.2094
10635SOL    HW234223   4.376  10.167   7.669  1.0836  0.6800 -0.6786
10636SOL     OW34224  10.075   3.443   5.991 -0.4930 -0.5278 -0.0809
10636SOL    HW134225  10.056   3.366   6.044 -0.4980  0.0960  0.8560
10636SOL    HW234226  10.006   3.445   5.925  0.3351 -2.1229 -1.0451
10637SOL     OW34227   7.237   2.269   1.075 -0.3334 -0.3557  0.2670
10637SOL    HW134228   7.158   2.324   1.076 -0.5844 -0.6425 -1.0625
10637SOL    HW234229   7.285   2.299   0.997  0.0351 -1.3046  0.1147
10638SOL     OW34230   2.759   5.753   4.731  0.1628  0.5548  0.7649
10638SOL    HW134231   2.731   5.662   4.744  0.6873  0.1060 -1.0283
10638SOL    HW234232   2.678   5.802   4.717 -0.0276  0.0714  0.1417
10639SOL     OW34233   1.198   4.103   5.962 -0.0351 -0.4985 -0.2813
10639SOL    HW134234   1.274   4.106   5.904  0.9850  0.9828  1.0641
10639SOL    HW234235   1.133   4.160   5.920 -0.5104 -1.8570 -1.4885
10640SOL     OW34236   4.083   4.754   4.327 -0.0409  0.1742 -0.3487
10640SOL    HW134237   4.170   4.759   4.287  0.3975  1.3793  0.6891
10640SOL    HW234238   4.054   4.845   4.333 -1.3719 -0.2065 -0.6396
10641SOL     OW34239   1.485   1.803   9.881  0.2781 -0.2638  0.0637
10641SOL    HW134240   1.558   1.750   9.914  1.0728 -0.3354 -1.7402
10641SOL    HW234241   1.509   1.893   9.905 -1.1545 -0.5995  3.2843
10642SOL     OW34242   8.462   9.578   4.479  0.1339 -0.1164 -0.4978
10642SOL    HW134243   8.423   9.495   4.507  0.0371 -1.5777 -4.3198
10642SOL    HW234244   8.397   9.644   4.504 -1.3439 -1.5856 -0.2043
10643SOL     OW34245   3.896   6.780   2.337 -0.0195 -0.2811  0.3760
10643SOL    HW134246   3.955   6.730   2.394  1.4468 -1.1500 -1.7884
10643SOL    HW234247   3.952   6.847   2.297 -0.9464  0.1057 -0.3113
10644SOL     OW34248   6.930   3.857   2.245  0.2569 -0.3985  0.1276
10644SOL    HW134249   6.938   3.763   2.230  0.0840 -0.4744  0.4934
10644SOL    HW234250   6.860   3.865   2.310  1.2272 -0.1163  1.1704
10645SOL     OW34251   9.897   1.862   6.951 -0.1340  0.3007 -0.0644
10645SOL    HW134252   9.888   1.858   7.046 -0.5415 -0.0699 -0.1145
10645SOL    HW234253   9.808   1.850   6.918  0.4135 -3.1057 -0.5973
10646SOL     OW34254   7.893   0.495   1.484 -0.2562  0.1558  0.0352
10646SOL    HW134255   7.942   0.577   1.475  1.0823 -0.7739 -1.5577
10646SOL    HW234256   7.959   0.426   1.479 -1.3473 -1.0590  1.3999
10647SOL     OW34257   7.024   1.152   5.717 -0.7976  0.1132  0.7307
10647SOL    HW134258   7.073   1.075   5.687 -0.7132  0.0105  1.1211
10647SOL    HW234259   7.043   1.220   5.652 -0.4537 -0.0422  0.6667
10648SOL     OW34260   9.055   3.396   7.241 -0.4307  0.4132 -0.0593
10648SOL    HW134261   9.071   3.469   7.181  1.1549 -0.6128 -0.9378
10648SOL    HW234262   9.124   3.333   7.221 -0.8186 -0.6481  1.7803
10649SOL     OW34263   4.845   1.468   9.673  0.1415  0.4767 -0.4605
10649SOL    HW134264   4.921   1.505   9.628  1.8999 -0.4692  1.5562
10649SOL    HW234265   4.802   1.543   9.714  0.8688  0.8524 -0.3767
10650SOL     OW34266   2.651   1.582   1.511 -0.0832  0.0397 -0.3191
10650SOL    HW134267   2.626   1.664   1.468  0.3379 -0.8202 -2.3298
10650SOL    HW234268   2.650   1.517   1.441  0.8222 -1.4299  0.9636
10651SOL     OW34269   6.320   0.938  10.112  0.1300  0.5694  0.1049
10651SOL    HW134270   6.326   0.843  10.101  0.3977  0.5705  0.2356
10651SOL    HW234271   6.242   0.951  10.166 -0.4978  0.4912 -0.7668
10652SOL     OW34272   9.381   2.805   2.051  0.4336 -0.2916 -0.9248
10652SOL    HW134273   9.390   2.710   2.041 -0.6897 -0.3847 -1.1258
10652SOL    HW234274   9.331   2.817   2.132  1.8661  0.1994 -0.0663
10653SOL     OW34275   3.334   8.115   1.547  0.0563 -0.8883 -0.1974
10653SOL    HW134276   3.273   8.187   1.560  0.3811 -0.4243 -1.1821
10653SOL    HW234277   3.344   8.077   1.634 -1.1028 -0.5535  0.1023
10654SOL     OW34278   0.745   5.758   1.584 -0.1870  0.1767  0.2924
10654SOL    HW134279   0.684   5.726   1.518  0.9907 -1.1869 -0.1710
10654SOL    HW234280   0.712   5.722   1.667 -0.9362  0.8411  0.2996
10655SOL     OW34281   7.521   1.700   7.991 -0.0686 -0.1848 -0.8602
10655SOL    HW134282   7.527   1.659   7.905  2.3692 -3.6260  0.7183
10655SOL    HW234283   7.609   1.736   8.007  0.5258 -2.2823  1.2449
10656SOL     OW34284   0.063   9.980   2.298 -0.1070  0.2981 -0.0861
10656SOL    HW134285  -0.013  10.037   2.308  0.0525  0.2816  1.5822
10656SOL    HW234286   0.062   9.926   2.378  0.6847 -0.8817 -0.8458
10657SOL     OW34287   3.788   9.003   5.233 -0.0232  0.7020  0.0974
10657SOL    HW134288   3.828   9.020   5.318 -0.6087  1.5936  0.2098
10657SOL    HW234289   3.773   9.090   5.196 -1.3910  0.3702 -0.1632
10658SOL     OW34290   0.959   2.195   8.256 -0.1724  0.2678  0.2963
10658SOL    HW134291   0.960   2.245   8.175  0.0978 -0.0652  0.0927
10658SOL    HW234292   1.001   2.252   8.320 -0.1032  0.4052  0.1290
10659SOL     OW34293   6.563   0.641   9.856 -0.1285 -0.8151  0.0453
10659SOL    HW134294   6.487   0.653   9.913 -0.6444  0.1818 -0.8250
10659SOL    HW234295   6.525   0.619   9.770  0.3528  2.5456 -1.1661
10660SOL     OW34296   8.753   6.526   6.384  0.5803 -0.4915 -0.1937
10660SOL    HW134297   8.753   6.611   6.428 -0.9941 -0.7324  0.3302
10660SOL    HW234298   8.768   6.547   6.292 -1.7730  0.5975 -0.4067
10661SOL     OW34299   1.463   9.067   3.440 -0.3619 -0.5676  0.3043
10661SOL    HW134300   1.393   9.116   3.483 -0.8622 -1.0188  0.0270
10661SOL    HW234301   1.541   9.121   3.451 -0.6464 -0.2955  1.0697
10662SOL     OW34302   9.601   5.601  10.412 -0.0664  0.0156  0.0109
10662SOL    HW134303   9.592   5.562  10.499  0.7967 -0.2313 -0.0020
10662SOL    HW234304   9.683   5.566  10.378 -0.3017  0.2588 -0.8326
10663SOL     OW34305   7.174   6.406   5.701  0.1859  0.0467  0.2302
10663SOL    HW134306   7.205   6.378   5.615  3.1465  0.3316  1.0869
10663SOL    HW234307   7.181   6.501   5.698  1.9480 -0.0179  1.2833
10664SOL     OW34308   9.241   4.783   0.752  0.0133  0.0463  0.2083
10664SOL    HW134309   9.184   4.791   0.676 -0.0598 -1.8074  0.0077
10664SOL    HW234310   9.321   4.830   0.729 -0.4405  0.4560 -0.5436
10665SOL     OW34311   6.820   2.609   3.056 -0.4658  1.1203 -0.0828
10665SOL    HW134312   6.834   2.676   2.990  1.2383  1.2452  0.3482
10665SOL    HW234313   6.753   2.552   3.019 -0.3536  1.8168 -1.4113
10666SOL     OW34314   5.245   7.996   3.854  0.4653 -0.4892  0.5026
10666SOL    HW134315   5.250   8.090   3.869 -0.1927 -0.2070 -0.9028
10666SOL    HW234316   5.238   7.958   3.942  0.5991  0.7677  1.0757
10667SOL     OW34317   2.338  10.460   9.732 -0.0027 -0.6995  0.8904
10667SOL    HW134318   2.303  10.455   9.643 -0.2134 -0.4078  0.9542
10667SOL    HW234319   2.296  10.537   9.770 -0.7269 -1.4240  1.5977
10668SOL     OW34320   7.538   9.523   9.017  0.3384 -0.1229 -0.6168
10668SOL    HW134321   7.527   9.431   9.040 -0.1637  0.0927  0.0283
10668SOL    HW234322   7.471   9.569   9.068  2.1423  0.8880  0.9544
10669SOL     OW34323   0.755   5.421   5.399  0.3792 -0.3082  0.3213
10669SOL    HW134324   0.804   5.472   5.335 -1.1852  2.2083  1.0259
10669SOL    HW234325   0.756   5.474   5.479 -1.4196 -1.3177  1.0681
10670SOL     OW34326   1.246   3.484  10.067  0.8006 -0.4492  0.9958
10670SOL    HW134327   1.212   3.569  10.037 -1.8497 -1.4923  0.8040
10670SOL    HW234328   1.249   3.493  10.163  1.6392  0.2098  0.9242
10671SOL     OW34329   0.571   2.315   4.549 -0.0401 -0.2036 -0.4699
10671SOL    HW134330   0.664   2.306   4.530 -0.2893 -0.6674 -1.5873
10671SOL    HW234331   0.532   2.235   4.513 -0.7236 -0.6313  1.1100
10672SOL     OW34332   7.296   2.199   3.948 -0.7378  0.2383 -0.2255
10672SOL    HW134333   7.354   2.135   3.991 -0.4613 -0.9344 -2.2036
10672SOL    HW234334   7.309   2.183   3.855 -0.5469  3.3502 -0.8166
10673SOL     OW34335   8.547   9.477   2.618 -0.3557 -0.1548  0.9078
10673SOL    HW134336   8.539   9.423   2.539  0.6237  0.4326  0.3976
10673SOL    HW234337   8.486   9.436   2.680 -0.1611 -1.4183  0.3068
10674SOL     OW34338   7.104   7.238  10.276 -0.4713  0.1480  0.0239
10674SOL    HW134339   7.049   7.234  10.354 -0.4764  2.2536  0.1778
10674SOL    HW234340   7.047   7.208  10.205 -1.1604  0.3354  0.4912
10675SOL     OW34341   3.433  10.509   7.177  0.7996  0.3435  0.0066
10675SOL    HW134342   3.431  10.596   7.137  0.4388  0.2056 -0.2868
10675SOL    HW234343   3.519  10.474   7.156  1.4597  1.1445  1.2613
10676SOL     OW34344   1.694   1.641   9.962  0.2642  0.2751  0.1067
10676SOL    HW134345   1.729   1.561   9.923 -0.2963 -0.3474  0.8506
10676SOL    HW234346   1.720   1.637  10.054 -0.9031  0.2845  0.4526
10677SOL     OW34347   9.662   4.322   9.291 -0.3528  0.3796  0.1807
10677SOL    HW134348   9.722   4.267   9.342 -0.1319 -1.1153 -1.5860
10677SOL    HW234349   9.717   4.358   9.222 -1.3623 -0.6599 -1.2042
10678SOL     OW34350   3.292   4.399   2.792 -0.2583  0.1062  0.7778
10678SOL    HW134351   3.385   4.421   2.795 -0.5425  1.6864 -0.6644
10678SOL    HW234352   3.282   4.328   2.856  1.6933  0.7197  1.8293
10679SOL     OW34353   5.708   2.855   7.248 -0.3387  0.4717  0.0319
10679SOL    HW134354   5.643   2.917   7.214  1.1214  4.7104  3.9398
10679SOL    HW234355   5.661   2.802   7.312 -0.2980  3.0786  2.3738
10680SOL     OW34356   2.164   4.030   5.987 -0.1424 -0.0930 -0.1398
10680SOL    HW134357   2.143   4.085   5.912  3.0810  0.9845 -0.4297
10680SOL    HW234358   2.140   4.083   6.064  0.4327  0.5960 -0.4273
10681SOL     OW34359   1.015   0.189   4.824  0.3231 -0.0835 -0.1367
10681SOL    HW134360   1.011   0.143   4.740 -0.7629 -1.4944  0.6414
10681SOL    HW234361   0.945   0.254   4.820 -0.4341 -0.8712  0.0614
10682SOL     OW34362   8.028   6.429   4.362 -0.2922  0.3839 -0.1992
10682SOL    HW134363   7.932   6.429   4.360 -0.3854  1.2017  2.0029
10682SOL    HW234364   8.052   6.520   4.350  0.3380  0.0159 -2.2035
10683SOL     OW34365   0.287   7.054   3.482 -0.2152 -0.1902 -0.0121
10683SOL    HW134366   0.271   6.961   3.497  1.1169 -0.2660  1.0912
10683SOL    HW234367   0.312   7.088   3.568 -3.5586  1.8577  0.3442
10684SOL     OW34368   2.825   2.397   7.438 -0.2154  0.5581 -0.0933
10684SOL    HW134369   2.901   2.352   7.475  0.1860  0.8535 -0.5574
10684SOL    HW234370   2.857   2.436   7.357 -0.8966  0.5814 -0.3541
10685SOL     OW34371   8.980   5.332  10.567 -0.1380 -0.4600  0.2787
10685SOL    HW134372   9.027   5.402  10.521 -1.0318  0.5506  0.8515
10685SOL    HW234373   9.036   5.313  10.643 -0.2776  0.2334  0.5677
10686SOL     OW34374   7.193   0.463   7.816 -0.2511  0.0966 -0.3547
10686SOL    HW134375   7.183   0.510   7.733 -0.7530 -1.0645 -0.9825
10686SOL    HW234376   7.141   0.513   7.879 -0.4589  0.5865 -0.9067
10687SOL     OW34377   2.098   1.326   7.598 -0.0922  0.1658  0.2081
10687SOL    HW134378   2.123   1.245   7.642 -0.6542  0.9416  2.0440
10687SOL    HW234379   2.005   1.315   7.579 -0.1085  0.2716  0.2262
10688SOL     OW34380   7.788   7.409   5.578 -0.0710  0.2700  0.0323
10688SOL    HW134381   7.838   7.447   5.506  3.6202 -0.0781  2.1578
10688SOL    HW234382   7.706   7.380   5.538  2.2294 -1.1294 -4.3109
10689SOL     OW34383   7.146   2.584   9.806  0.1360 -0.2550  0.2089
10689SOL    HW134384   7.139   2.678   9.789  0.4709 -0.5293 -1.7317
10689SOL    HW234385   7.199   2.551   9.733 -2.0538 -2.3008 -0.5906
10690SOL     OW34386   0.916   5.128   8.827  0.3164  0.5231 -0.0246
10690SOL    HW134387   0.896   5.139   8.734 -0.8302  1.4572  0.3152
10690SOL    HW234388   0.891   5.037   8.845 -0.0273  0.5223 -0.4789
10691SOL     OW34389   8.851   8.002   8.494  0.6029  0.3558  0.3316
10691SOL    HW134390   8.888   7.946   8.562  0.4840 -1.2735 -0.8780
10691SOL    HW234391   8.914   8.074   8.485  1.5047 -0.3395  0.9401
10692SOL     OW34392   3.607   6.184   1.343 -0.1153 -0.1884 -0.3289
10692SOL    HW134393   3.641   6.107   1.389  0.1336  0.3012  0.3258
10692SOL    HW234394   3.677   6.211   1.284  0.0168 -0.1304 -0.1456
10693SOL     OW34395   0.258   6.313   9.987  0.0386 -0.5897  0.6708
10693SOL    HW134396   0.220   6.320  10.075  1.0999  0.9467  1.0486
10693SOL    HW234397   0.224   6.389   9.940 -0.2717 -1.2335 -0.1783
10694SOL     OW34398   9.622   3.378   6.997  0.2539  0.1182  0.1084
10694SOL    HW134399   9.555   3.344   7.056  0.4036  1.5601  1.1523
10694SOL    HW234400   9.573   3.420   6.926  0.0778 -1.5001 -0.7923
10695SOL     OW34401   8.323   5.384   3.226 -0.0255 -0.2417 -0.1898
10695SOL    HW134402   8.354   5.471   3.253 -0.8021 -0.6569  2.2339
10695SOL    HW234403   8.396   5.348   3.175  2.1843  0.1309  2.4897
10696SOL     OW34404   2.286   4.775   9.484  0.4671 -0.1855  0.6684
10696SOL    HW134405   2.252   4.708   9.425  0.8783 -1.2533  1.6224
10696SOL    HW234406   2.229   4.851   9.468 -0.3720 -0.9279 -0.0088
10697SOL     OW34407   2.311   5.931   4.739 -0.3173 -0.1384 -0.1000
10697SOL    HW134408   2.270   5.966   4.660  0.3010  0.7784 -0.0344
10697SOL    HW234409   2.397   5.975   4.743 -1.4297  2.1328  2.6078
10698SOL     OW34410   2.789   7.802   4.110  0.1630 -0.5764  0.3949
10698SOL    HW134411   2.826   7.763   4.189 -0.1846 -1.3993  0.1624
10698SOL    HW234412   2.707   7.755   4.096  0.3654 -0.6569 -0.6263
10699SOL     OW34413   6.681   3.140   2.469  0.1427  1.1472  0.3816
10699SOL    HW134414   6.705   3.117   2.559  0.3207  1.5703  0.4429
10699SOL    HW234415   6.588   3.117   2.463  0.0823  1.2964  0.7298
10700SOL     OW34416   1.343   8.528   0.417 -0.0219 -0.2772 -0.5768
10700SOL    HW134417   1.426   8.529   0.464  0.2653 -0.6941 -1.0581
10700SOL    HW234418   1.286   8.585   0.467  0.3542 -0.5080  0.1269
10701SOL     OW34419   6.964   5.136   0.510  0.0678 -0.1557 -0.1282
10701SOL    HW134420   6.928   5.101   0.429 -0.2388  0.3307 -0.2080
10701SOL    HW234421   6.976   5.059   0.566  1.4030 -0.6499 -1.0416
10702SOL     OW34422   8.362   8.338   4.975 -0.3999 -0.3518 -0.2376
10702SOL    HW134423   8.275   8.312   5.004 -0.4582  1.1568  1.1014
10702SOL    HW234424   8.420   8.314   5.047  0.1291 -0.3173 -0.6423
10703SOL     OW34425   0.282  10.213   9.839  0.1127  0.1654  0.3848
10703SOL    HW134426   0.367  10.257   9.839 -0.1973  0.7851 -0.7851
10703SOL    HW234427   0.259  10.205   9.747  0.8495 -3.8406  0.3554
10704SOL     OW34428  10.480   6.271   9.802 -0.0392 -0.5431  0.6221
10704SOL    HW134429  10.471   6.199   9.739 -0.0513 -0.9564  1.0838
10704SOL    HW234430  10.536   6.335   9.759  0.5534 -1.1512  0.4800
10705SOL     OW34431   3.700   0.883   8.838  0.2455 -0.3758  0.2162
10705SOL    HW134432   3.714   0.801   8.886  0.4286 -0.5136 -0.0676
10705SOL    HW234433   3.631   0.862   8.776 -2.3274  0.6654  2.5167
10706SOL     OW34434   3.876   0.136   3.239  0.3903  0.1590  0.7910
10706SOL    HW134435   3.830   0.053   3.255  1.4067 -0.7195 -0.5935
10706SOL    HW234436   3.848   0.162   3.152 -0.2236  1.5135  1.3705
10707SOL     OW34437   8.370   8.695   4.265  0.4362 -0.1904  0.2959
10707SOL    HW134438   8.388   8.627   4.329  0.7381 -0.1413  0.2631
10707SOL    HW234439   8.286   8.732   4.293  1.0406  0.5059  1.2442
10708SOL     OW34440  10.549   4.334   6.584 -0.3406  0.5291  1.2440
10708SOL    HW134441  10.627   4.349   6.637 -0.5444 -0.5695  1.8788
10708SOL    HW234442  10.486   4.400   6.613 -0.0834  0.5976  1.6397
10709SOL     OW34443   2.736   4.382   7.613 -0.2790  0.1362 -0.0054
10709SOL    HW134444   2.655   4.332   7.622  1.3888 -3.0149 -1.0600
10709SOL    HW234445   2.738   4.409   7.522 -0.7066  1.3660  0.3301
10710SOL     OW34446   2.931   7.989   5.309  0.2855  0.5966 -0.2585
10710SOL    HW134447   2.872   8.032   5.248 -0.4070  3.0338  1.9828
10710SOL    HW234448   3.019   8.013   5.279  0.0070  0.7387 -0.9676
10711SOL     OW34449   1.525   1.230   3.894  0.2057 -0.1963  0.6562
10711SOL    HW134450   1.538   1.294   3.964  1.1511 -1.3972  1.6170
10711SOL    HW234451   1.434   1.240   3.869  0.4577  1.8729  0.4240
10712SOL     OW34452   5.786   5.258   1.356 -0.7580  0.1392  0.0692
10712SOL    HW134453   5.871   5.253   1.400 -0.3642  1.6854 -0.4651
10712SOL    HW234454   5.800   5.216   1.272 -0.4297  0.6619 -0.1400
10713SOL     OW34455   7.092  10.006   3.406 -0.1545  1.0238 -0.4188
10713SOL    HW134456   7.130   9.975   3.323  0.6472  0.1152  0.2654
10713SOL    HW234457   7.068   9.926   3.452  1.1927  1.4161  1.0374
10714SOL     OW34458   7.980   7.263   6.221 -0.4119  0.0154 -0.0949
10714SOL    HW134459   8.049   7.241   6.284 -0.3525 -0.8301 -0.4413
10714SOL    HW234460   7.930   7.333   6.263 -0.4462 -0.6217  0.9516
10715SOL     OW34461   1.754   7.859   0.751  0.3806 -0.6673 -0.5183
10715SOL    HW134462   1.846   7.834   0.749  0.5610 -0.3485  1.8118
10715SOL    HW234463   1.742   7.901   0.835 -1.4481  1.2001 -1.6168
10716SOL     OW34464   8.086  10.343   9.111 -0.3055 -0.1693  0.8659
10716SOL    HW134465   8.165  10.370   9.158  1.5345 -0.0878 -2.0584
10716SOL    HW234466   8.014  10.373   9.167  1.6931  1.8868  2.5196
10717SOL     OW34467   6.235   3.113   4.460  0.0830 -0.4386 -0.2437
10717SOL    HW134468   6.275   3.140   4.377 -1.1433 -0.4798 -0.8711
10717SOL    HW234469   6.305   3.121   4.525  0.6745  0.9652 -1.0297
10718SOL     OW34470   5.012   2.806   5.991 -0.0429 -0.1214  0.6337
10718SOL    HW134471   5.083   2.834   6.049  0.7597 -0.4696 -0.1652
10718SOL    HW234472   4.989   2.719   6.021  0.8773 -0.6033 -0.0149
10719SOL     OW34473   9.559   7.150   0.384 -0.1989  0.0469 -0.3711
10719SOL    HW134474   9.603   7.209   0.322 -0.3106 -1.0275 -1.5167
10719SOL    HW234475   9.526   7.079   0.329  1.3454 -1.9389  1.1398
10720SOL     OW34476   4.324   8.192   2.661  0.1696  0.2200  0.2091
10720SOL    HW134477   4.299   8.278   2.695 -1.3914  1.0110 -2.5721
10720SOL    HW234478   4.268   8.130   2.707  0.8772  0.7031  1.8040
10721SOL     OW34479   1.920   5.925   1.885 -0.0360 -0.1497  0.0458
10721SOL    HW134480   1.944   5.861   1.818 -0.5782 -0.5198  0.1988
10721SOL    HW234481   1.963   6.006   1.857 -0.4768 -0.2320 -0.8938
10722SOL     OW34482   0.463   3.799  10.362 -0.0023  0.2668 -0.3129
10722SOL    HW134483   0.396   3.841  10.417 -0.9006  0.7796 -1.7238
10722SOL    HW234484   0.500   3.871  10.311 -0.0213 -0.3255 -1.1948
10723SOL     OW34485   3.898   4.388  10.375 -0.1941 -0.0143  0.1327
10723SOL    HW134486   3.843   4.350  10.306 -1.2027 -1.9072  1.8871
10723SOL    HW234487   3.977   4.333  10.375 -0.5654 -0.5806  0.9906
10724SOL     OW34488   1.561   5.094   0.279 -0.3037  0.0432 -0.3091
10724SOL    HW134489   1.598   5.099   0.366  1.5890  0.7032 -1.1032
10724SOL    HW234490   1.614   5.029   0.233 -1.4047 -0.4587 -0.9304
10725SOL     OW34491   3.292   0.765   7.994 -0.0337  0.3724  0.1427
10725SOL    HW134492   3.225   0.812   7.945  0.6696  1.1738 -0.0665
10725SOL    HW234493   3.356   0.738   7.928  0.2834  0.3567  0.4534
10726SOL     OW34494   9.817   9.790   8.942  0.0767  0.2945 -0.4975
10726SOL    HW134495   9.832   9.705   8.900 -1.8670 -0.0334 -0.6328
10726SOL    HW234496   9.796   9.768   9.033  1.8230  0.8350  0.0821
10727SOL     OW34497  10.163   9.828   8.586 -0.2143 -0.1443  0.3162
10727SOL    HW134498  10.176   9.891   8.656 -1.1943  0.7759 -0.2887
10727SOL    HW234499  10.225   9.854   8.518 -0.4488  0.0375  0.1662
10728SOL     OW34500   6.158   4.423   8.533  0.3253 -0.6663  0.3319
10728SOL    HW134501   6.082   4.367   8.516  0.3840 -0.1823 -1.8801
10728SOL    HW234502   6.180   4.406   8.624 -1.3859 -2.1000  0.5496
10729SOL     OW34503   6.418   1.937  10.293  0.5698  0.0127 -0.2524
10729SOL    HW134504   6.478   1.984  10.351 -1.5771  1.4756  0.9134
10729SOL    HW234505   6.473   1.907  10.221  3.1457 -0.8102  1.8812
10730SOL     OW34506   6.429   3.516   7.645 -0.0311 -0.0319  0.1940
10730SOL    HW134507   6.345   3.562   7.646  0.4465  0.9228  2.2800
10730SOL    HW234508   6.482   3.564   7.582 -0.5800  0.2599 -0.0501
10731SOL     OW34509   6.624   8.029   4.267 -0.2657  0.1299  0.4900
10731SOL    HW134510   6.628   7.936   4.290 -0.3976 -0.3306 -1.2136
10731SOL    HW234511   6.531   8.051   4.272 -0.4111 -0.2217 -0.4764
10732SOL     OW34512   9.155   0.780   0.281  0.1992  0.1904 -0.0048
10732SOL    HW134513   9.061   0.779   0.301  0.0314  1.6094 -0.5968
10732SOL    HW234514   9.159   0.807   0.189  1.1523 -0.9898 -0.3331
10733SOL     OW34515   4.378   4.661   9.458 -0.2171 -0.7702  0.1153
10733SOL    HW134516   4.389   4.739   9.404  1.2388 -0.0201  1.4113
10733SOL    HW234517   4.406   4.589   9.401 -1.6546 -0.4102 -1.1228
10734SOL     OW34518   3.435   0.278   4.363  0.5349 -0.2397 -0.1036
10734SOL    HW134519   3.498   0.348   4.347 -0.0449 -0.1435 -2.3260
10734SOL    HW234520   3.358   0.323   4.397  0.5066  0.0898 -0.5912
10735SOL     OW34521   7.295   7.191   4.081 -0.4689 -0.5185  0.0260
10735SOL    HW134522   7.227   7.256   4.065 -1.6226 -1.6262  0.2923
10735SOL    HW234523   7.251   7.121   4.129  0.8388 -1.3101  0.1266
10736SOL     OW34524   2.894   2.606   0.965  0.1811  0.2427 -0.2404
10736SOL    HW134525   2.871   2.695   0.937  3.3045  0.6295 -1.9738
10736SOL    HW234526   2.951   2.619   1.041  2.8895  0.0030 -2.1076
10737SOL     OW34527   6.510   0.035   2.145 -0.0260 -0.3442 -0.5793
10737SOL    HW134528   6.573   0.082   2.200  0.0790 -0.6455 -0.4370
10737SOL    HW234529   6.457   0.103   2.105 -0.5756 -0.1350  0.4634
10738SOL     OW34530   3.205   0.885   3.334 -0.0654  0.4667  0.0597
10738SOL    HW134531   3.232   0.944   3.404  0.7373 -1.4564  1.4405
10738SOL    HW234532   3.188   0.802   3.378  0.2908 -0.7547 -2.0018
10739SOL     OW34533   1.330   1.046   0.812  0.9812 -0.4931 -0.5356
10739SOL    HW134534   1.320   0.998   0.895 -1.2793 -0.0838 -0.4994
10739SOL    HW234535   1.244   1.085   0.797  2.2603  2.2264 -1.4086
10740SOL     OW34536   3.383  10.509   4.371 -0.3050 -0.0463  0.3648
10740SOL    HW134537   3.382  10.562   4.451  0.7838 -1.7725  1.6076
10740SOL    HW234538   3.473  10.476   4.366 -0.8905 -1.5913 -0.4362
10741SOL     OW34539   8.148   7.894   3.297 -0.8750  0.1828  0.5857
10741SOL    HW134540   8.176   7.804   3.282 -2.1173  0.0960 -1.5441
10741SOL    HW234541   8.075   7.887   3.359 -0.2126 -0.1288  1.3541
10742SOL     OW34542   1.920   0.465   0.081  0.0895  0.1650 -0.6812
10742SOL    HW134543   1.920   0.500  -0.008  1.2070 -0.1544 -0.8149
10742SOL    HW234544   1.998   0.410   0.086  0.1967  0.3966  0.5799
10743SOL     OW34545   5.443   3.954   0.337  0.5158 -0.2809  0.3442
10743SOL    HW134546   5.514   3.991   0.285 -0.2667  0.7938  0.0053
10743SOL    HW234547   5.366   4.003   0.310 -0.1982 -0.8151  1.3539
10744SOL     OW34548   3.822   8.734   4.130 -0.3531 -0.0567  0.1602
10744SOL    HW134549   3.777   8.813   4.099 -1.4594 -0.4470  0.6936
10744SOL    HW234550   3.758   8.664   4.116  0.7001 -0.8971 -0.5079
10745SOL     OW34551   8.275   6.109   0.640 -0.3472  0.2776 -0.0298
10745SOL    HW134552   8.184   6.115   0.611 -0.1895  1.5098 -0.3298
10745SOL    HW234553   8.321   6.174   0.586  0.6682 -0.1895  0.2640
10746SOL     OW34554   7.869   8.724   4.954 -0.1094  0.3659 -0.4025
10746SOL    HW134555   7.846   8.736   4.862  0.2689 -0.6404 -0.6449
10746SOL    HW234556   7.794   8.679   4.991 -0.1170  0.4652 -0.2973
10747SOL     OW34557   6.894   5.076   5.493  0.0658  0.1695  0.0650
10747SOL    HW134558   6.829   5.059   5.561 -0.8283  2.2499 -0.1947
10747SOL    HW234559   6.975   5.097   5.541 -0.8055  2.6111  0.6109
10748SOL     OW34560   3.092   4.415   3.631 -0.0846  0.7064  0.2721
10748SOL    HW134561   3.079   4.412   3.726  1.1026  1.9246  0.5200
10748SOL    HW234562   3.176   4.462   3.621  0.0393  0.1748 -1.3588
10749SOL     OW34563   9.283   5.342   1.315  0.7057  0.1809  0.4910
10749SOL    HW134564   9.224   5.283   1.267 -0.4682 -0.0684  2.1411
10749SOL    HW234565   9.225   5.410   1.349  1.7353  1.1547  0.3137
10750SOL     OW34566   8.180   8.887  10.281 -0.4447 -0.0682 -0.2779
10750SOL    HW134567   8.085   8.902  10.283 -0.2832  1.9491 -2.4078
10750SOL    HW234568   8.210   8.935  10.204  2.4981  0.4128  1.0155
10751SOL     OW34569   4.953   6.979   5.277 -0.0606 -0.1630 -0.0303
10751SOL    HW134570   5.021   6.924   5.239  0.3012 -0.1718  0.6098
10751SOL    HW234571   4.885   6.984   5.210  0.6260 -0.0555 -0.7230
10752SOL     OW34572   0.325   7.225   7.532  0.3848 -0.1434 -0.0503
10752SOL    HW134573   0.369   7.291   7.585 -0.9064 -0.5979  1.6783
10752SOL    HW234574   0.330   7.259   7.442  2.0928  0.9543  0.4170
10753SOL     OW34575   6.665   7.904   7.386 -0.5383 -0.3764 -0.4581
10753SOL    HW134576   6.753   7.901   7.423 -0.9192  0.1195  0.5240
10753SOL    HW234577   6.656   7.823   7.336  0.3101 -0.6397 -0.1867
10754SOL     OW34578  10.169   9.445   7.811  0.9418 -0.1448  0.4221
10754SOL    HW134579  10.190   9.463   7.903  1.9369 -0.7629  0.3293
10754SOL    HW234580  10.249   9.407   7.775  0.3266 -0.5878 -0.5171
10755SOL     OW34581   9.592   3.772   1.197 -0.1071  0.0796 -0.1544
10755SOL    HW134582   9.516   3.718   1.220  0.9574 -1.0471  0.9316
10755SOL    HW234583   9.642   3.718   1.136  1.1042 -0.3321  1.1424
10756SOL     OW34584   7.517   4.280   6.579  0.0011  0.0799 -0.2322
10756SOL    HW134585   7.476   4.275   6.666  0.9052 -0.2348  0.1871
10756SOL    HW234586   7.475   4.210   6.529 -0.6418  0.3690 -0.1007
10757SOL     OW34587   9.747   9.497   9.014  0.0734 -0.1513 -0.4106
10757SOL    HW134588   9.825   9.445   9.036  0.1227  0.2525  0.4329
10757SOL    HW234589   9.724   9.470   8.926  1.3485 -0.0697 -0.7922
10758SOL     OW34590   7.964   8.099   3.446 -0.3084  0.7921 -0.1666
10758SOL    HW134591   7.906   8.031   3.481  0.7984 -1.0834 -1.7843
10758SOL    HW234592   7.937   8.178   3.492  0.2883 -1.1608  4.1299
10759SOL     OW34593   9.873   7.786   5.497 -0.0273 -0.2521  0.1349
10759SOL    HW134594   9.800   7.731   5.525 -1.1306  1.6281  1.1340
10759SOL    HW234595   9.949   7.727   5.499 -1.3654 -2.1073 -0.3561
10760SOL     OW34596   7.225   6.699   2.466  0.6644  0.1578 -0.5094
10760SOL    HW134597   7.203   6.777   2.415  2.0419  0.7713 -0.2129
10760SOL    HW234598   7.232   6.629   2.401  2.0388  0.8541 -1.1629
10761SOL     OW34599   7.911   4.302   8.698 -0.3325 -0.3868 -0.4938
10761SOL    HW134600   7.840   4.249   8.661 -0.6926  0.3011 -0.7874
10761SOL    HW234601   7.869   4.381   8.729  0.3914  0.3256 -1.2651
10762SOL     OW34602   2.479  10.580   7.252 -0.2278  0.0951 -0.4848
10762SOL    HW134603   2.568  10.615   7.264 -0.1811 -0.3046  0.3955
10762SOL    HW234604   2.453  10.612   7.166 -0.4778  2.9038  0.5116
10763SOL     OW34605   2.720  10.288   2.487 -0.1525  0.3584  0.6357
10763SOL    HW134606   2.626  10.294   2.471 -0.2813  0.3734  1.3604
10763SOL    HW234607   2.759  10.292   2.400 -0.8948 -1.0612  0.2005
10764SOL     OW34608   7.449  10.280   0.186 -0.0156 -0.0238  0.1792
10764SOL    HW134609   7.366  10.326   0.196 -0.1615 -0.4503  1.0576
10764SOL    HW234610   7.500  10.306   0.263  0.5194 -0.0612 -0.1584
10765SOL     OW34611   6.593   4.023   2.982 -0.7724  0.1835 -0.2110
10765SOL    HW134612   6.598   4.101   2.928 -1.8846  0.6726  0.3536
10765SOL    HW234613   6.507   3.985   2.962 -0.9498  0.0466  0.7598
10766SOL     OW34614   1.995   5.956   5.717  0.0593  0.3453  0.0679
10766SOL    HW134615   1.975   6.008   5.639 -1.5556  1.1191  0.9382
10766SOL    HW234616   1.930   5.886   5.716  0.5655 -0.1289  0.2759
10767SOL     OW34617   5.260   3.020   7.257 -0.5206 -0.3570  0.0582
10767SOL    HW134618   5.249   3.074   7.179  0.2384  0.8498  0.7419
10767SOL    HW234619   5.218   3.070   7.327  1.3886  0.0768  0.9719
10768SOL     OW34620   9.601   7.762   8.726  0.0308 -0.6670  0.1869
10768SOL    HW134621   9.621   7.845   8.683  1.1189 -0.8217  0.3585
10768SOL    HW234622   9.529   7.782   8.786 -0.4963 -0.1218 -0.6163
10769SOL     OW34623   4.412   2.092   7.539  0.2452 -0.2468 -0.4309
10769SOL    HW134624   4.342   2.046   7.493 -0.1610 -1.1337  0.9958
10769SOL    HW234625   4.377   2.108   7.626  0.8084  1.8216 -0.5293
10770SOL     OW34626  10.361  10.391   9.656 -0.4186  0.2774 -0.0669
10770SOL    HW134627  10.283  10.336   9.661 -0.4830  0.4222  0.6452
10770SOL    HW234628  10.332  10.470   9.612 -0.5020  0.0424 -0.4387
10771SOL     OW34629   4.052   1.195   9.489 -0.1341  0.0495 -0.4207
10771SOL    HW134630   4.033   1.288   9.476  0.6727 -0.0302 -2.4839
10771SOL    HW234631   4.049   1.156   9.401 -2.6799 -2.3674  0.5991
10772SOL     OW34632   4.301   2.799   8.975  0.1821  0.1621 -0.4942
10772SOL    HW134633   4.257   2.825   8.895  1.6032  0.9274 -1.0656
10772SOL    HW234634   4.373   2.743   8.945 -0.9698 -1.9963  0.4824
10773SOL     OW34635   2.609   7.412   1.299  0.5592 -1.1100 -0.0213
10773SOL    HW134636   2.531   7.423   1.245  1.6288  0.0713 -1.4285
10773SOL    HW234637   2.659   7.493   1.285  0.8186 -0.6385  2.9309
10774SOL     OW34638   8.964   0.232   4.393  0.3654  0.2114 -0.0600
10774SOL    HW134639   9.022   0.307   4.381  1.8828 -1.0996 -1.3356
10774SOL    HW234640   8.964   0.188   4.308 -2.1128 -0.1603  0.0406
10775SOL     OW34641   8.798   4.420   9.154 -0.2439  0.1354  0.2920
10775SOL    HW134642   8.832   4.478   9.086 -2.1002  0.2705 -0.5585
10775SOL    HW234643   8.828   4.333   9.128 -1.7836  0.0432 -1.2915
10776SOL     OW34644   4.515   8.310   4.241 -0.3212 -0.4286  0.1946
10776SOL    HW134645   4.601   8.316   4.200  0.6898 -3.9744  1.3896
10776SOL    HW234646   4.463   8.378   4.199  2.1818 -0.1367 -2.7714
10777SOL     OW34647   3.670   5.740   1.265  0.4500  0.1328  0.5143
10777SOL    HW134648   3.736   5.674   1.286  2.5619  1.8242 -0.3864
10777SOL    HW234649   3.597   5.691   1.228  1.9068 -1.7074 -0.0378
10778SOL     OW34650   7.245   1.850   0.112  0.2369  0.3261  0.2779
10778SOL    HW134651   7.321   1.796   0.135 -0.0251  0.0156  0.4048
10778SOL    HW234652   7.250   1.857   0.016 -0.6516 -1.3137  0.0670
10779SOL     OW34653   1.603  10.178   3.881  0.1042 -0.1842  0.8798
10779SOL    HW134654   1.654  10.167   3.962  1.9847  0.1556 -0.1852
10779SOL    HW234655   1.634  10.107   3.824 -0.4128  0.2161  0.0933
10780SOL     OW34656   1.950   0.183   2.361 -0.0824  0.0546  0.4137
10780SOL    HW134657   2.006   0.190   2.284  0.3373  0.7167  0.7695
10780SOL    HW234658   1.997   0.230   2.430  0.0955 -1.5091  1.4013
10781SOL     OW34659   7.703   4.816   8.783 -0.1376 -0.2049  0.3956
10781SOL    HW134660   7.609   4.803   8.793 -0.1068 -0.2373  0.6670
10781SOL    HW234661   7.722   4.787   8.694 -0.8485  2.5226 -0.7300
10782SOL     OW34662   2.036  10.199   8.840  0.3679 -0.1014 -0.0892
10782SOL    HW134663   2.102  10.140   8.804 -0.1410 -0.6850 -0.0826
10782SOL    HW234664   1.952  10.166   8.806  0.1543  1.2817 -0.9890
10783SOL     OW34665   3.827   6.633   2.134  0.2460 -0.2548 -0.0262
10783SOL    HW134666   3.836   6.689   2.211  1.2032 -0.9092  0.3573
10783SOL    HW234667   3.737   6.648   2.104  0.1261  0.6223  0.7340
10784SOL     OW34668   9.865   6.315   6.100  0.2582 -0.5543 -0.3035
10784SOL    HW134669   9.915   6.234   6.109  1.0648 -0.5094 -3.2930
10784SOL    HW234670   9.928   6.379   6.068 -1.1008  0.2686 -1.4639
10785SOL     OW34671   4.632   7.197   0.330  0.0191 -0.5214 -0.3421
10785SOL    HW134672   4.619   7.215   0.424 -0.7448 -2.3598 -0.0447
10785SOL    HW234673   4.702   7.257   0.304  1.5199 -1.1639  1.8414
10786SOL     OW34674  10.434   1.732   7.113  0.4222 -0.0466  0.0114
10786SOL    HW134675  10.420   1.755   7.205 -1.6447  2.7462 -0.8607
10786SOL    HW234676  10.493   1.800   7.080  0.6412 -0.6561 -0.8937
10787SOL     OW34677   6.472  10.208   2.393 -0.0918  0.2830  0.6656
10787SOL    HW134678   6.434  10.280   2.343 -0.2800  1.1420  1.9848
10787SOL    HW234679   6.431  10.215   2.479  2.0019  0.3771  1.7156
10788SOL     OW34680   2.877   0.190   6.463  0.6270 -0.0984 -0.6713
10788SOL    HW134681   2.844   0.196   6.552 -0.0162 -0.8278 -0.8514
10788SOL    HW234682   2.970   0.215   6.470 -0.0335  2.4615 -0.2407
10789SOL     OW34683  10.432   7.161   5.097 -0.4676  0.3036 -0.0712
10789SOL    HW134684  10.524   7.186   5.106 -0.7072  1.6811 -0.9897
10789SOL    HW234685  10.420   7.088   5.157  0.9890  0.7302  0.7755
10790SOL     OW34686   2.541   2.153   0.607  0.1617 -0.5760  0.1864
10790SOL    HW134687   2.475   2.120   0.546 -0.3204 -0.7453  0.7908
10790SOL    HW234688   2.596   2.210   0.554 -1.0347  0.3177 -0.1306
10791SOL     OW34689   1.875   8.219   1.427  0.3071  0.4527 -0.3349
10791SOL    HW134690   1.831   8.245   1.508  0.2007  0.8398 -0.5162
10791SOL    HW234691   1.942   8.157   1.455  1.8143  2.2875  0.3471
10792SOL     OW34692   6.749   0.472   4.248 -0.2516  0.6338 -0.1571
10792SOL    HW134693   6.678   0.413   4.224 -0.1168  0.6001 -0.4861
10792SOL    HW234694   6.762   0.459   4.342 -0.8877  0.8713 -0.0332
10793SOL     OW34695   5.976   2.606   8.022  0.0004 -0.2605  0.1925
10793SOL    HW134696   5.932   2.668   8.080 -0.3590 -0.1474 -0.1986
10793SOL    HW234697   5.908   2.544   7.996  0.5477 -1.3693  1.2943
10794SOL     OW34698   7.242   3.768   7.772 -0.4126  0.0134  0.2107
10794SOL    HW134699   7.172   3.832   7.785  1.1453  1.7351  0.5686
10794SOL    HW234700   7.292   3.803   7.698 -0.3350 -1.5979 -0.5466
10795SOL     OW34701  10.416   1.677   0.855 -0.3746 -0.3320 -0.5200
10795SOL    HW134702  10.456   1.723   0.928  0.8069 -1.5427 -0.3681
10795SOL    HW234703  10.346   1.736   0.824  0.1842  0.9084  0.5153
10796SOL     OW34704   4.898   7.809   3.933 -0.1980 -0.2637  0.4010
10796SOL    HW134705   4.867   7.775   3.849 -0.4700  3.0957 -0.9784
10796SOL    HW234706   4.820   7.806   3.989 -1.2133  1.3852 -0.8333
10797SOL     OW34707   9.928   0.410   1.754  0.0241 -1.0631 -0.0416
10797SOL    HW134708   9.953   0.432   1.664  1.5874  0.8138  0.7974
10797SOL    HW234709   9.868   0.480   1.780  3.2313  1.2029  1.8775
10798SOL     OW34710   8.443   7.541   7.865  0.1458 -0.4226 -0.6488
10798SOL    HW134711   8.497   7.508   7.937  0.9101  0.6779 -0.7048
10798SOL    HW234712   8.353   7.530   7.897  0.4266  3.2419  2.0972
10799SOL     OW34713   8.510   7.137   1.928  0.4399  0.4928  0.2978
10799SOL    HW134714   8.464   7.217   1.901 -1.9311  0.2299  2.9895
10799SOL    HW234715   8.449   7.095   1.989  1.8669 -3.0976 -0.5484
10800SOL     OW34716   4.171   8.398   4.174 -0.1095 -0.5020 -0.5547
10800SOL    HW134717   4.137   8.476   4.218 -0.2672 -0.8796 -0.0042
10800SOL    HW234718   4.094   8.348   4.149 -0.0238 -0.2839 -1.2928
10801SOL     OW34719   7.827   9.225   9.183 -0.0312 -0.3638 -0.2536
10801SOL    HW134720   7.843   9.279   9.105 -0.2883 -0.7521 -0.5805
10801SOL    HW234721   7.734   9.202   9.178 -0.4804  1.0137  1.0798
10802SOL     OW34722   5.958   9.566   7.677  0.0992 -0.0796  0.5188
10802SOL    HW134723   6.012   9.493   7.645  2.1185  0.8446  1.6268
10802SOL    HW234724   5.883   9.523   7.718  0.0060 -1.4287 -0.9400
10803SOL     OW34725   0.338   4.573   4.645 -0.0316  0.5214 -0.0267
10803SOL    HW134726   0.315   4.639   4.580 -1.8568  0.4763  0.5170
10803SOL    HW234727   0.429   4.592   4.668  0.1115  1.5746 -1.3451
10804SOL     OW34728   6.120   6.805   5.686  1.1383 -0.1921  0.5632
10804SOL    HW134729   6.149   6.720   5.655  0.5557 -0.4798  0.7868
10804SOL    HW234730   6.035   6.818   5.645  1.5379  0.6103 -0.0374
10805SOL     OW34731   1.401   6.570   7.826 -0.0583  0.0114  0.2858
10805SOL    HW134732   1.341   6.499   7.803  0.3739  0.4309 -2.5002
10805SOL    HW234733   1.365   6.647   7.782  0.5683  1.0902  1.6065
10806SOL     OW34734   7.678   5.884   2.972  0.8102  0.2437  0.1125
10806SOL    HW134735   7.620   5.936   3.027  1.6450  0.7387  0.5450
10806SOL    HW234736   7.643   5.894   2.884  0.2001  0.4741  0.3771
10807SOL     OW34737   3.571   7.013   3.838 -0.2258  0.2430  0.7968
10807SOL    HW134738   3.601   7.021   3.928 -1.3000  0.7968  1.1195
10807SOL    HW234739   3.500   6.949   3.841 -0.2900  0.2869  0.3505
10808SOL     OW34740   8.342   5.438   7.526  0.1852  0.1069  0.0327
10808SOL    HW134741   8.311   5.506   7.465  0.7765 -0.3999 -0.8527
10808SOL    HW234742   8.436   5.436   7.512  0.1803 -0.8438  0.1068
10809SOL     OW34743   5.096   2.434   5.459 -0.4155  0.1331 -0.4140
10809SOL    HW134744   5.135   2.508   5.504  0.4878 -0.9221  0.6237
10809SOL    HW234745   5.004   2.457   5.449 -0.4321  0.8405  1.0935
10810SOL     OW34746   2.766   7.924  10.018  0.9536  0.1971 -0.0437
10810SOL    HW134747   2.819   8.001   9.996 -0.3544  1.1495  0.0748
10810SOL    HW234748   2.719   7.904   9.938 -1.1802  1.5453  0.8031
10811SOL     OW34749   5.101   0.825   3.519  0.9711  0.1392  0.8609
10811SOL    HW134750   5.088   0.894   3.584 -0.4878 -0.9855  1.8083
10811SOL    HW234751   5.043   0.850   3.447  1.3666  0.5363  0.6773
10812SOL     OW34752   6.280   1.778   0.509  0.2464  0.4683  0.0923
10812SOL    HW134753   6.240   1.703   0.552  0.7958  0.3338  0.3623
10812SOL    HW234754   6.370   1.780   0.540 -0.0514  1.8967  0.9610
10813SOL     OW34755   7.639   8.819   0.052  0.0042 -0.1774 -0.0619
10813SOL    HW134756   7.631   8.855  -0.036 -0.8074  0.3756  0.2257
10813SOL    HW234757   7.730   8.789   0.058 -0.4110 -1.8942 -1.7095
10814SOL     OW34758   2.800   7.153   2.272 -0.0623 -0.0439  0.2688
10814SOL    HW134759   2.747   7.138   2.350 -1.2668 -0.0009 -0.5190
10814SOL    HW234760   2.872   7.091   2.279 -1.4395 -1.6996  0.2534
10815SOL     OW34761   8.712   9.880   8.191  0.2194  0.2897 -0.0838
10815SOL    HW134762   8.730   9.968   8.158  0.6203  0.6296  0.9963
10815SOL    HW234763   8.629   9.856   8.151  0.8691  0.5122 -1.6371
10816SOL     OW34764   3.395   2.214   1.890  0.3298  0.4181  0.3642
10816SOL    HW134765   3.449   2.225   1.811  1.5260  1.8332  1.3314
10816SOL    HW234766   3.328   2.282   1.884  0.5641  0.6795  0.6685
10817SOL     OW34767   5.819   1.980   3.028  0.6335  0.2402 -0.4078
10817SOL    HW134768   5.846   1.889   3.011  1.6687 -0.2584  2.9696
10817SOL    HW234769   5.884   2.033   2.982  0.3597 -0.7000 -1.9594
10818SOL     OW34770   6.320   8.659   5.493 -0.5267  0.4230 -0.3845
10818SOL    HW134771   6.314   8.584   5.433  0.9888 -0.3622  0.4000
10818SOL    HW234772   6.310   8.622   5.580  1.9101  0.8217  0.1399
10819SOL     OW34773   6.214   7.747   0.385  0.3000  0.1954 -0.3591
10819SOL    HW134774   6.300   7.708   0.372 -0.1211 -0.6065 -0.8283
10819SOL    HW234775   6.185   7.715   0.470 -0.6201 -1.6993 -1.3185
10820SOL     OW34776   8.537   0.510   1.781  0.4618  0.4128  0.1836
10820SOL    HW134777   8.452   0.498   1.739  0.4407 -4.4213  1.0201
10820SOL    HW234778   8.592   0.547   1.713 -1.5811  0.7847 -1.3673
10821SOL     OW34779   8.188   4.019   2.540  0.4301  0.1696  0.0182
10821SOL    HW134780   8.214   3.992   2.452 -0.2329  1.0600 -0.4594
10821SOL    HW234781   8.117   4.081   2.526  1.7174  1.9647  1.0841
10822SOL     OW34782   2.842   9.334   4.806  0.1582  0.1077  0.6013
10822SOL    HW134783   2.851   9.255   4.752 -2.4824  0.7441 -0.9264
10822SOL    HW234784   2.811   9.303   4.890  0.0028 -0.5571  0.3010
10823SOL     OW34785  10.236   8.974  10.530 -0.4544  0.3129 -0.0126
10823SOL    HW134786  10.326   9.006  10.535 -0.6464  0.7205  1.3884
10823SOL    HW234787  10.220   8.935  10.616 -1.8102  0.8099 -0.0151
10824SOL     OW34788   7.619   4.608   7.617  0.0189  0.4943  0.1110
10824SOL    HW134789   7.706   4.580   7.643 -0.1030  0.3295  0.3469
10824SOL    HW234790   7.604   4.569   7.531 -0.2307 -0.3302  0.5257
10825SOL     OW34791   7.054  10.577   8.224  0.5452 -0.5123  0.0492
10825SOL    HW134792   6.970  10.617   8.199  0.9174  0.2215 -0.0448
10825SOL    HW234793   7.092  10.640   8.286 -0.8091 -2.6724  3.3978
10826SOL     OW34794   1.775   3.966   3.521  0.1655 -0.1388 -0.3792
10826SOL    HW134795   1.797   3.966   3.427  0.3062  1.6154 -0.3901
10826SOL    HW234796   1.706   4.032   3.529  0.4652  0.0571  0.8083
10827SOL     OW34797   1.516   9.640   6.547  0.6801 -0.2852  0.1289
10827SOL    HW134798   1.449   9.705   6.568  0.7652 -1.3440  5.0742
10827SOL    HW234799   1.467   9.567   6.508 -0.1753  0.8164 -0.9239
10828SOL     OW34800   0.702   4.426   5.989 -0.1898  0.2725 -0.8009
10828SOL    HW134801   0.778   4.474   6.022 -1.6905  2.4209 -0.2386
10828SOL    HW234802   0.629   4.459   6.041 -1.8504 -0.0726 -2.8029
10829SOL     OW34803  10.542   5.887   7.567 -0.6830 -0.1607 -0.0987
10829SOL    HW134804  10.612   5.949   7.584 -0.8652 -0.1931  0.8287
10829SOL    HW234805  10.586   5.807   7.538 -0.3643 -0.0755  0.1558
10830SOL     OW34806   3.346   3.505   7.480  0.7099 -0.3695  0.5792
10830SOL    HW134807   3.339   3.589   7.525  1.5628  0.8040 -1.3436
10830SOL    HW234808   3.440   3.488   7.474  0.6104 -0.6635 -0.3791
10831SOL     OW34809   8.969   0.393   2.755  0.0409 -0.2351 -0.6823
10831SOL    HW134810   9.043   0.409   2.696  1.6901 -0.6551  1.1666
10831SOL    HW234811   8.958   0.477   2.801  0.7002 -0.7188  0.4121
10832SOL     OW34812   8.838   8.440   1.286  0.0888 -1.2128 -0.4429
10832SOL    HW134813   8.761   8.448   1.230 -0.2257  0.4402  0.1994
10832SOL    HW234814   8.803   8.425   1.374  0.4894 -0.3400 -0.1289
10833SOL     OW34815   2.033   7.647   8.107  0.0179 -0.9304 -0.1918
10833SOL    HW134816   2.005   7.644   8.198 -0.3170 -1.3257 -0.3009
10833SOL    HW234817   1.957   7.683   8.060  1.1794  2.1699  0.0358
10834SOL     OW34818   0.347   2.296   0.871  0.1448  0.0262  0.0247
10834SOL    HW134819   0.274   2.252   0.828  1.0112 -1.4040 -0.0597
10834SOL    HW234820   0.308   2.372   0.914 -1.1404  0.0840 -1.1893
10835SOL     OW34821   2.136   7.632   0.499 -0.0244 -0.5987 -0.1261
10835SOL    HW134822   2.208   7.660   0.443  0.7637 -0.3774  0.9816
10835SOL    HW234823   2.162   7.545   0.530 -0.7114 -0.9553 -0.5090
10836SOL     OW34824   4.791  10.208   4.725  0.0455 -0.0707 -0.1101
10836SOL    HW134825   4.726  10.198   4.656  0.8070  0.5148 -0.9347
10836SOL    HW234826   4.780  10.298   4.756 -0.2155 -0.2935  0.4543
10837SOL     OW34827   1.841   9.414   4.808 -0.2706 -0.3436  0.3983
10837SOL    HW134828   1.893   9.363   4.871  1.5741  0.1366 -0.6469
10837SOL    HW234829   1.826   9.498   4.852  2.0069  0.4244 -0.1356
10838SOL     OW34830   8.206   4.463   4.272 -0.2623  0.4270  0.1671
10838SOL    HW134831   8.278   4.504   4.225 -0.2080 -1.4235 -1.5003
10838SOL    HW234832   8.127   4.492   4.225 -0.3755  0.2245  0.2314
10839SOL     OW34833   7.118   8.875   5.663 -0.1712 -0.3576 -0.3945
10839SOL    HW134834   7.097   8.849   5.752  1.0057  1.7696  0.6054
10839SOL    HW234835   7.056   8.828   5.608 -0.8341 -1.8476  1.5231
10840SOL     OW34836   9.431   4.322   7.399  0.2415  0.1178  0.1312
10840SOL    HW134837   9.500   4.325   7.333  0.1356 -2.1787 -0.1646
10840SOL    HW234838   9.399   4.231   7.397 -0.9869  0.4370  2.1008
10841SOL     OW34839   3.954  10.049   6.881 -0.3714  0.2286  0.4643
10841SOL    HW134840   3.913  10.128   6.917 -0.5836 -0.0095  0.7413
10841SOL    HW234841   3.987  10.077   6.795 -1.1258  0.4140  0.2244
10842SOL     OW34842   5.979   5.585   0.848  0.5155  0.4767  0.3177
10842SOL    HW134843   6.030   5.662   0.877 -1.0107  1.7854 -0.3447
10842SOL    HW234844   5.937   5.554   0.928  0.5407  0.7960  0.4603
10843SOL     OW34845   9.059   3.566   0.228  0.0648  0.4598 -0.1509
10843SOL    HW134846   9.113   3.566   0.149  0.3333  0.0556  0.0286
10843SOL    HW234847   9.122   3.567   0.300 -0.1734  0.3420  0.0608
10844SOL     OW34848   5.532   6.659   6.438 -0.1451 -0.2460  0.0372
10844SOL    HW134849   5.492   6.574   6.420 -1.4647  0.9360 -3.4189
10844SOL    HW234850   5.621   6.637   6.466  0.6102 -2.8926 -3.6088
10845SOL     OW34851   4.378   0.443   5.872  0.4004 -0.5180 -0.0009
10845SOL    HW134852   4.372   0.352   5.843  1.3741 -0.5505 -0.1363
10845SOL    HW234853   4.287   0.469   5.887  0.0827 -1.3983 -0.3018
10846SOL     OW34854   2.833   1.322  10.473  0.8130 -0.0188 -0.7081
10846SOL    HW134855   2.759   1.307  10.414  1.6345  0.1780 -1.8281
10846SOL    HW234856   2.898   1.366  10.418  1.9572 -0.6524  0.1039
10847SOL     OW34857   2.052   5.836   1.670  0.4211  0.1052  0.3546
10847SOL    HW134858   1.981   5.799   1.617  0.4101 -1.2199  1.2439
10847SOL    HW234859   2.121   5.856   1.607  0.4252 -1.4682 -0.1813
10848SOL     OW34860   7.774   3.368   1.585 -0.5993 -0.0302  0.1542
10848SOL    HW134861   7.832   3.297   1.613  0.7076  1.1352  0.5757
10848SOL    HW234862   7.813   3.447   1.624 -0.7610  1.1983 -2.0144
10849SOL     OW34863   0.459   1.050   5.172  0.3123  0.0085  0.0319
10849SOL    HW134864   0.417   1.035   5.257 -0.3881 -1.8212 -0.5987
10849SOL    HW234865   0.471   1.145   5.168 -1.4263  0.3244  1.3287
10850SOL     OW34866   0.909   4.878   0.028 -0.0986 -0.2990 -0.0480
10850SOL    HW134867   0.909   4.786   0.004 -0.0297 -0.2903 -0.0828
10850SOL    HW234868   0.817   4.901   0.038 -0.0856 -0.6163  0.9090
10851SOL     OW34869   7.652   4.233   0.411  0.7768 -0.5897  0.6899
10851SOL    HW134870   7.705   4.312   0.399  0.4909 -0.3139  1.2216
10851SOL    HW234871   7.571   4.264   0.450 -0.1791 -0.8772 -0.9569
10852SOL     OW34872   0.745   9.028   9.111 -0.1186  0.2148  0.0869
10852SOL    HW134873   0.661   9.011   9.068 -0.0060 -1.5658  0.4707
10852SOL    HW234874   0.811   8.999   9.048  0.1151 -0.3084  0.5591
10853SOL     OW34875  10.320   3.845   1.423  0.4116 -0.0691  0.2919
10853SOL    HW134876  10.354   3.913   1.364  1.0756 -0.1211  0.6053
10853SOL    HW234877  10.243   3.811   1.378 -0.2601  1.2719  0.3836
10854SOL     OW34878  10.370   1.021   0.185 -0.4878 -0.4043 -0.2184
10854SOL    HW134879  10.300   0.968   0.222  0.1292 -1.0814  0.0252
10854SOL    HW234880  10.440   0.958   0.166  0.0304  0.2412 -0.5099
10855SOL     OW34881   5.205   7.101   1.311  0.2316  0.7424 -0.6857
10855SOL    HW134882   5.139   7.132   1.374 -0.9407  0.6714 -1.8451
10855SOL    HW234883   5.277   7.070   1.366 -1.1173 -0.1617  0.6643
10856SOL     OW34884  10.190  10.182   1.203  0.5816 -0.2455  0.3674
10856SOL    HW134885  10.285  10.178   1.211  0.4408 -1.4934  2.0610
10856SOL    HW234886  10.162  10.232   1.280 -0.2316 -2.1969  1.4242
10857SOL     OW34887   7.272   7.692   9.896  0.2544  0.0709 -0.3314
10857SOL    HW134888   7.253   7.690   9.989 -0.7461  0.0726 -0.5282
10857SOL    HW234889   7.345   7.631   9.885 -0.3450 -0.7825  0.2978
10858SOL     OW34890   1.110   2.227   1.065 -0.1035  0.0898  0.0060
10858SOL    HW134891   1.154   2.165   1.008  1.5225  1.4485 -0.2913
10858SOL    HW234892   1.154   2.218   1.149  1.4417  2.0309 -0.5043
10859SOL     OW34893   4.999   8.884   3.757 -0.1614 -0.1242  0.5200
10859SOL    HW134894   5.061   8.955   3.775 -1.5177  1.3034 -0.2513
10859SOL    HW234895   5.031   8.811   3.810  3.1741 -0.0447 -1.0655
10860SOL     OW34896   4.806   5.431   9.936  0.0280 -0.0742 -0.1213
10860SOL    HW134897   4.714   5.423   9.961  0.3069  0.2561  1.0410
10860SOL    HW234898   4.818   5.524   9.915 -0.1830 -0.3281 -1.4795
10861SOL     OW34899   8.727   0.277   5.077 -0.8303  0.3870  0.2048
10861SOL    HW134900   8.705   0.368   5.056  0.7944  0.3713 -1.9954
10861SOL    HW234901   8.822   0.272   5.066 -0.8058 -1.4517  0.8610
10862SOL     OW34902   5.178   8.759   8.758 -0.1146 -0.1958 -0.7124
10862SOL    HW134903   5.259   8.739   8.710 -0.8128 -0.5842 -1.7521
10862SOL    HW234904   5.170   8.854   8.753 -0.1402 -0.2254 -1.3112
10863SOL     OW34905   7.980   3.467   9.572 -0.5563 -0.5753 -0.0890
10863SOL    HW134906   7.955   3.429   9.488 -1.0553  0.1739 -0.2913
10863SOL    HW234907   7.899   3.505   9.606  0.1216  1.2531 -0.4140
10864SOL     OW34908   8.569   4.255   3.267  0.7958  0.3837  0.0028
10864SOL    HW134909   8.544   4.304   3.188 -0.5848 -1.2015 -0.6078
10864SOL    HW234910   8.599   4.323   3.328 -1.9610  2.1886 -0.4290
10865SOL     OW34911   0.177   4.111   4.755  0.6918  0.3163 -0.0298
10865SOL    HW134912   0.134   4.040   4.707  2.3485 -0.4291 -0.4707
10865SOL    HW234913   0.222   4.161   4.688  2.2203 -0.1572  0.6045
10866SOL     OW34914   7.268   8.016   2.274 -0.4499  0.4157 -0.0603
10866SOL    HW134915   7.344   7.978   2.230 -0.5332 -0.2081  0.3210
10866SOL    HW234916   7.302   8.095   2.318 -0.3481  0.9874 -1.1363
10867SOL     OW34917   1.135   4.397   6.290  0.1211 -0.1850 -0.0024
10867SOL    HW134918   1.210   4.403   6.230 -1.0330  2.1458 -1.3492
10867SOL    HW234919   1.168   4.433   6.372  1.3139 -2.0871  0.4190
10868SOL     OW34920   1.229   3.899   5.032  0.3504 -0.3676 -0.2157
10868SOL    HW134921   1.165   3.828   5.021  1.1802 -1.4423  1.4512
10868SOL    HW234922   1.272   3.879   5.115  1.6090  1.3304 -0.4191
10869SOL     OW34923   0.201   6.968  10.126 -0.0128 -0.2912 -0.2248
10869SOL    HW134924   0.170   6.877  10.121 -2.0853  0.4374 -1.7589
10869SOL    HW234925   0.263   6.968  10.199 -1.0753 -2.6149  0.7769
10870SOL     OW34926   6.491   5.271   8.905  0.1388 -0.1075 -0.2064
10870SOL    HW134927   6.545   5.233   8.975  0.6859  0.4550 -0.3131
10870SOL    HW234928   6.431   5.330   8.950  0.1345 -0.1479 -0.1593
10871SOL     OW34929   4.703   7.545   3.178 -0.4468  0.5205 -0.1963
10871SOL    HW134930   4.711   7.500   3.094 -0.3576  1.5075 -0.7339
10871SOL    HW234931   4.783   7.524   3.225 -0.6634 -0.3382 -0.2029
10872SOL     OW34932   2.860   6.041   6.628 -0.3189  0.5024 -1.0161
10872SOL    HW134933   2.811   6.067   6.550 -1.3748  0.8236 -0.2556
10872SOL    HW234934   2.811   6.077   6.701  0.5116 -0.0314 -0.1711
10873SOL     OW34935   2.347   2.855   5.239 -0.2314  0.3016  0.5691
10873SOL    HW134936   2.262   2.814   5.226 -1.0733  1.6408  1.5354
10873SOL    HW234937   2.344   2.888   5.329  2.1390 -1.4310  1.3721
10874SOL     OW34938  10.258   2.989   4.569 -0.2879  0.3399 -0.0852
10874SOL    HW134939  10.292   2.913   4.616 -0.4682 -1.2272 -2.2912
10874SOL    HW234940  10.335   3.030   4.530 -0.4423 -0.5573 -1.3929
10875SOL     OW34941   7.408   8.607   6.730 -0.0903  0.2509 -0.0839
10875SOL    HW134942   7.343   8.554   6.684 -1.1414  2.5027 -1.3961
10875SOL    HW234943   7.453   8.654   6.660  1.2154  0.6494  0.9806
10876SOL     OW34944   3.069   5.383   0.436 -0.1336 -0.5156  0.0193
10876SOL    HW134945   3.050   5.475   0.451 -0.4922 -0.3954 -1.1118
10876SOL    HW234946   3.023   5.337   0.506  0.3378  0.1755  0.7941
10877SOL     OW34947   9.817   6.542   8.456  0.4450  0.0862 -0.3084
10877SOL    HW134948   9.858   6.621   8.491 -1.1353  0.5088  0.7332
10877SOL    HW234949   9.877   6.511   8.389  0.2398  3.3449 -2.2615
10878SOL     OW34950   0.938   5.752   2.487 -0.0251  0.4228  0.1517
10878SOL    HW134951   0.898   5.778   2.570 -0.0894  1.5513 -0.2198
10878SOL    HW234952   1.004   5.820   2.470  0.0997  0.1115 -0.6385
10879SOL     OW34953   4.178   9.026   6.713 -0.0568 -0.5997 -0.4794
10879SOL    HW134954   4.187   8.989   6.801  0.4239 -1.2783 -0.8030
10879SOL    HW234955   4.268   9.029   6.679  0.0510  1.6337 -0.1802
10880SOL     OW34956   3.455   6.798   9.908 -0.1941  0.4292  0.0792
10880SOL    HW134957   3.376   6.847   9.933  0.5423  2.3088 -1.0294
10880SOL    HW234958   3.468   6.819   9.815  0.3620 -1.6880 -0.3748
10881SOL     OW34959   2.933   5.019   2.322 -0.2647  0.0291  0.7258
10881SOL    HW134960   2.895   4.934   2.346 -1.3863  0.3506  0.1442
10881SOL    HW234961   2.969   5.005   2.235  1.4736 -0.4162  1.4753
10882SOL     OW34962   3.393   5.891   6.379 -0.4097 -0.5141 -0.1197
10882SOL    HW134963   3.461   5.878   6.445  1.9096 -0.9475 -2.4375
10882SOL    HW234964   3.423   5.840   6.304 -1.7928  1.6192 -2.2497
10883SOL     OW34965   7.452   1.742   9.967  0.3637 -0.5264 -0.3543
10883SOL    HW134966   7.480   1.833   9.979  0.2653 -0.7947  2.7933
10883SOL    HW234967   7.523   1.690  10.004 -0.7953 -1.5667  0.5075
10884SOL     OW34968   1.498   8.109   3.180  0.1917 -0.0559 -0.2595
10884SOL    HW134969   1.440   8.076   3.248  0.4222  1.2204  0.5847
10884SOL    HW234970   1.573   8.146   3.227  0.8438 -0.0550 -1.2532
10885SOL     OW34971   9.764   2.419   9.957 -0.5648 -0.0597 -0.3735
10885SOL    HW134972   9.728   2.414   9.869  0.0942 -0.1861 -0.6445
10885SOL    HW234973   9.846   2.467   9.947  0.2108 -1.2558 -0.0739
10886SOL     OW34974   5.398   5.954   3.748 -0.0562 -0.7664 -0.1580
10886SOL    HW134975   5.406   5.895   3.674 -1.0934 -1.2750  0.1323
10886SOL    HW234976   5.406   6.042   3.710 -0.2131 -1.0337 -0.8080
10887SOL     OW34977  10.028   1.621   9.269 -0.2326  0.2030  0.1464
10887SOL    HW134978  10.000   1.540   9.227  1.2915 -0.1361 -0.2769
10887SOL    HW234979   9.950   1.653   9.314 -0.8903 -1.4365  0.2365
10888SOL     OW34980   8.455   7.665   2.659 -0.2828 -0.7537 -0.5108
10888SOL    HW134981   8.489   7.754   2.659 -2.6335  0.2439  1.0692
10888SOL    HW234982   8.382   7.667   2.598  0.9696 -2.2703 -2.1864
10889SOL     OW34983   3.312   3.640   4.692 -0.2866 -0.7222  0.1702
10889SOL    HW134984   3.284   3.669   4.605  0.2070  0.7313  0.4684
10889SOL    HW234985   3.292   3.713   4.750  1.3498 -0.8047  0.8976
10890SOL     OW34986   0.830   5.388   2.275  0.4105  0.1147  0.1550
10890SOL    HW134987   0.906   5.348   2.235 -0.4090  0.3965 -1.8052
10890SOL    HW234988   0.844   5.482   2.263 -0.5927  0.1457 -0.9936
10891SOL     OW34989   0.352   1.760   1.414  0.2674 -0.2672  0.5151
10891SOL    HW134990   0.429   1.705   1.430  0.7392  0.5499  1.1495
10891SOL    HW234991   0.321   1.782   1.502 -1.8154 -2.0712  0.3206
10892SOL     OW34992   8.997   8.243   4.271  0.2653 -0.4537 -0.2237
10892SOL    HW134993   9.029   8.201   4.191  1.8706 -0.1631  0.2319
10892SOL    HW234994   9.059   8.216   4.338  0.2938  1.2039  0.4544
10893SOL     OW34995   8.553   4.857   3.775 -0.6194  0.0451 -0.0979
10893SOL    HW134996   8.466   4.843   3.812 -1.0217 -3.1173 -1.8329
10893SOL    HW234997   8.537   4.867   3.681  0.7879  1.2366 -0.2355
10894SOL     OW34998   4.615   0.564   8.862  0.2275 -0.0596 -0.6302
10894SOL    HW134999   4.532   0.603   8.891  0.4152 -1.5280  2.2665
10894SOL    HW235000   4.625   0.593   8.772 -3.4170  0.1993 -1.1017
10895SOL     OW35001   5.224   1.016   2.894 -0.0574 -0.7648  0.6090
10895SOL    HW135002   5.309   1.030   2.937  1.6603  0.3550 -2.7804
10895SOL    HW235003   5.244   0.958   2.821 -1.9943  0.3167 -0.8777
10896SOL     OW35004   5.774   4.524   1.831 -0.3365 -0.4762 -0.2485
10896SOL    HW135005   5.707   4.590   1.848  0.2268 -0.2161  1.1620
10896SOL    HW235006   5.755   4.454   1.895  0.6106 -0.4774  0.0426
10897SOL     OW35007   9.764   7.367   3.798  0.0509 -0.1196 -0.5037
10897SOL    HW135008   9.795   7.314   3.725  1.7328 -0.5425  0.4620
10897SOL    HW235009   9.754   7.305   3.870 -0.5278  0.4550 -0.0808
10898SOL     OW35010   3.828   1.599   6.746 -0.1208 -0.1675 -0.4559
10898SOL    HW135011   3.785   1.514   6.739 -0.8873  0.1465  0.2005
10898SOL    HW235012   3.870   1.598   6.832 -1.7024  0.7814  0.3808
10899SOL     OW35013   4.660   4.460   5.847 -0.0718 -0.0874  0.2314
10899SOL    HW135014   4.722   4.533   5.839  0.2597  0.0000  2.7953
10899SOL    HW235015   4.712   4.382   5.831 -0.0859  0.1200 -0.9516
10900SOL     OW35016   1.386   6.541   1.353 -0.0352 -0.5355  0.2887
10900SOL    HW135017   1.410   6.462   1.401  0.1544 -1.5504 -1.4103
10900SOL    HW235018   1.292   6.535   1.341  0.0390 -0.7352 -0.2177
10901SOL     OW35019   1.568   3.568   2.567  0.0860 -1.0136 -0.1164
10901SOL    HW135020   1.600   3.658   2.566 -2.0681 -0.1956 -0.0897
10901SOL    HW235021   1.620   3.523   2.500 -1.6740  1.3352 -3.3097
10902SOL     OW35022   9.665   3.206   4.745 -0.7120  0.2811 -0.0968
10902SOL    HW135023   9.693   3.114   4.736 -1.9247  0.0623 -2.4763
10902SOL    HW235024   9.634   3.212   4.835  1.2594 -1.0659  0.7515
10903SOL     OW35025   1.142  10.522   9.788 -0.0115 -0.5128 -0.5430
10903SOL    HW135026   1.143  10.483   9.876 -0.9738 -0.9515 -0.7093
10903SOL    HW235027   1.224  10.571   9.782  0.7951 -1.7420  0.0369
10904SOL     OW35028   1.957   6.066   2.421  0.3789  0.0081  0.1543
10904SOL    HW135029   1.982   5.973   2.422 -1.1824 -0.4495  1.3752
10904SOL    HW235030   2.038   6.113   2.435  1.0488 -1.2288  0.6021
10905SOL     OW35031   2.818   0.662   6.516  0.6678 -0.1185  1.3523
10905SOL    HW135032   2.731   0.623   6.530  1.1682 -0.9930  2.1610
10905SOL    HW235033   2.871   0.627   6.587  1.1603  2.1054  2.1405
10906SOL     OW35034   4.460   4.011   0.241  0.2753 -0.1987 -0.0940
10906SOL    HW135035   4.506   4.054   0.313 -0.8000  2.1189 -0.6791
10906SOL    HW235036   4.390   3.962   0.283  1.4279 -1.3276  0.5894
10907SOL     OW35037   8.478   2.734   9.833 -0.2897  0.3069 -0.4922
10907SOL    HW135038   8.551   2.686   9.795  0.7536  0.8032  0.8249
10907SOL    HW235039   8.497   2.739   9.926 -1.0779  2.0076 -0.3725
10908SOL     OW35040   7.502   8.791   7.204 -0.1675  0.3290  0.1600
10908SOL    HW135041   7.530   8.829   7.121 -1.8106  0.2951 -0.4372
10908SOL    HW235042   7.411   8.767   7.190 -0.2119 -0.5122  1.6958
10909SOL     OW35043   3.675   7.693   3.024 -0.4540 -0.1395 -0.3918
10909SOL    HW135044   3.762   7.660   3.045 -0.3859  1.4854  2.2982
10909SOL    HW235045   3.615   7.628   3.061 -0.4223 -0.6570 -1.2093
10910SOL     OW35046   2.669   0.358   1.079  0.6429  0.1624 -0.4120
10910SOL    HW135047   2.722   0.354   0.998 -0.5270  0.4512 -1.2147
10910SOL    HW235048   2.580   0.372   1.048  0.4255  2.3192  0.9992
10911SOL     OW35049   1.073   7.695   6.350 -0.3907 -0.0128 -0.1989
10911SOL    HW135050   1.035   7.754   6.285 -0.2463  1.4183  0.9699
10911SOL    HW235051   1.104   7.753   6.419  2.2163 -1.2640 -0.2149
10912SOL     OW35052   8.816   0.227   7.131 -0.3017 -0.4425 -0.1317
10912SOL    HW135053   8.902   0.200   7.099  1.2643  0.6563  2.8235
10912SOL    HW235054   8.781   0.150   7.176  0.1523 -0.2270  0.5947
10913SOL     OW35055   8.851   0.325   7.712 -0.2702 -0.0664  0.0028
10913SOL    HW135056   8.881   0.367   7.792  2.7104 -0.7146 -0.6350
10913SOL    HW235057   8.901   0.368   7.642 -1.8201 -0.4105 -1.3872
10914SOL     OW35058   1.833   1.162   2.491  0.4425 -0.1256  0.0091
10914SOL    HW135059   1.836   1.235   2.553  0.5171 -0.2852  0.1931
10914SOL    HW235060   1.744   1.129   2.497  1.2073 -2.0439  2.2425
10915SOL     OW35061   4.319   2.292   5.941  0.3967 -0.4482 -0.0951
10915SOL    HW135062   4.326   2.210   5.891 -1.8153 -0.9676  0.3552
10915SOL    HW235063   4.357   2.358   5.883  0.6551 -1.5147 -1.1932
10916SOL     OW35064   0.847   5.226   2.533 -0.0015 -0.6648 -0.3161
10916SOL    HW135065   0.848   5.316   2.501 -2.6243 -1.2956 -2.5521
10916SOL    HW235066   0.828   5.173   2.456 -0.3084 -2.9617  1.2299
10917SOL     OW35067   4.846   3.234   9.553 -0.0905  0.2220  0.4714
10917SOL    HW135068   4.848   3.182   9.633 -0.3612  1.4454  1.3005
10917SOL    HW235069   4.936   3.232   9.521 -0.7545 -4.2430 -1.9347
10918SOL     OW35070   2.941   6.660   8.078  0.1607  1.3216 -0.3297
10918SOL    HW135071   2.912   6.614   8.157 -0.4225  0.8965 -0.7766
10918SOL    HW235072   2.861   6.698   8.042  0.4180  1.5034 -0.7187
10919SOL     OW35073   8.660   1.282   1.013  0.2784  0.1266 -0.3544
10919SOL    HW135074   8.600   1.271   1.086  0.3136 -0.7023 -0.4373
10919SOL    HW235075   8.624   1.354   0.962  0.3576  0.8345  0.5818
10920SOL     OW35076   2.551   5.389   6.450 -0.3342 -0.2955 -0.3680
10920SOL    HW135077   2.487   5.434   6.394  0.0208  1.6343  0.6639
10920SOL    HW235078   2.631   5.386   6.397  0.3561  2.6076  0.3323
10921SOL     OW35079   9.997   3.104   6.377 -0.3842 -0.1854 -0.4886
10921SOL    HW135080   9.930   3.038   6.392 -2.7782  1.8544 -1.5975
10921SOL    HW235081   9.976   3.175   6.439  1.1286  0.2527 -0.4298
10922SOL     OW35082   3.433   8.064   3.609  0.0940  0.4018 -0.2835
10922SOL    HW135083   3.501   8.116   3.567 -0.2955  0.6659 -0.5942
10922SOL    HW235084   3.429   8.098   3.699  0.6841  0.0733 -0.1255
10923SOL     OW35085   8.766   3.498   3.841 -0.7460 -0.2905 -0.0321
10923SOL    HW135086   8.763   3.559   3.767  0.2228 -0.4161 -0.1806
10923SOL    HW235087   8.859   3.492   3.864 -1.1064  0.5121  1.8427
10924SOL     OW35088   8.121   3.240   6.134 -0.0673  0.0644 -0.2255
10924SOL    HW135089   8.064   3.299   6.184  1.6380  0.1193  1.7649
10924SOL    HW235090   8.179   3.298   6.085 -1.6628  0.0085 -2.3087
10925SOL     OW35091   6.636   5.224   3.121 -0.3238 -0.0894 -0.2887
10925SOL    HW135092   6.574   5.295   3.102 -1.0070 -0.0069  1.9492
10925SOL    HW235093   6.581   5.147   3.134  0.1325 -0.2746  0.5893
10926SOL     OW35094   7.713   2.332   6.049  0.3441  0.1721 -0.2756
10926SOL    HW135095   7.626   2.371   6.061 -0.4947 -1.8887  0.9916
10926SOL    HW235096   7.754   2.385   5.982 -2.2535  0.6752 -1.6138
10927SOL     OW35097   2.324   9.411   1.837 -0.1224 -0.1962  0.3841
10927SOL    HW135098   2.400   9.369   1.795  1.4154  1.8300  0.9946
10927SOL    HW235099   2.273   9.446   1.764  0.3909 -0.1841  0.0206
10928SOL     OW35100   8.300   8.250   0.311  0.5767 -0.0055 -0.2445
10928SOL    HW135101   8.287   8.200   0.230 -1.5200  1.9570 -1.2408
10928SOL    HW235102   8.213   8.254   0.351  1.0377  1.3483  0.6926
10929SOL     OW35103   0.060   1.488   7.191 -0.3597 -0.5241  0.3661
10929SOL    HW135104  -0.007   1.495   7.260 -0.4872 -0.9072  0.2804
10929SOL    HW235105   0.014   1.450   7.117  0.0604 -1.2142  0.4518
10930SOL     OW35106   6.414   1.605  10.546 -0.5665  0.1834  0.0855
10930SOL    HW135107   6.433   1.556  10.625 -1.9053  0.7039  0.7703
10930SOL    HW235108   6.392   1.538  10.481  0.1994 -0.2271  0.2379
10931SOL     OW35109   9.444   9.473   4.785  0.1673 -0.4474  0.0423
10931SOL    HW135110   9.429   9.423   4.705 -1.2351 -1.0284  0.6382
10931SOL    HW235111   9.463   9.562   4.754 -0.8543 -0.5457 -0.9356
10932SOL     OW35112   8.365   9.973   8.576 -0.5147 -0.8320 -0.0737
10932SOL    HW135113   8.394  10.000   8.664 -0.1770  1.2129 -0.7558
10932SOL    HW235114   8.272   9.954   8.586 -1.0144  1.5332  0.3470
10933SOL     OW35115   0.563  10.124   9.693 -0.0300 -0.3207 -0.1869
10933SOL    HW135116   0.560  10.212   9.731  0.2114  0.0062 -0.8930
10933SOL    HW235117   0.598  10.138   9.605  0.0529 -1.1340 -0.2897
10934SOL     OW35118   0.056   7.231   5.962  0.1682 -0.3936  0.2130
10934SOL    HW135119  -0.011   7.222   6.029 -0.2983 -0.9093 -0.3067
10934SOL    HW235120   0.119   7.161   5.981 -0.7257 -1.4984 -0.7271
10935SOL     OW35121   3.766   0.190   1.444  0.0562 -0.0520 -0.8089
10935SOL    HW135122   3.715   0.169   1.522  2.3973 -0.3164  0.7484
10935SOL    HW235123   3.832   0.252   1.475  1.2298 -0.3912 -2.5230
10936SOL     OW35124   1.105   8.791   8.373  0.0780 -0.8049 -0.6254
10936SOL    HW135125   1.096   8.757   8.284  0.2760  1.1674 -1.4425
10936SOL    HW235126   1.017   8.783   8.410 -0.9668  1.6889 -2.3056
10937SOL     OW35127   9.962   3.090   2.295  0.2846  0.0326  0.0315
10937SOL    HW135128   9.950   3.010   2.346  0.0030  1.3032  2.1242
10937SOL    HW235129   9.904   3.081   2.220 -0.4132 -1.3296  0.7104
10938SOL     OW35130  10.295   6.656   8.514 -0.8950  0.3570 -0.3242
10938SOL    HW135131  10.215   6.653   8.566 -0.0033  2.0465  1.3118
10938SOL    HW235132  10.365   6.634   8.576 -0.0268 -0.4419 -1.5428
10939SOL     OW35133   0.680   1.310   9.287  0.6316  0.0089  0.3113
10939SOL    HW135134   0.689   1.273   9.374  1.1671  0.0988  0.2963
10939SOL    HW235135   0.606   1.370   9.294 -0.0565 -0.8416  0.4049
10940SOL     OW35136   2.921  10.464   2.100  0.4434 -0.4237 -0.4156
10940SOL    HW135137   2.936  10.457   2.195  1.1482  0.5953 -0.4371
10940SOL    HW235138   2.886  10.379   2.075 -2.7047  0.1837  1.3014
10941SOL     OW35139   3.925   0.839   8.162 -0.2617  0.2331 -0.2639
10941SOL    HW135140   3.865   0.765   8.168  0.2711 -0.1747  0.1888
10941SOL    HW235141   3.869   0.915   8.152 -0.9255  0.0012  1.3742
10942SOL     OW35142   4.697  10.106   5.778 -0.1133 -1.1599 -0.8538
10942SOL    HW135143   4.661  10.029   5.734 -0.3571 -0.4514 -1.9115
10942SOL    HW235144   4.627  10.135   5.836 -1.0347 -0.2067 -2.3809
10943SOL     OW35145   5.946   4.542  10.355  0.3844 -0.1069 -0.1847
10943SOL    HW135146   6.022   4.498  10.393 -0.8632 -0.6191  1.9047
10943SOL    HW235147   5.924   4.610  10.418  0.7773  1.9641 -2.1633
10944SOL     OW35148   8.656   7.254   3.537 -0.1980  0.2148  0.4131
10944SOL    HW135149   8.606   7.231   3.615 -0.3739 -1.0833 -0.0586
10944SOL    HW235150   8.666   7.349   3.542 -0.8421  0.2349  1.6272
10945SOL     OW35151  10.281   6.677   4.516 -0.1558 -0.1936  0.4474
10945SOL    HW135152  10.293   6.711   4.427 -2.0456  0.6340  0.4496
10945SOL    HW235153  10.369   6.674   4.553  0.7904 -1.4576 -1.7396
10946SOL     OW35154   6.167  10.411  10.117 -0.1620  0.2470 -0.0297
10946SOL    HW135155   6.072  10.403  10.125 -0.0789  0.6139  1.7120
10946SOL    HW235156   6.183  10.408  10.023 -2.0054  1.3353 -0.4402
10947SOL     OW35157   6.327   9.960   5.181  0.5074  0.2553 -0.1291
10947SOL    HW135158   6.368   9.881   5.214 -4.1752 -1.1869  3.2269
10947SOL    HW235159   6.280   9.932   5.102 -1.9334 -0.7592  1.5835
10948SOL     OW35160   4.236   0.005   7.745  0.3723 -0.3514 -0.4316
10948SOL    HW135161   4.210   0.065   7.814 -1.9132 -2.1962  0.4702
10948SOL    HW235162   4.165   0.010   7.681 -0.0785 -2.2804 -0.1465
10949SOL     OW35163   0.997   0.617   4.629 -0.4500 -0.8702  0.1185
10949SOL    HW135164   1.033   0.582   4.711  0.8876  0.7769  0.2821
10949SOL    HW235165   1.040   0.701   4.617 -1.7316 -0.3785 -1.5307
10950SOL     OW35166   9.391   5.064   6.969 -0.7031 -0.2705  0.6386
10950SOL    HW135167   9.473   5.107   6.994 -0.9546  0.0319  0.9453
10950SOL    HW235168   9.344   5.051   7.051 -0.2657 -1.9174  0.6670
10951SOL     OW35169   2.699  10.554   3.991 -0.5084 -0.8709 -0.1234
10951SOL    HW135170   2.758  10.483   3.967  0.0171 -0.9108  1.2097
10951SOL    HW235171   2.643  10.565   3.914  2.5414  0.6129 -2.3816
10952SOL     OW35172   7.211   6.301   2.577  0.2016  0.7972 -0.4811
10952SOL    HW135173   7.184   6.258   2.496 -0.3218  2.7981 -1.4391
10952SOL    HW235174   7.176   6.246   2.646  1.7182 -1.6628 -1.5180
10953SOL     OW35175   2.986  10.285   2.720 -0.3252 -0.3058  0.0766
10953SOL    HW135176   3.023  10.226   2.785  1.4826 -0.8741 -1.3643
10953SOL    HW235177   3.049  10.356   2.713 -0.8407  0.1056 -0.5456
10954SOL     OW35178   8.885   3.360   0.291 -0.5606 -0.5953  0.0165
10954SOL    HW135179   8.918   3.302   0.222 -2.5459  0.2797 -1.7928
10954SOL    HW235180   8.936   3.441   0.280  0.3228 -1.0330  0.7589
10955SOL     OW35181   7.420   5.253   3.204  0.2010  0.0087  0.0451
10955SOL    HW135182   7.371   5.333   3.185 -2.1870 -1.6057 -1.0545
10955SOL    HW235183   7.463   5.271   3.288  0.7727  2.8384 -0.7174
10956SOL     OW35184   6.348   6.000   4.467 -0.0167  0.4859  0.2656
10956SOL    HW135185   6.327   6.036   4.553 -0.5318 -0.9690  0.7792
10956SOL    HW235186   6.290   5.925   4.458  1.3837 -0.5571 -0.5045
10957SOL     OW35187   6.715   5.993   5.100  0.2899 -0.3972 -0.0463
10957SOL    HW135188   6.737   5.903   5.127 -0.0444 -0.8326 -1.1619
10957SOL    HW235189   6.791   6.023   5.051  0.2116 -0.2347 -0.0679
10958SOL     OW35190   0.259   8.431   5.684  0.0774 -0.1690 -0.5932
10958SOL    HW135191   0.182   8.403   5.733 -0.0037  0.7913 -0.1370
10958SOL    HW235192   0.332   8.416   5.744 -0.1504  2.2039  0.4113
10959SOL     OW35193   3.195   6.673   8.159 -0.4166 -0.0697 -0.3424
10959SOL    HW135194   3.192   6.648   8.251 -0.0578 -1.2385 -0.6306
10959SOL    HW235195   3.103   6.676   8.132 -0.4910 -0.5528 -0.1559
10960SOL     OW35196   4.299   4.988   5.422  0.5959 -0.2148  0.4812
10960SOL    HW135197   4.358   5.032   5.484  1.7075 -0.8698 -0.0690
10960SOL    HW235198   4.244   4.933   5.477 -0.2298  1.1677  1.0997
10961SOL     OW35199   3.863   9.741   8.141  0.1563 -0.1862 -0.2950
10961SOL    HW135200   3.856   9.700   8.227 -2.0127 -2.5052 -1.4097
10961SOL    HW235201   3.815   9.823   8.148 -2.0342 -1.4391  0.2060
10962SOL     OW35202   6.158   9.162   1.797 -0.2809  0.1450  0.1849
10962SOL    HW135203   6.074   9.204   1.812 -0.3520 -0.1022  0.4874
10962SOL    HW235204   6.175   9.113   1.878  0.5985  0.9534  0.5173
10963SOL     OW35205   0.919   5.127   5.666 -1.0679 -0.1482  0.0547
10963SOL    HW135206   0.900   5.033   5.667 -2.3266  0.0662 -0.9360
10963SOL    HW235207   0.893   5.158   5.752  1.3219 -1.0174  1.1857
10964SOL     OW35208   1.512   3.406   4.268 -0.0957  0.1666  0.6383
10964SOL    HW135209   1.434   3.353   4.251  0.1092 -0.0656  0.4206
10964SOL    HW235210   1.480   3.496   4.261 -0.1681  0.0819 -0.3313
10965SOL     OW35211   7.065   7.330   4.175  0.0845 -0.2142 -0.1374
10965SOL    HW135212   6.970   7.321   4.176  0.1930 -1.4786  0.1359
10965SOL    HW235213   7.090   7.333   4.267  0.3216  0.0756 -0.2080
10966SOL     OW35214   8.660   5.185   0.092 -0.6471 -0.2420  0.2451
10966SOL    HW135215   8.738   5.158   0.140 -1.5269 -0.6931  1.4633
10966SOL    HW235216   8.654   5.123   0.019  0.7257  0.4731 -0.5102
10967SOL     OW35217   3.022   8.497   5.393  0.6826 -0.3864 -0.8346
10967SOL    HW135218   3.042   8.547   5.314  2.5365 -2.6629 -1.9204
10967SOL    HW235219   3.088   8.523   5.456  0.3422  0.0652 -0.6601
10968SOL     OW35220   7.666   6.181   4.566 -0.0248 -0.1009  0.5893
10968SOL    HW135221   7.739   6.146   4.515 -0.5927 -0.7897  0.2275
10968SOL    HW235222   7.685   6.274   4.574 -0.0580  0.0912 -1.1574
10969SOL     OW35223   9.639   6.820   8.472 -0.0797 -0.3031 -0.1688
10969SOL    HW135224   9.606   6.825   8.562  0.5384 -0.0924  0.0521
10969SOL    HW235225   9.688   6.902   8.460  1.3976 -1.1391 -0.0641
10970SOL     OW35226   8.957   7.607   2.544  0.7374 -0.0381  0.0393
10970SOL    HW135227   9.048   7.629   2.562  0.9089 -0.6171 -0.1167
10970SOL    HW235228   8.920   7.585   2.630  0.5201  0.9832  0.2239
10971SOL     OW35229   6.603   2.354   1.676  0.0161 -0.8110 -0.6767
10971SOL    HW135230   6.653   2.423   1.633  0.4002 -1.7231 -1.7208
10971SOL    HW235231   6.600   2.381   1.768  0.7111  0.2654 -0.9510
10972SOL     OW35232   8.620   4.133   7.346 -0.0200 -0.0761 -0.5470
10972SOL    HW135233   8.711   4.143   7.320 -0.3425 -1.7229 -2.6191
10972SOL    HW235234   8.570   4.143   7.265 -1.4816 -1.4900  0.1140
10973SOL     OW35235   8.337   7.161   6.958 -0.8181 -0.7025 -0.1331
10973SOL    HW135236   8.407   7.170   7.023 -0.1220 -1.1874 -0.7937
10973SOL    HW235237   8.374   7.200   6.878 -1.3077 -0.9471 -0.4799
10974SOL     OW35238   7.177   4.031   4.043  0.2303 -0.0762  0.2486
10974SOL    HW135239   7.132   4.106   4.081  0.5275  0.2527 -0.0371
10974SOL    HW235240   7.130   3.955   4.077  1.8999  0.0642  3.1548
10975SOL     OW35241   0.050   6.541   9.759  0.2887 -0.0739  0.0927
10975SOL    HW135242   0.017   6.540   9.849  1.1728  0.0233  0.4220
10975SOL    HW235243   0.140   6.571   9.766  0.6585 -0.9249 -0.7256
10976SOL     OW35244  10.197  10.388   1.712 -0.1861  0.1262  0.0587
10976SOL    HW135245  10.160  10.466   1.671 -1.5948 -0.3032  0.4406
10976SOL    HW235246  10.278  10.418   1.753 -0.8759  1.4815  0.4902
10977SOL     OW35247   9.170   1.613   9.259  0.1942 -0.0381 -0.0116
10977SOL    HW135248   9.082   1.583   9.236 -1.0728  3.2129 -0.0255
10977SOL    HW235249   9.166   1.626   9.354  1.1232 -1.1487  0.1860
10978SOL     OW35250   7.745   4.844   8.175  0.0975  0.5178 -0.1706
10978SOL    HW135251   7.713   4.794   8.100  1.7388  0.1165 -0.6387
10978SOL    HW235252   7.683   4.825   8.246 -0.1179 -1.0098 -0.7512
10979SOL     OW35253   8.617   6.482   4.436  0.6471  0.0769 -0.0611
10979SOL    HW135254   8.697   6.472   4.385 -0.0457 -0.9585 -1.0178
10979SOL    HW235255   8.553   6.426   4.391 -0.3066  0.0036  1.3152
10980SOL     OW35256   6.120   6.938   2.902  0.0789  0.7216  0.4239
10980SOL    HW135257   6.213   6.931   2.926  0.2089  0.0263 -0.2597
10980SOL    HW235258   6.098   7.029   2.921  0.9559  0.9478  0.4097
10981SOL     OW35259   7.923   0.723   3.105 -0.6778  0.0362 -0.2509
10981SOL    HW135260   7.950   0.697   3.017  1.7813  0.4190  0.3256
10981SOL    HW235261   7.931   0.819   3.105 -0.2702  0.0043  0.5097
10982SOL     OW35262   0.649   0.563   0.167  0.0166 -0.0031 -0.1224
10982SOL    HW135263   0.736   0.553   0.204 -0.2980 -0.5425  0.5080
10982SOL    HW235264   0.663   0.601   0.080  0.9823 -1.5714 -0.6897
10983SOL     OW35265   3.277   9.649   8.135 -0.0609  0.1909  0.6387
10983SOL    HW135266   3.251   9.741   8.130 -0.5927  0.0101 -0.1101
10983SOL    HW235267   3.367   9.651   8.167  0.0496  0.9913  0.2948
10984SOL     OW35268   9.338   6.549   9.457  0.4231 -0.3931  0.1315
10984SOL    HW135269   9.266   6.525   9.516 -1.0123  0.5200 -1.1642
10984SOL    HW235270   9.369   6.633   9.491 -1.8090  1.2175 -1.4843
10985SOL     OW35271   0.726   0.538   6.425 -0.6185  0.0542  0.0116
10985SOL    HW135272   0.723   0.633   6.412  3.3277  0.2644 -0.4261
10985SOL    HW235273   0.737   0.502   6.337 -0.0667 -0.6411  0.3625
10986SOL     OW35274   4.352   4.889   2.219  0.3735 -0.1204  0.4931
10986SOL    HW135275   4.374   4.876   2.311 -0.7312  0.5821  0.8731
10986SOL    HW235276   4.431   4.861   2.171  1.3193  0.4296  1.6877
10987SOL     OW35277   6.217   5.455   8.802 -0.1668  0.6387  0.1232
10987SOL    HW135278   6.169   5.411   8.873  1.2912 -0.0145  0.7531
10987SOL    HW235279   6.185   5.545   8.803  0.1657  0.7805  1.9637
10988SOL     OW35280   0.545   8.020   0.693  0.2540  0.1840 -0.1831
10988SOL    HW135281   0.458   7.983   0.680  1.4118 -2.0569 -2.3442
10988SOL    HW235282   0.589   8.010   0.609  2.0993  2.7932  0.3514
10989SOL     OW35283   2.350   6.685   9.339  0.2796  0.1154  0.2720
10989SOL    HW135284   2.415   6.615   9.351 -0.4821 -0.4647  1.1334
10989SOL    HW235285   2.399   6.756   9.297  0.9608 -1.1146 -1.1389
10990SOL     OW35286   6.733   2.308   2.906 -0.0455 -0.3831 -0.3182
10990SOL    HW135287   6.645   2.340   2.884  0.5307  1.9795  0.5311
10990SOL    HW235288   6.718   2.241   2.972 -1.2655 -0.9454 -1.1336
10991SOL     OW35289   7.844   6.110   0.122 -0.1589  0.3424 -0.1035
10991SOL    HW135290   7.805   6.164   0.053 -1.5347  1.4520  1.4680
10991SOL    HW235291   7.792   6.129   0.199  1.3737 -0.8215  1.2788
10992SOL     OW35292   2.204   4.342   4.742  0.3506 -0.4822 -0.4089
10992SOL    HW135293   2.109   4.345   4.731 -0.2619 -1.4688  3.1207
10992SOL    HW235294   2.234   4.430   4.721 -1.6072  0.3527  0.0543
10993SOL     OW35295   3.773   9.883   0.155  0.1299 -0.2576  0.0360
10993SOL    HW135296   3.801   9.806   0.107  1.8034  1.0724 -1.2738
10993SOL    HW235297   3.795   9.865   0.246  1.9719 -0.7377 -0.4728
10994SOL     OW35298   1.939   7.031   9.288  0.3134  0.2668 -0.5083
10994SOL    HW135299   1.877   7.003   9.221  0.4094  0.3091 -0.6145
10994SOL    HW235300   1.979   7.110   9.253  0.1559  0.4516 -0.2761
10995SOL     OW35301   4.709   1.787   0.637 -0.3437 -0.7855 -0.0551
10995SOL    HW135302   4.699   1.692   0.636  0.4572 -0.8864  0.5157
10995SOL    HW235303   4.717   1.809   0.730 -2.5102  0.0756 -0.0259
10996SOL     OW35304   7.596   4.782   6.390 -0.4107 -0.6606 -0.0349
10996SOL    HW135305   7.626   4.871   6.409  0.5401 -1.2841  1.5374
10996SOL    HW235306   7.660   4.725   6.432 -1.6925 -2.0787  0.0828
10997SOL     OW35307   0.480   3.682   1.780 -0.3138  0.1525  0.8302
10997SOL    HW135308   0.457   3.686   1.872 -0.2844  1.4873  0.7893
10997SOL    HW235309   0.524   3.765   1.762 -0.8266  0.1546 -0.5212
10998SOL     OW35310   4.774   4.893   2.394  0.0682 -0.1184 -0.3787
10998SOL    HW135311   4.860   4.862   2.364  0.5035  0.9183 -0.2646
10998SOL    HW235312   4.725   4.813   2.413  1.1899 -0.7262  0.0778
10999SOL     OW35313   9.642   7.695   3.667  0.4055  0.3082 -0.0354
10999SOL    HW135314   9.719   7.688   3.611  0.1494  0.1817 -0.3764
10999SOL    HW235315   9.658   7.773   3.720  1.3134 -0.3837  0.7404
11000SOL     OW35316   7.419   3.347   2.160 -0.0348  0.2678  0.2660
11000SOL    HW135317   7.504   3.360   2.118 -0.4796  1.2156 -0.3795
11000SOL    HW235318   7.395   3.434   2.193 -1.2263  0.2579 -0.4989
11001SOL     OW35319   8.276   8.294   7.913  0.4069  0.0143  0.0842
11001SOL    HW135320   8.369   8.316   7.905  0.4934 -0.5599 -0.5626
11001SOL    HW235321   8.246   8.346   7.988  1.2158  0.3031  0.2227
11002SOL     OW35322   6.392   8.528   7.696 -0.3418  0.5528 -0.0900
11002SOL    HW135323   6.424   8.618   7.690 -2.4222  1.2717 -1.8634
11002SOL    HW235324   6.420   8.488   7.614  0.6310 -0.4761  0.7214
11003SOL     OW35325   8.998   9.387   1.315 -0.2611  0.2120  0.0187
11003SOL    HW135326   8.923   9.447   1.320  1.0902  1.8749  1.1904
11003SOL    HW235327   8.990   9.332   1.393 -0.1678  0.5226  0.2503
11004SOL     OW35328   2.145   9.275   7.485  0.0527  0.1478 -0.0989
11004SOL    HW135329   2.108   9.227   7.559 -3.0966 -0.6212 -1.9627
11004SOL    HW235330   2.168   9.207   7.422  0.4254  0.8646 -0.7536
11005SOL     OW35331   3.322   1.723   0.957 -0.4092  0.6962 -0.4857
11005SOL    HW135332   3.296   1.768   0.876  0.7265  2.0663 -0.1159
11005SOL    HW235333   3.246   1.668   0.979 -0.9739  0.7494 -2.1459
11006SOL     OW35334   6.845   5.186   4.451  0.3863  0.0504 -0.4448
11006SOL    HW135335   6.801   5.129   4.387 -0.1639  0.8965 -0.8297
11006SOL    HW235336   6.936   5.156   4.450  0.3215 -0.1661 -1.3967
11007SOL     OW35337   2.279   1.834   3.857 -0.4168  0.1429 -0.1158
11007SOL    HW135338   2.198   1.786   3.877 -0.4828  1.3236  2.9360
11007SOL    HW235339   2.337   1.814   3.930  0.4627  2.7304 -0.0287
11008SOL     OW35340   5.348   5.808   7.526  0.7029  0.0074 -0.2560
11008SOL    HW135341   5.342   5.715   7.505  0.2936 -0.0631  0.1457
11008SOL    HW235342   5.257   5.838   7.528  0.8129  0.3310 -0.0212
11009SOL     OW35343   7.519   1.994  10.259  0.2318 -0.0225  0.4729
11009SOL    HW135344   7.549   2.008  10.169  1.3079  0.0592  0.8331
11009SOL    HW235345   7.463   1.917  10.253  2.3913 -1.6791  0.1244
11010SOL     OW35346   5.134  10.210   7.790 -0.1722 -0.2805 -0.5321
11010SOL    HW135347   5.219  10.241   7.759  0.2600 -0.4712  0.4223
11010SOL    HW235348   5.072  10.236   7.722  0.3628  1.4979 -0.3814
11011SOL     OW35349   0.442   7.507   3.937 -0.6576 -0.1456 -0.1745
11011SOL    HW135350   0.415   7.578   3.879 -1.0674  0.1295  0.3431
11011SOL    HW235351   0.489   7.446   3.880 -0.9672  0.1640 -0.7728
11012SOL     OW35352   8.317   6.863   5.285  0.2317 -0.0319 -0.4960
11012SOL    HW135353   8.249   6.796   5.283  0.3780 -0.1702 -1.6800
11012SOL    HW235354   8.383   6.831   5.223  0.7350  0.7669 -0.3841
11013SOL     OW35355  10.124   4.109   2.077  0.0773  0.2632  0.0791
11013SOL    HW135356  10.037   4.150   2.084  0.0046  0.0573  0.4634
11013SOL    HW235357  10.110   4.034   2.020 -0.3680 -0.6923  1.3718
11014SOL     OW35358   2.225   7.947   7.602 -0.0109 -0.0398 -1.1857
11014SOL    HW135359   2.192   7.883   7.539 -0.9641 -0.5474 -0.1997
11014SOL    HW235360   2.303   7.907   7.638 -1.2579 -1.2479  0.3111
11015SOL     OW35361   5.395   4.620   3.047  0.0011  0.1647  0.3946
11015SOL    HW135362   5.365   4.693   2.992 -0.1317  0.5061  0.9200
11015SOL    HW235363   5.490   4.634   3.053 -0.3388  2.0173  2.9145
11016SOL     OW35364   9.917   2.074   4.457  0.2235 -0.1524  0.4497
11016SOL    HW135365   9.846   2.025   4.499 -0.2319 -0.7821 -0.9910
11016SOL    HW235366   9.980   2.006   4.432  0.4301  0.2002  0.0208
11017SOL     OW35367   4.854   0.722   8.989 -0.4019 -0.6083  0.7855
11017SOL    HW135368   4.765   0.698   8.964 -0.7574 -2.3280  3.3635
11017SOL    HW235369   4.880   0.655   9.052  2.3238  0.4817  0.9384
11018SOL     OW35370   3.229   7.216   1.001  0.0201  0.0517  0.0820
11018SOL    HW135371   3.253   7.123   1.006  2.4496  0.6198  0.3130
11018SOL    HW235372   3.155   7.224   1.061  0.6924 -1.4770  1.1931
11019SOL     OW35373   8.574   1.097   7.086 -0.1062  0.3379  0.3890
11019SOL    HW135374   8.512   1.042   7.135 -1.1157  0.6047 -0.5386
11019SOL    HW235375   8.565   1.184   7.125  0.0635  0.2646  0.5916
11020SOL     OW35376   7.596   1.052   1.695  0.0706  0.2107 -0.0566
11020SOL    HW135377   7.542   1.091   1.763 -1.3913 -0.9752 -0.4693
11020SOL    HW235378   7.535   1.035   1.623  1.7306  2.2652 -2.0714
11021SOL     OW35379   9.026   8.111   8.215 -0.0544  0.4073  0.2125
11021SOL    HW135380   9.063   8.087   8.300  1.3068  0.3917 -0.3651
11021SOL    HW235381   9.093   8.166   8.174  0.2980 -1.3879 -1.7510
11022SOL     OW35382   4.603   6.586   8.344 -0.4351 -0.1719 -0.4161
11022SOL    HW135383   4.664   6.541   8.402 -0.3138 -0.7269 -0.9722
11022SOL    HW235384   4.520   6.587   8.393  0.1492  1.1323  0.6033
11023SOL     OW35385   6.014   4.309   4.181 -0.2463 -0.0065  0.2816
11023SOL    HW135386   6.078   4.259   4.233 -1.5601 -1.0400  0.9646
11023SOL    HW235387   6.043   4.298   4.090 -0.2527 -1.6818  0.4550
11024SOL     OW35388   5.385   6.721   1.130 -0.1739  0.1284 -0.2048
11024SOL    HW135389   5.402   6.633   1.097  2.1770  0.6139 -0.4506
11024SOL    HW235390   5.424   6.722   1.217  1.6873  1.4855 -0.9993
11025SOL     OW35391  10.414   9.478   4.114 -0.3122  0.2514  0.3256
11025SOL    HW135392  10.393   9.412   4.047  0.1716 -0.3779  0.7858
11025SOL    HW235393  10.444   9.428   4.189  1.2312  1.0376  0.2745
11026SOL     OW35394   1.274   9.140   2.265 -0.6266 -0.3053  0.0776
11026SOL    HW135395   1.243   9.074   2.328  3.2610 -2.4550  0.0602
11026SOL    HW235396   1.317   9.206   2.320 -1.3077  0.3239 -0.1291
11027SOL     OW35397   6.887   3.233   0.404 -0.3973  0.5318 -0.2716
11027SOL    HW135398   6.805   3.279   0.388  0.5862  1.4612 -3.5754
11027SOL    HW235399   6.865   3.166   0.469 -3.9678  0.2026 -1.5771
11028SOL     OW35400   3.353   4.987   1.233 -0.0568  0.0497  0.2266
11028SOL    HW135401   3.406   5.023   1.305 -1.6892  1.8145  0.6231
11028SOL    HW235402   3.388   5.030   1.155 -0.3284  0.5679  0.3825
11029SOL     OW35403   0.469   0.577  10.224 -0.5742 -0.3799  0.1239
11029SOL    HW135404   0.548   0.539  10.263  1.6110  0.4869 -3.0864
11029SOL    HW235405   0.479   0.671  10.235  0.2904 -0.0766 -2.5945
11030SOL     OW35406   2.310   4.371   7.280 -0.3539  0.2358  0.2692
11030SOL    HW135407   2.248   4.434   7.244  1.0128 -0.1002 -3.0258
11030SOL    HW235408   2.384   4.424   7.308  0.1773  0.2710 -1.1236
11031SOL     OW35409   9.515   0.894   0.367  0.0362  0.0264  0.1347
11031SOL    HW135410   9.587   0.834   0.347  0.2937  0.0612  0.9301
11031SOL    HW235411   9.545   0.979   0.335  0.6050  0.1597  1.0018
11032SOL     OW35412   2.759   4.692   3.463  0.4015  0.1254 -0.3330
11032SOL    HW135413   2.737   4.619   3.521  0.4534  0.3363 -0.0468
11032SOL    HW235414   2.761   4.653   3.376  5.3609 -1.4142  0.1857
11033SOL     OW35415   2.634   7.015   0.002 -0.1214  0.0380  0.0274
11033SOL    HW135416   2.612   7.008  -0.091 -0.1121  0.7706 -0.0353
11033SOL    HW235417   2.702   6.949   0.016  1.8620  1.7494 -1.1068
11034SOL     OW35418   4.743  10.546   5.850 -0.4261 -0.1673 -0.1617
11034SOL    HW135419   4.712  10.625   5.894 -0.0277 -0.1107  0.0182
11034SOL    HW235420   4.837  10.561   5.836 -0.8209  0.6049 -2.6192
11035SOL     OW35421   0.925  10.309   4.365  0.2730  0.3122 -0.0981
11035SOL    HW135422   0.960  10.369   4.431 -1.5737  1.2585  0.0768
11035SOL    HW235423   0.960  10.223   4.389  1.9106  1.0770  0.4116
11036SOL     OW35424   9.279   0.022   9.196  0.4080 -0.1895 -0.5409
11036SOL    HW135425   9.207  -0.036   9.171 -1.0687  1.2717  0.1666
11036SOL    HW235426   9.314   0.053   9.113  1.4020 -2.2238 -0.9481
11037SOL     OW35427   5.304   8.761   1.064 -0.2658  0.0985 -0.0022
11037SOL    HW135428   5.360   8.683   1.063  1.4468  1.2380  1.2161
11037SOL    HW235429   5.365   8.834   1.056 -1.8515  1.3485 -1.3251
11038SOL     OW35430   1.026   0.055   2.167 -0.0494 -0.0309 -0.2340
11038SOL    HW135431   1.065   0.118   2.106 -1.3238 -0.1267 -1.1925
11038SOL    HW235432   0.969   0.001   2.112  1.3039 -2.3209  0.4802
11039SOL     OW35433   7.672   5.134   4.924 -0.0321 -0.0360 -0.9706
11039SOL    HW135434   7.637   5.045   4.913 -0.1162 -0.1812  0.2884
11039SOL    HW235435   7.751   5.135   4.870  1.5043 -1.8168  1.0371
11040SOL     OW35436   5.456   4.841   7.021 -0.4811 -0.1997 -0.0911
11040SOL    HW135437   5.398   4.855   6.945  0.8347 -0.3707 -1.1565
11040SOL    HW235438   5.496   4.927   7.036 -1.4400  0.0789  1.0463
11041SOL     OW35439   7.962   0.572   5.103  0.1484  0.1448  0.1815
11041SOL    HW135440   8.054   0.559   5.130 -0.0302  0.9495  1.2200
11041SOL    HW235441   7.916   0.496   5.139  0.2772  0.1597  0.3839
11042SOL     OW35442   9.025   1.069   5.344  0.0892 -0.0728 -0.0665
11042SOL    HW135443   9.004   1.091   5.435  0.8045 -0.5483  0.2314
11042SOL    HW235444   8.946   1.088   5.295 -0.1723  0.5847  0.5950
11043SOL     OW35445   6.759   9.938   0.663 -0.0957 -0.5318  0.0320
11043SOL    HW135446   6.670   9.954   0.695 -0.7927 -0.1106 -1.9825
11043SOL    HW235447   6.768   9.995   0.587  2.0506 -0.3143  0.3966
11044SOL     OW35448   5.450   2.990   0.957  0.0558  0.4157 -0.1755
11044SOL    HW135449   5.520   3.052   0.937  0.9315  0.1889  1.9084
11044SOL    HW235450   5.398   3.034   1.024  0.2937 -0.7785  0.8340
11045SOL     OW35451   4.071   5.066   6.207 -0.0902  0.5947  0.3821
11045SOL    HW135452   4.141   5.020   6.253 -0.3972  1.0334  1.3050
11045SOL    HW235453   4.084   5.043   6.115  0.4312 -0.4305  0.6966
11046SOL     OW35454   9.202   3.442   6.665 -0.7859  0.4942 -0.1185
11046SOL    HW135455   9.209   3.430   6.571  3.2617  2.0954 -0.2335
11046SOL    HW235456   9.215   3.536   6.679  1.6893 -0.0421  2.0566
11047SOL     OW35457   8.036  10.322   1.650  0.4106  0.1318 -0.4242
11047SOL    HW135458   8.110  10.295   1.597  0.6458 -2.2336  0.9912
11047SOL    HW235459   7.964  10.333   1.588  1.5642  1.0890 -1.6291
11048SOL     OW35460   8.234  10.190  10.444 -0.2231  0.2875  0.1906
11048SOL    HW135461   8.267  10.138  10.517 -0.8628 -0.1474  0.1751
11048SOL    HW235462   8.294  10.172  10.372 -0.3408 -0.2997  0.2342
11049SOL     OW35463   4.600   1.611   0.091  0.5148  0.5737  0.4779
11049SOL    HW135464   4.530   1.671   0.117  0.9056  0.5892  1.5698
11049SOL    HW235465   4.562   1.524   0.100  0.5684  0.5896  0.8808
11050SOL     OW35466   0.722   1.262   5.484 -0.0381 -0.8973  0.3682
11050SOL    HW135467   0.641   1.218   5.509  0.2661 -1.4894  0.3265
11050SOL    HW235468   0.744   1.316   5.559 -1.0605  0.1312 -0.0474
11051SOL     OW35469   4.771   7.580   8.531  0.3857 -0.3474 -0.2829
11051SOL    HW135470   4.716   7.659   8.533  1.5677  0.5197 -0.7605
11051SOL    HW235471   4.739   7.527   8.604 -0.6271  0.4402 -0.1263
11052SOL     OW35472   8.563   7.550   9.447  0.6462  0.0136  0.6983
11052SOL    HW135473   8.557   7.637   9.406  1.1517  0.0394  0.6643
11052SOL    HW235474   8.523   7.561   9.533  1.6451  0.5619  1.1161
11053SOL     OW35475   3.620   1.880   7.120 -0.0351  0.8874  0.3829
11053SOL    HW135476   3.554   1.921   7.176 -0.3003  1.1765 -0.1282
11053SOL    HW235477   3.578   1.875   7.034 -0.5700 -1.8124  0.7174
11054SOL     OW35478   0.056   4.098   0.442  0.0585  0.0111 -0.5050
11054SOL    HW135479   0.065   4.032   0.373  3.3234  0.3733 -0.5842
11054SOL    HW235480   0.121   4.165   0.419 -1.4006  2.0296  0.9365
11055SOL     OW35481   8.468   8.644   7.780  0.0821  0.3795 -0.0974
11055SOL    HW135482   8.526   8.663   7.707  0.6193 -0.1348  0.1849
11055SOL    HW235483   8.497   8.558   7.812 -2.5944 -1.2271 -1.6714
11056SOL     OW35484  10.238   4.368   0.963 -0.3240  0.0762  0.1372
11056SOL    HW135485  10.153   4.413   0.958 -0.2832  0.1819  0.3893
11056SOL    HW235486  10.299   4.427   0.919 -0.3329  0.1182  0.1822
11057SOL     OW35487   2.036   6.249   8.275  0.8420 -0.2256  0.1153
11057SOL    HW135488   2.053   6.273   8.366 -0.8541  1.9022 -0.0477
11057SOL    HW235489   2.102   6.183   8.255  3.3165  1.5338  1.9068
11058SOL     OW35490   7.747   2.765   3.846  0.8673 -0.4003  0.0226
11058SOL    HW135491   7.775   2.830   3.781 -1.3118 -0.1326 -0.7203
11058SOL    HW235492   7.765   2.681   3.804  0.4603 -0.2367 -0.4871
11059SOL     OW35493   3.013   5.662   5.223 -0.0062  0.1464  0.3026
11059SOL    HW135494   2.924   5.650   5.257 -0.2342  1.9710  0.4569
11059SOL    HW235495   3.004   5.731   5.158  1.3902  0.7707  0.7354
11060SOL     OW35496   4.563   8.602   8.320  0.0301  0.0040  0.2166
11060SOL    HW135497   4.516   8.524   8.291 -1.7156  0.7887  0.7914
11060SOL    HW235498   4.547   8.667   8.251  0.8248  0.0865  0.1076
11061SOL     OW35499   2.806   4.914   0.331  0.0919 -0.1593  0.3129
11061SOL    HW135500   2.900   4.896   0.334 -0.3466 -2.6418  1.6465
11061SOL    HW235501   2.780   4.894   0.241  0.7894  0.5443 -0.0647
11062SOL     OW35502  10.218   4.341   2.760  0.5089  0.1497  0.1771
11062SOL    HW135503  10.228   4.436   2.756 -1.5540  0.4677  1.3662
11062SOL    HW235504  10.140   4.322   2.707  0.2167 -0.7352  0.8875
11063SOL     OW35505   0.421   0.046  10.454 -0.4342  0.7078 -0.5403
11063SOL    HW135506   0.337   0.014  10.422 -0.0980  0.1442 -0.8776
11063SOL    HW235507   0.473  -0.034  10.467  0.6728  1.1455 -2.0888
11064SOL     OW35508   4.148   0.430   9.857  0.1542 -0.2658  0.3512
11064SOL    HW135509   4.232   0.397   9.825  0.2062  0.6830 -0.5382
11064SOL    HW235510   4.129   0.506   9.801  1.3096  2.9099  3.8613
11065SOL     OW35511  10.292   4.140   5.350  0.2553 -0.0404 -0.2112
11065SOL    HW135512  10.251   4.076   5.408  1.7900  1.7633  3.2102
11065SOL    HW235513  10.222   4.202   5.329  0.1537  0.7141  2.0678
11066SOL     OW35514   7.038   8.086   5.186  0.2681  0.3102  0.0740
11066SOL    HW135515   7.133   8.080   5.174  0.2890 -0.4708  0.5931
11066SOL    HW235516   7.008   8.132   5.108  0.9517 -0.4039 -0.6374
11067SOL     OW35517   2.578   1.637   7.835  0.0555 -0.0644 -0.6499
11067SOL    HW135518   2.561   1.684   7.753  2.1139  2.7038  0.3955
11067SOL    HW235519   2.663   1.595   7.822  0.3360  0.2876  0.0223
11068SOL     OW35520   0.174   0.895   5.051  0.0401 -0.1127  0.5501
11068SOL    HW135521   0.148   0.847   4.973 -0.5373  0.7477  0.2073
11068SOL    HW235522   0.202   0.827   5.112  0.7311 -0.7726 -0.4794
11069SOL     OW35523   7.263   7.855   2.851 -0.1122 -0.1050  0.1481
11069SOL    HW135524   7.302   7.797   2.786 -1.1844  1.2419 -1.8196
11069SOL    HW235525   7.321   7.849   2.928  2.8426  0.3038 -1.8730
11070SOL     OW35526   7.593   2.009   1.800 -0.1358  0.1767  0.2395
11070SOL    HW135527   7.602   2.082   1.740 -2.6544 -0.0856 -0.5598
11070SOL    HW235528   7.567   1.935   1.745 -0.6247 -0.5477  1.4020
11071SOL     OW35529   6.284   8.228   6.850 -0.4323  0.0661 -0.0983
11071SOL    HW135530   6.364   8.177   6.861  1.0670  1.6511 -2.6808
11071SOL    HW235531   6.235   8.182   6.782 -0.4419  0.4914 -0.3840
11072SOL     OW35532   1.872   5.754  10.252  0.3273 -0.1423 -0.4463
11072SOL    HW135533   1.912   5.836  10.226 -1.1167  0.2838 -1.4801
11072SOL    HW235534   1.813   5.732  10.179  0.1049 -1.6829  0.1579
11073SOL     OW35535   8.036   3.138   2.657 -0.0171  0.1797 -0.2550
11073SOL    HW135536   8.037   3.118   2.563  1.7513 -0.4155 -0.1467
11073SOL    HW235537   7.988   3.221   2.663  0.2687  0.4846 -1.7522
11074SOL     OW35538   4.888   3.417   1.889 -0.0406  0.4759 -0.0778
11074SOL    HW135539   4.901   3.334   1.843 -1.4312 -0.1749  0.6430
11074SOL    HW235540   4.809   3.454   1.849  0.3855  1.3171 -0.1699
11075SOL     OW35541   9.333   2.768  10.256  0.0091 -0.0266  0.1224
11075SOL    HW135542   9.428   2.768  10.267 -0.0879 -0.2862  1.0842
11075SOL    HW235543   9.312   2.857  10.226  0.4600  0.3628  0.9140
11076SOL     OW35544   6.971   6.612   9.403  0.7026 -0.0131 -0.1954
11076SOL    HW135545   6.960   6.519   9.424  0.5379 -0.1226 -0.7525
11076SOL    HW235546   6.938   6.620   9.314 -1.1042  0.9560  0.4994
11077SOL     OW35547   8.437   0.253   5.040  0.2978  0.0258 -0.4160
11077SOL    HW135548   8.434   0.334   4.990  1.8954 -0.1517 -0.8441
11077SOL    HW235549   8.530   0.229   5.042 -0.1527 -1.8667 -0.4366
11078SOL     OW35550  10.222   2.430   1.226  0.3508 -0.0131 -0.3338
11078SOL    HW135551  10.233   2.351   1.279 -0.1098  0.3408  0.3056
11078SOL    HW235552  10.130   2.427   1.198  0.2257  0.4905  0.0170
11079SOL     OW35553   1.631   3.116   9.813  0.0811 -0.3616 -0.0798
11079SOL    HW135554   1.691   3.187   9.834  0.6300 -0.8253 -0.0714
11079SOL    HW235555   1.607   3.080   9.899  0.7251 -0.9408 -0.1380
11080SOL     OW35556   9.430   9.362  10.004 -0.0741 -0.2896  0.0711
11080SOL    HW135557   9.351   9.316   9.977  0.6694 -0.1194 -2.7461
11080SOL    HW235558   9.482   9.296  10.050 -0.8436 -1.0506 -0.1254
11081SOL     OW35559   0.026   6.704   3.589 -0.1281  0.4227  0.2066
11081SOL    HW135560   0.089   6.733   3.523 -0.6245  1.7214  0.2814
11081SOL    HW235561   0.080   6.684   3.666  0.3512 -0.1634 -0.2711
11082SOL     OW35562   0.414   6.034   4.700 -0.0823 -0.1535  0.1156
11082SOL    HW135563   0.364   6.016   4.779 -0.6539  0.8554  0.0040
11082SOL    HW235564   0.377   6.115   4.666  0.6669 -0.1606 -0.7703
11083SOL     OW35565   4.040   7.628   8.712 -0.0142  0.1401 -0.1670
11083SOL    HW135566   3.981   7.703   8.723 -0.6592 -0.2741 -0.7301
11083SOL    HW235567   4.028   7.576   8.792  0.3005  0.5407  0.1434
11084SOL     OW35568  10.203   4.042  10.101 -0.4925 -0.4460  0.1196
11084SOL    HW135569  10.293   4.024  10.076 -0.7977  0.2254 -1.6621
11084SOL    HW235570  10.163   4.078  10.021 -1.6674  1.5962  1.5155
11085SOL     OW35571   1.143   4.912   5.911  0.0372  0.4731 -0.7736
11085SOL    HW135572   1.215   4.909   5.974  0.4558  0.2921 -1.2457
11085SOL    HW235573   1.093   4.990   5.934  0.5855  0.7915 -0.6526
11086SOL     OW35574   0.323   7.544   7.906 -0.0286  0.2537  0.0123
11086SOL    HW135575   0.302   7.450   7.915  0.4801 -0.0887 -2.0525
11086SOL    HW235576   0.411   7.552   7.943 -0.1198 -0.0404  0.3111
11087SOL     OW35577   1.031  10.454   6.945  0.1471 -0.5926 -0.0171
11087SOL    HW135578   1.004  10.425   6.858  0.4256 -1.9887  0.3243
11087SOL    HW235579   1.119  10.489   6.932  0.0135 -0.3757 -0.3638
11088SOL     OW35580   3.934   2.540   8.747 -0.1387  0.0584  0.6994
11088SOL    HW135581   3.926   2.582   8.832  3.0082  0.3167  0.9834
11088SOL    HW235582   3.991   2.598   8.696  1.1314 -1.8804 -0.2443
11089SOL     OW35583   0.639   5.891   1.236  0.1500  0.7206 -0.3253
11089SOL    HW135584   0.617   5.953   1.305  0.4350 -0.1136  0.5237
11089SOL    HW235585   0.569   5.826   1.239  0.1417  0.6960 -0.8586
11090SOL     OW35586   9.644   1.434   0.384 -0.0835 -0.1717  0.3238
11090SOL    HW135587   9.611   1.392   0.304 -1.4412 -0.1709  0.8473
11090SOL    HW235588   9.603   1.520   0.384 -0.6496 -0.4234  1.3412
11091SOL     OW35589   4.835   7.693   0.184 -0.2593 -0.5064  0.0389
11091SOL    HW135590   4.919   7.663   0.216  0.6387  1.7585  0.0309
11091SOL    HW235591   4.851   7.717   0.092 -1.0039 -0.3934 -0.0748
11092SOL     OW35592   4.793   5.057   2.116  0.3151 -0.0956 -0.3361
11092SOL    HW135593   4.712   5.102   2.138  0.3550 -0.1731 -0.0257
11092SOL    HW235594   4.790   5.047   2.021  0.1263  0.2170 -0.3647
11093SOL     OW35595   1.179   8.604   4.216 -0.0377 -0.1146  0.0315
11093SOL    HW135596   1.187   8.698   4.230 -1.3125  0.0467 -0.2086
11093SOL    HW235597   1.110   8.595   4.151 -0.0858 -1.2231  0.2105
11094SOL     OW35598  10.395   0.799   8.990 -0.2826  0.0805  0.1321
11094SOL    HW135599  10.473   0.787   9.045  1.9642  1.0828 -2.6043
11094SOL    HW235600  10.403   0.731   8.923 -2.4957 -0.5750  0.4445
11095SOL     OW35601   7.823   5.647   3.031 -0.0607  0.0202  0.1536
11095SOL    HW135602   7.850   5.609   2.948 -1.3710  0.6381 -0.5965
11095SOL    HW235603   7.767   5.721   3.006  0.5536  1.0068  1.5766
11096SOL     OW35604   0.986   7.633   8.583  0.0043  0.3265  0.0759
11096SOL    HW135605   0.913   7.601   8.530 -2.8557  0.9173  3.2596
11096SOL    HW235606   0.998   7.724   8.555 -1.0285  0.4482 -0.0196
11097SOL     OW35607   3.587   5.084   0.957  0.3306  0.3023  0.5654
11097SOL    HW135608   3.666   5.096   1.010 -0.8296  2.1075  2.0220
11097SOL    HW235609   3.563   5.173   0.931  0.1228 -0.4229 -1.9816
11098SOL     OW35610   5.654   2.524   0.801  0.2524  0.5494 -0.3251
11098SOL    HW135611   5.624   2.571   0.724  0.4603  0.4259 -0.4855
11098SOL    HW235612   5.578   2.474   0.830 -0.1346  1.4169  0.1849
11099SOL     OW35613  10.492   2.979   6.854 -0.6801 -0.1794 -0.2453
11099SOL    HW135614  10.450   2.896   6.875 -1.4207  0.7045  2.0625
11099SOL    HW235615  10.424   3.029   6.807 -1.4161  0.3223  1.2980
11100SOL     OW35616   8.383   3.161   1.008 -0.8728  0.4218 -0.4149
11100SOL    HW135617   8.454   3.140   0.948 -0.1954 -0.6464  0.7169
11100SOL    HW235618   8.422   3.221   1.072 -0.9400 -0.2743  0.2879
11101SOL     OW35619   5.027   0.003   8.402 -0.3386  0.1768  0.3686
11101SOL    HW135620   5.068   0.055   8.471 -0.5719  2.2129 -0.9410
11101SOL    HW235621   4.933   0.015   8.416 -0.3891  1.5422 -0.9132
11102SOL     OW35622   9.497   5.129   4.743 -0.0190  0.0501 -0.0997
11102SOL    HW135623   9.544   5.102   4.664  0.8930  0.1959  0.3822
11102SOL    HW235624   9.555   5.106   4.815  0.1614  1.9242  0.4168
11103SOL     OW35625   0.828   7.089   5.940  0.0311  0.0829 -0.3798
11103SOL    HW135626   0.888   7.018   5.919  1.4165  1.2725 -0.6265
11103SOL    HW235627   0.812   7.132   5.856  1.2862  1.5876  0.0878
11104SOL     OW35628   5.465   4.720   8.809  0.0464  0.0295  0.2025
11104SOL    HW135629   5.435   4.668   8.735  0.2846  0.7340 -0.3962
11104SOL    HW235630   5.427   4.676   8.886 -2.4670  0.8345 -0.5011
11105SOL     OW35631   2.022   0.791   4.327 -0.0398  0.1851  0.5838
11105SOL    HW135632   2.031   0.845   4.249 -1.2757  1.7510  1.4738
11105SOL    HW235633   2.067   0.841   4.396  0.5849 -0.9207  1.0121
11106SOL     OW35634   1.887   3.973   0.235 -0.3770 -0.0358  0.4627
11106SOL    HW135635   1.911   3.883   0.257  0.4777  0.5780  2.2349
11106SOL    HW235636   1.800   3.966   0.195  0.2697 -1.7622 -0.7668
11107SOL     OW35637   3.957   5.087   4.114  0.0806  0.6825  0.2130
11107SOL    HW135638   4.011   5.161   4.088  0.5849 -0.1332 -1.2096
11107SOL    HW235639   3.867   5.113   4.091  0.4342  0.2692 -1.8446
11108SOL     OW35640   4.541   5.670   3.561 -0.1159 -0.3174  0.0442
11108SOL    HW135641   4.569   5.583   3.590 -0.6912 -0.2779  0.7472
11108SOL    HW235642   4.572   5.729   3.630  0.0909  0.0137 -0.3289
11109SOL     OW35643   0.731   4.138   2.529  0.1031  0.4976  0.1069
11109SOL    HW135644   0.767   4.225   2.544  1.3783 -0.0257  0.2903
11109SOL    HW235645   0.788   4.100   2.461  0.9416 -0.9532  1.5511
11110SOL     OW35646   3.977   9.405   7.543  0.2655 -0.1892 -0.5266
11110SOL    HW135647   4.017   9.344   7.605 -0.2311 -0.4527 -0.4630
11110SOL    HW235648   4.015   9.490   7.567 -0.9986 -0.0250  1.1177
11111SOL     OW35649   7.329   0.692   8.766 -0.3096 -0.2669  0.1740
11111SOL    HW135650   7.311   0.744   8.688  0.2844 -0.0606  0.1662
11111SOL    HW235651   7.255   0.708   8.824 -0.7563 -0.4234 -0.3462
11112SOL     OW35652   3.966   2.159   5.265 -0.1824  0.0122  0.4745
11112SOL    HW135653   3.937   2.246   5.291  0.0426 -0.0487  0.9400
11112SOL    HW235654   3.920   2.099   5.324  2.1589  0.0061  2.4490
11113SOL     OW35655   7.828   8.836   0.418 -0.0378 -0.0950 -0.3377
11113SOL    HW135656   7.857   8.873   0.335  0.7066  1.5122  0.6086
11113SOL    HW235657   7.844   8.904   0.483 -2.0183 -0.7261  0.9221
11114SOL     OW35658   4.511   6.019   5.682 -0.1118 -0.1257 -0.2347
11114SOL    HW135659   4.500   6.053   5.771  0.4660  1.0022 -0.5728
11114SOL    HW235660   4.442   5.953   5.673 -0.9409  0.5915  0.6418
11115SOL     OW35661   6.970   2.292   4.208  0.1035 -0.0999  0.5855
11115SOL    HW135662   6.886   2.247   4.201 -0.6507  0.9191  2.3603
11115SOL    HW235663   6.977   2.316   4.300  1.1211  2.1647 -0.0050
11116SOL     OW35664   1.762   3.278   5.613 -0.3618  0.3075 -0.6034
11116SOL    HW135665   1.676   3.238   5.601 -0.9133  1.0186  0.7488
11116SOL    HW235666   1.821   3.204   5.627 -0.7639 -0.1799 -1.3984
11117SOL     OW35667   0.924   5.573   4.400 -0.2072  0.2193  0.0023
11117SOL    HW135668   0.876   5.578   4.483 -1.2209  2.3783 -0.6360
11117SOL    HW235669   0.856   5.561   4.334  0.4943 -0.3507 -0.6272
11118SOL     OW35670   8.915   6.615   9.464 -0.2318  0.2146  0.4114
11118SOL    HW135671   8.901   6.660   9.380 -0.0784  0.8351  0.7155
11118SOL    HW235672   8.865   6.667   9.527  1.5017  1.0875  1.1063
11119SOL     OW35673   4.694   6.781  10.028 -0.2137  0.3955 -0.3580
11119SOL    HW135674   4.602   6.808  10.024 -0.5154 -0.6148 -3.4974
11119SOL    HW235675   4.691   6.685  10.028  0.8024  0.3416 -1.1644
11120SOL     OW35676   1.335   6.529   6.247  0.2183  0.5187  0.2912
11120SOL    HW135677   1.347   6.543   6.153  0.2888 -3.5138 -0.5050
11120SOL    HW235678   1.416   6.561   6.287  1.1823  0.2470 -1.3545
11121SOL     OW35679   4.812   5.709   9.868  0.0352  0.2999 -0.3205
11121SOL    HW135680   4.888   5.723   9.812  0.5670  0.6569  0.4750
11121SOL    HW235681   4.738   5.705   9.807  0.7753 -0.9555 -1.1946
11122SOL     OW35682   1.736   2.112   0.118  0.1936 -0.6569 -0.0232
11122SOL    HW135683   1.804   2.146   0.059 -0.3893  0.1622 -0.2488
11122SOL    HW235684   1.755   2.152   0.203 -1.0658  1.1012 -0.5123
11123SOL     OW35685   1.802   8.223   2.649 -0.3020  0.7062  0.0875
11123SOL    HW135686   1.848   8.284   2.591 -0.2553  1.2097  0.6384
11123SOL    HW235687   1.728   8.274   2.682 -1.4042 -0.1560 -0.9476
11124SOL     OW35688   8.960   2.080   5.809  0.5263 -0.7805 -0.3698
11124SOL    HW135689   8.900   2.143   5.851  2.1893  1.0259 -0.5819
11124SOL    HW235690   9.040   2.086   5.861  0.9253 -2.3341 -0.7713
11125SOL     OW35691   0.973   4.314   1.878  0.3629 -0.1269  0.1530
11125SOL    HW135692   0.896   4.359   1.911 -0.2383 -0.5161 -0.6865
11125SOL    HW235693   0.947   4.283   1.791  1.3752 -0.4929 -0.0287
11126SOL     OW35694   3.341   8.204   6.824  0.0734 -0.1007  0.1158
11126SOL    HW135695   3.434   8.189   6.810  0.1138 -0.0677  0.3410
11126SOL    HW235696   3.304   8.213   6.736  0.8585  3.5838  0.0190
11127SOL     OW35697   2.207   8.618  10.424 -0.2196 -0.0762  0.1466
11127SOL    HW135698   2.152   8.624  10.346 -0.0571  0.1518  0.0494
11127SOL    HW235699   2.164   8.675  10.488 -0.2616 -0.1345  0.1707
11128SOL     OW35700   0.992   7.531   7.244  0.0573 -0.7609 -0.0805
11128SOL    HW135701   1.066   7.487   7.287  0.2678 -0.4243 -0.0894
11128SOL    HW235702   0.967   7.473   7.172  0.9125 -0.4472 -0.6485
11129SOL     OW35703   3.708   2.386   0.961 -0.5314  0.4124  0.1753
11129SOL    HW135704   3.739   2.378   0.871 -2.2459 -0.4325 -0.3778
11129SOL    HW235705   3.619   2.352   0.959 -0.2266 -0.6917  2.4244
11130SOL     OW35706   1.432   1.148  10.359 -0.0326  0.4745  0.0009
11130SOL    HW135707   1.504   1.161  10.297 -0.9315 -0.0316 -1.1970
11130SOL    HW235708   1.448   1.062  10.396 -0.0033  0.3736 -0.2426
11131SOL     OW35709   6.776   6.988   4.186 -0.3894  0.0345 -0.0143
11131SOL    HW135710   6.714   6.973   4.114  0.1572 -0.9555 -0.2942
11131SOL    HW235711   6.762   6.915   4.246  0.8352 -0.4746 -0.3211
11132SOL     OW35712   5.979   3.042   4.820 -0.9339  0.0904  0.4448
11132SOL    HW135713   6.025   3.122   4.797 -0.5807  0.0932  1.1217
11132SOL    HW235714   6.043   2.991   4.869 -0.5831 -1.3941 -1.4495
11133SOL     OW35715   6.354   1.567   8.903 -0.0463 -0.2412 -0.1758
11133SOL    HW135716   6.303   1.646   8.920 -0.9362 -0.7465 -0.4089
11133SOL    HW235717   6.304   1.497   8.944  1.2793 -0.5616  0.9487
11134SOL     OW35718   2.251   8.695   8.020 -0.1994 -0.1011  0.2744
11134SOL    HW135719   2.194   8.764   8.054 -0.7889 -1.2276  1.7090
11134SOL    HW235720   2.274   8.724   7.932 -1.2125  1.4426  0.4735
11135SOL     OW35721   8.816   8.544   6.228  0.0088  0.7764  0.5613
11135SOL    HW135722   8.744   8.552   6.291  0.4354  0.1721  1.1393
11135SOL    HW235723   8.846   8.453   6.237  0.2742  0.7662 -0.3042
11136SOL     OW35724   5.256   3.572  10.433  0.5743  0.0417 -0.0428
11136SOL    HW135725   5.183   3.615  10.478  0.0264 -0.4733 -0.4295
11136SOL    HW235726   5.237   3.479  10.439 -0.1424 -0.0232 -2.3483
11137SOL     OW35727   1.944   5.516   4.656  0.0946 -0.0567  0.0224
11137SOL    HW135728   1.897   5.537   4.737 -2.2754  0.6342 -1.4396
11137SOL    HW235729   1.994   5.595   4.636 -1.0913  0.6345 -0.3257
11138SOL     OW35730   3.350   5.877   4.541  0.2616 -0.6678  0.4270
11138SOL    HW135731   3.260   5.910   4.542  0.9517  1.3340  0.2781
11138SOL    HW235732   3.342   5.788   4.506 -1.7771 -0.9891  1.5339
11139SOL     OW35733   6.859   8.444   8.074 -0.2435  0.0871 -0.6280
11139SOL    HW135734   6.929   8.399   8.121  0.5171 -0.1312 -1.9071
11139SOL    HW235735   6.889   8.446   7.983 -2.6859 -1.6693 -1.5837
11140SOL     OW35736   1.489   8.692   1.859  0.0620 -1.0048  0.0033
11140SOL    HW135737   1.498   8.599   1.876 -0.2781 -0.9265  0.6094
11140SOL    HW235738   1.510   8.734   1.942  1.9916 -0.4423 -0.7072
11141SOL     OW35739   3.816   1.344   0.066  0.3009  0.0728 -0.3085
11141SOL    HW135740   3.842   1.429   0.032 -0.9118  0.8926  0.7527
11141SOL    HW235741   3.742   1.362   0.124 -1.4467 -1.9204 -1.7427
11142SOL     OW35742   2.858   0.559   5.314  0.5808  0.4162 -0.4992
11142SOL    HW135743   2.860   0.575   5.409  0.1817 -0.7220 -0.2737
11142SOL    HW235744   2.924   0.491   5.300 -0.2512 -0.3485 -0.8247
11143SOL     OW35745   8.598   9.027   4.872 -0.2301 -0.0287  0.3496
11143SOL    HW135746   8.603   9.036   4.967 -2.0334 -3.7909  0.9692
11143SOL    HW235747   8.680   8.984   4.847 -1.3354 -2.6598  0.9162
11144SOL     OW35748   5.351   5.754   8.181  0.0927 -0.1294  0.0003
11144SOL    HW135749   5.305   5.700   8.117  1.6040  0.3651 -1.5843
11144SOL    HW235750   5.415   5.694   8.220  0.5167  0.0476 -0.4142
11145SOL     OW35751   0.852   7.447  10.275  0.5355 -0.1606  0.4401
11145SOL    HW135752   0.937   7.404  10.273 -0.5717 -2.6594  1.9883
11145SOL    HW235753   0.807   7.415  10.197  1.3005  2.0535 -1.0172
11146SOL     OW35754   8.141   6.252   0.878 -0.6380  0.1199  0.5555
11146SOL    HW135755   8.229   6.257   0.915 -1.5995 -0.3815  3.1532
11146SOL    HW235756   8.147   6.186   0.810  1.0081  0.1407  0.6432
11147SOL     OW35757   7.551   9.657   8.163  0.3334 -0.1372  0.1569
11147SOL    HW135758   7.616   9.612   8.216  0.6082  0.7513  0.5944
11147SOL    HW235759   7.530   9.596   8.093  2.0803 -0.2234 -0.3356
11148SOL     OW35760  10.025   2.555   9.859  0.8305  0.5612 -0.0187
11148SOL    HW135761  10.072   2.570   9.777  1.2247 -0.8032 -0.0766
11148SOL    HW235762  10.078   2.599   9.926  1.7831 -0.2744 -0.1943
11149SOL     OW35763   8.694   1.361   4.748  0.6643 -0.3563 -0.2389
11149SOL    HW135764   8.709   1.298   4.677 -2.3110 -0.1296 -1.2302
11149SOL    HW235765   8.604   1.390   4.734  0.5676  1.0081  2.6766
11150SOL     OW35766   7.899   2.349   1.638  0.0102  0.5665  0.4279
11150SOL    HW135767   7.980   2.304   1.614  0.1448  1.0155  0.0276
11150SOL    HW235768   7.926   2.440   1.653 -0.3443  0.6216  0.7382
11151SOL     OW35769   5.181   1.181   5.841  0.6525 -0.3478 -0.3911
11151SOL    HW135770   5.210   1.101   5.796 -0.6382 -0.8685 -0.3407
11151SOL    HW235771   5.197   1.164   5.933  0.9276 -0.3072 -0.4309
11152SOL     OW35772   2.213  10.525   2.717 -0.5548 -0.9911  0.1350
11152SOL    HW135773   2.148  10.520   2.787 -2.4877  0.8789 -1.4107
11152SOL    HW235774   2.177  10.471   2.647  0.7001 -1.7520  0.0387
11153SOL     OW35775   2.650   6.967   9.874  0.1996  0.4076  0.5491
11153SOL    HW135776   2.615   6.937   9.790 -1.5194  1.9082  0.6799
11153SOL    HW235777   2.648   7.063   9.868  4.6287  0.6900  0.4767
11154SOL     OW35778   6.601   7.968   6.496  0.3052 -0.6361  0.4398
11154SOL    HW135779   6.545   8.045   6.490  0.8194  0.0576  3.3298
11154SOL    HW235780   6.645   7.964   6.411 -1.5995  0.7150 -0.7020
11155SOL     OW35781   7.980   0.179   0.369  0.5252 -0.3573  0.1846
11155SOL    HW135782   7.978   0.116   0.441  0.6901 -0.8035 -0.1984
11155SOL    HW235783   8.069   0.174   0.334  0.2108 -0.7825 -0.5972
11156SOL     OW35784   1.164   2.173   1.931 -0.1963 -0.1705  0.5400
11156SOL    HW135785   1.191   2.143   1.844 -0.7544  1.3042 -0.1899
11156SOL    HW235786   1.096   2.238   1.913  0.6275  1.1742  2.0149
11157SOL     OW35787   5.985   9.214  10.485 -0.2098  0.1993 -0.0586
11157SOL    HW135788   6.041   9.233  10.560 -0.4652 -3.6935  1.3234
11157SOL    HW235789   6.025   9.138  10.443 -1.4659  0.7381 -2.4266
11158SOL     OW35790   3.017   2.220   7.533 -0.0870 -0.0205 -0.3274
11158SOL    HW135791   3.037   2.173   7.614  0.8040 -1.3574 -1.2982
11158SOL    HW235792   3.030   2.156   7.463  0.3576  1.4417 -1.6351
11159SOL     OW35793   5.421   5.902   6.745  0.4447  0.0137  0.2946
11159SOL    HW135794   5.359   5.954   6.695  1.0305  0.4346 -0.0156
11159SOL    HW235795   5.379   5.817   6.756 -0.7003  0.6723  1.1654
11160SOL     OW35796   6.662   1.293   7.076 -0.5744  0.2423  0.4645
11160SOL    HW135797   6.611   1.225   7.033 -0.4824 -0.3148  1.2144
11160SOL    HW235798   6.596   1.348   7.119 -0.7246  1.2846 -1.0304
11161SOL     OW35799   4.727   8.466   0.341  0.0308 -0.8520 -0.9675
11161SOL    HW135800   4.681   8.533   0.291 -0.7120  0.3904  1.2550
11161SOL    HW235801   4.817   8.498   0.348 -0.6051  0.6604  1.1680
11162SOL     OW35802   8.804   5.814   5.142 -0.0399  0.8531 -0.1585
11162SOL    HW135803   8.719   5.788   5.178  0.8489  0.7942  2.1010
11162SOL    HW235804   8.785   5.845   5.054 -2.2004 -0.3713 -0.1831
11163SOL     OW35805   4.352   5.655   3.104  0.5805  0.3839  0.4559
11163SOL    HW135806   4.394   5.642   3.019  1.2678  1.6222  0.5768
11163SOL    HW235807   4.368   5.574   3.151 -1.6909 -1.2315 -1.3194
11164SOL     OW35808   0.785   1.311   6.534 -0.1353 -0.3438  0.6286
11164SOL    HW135809   0.772   1.222   6.566  1.1492 -0.4902  0.8011
11164SOL    HW235810   0.873   1.335   6.564 -0.1640  0.6998 -0.0560
11165SOL     OW35811  10.369   8.749   5.489  0.0804  0.0267  0.2558
11165SOL    HW135812  10.290   8.793   5.459 -0.1584 -0.1601  0.6132
11165SOL    HW235813  10.350   8.656   5.481  0.5267 -0.0281 -0.3407
11166SOL     OW35814   1.637  10.185   9.331 -0.2114 -0.1476  0.1168
11166SOL    HW135815   1.550  10.152   9.353 -0.3475 -0.4031 -0.7554
11166SOL    HW235816   1.659  10.245   9.403 -0.2795 -1.5295  1.3335
11167SOL     OW35817   9.940  10.256   7.030 -0.2154  0.2377 -0.4921
11167SOL    HW135818   9.982  10.172   7.009 -0.3399  0.4208 -1.5537
11167SOL    HW235819   9.963  10.272   7.121 -0.0744 -0.8834 -0.3096
11168SOL     OW35820   6.688   4.990   2.028 -0.2654  0.0798 -0.3527
11168SOL    HW135821   6.684   4.999   1.932 -0.3706 -0.8720 -0.4381
11168SOL    HW235822   6.758   4.926   2.043 -1.8623 -1.6238  0.0979
11169SOL     OW35823  10.589   5.225  10.028  0.0300 -0.2153 -0.6729
11169SOL    HW135824  10.527   5.210   9.957  0.8114  4.6821 -2.8101
11169SOL    HW235825  10.534   5.234  10.106 -1.2679 -1.5903 -1.3695
11170SOL     OW35826   7.942   2.698   3.024  0.2721 -0.3790  0.1312
11170SOL    HW135827   7.874   2.688   2.956  1.4778 -1.2653 -0.9905
11170SOL    HW235828   7.998   2.621   3.012  1.9833  0.7962  0.4385
11171SOL     OW35829   1.272   0.174   4.001  0.4021 -0.0716  0.1587
11171SOL    HW135830   1.233   0.116   4.066  1.4825 -1.4157 -0.3348
11171SOL    HW235831   1.217   0.252   4.002 -2.9751 -2.2075 -1.2264
11172SOL     OW35832   1.880   1.821   1.242 -0.1620  0.7116 -0.4074
11172SOL    HW135833   1.934   1.804   1.318 -1.1962  2.4877  0.8190
11172SOL    HW235834   1.817   1.749   1.240  0.4337  0.1738 -0.1463
11173SOL     OW35835   2.243   9.079   8.661  0.2152 -0.2704  0.3175
11173SOL    HW135836   2.210   8.991   8.682 -1.3036  0.2091  0.0647
11173SOL    HW235837   2.251   9.122   8.746 -0.8678 -0.0492  0.3223
11174SOL     OW35838   5.461   3.898   0.608 -0.0462 -0.4697  0.2597
11174SOL    HW135839   5.477   3.919   0.516  0.7861  0.3219  0.5751
11174SOL    HW235840   5.432   3.981   0.646  0.5957 -0.5499  0.9300
11175SOL     OW35841   0.227   5.627   4.562 -0.2288  0.0244  0.1487
11175SOL    HW135842   0.309   5.633   4.611 -0.6151  1.8879  0.6191
11175SOL    HW235843   0.254   5.638   4.470  0.0778  0.3380  0.2748
11176SOL     OW35844   9.391   5.339   1.753 -0.0544  0.6975 -0.1937
11176SOL    HW135845   9.373   5.275   1.685 -0.6096 -0.1495  0.7119
11176SOL    HW235846   9.487   5.339   1.762 -0.0945 -1.3047  0.9427
11177SOL     OW35847   3.293   2.488   9.974  0.2886  0.2374 -0.3489
11177SOL    HW135848   3.280   2.431   9.898  0.9913  1.2012 -1.2326
11177SOL    HW235849   3.367   2.449  10.020  0.7467  0.3893 -0.9330
11178SOL     OW35850   7.703   0.984  10.323  0.5109  0.2586 -0.1633
11178SOL    HW135851   7.675   1.016  10.409 -1.2212 -0.2198 -0.5232
11178SOL    HW235852   7.661   1.042  10.260 -1.5738 -1.7639 -0.7844
11179SOL     OW35853   8.628   8.077   4.352 -0.3282 -0.5282 -0.1006
11179SOL    HW135854   8.572   8.069   4.429 -1.1778  0.1407 -0.6299
11179SOL    HW235855   8.569   8.066   4.278  0.2733 -0.0324 -0.6690
11180SOL     OW35856   0.756   8.449   8.309 -0.2812  0.2784  0.3504
11180SOL    HW135857   0.785   8.473   8.221 -0.3814  1.6475  0.6653
11180SOL    HW235858   0.829   8.400   8.346 -0.3353 -0.5172 -0.5744
11181SOL     OW35859   3.523   3.228   6.120  0.4055 -0.2441 -0.2827
11181SOL    HW135860   3.459   3.274   6.066 -0.5879 -2.4825 -1.1461
11181SOL    HW235861   3.597   3.214   6.062 -0.8322 -3.0306 -1.3371
11182SOL     OW35862   6.219   3.787   2.098  0.1879  0.3409  0.4617
11182SOL    HW135863   6.292   3.848   2.091 -0.0592  0.6830  0.8208
11182SOL    HW235864   6.250   3.719   2.158  0.2313  0.4483  0.5600
11183SOL     OW35865   2.983   8.991   8.435  0.1820 -0.1173 -0.0341
11183SOL    HW135866   2.971   9.076   8.476  0.7830  0.2011 -0.4941
11183SOL    HW235867   3.078   8.974   8.443  0.2697 -0.1533 -1.0713
11184SOL     OW35868   9.395  10.262   8.572  0.3268  0.4435 -0.2808
11184SOL    HW135869   9.317  10.211   8.594  1.9202 -2.1233 -0.1317
11184SOL    HW235870   9.410  10.318   8.648 -0.2573 -0.4706  0.5251
11185SOL     OW35871   2.040   2.776   2.132  0.4376 -0.0037 -0.3224
11185SOL    HW135872   1.989   2.712   2.182  1.3196 -1.2996 -1.0381
11185SOL    HW235873   2.066   2.841   2.197 -0.1022 -0.5988  0.5087
11186SOL     OW35874   2.567   9.531   9.638 -0.3495 -0.0904  0.1364
11186SOL    HW135875   2.592   9.601   9.578 -0.2538 -0.5572 -0.3688
11186SOL    HW235876   2.479   9.555   9.668  0.3107  1.0964  1.2409
11187SOL     OW35877   6.428   8.817   6.256 -0.1805  0.1955  0.7971
11187SOL    HW135878   6.418   8.905   6.219 -0.0383  0.3302  1.0765
11187SOL    HW235879   6.490   8.773   6.198 -0.3568  0.2333  0.5785
11188SOL     OW35880   4.579   2.296  10.293  0.2620  0.2602  0.2819
11188SOL    HW135881   4.639   2.275  10.364  2.3092 -1.2633 -1.7564
11188SOL    HW235882   4.624   2.364  10.242 -1.1212  1.2736  0.3662
11189SOL     OW35883   8.546   5.184   6.551  0.0160  0.0447 -0.2237
11189SOL    HW135884   8.559   5.249   6.483 -1.7951 -0.6220 -1.2761
11189SOL    HW235885   8.607   5.113   6.530 -0.4009 -0.0728 -1.0765
11190SOL     OW35886   2.351   7.021   5.977 -0.1761 -0.1348  0.3177
11190SOL    HW135887   2.415   7.083   6.014  0.3763 -0.0718 -0.7149
11190SOL    HW235888   2.338   7.051   5.887 -1.9776  0.0823  0.6236
11191SOL     OW35889   6.927   2.569   6.454 -0.3025  0.5614 -0.0034
11191SOL    HW135890   6.851   2.628   6.460 -0.7810 -0.1155  0.8102
11191SOL    HW235891   6.991   2.606   6.515 -1.4415 -0.9173  2.2313
11192SOL     OW35892  10.571   2.038   6.208  0.0679  0.2422 -0.1149
11192SOL    HW135893  10.524   2.104   6.157  1.3577  0.4188 -1.1408
11192SOL    HW235894  10.580   2.076   6.295 -1.7369  0.1556  0.1429
11193SOL     OW35895   1.746   4.464   1.291  0.3038  0.0162 -0.0748
11193SOL    HW135896   1.726   4.460   1.197 -0.5468  0.6363  0.0685
11193SOL    HW235897   1.688   4.532   1.325  0.8855  0.0757  0.8353
11194SOL     OW35898   5.019   4.931   3.875  0.9917  0.7643  0.0327
11194SOL    HW135899   5.019   4.845   3.833  0.4326 -0.0124  1.5538
11194SOL    HW235900   4.948   4.979   3.833  1.8115  0.7905 -1.3785
11195SOL     OW35901   1.571   2.276   8.602  0.1888 -0.8774 -0.3654
11195SOL    HW135902   1.527   2.191   8.602 -0.7315 -0.5085 -3.0588
11195SOL    HW235903   1.527   2.325   8.672 -0.7880 -1.9015 -0.2231
11196SOL     OW35904   9.018   8.005   9.830  0.4229 -0.2131 -0.6630
11196SOL    HW135905   8.954   7.942   9.863 -0.9874  1.8065  0.7379
11196SOL    HW235906   9.103   7.967   9.853 -0.3014 -2.0829 -0.8756
11197SOL     OW35907   8.076   0.458   9.534 -0.1713  0.3517 -0.5166
11197SOL    HW135908   8.108   0.373   9.505  1.7119  1.1783 -1.0217
11197SOL    HW235909   7.993   0.439   9.578  1.1245 -2.0003  1.1520
11198SOL     OW35910   7.970   8.168   4.453 -0.1964 -0.2619  0.1421
11198SOL    HW135911   8.061   8.197   4.442 -0.0944 -0.6245 -0.0075
11198SOL    HW235912   7.917   8.243   4.428  0.0573 -0.4369 -0.9884
11199SOL     OW35913   1.134   7.914   5.886 -0.2718 -0.4656 -0.1444
11199SOL    HW135914   1.205   7.898   5.949 -0.5651 -1.1873  0.0044
11199SOL    HW235915   1.108   8.005   5.902  1.4482  0.2376 -1.0375
11200SOL     OW35916   5.350   1.172   6.978  0.0066 -0.0040 -0.1240
11200SOL    HW135917   5.285   1.106   7.004  1.1066 -1.3396 -0.6302
11200SOL    HW235918   5.355   1.164   6.882  0.4113  0.5573 -0.1524
11201SOL     OW35919   4.391   0.255   1.147  0.0564  0.7351  0.6072
11201SOL    HW135920   4.447   0.308   1.090  0.0089 -0.2370 -0.3729
11201SOL    HW235921   4.348   0.319   1.204  1.9662  1.5341  1.2406
11202SOL     OW35922   6.276   3.161   3.471  0.0832  0.1626  0.3983
11202SOL    HW135923   6.327   3.121   3.542  0.0305 -2.4362 -0.9106
11202SOL    HW235924   6.185   3.150   3.498  0.0957  0.1824  0.4473
11203SOL     OW35925   1.472   3.544   6.686  0.2627  0.3961  0.0281
11203SOL    HW135926   1.484   3.496   6.767 -0.1436  2.8904  1.6602
11203SOL    HW235927   1.559   3.574   6.661  0.3467 -0.1249 -0.3233
11204SOL     OW35928   8.832   8.644   4.735  0.5213 -0.2508  0.7990
11204SOL    HW135929   8.755   8.651   4.678  0.6412 -1.2582  0.5031
11204SOL    HW235930   8.801   8.593   4.810  0.7427 -0.1252  0.9748
11205SOL     OW35931   8.094   4.271   7.757  0.5342  0.1534 -0.3779
11205SOL    HW135932   8.142   4.188   7.765  3.3931  1.6032 -1.1669
11205SOL    HW235933   8.100   4.311   7.843 -0.9620 -0.4417  0.0399
11206SOL     OW35934   8.321   5.798   9.665  0.2441  0.0013 -0.6863
11206SOL    HW135935   8.320   5.868   9.731  0.9669 -0.6163 -0.0046
11206SOL    HW235936   8.242   5.813   9.613 -0.9664 -0.1746  1.0239
11207SOL     OW35937   6.946   4.011   8.185  0.3139  0.1464 -0.2800
11207SOL    HW135938   6.878   3.953   8.149 -0.3377  1.4669 -1.2706
11207SOL    HW235939   6.989   4.049   8.108  0.6682  1.0260  0.3304
11208SOL     OW35940   7.388  10.185   4.189 -0.1316  0.4882 -0.1675
11208SOL    HW135941   7.454  10.142   4.244 -1.1660  2.2474  2.7093
11208SOL    HW235942   7.326  10.115   4.167  0.2441 -0.2903  1.1192
11209SOL     OW35943   6.721   9.941   2.148 -0.3749  0.3028 -0.9715
11209SOL    HW135944   6.760   9.926   2.234 -0.9380  1.1349 -0.5457
11209SOL    HW235945   6.655  10.009   2.164 -0.2934  0.6720 -2.1172
11210SOL     OW35946   3.831   7.921   4.881 -0.3915 -0.0387 -0.0839
11210SOL    HW135947   3.908   7.946   4.831 -1.9532  1.7334 -1.7425
11210SOL    HW235948   3.761   7.911   4.816 -2.3333  1.5791  1.5921
11211SOL     OW35949   6.558   2.546   2.993 -0.3006 -0.3817 -0.1446
11211SOL    HW135950   6.468   2.518   3.011 -0.1723  0.5362  2.4238
11211SOL    HW235951   6.549   2.626   2.942 -0.8800 -1.0814 -1.1622
11212SOL     OW35952   5.044   3.607   4.477 -0.1428  0.4217  0.2905
11212SOL    HW135953   5.121   3.663   4.493 -0.9359  1.4526  0.6477
11212SOL    HW235954   5.003   3.645   4.399  1.4149 -2.0610 -1.8796
11213SOL     OW35955   0.568   9.229   4.258  0.2123  0.2412 -0.8631
11213SOL    HW135956   0.562   9.324   4.271 -2.3549  0.2464 -1.6023
11213SOL    HW235957   0.606   9.220   4.170  0.8209  0.5481 -0.6408
11214SOL     OW35958   3.866   0.739   7.606  0.4872  0.1062  0.6784
11214SOL    HW135959   3.876   0.814   7.664 -1.3372  2.3254 -1.6856
11214SOL    HW235960   3.902   0.768   7.522 -1.5650 -1.1035 -0.7005
11215SOL     OW35961   6.910   1.477   5.646  0.0439 -0.5106  0.0378
11215SOL    HW135962   6.967   1.465   5.721 -0.5250 -2.0999  0.2386
11215SOL    HW235963   6.951   1.426   5.576 -0.5085 -0.6967 -0.1537
11216SOL     OW35964   0.926   0.709   7.961 -0.1607 -0.6470  0.2597
11216SOL    HW135965   0.857   0.650   7.992 -2.9413  1.7846 -0.8248
11216SOL    HW235966   0.986   0.716   8.034 -1.3573 -2.4787  1.4971
11217SOL     OW35967   9.340   2.699  10.526 -0.0360 -0.7362  0.0239
11217SOL    HW135968   9.350   2.780  10.575  2.5751 -1.1908  0.3965
11217SOL    HW235969   9.327   2.726  10.435 -1.4581  0.0651  0.4351
11218SOL     OW35970   0.046   2.931   6.484  0.5868  0.2922 -0.0048
11218SOL    HW135971   0.010   2.988   6.551  0.0288 -1.3361  1.1431
11218SOL    HW235972  -0.031   2.900   6.435  0.7238 -0.5166  0.2643
11219SOL     OW35973  10.472   4.674   6.466  0.1097  0.3207 -0.0578
11219SOL    HW135974  10.497   4.722   6.387  2.5817 -0.1335  0.3534
11219SOL    HW235975  10.408   4.610   6.436  0.7928  0.3408 -1.6521
11220SOL     OW35976   5.115   6.735   1.134  0.2016  0.0942  0.0592
11220SOL    HW135977   5.116   6.826   1.105  0.7657  0.5477  1.3909
11220SOL    HW235978   5.206   6.707   1.129 -0.0574 -0.5998 -0.9089
11221SOL     OW35979   2.800   5.724   0.531 -0.0941  0.8728 -0.1203
11221SOL    HW135980   2.881   5.675   0.517 -0.7843 -0.5471  0.6912
11221SOL    HW235981   2.825   5.816   0.515  2.2212  0.7634  2.2238
11222SOL     OW35982   1.308   6.984   0.800 -0.1499 -0.0315 -0.4631
11222SOL    HW135983   1.337   6.913   0.742  0.2416 -0.0851 -0.2045
11222SOL    HW235984   1.374   7.052   0.790  0.4254 -0.4035  0.5978
11223SOL     OW35985   9.429   8.077   3.006 -0.4917  0.3948 -0.6763
11223SOL    HW135986   9.408   8.104   2.917 -0.1625  1.0404 -0.5626
11223SOL    HW235987   9.517   8.038   2.998 -0.2491  0.9111 -0.5522
11224SOL     OW35988   2.338   8.524   2.673  0.0703  0.0987 -0.4946
11224SOL    HW135989   2.415   8.470   2.656 -0.1390 -0.3611 -0.0036
11224SOL    HW235990   2.321   8.513   2.766  0.1982  1.2489 -0.3176
11225SOL     OW35991   8.640   0.881   8.285  0.0018  0.2943 -0.1134
11225SOL    HW135992   8.569   0.818   8.291 -0.5529  0.9149 -0.0990
11225SOL    HW235993   8.691   0.869   8.365  0.0277 -0.2811 -0.2148
11226SOL     OW35994   3.700   8.177   5.192  0.0431 -0.4262  0.1857
11226SOL    HW135995   3.752   8.229   5.131 -0.3797  1.3369  1.2660
11226SOL    HW235996   3.735   8.199   5.278 -1.0155 -0.9456  0.7616
11227SOL     OW35997   5.624   3.710  10.127 -0.7259 -0.1845  0.2936
11227SOL    HW135998   5.673   3.629  10.128 -0.3737 -0.0014  2.3529
11227SOL    HW235999   5.536   3.685  10.157 -0.6231  0.1867  0.9086
11228SOL     OW36000   0.062   9.235   9.863 -0.0550  0.2175  0.2385
11228SOL    HW136001  -0.001   9.225   9.792 -0.0697  1.4625  0.0457
11228SOL    HW236002   0.088   9.327   9.858  1.3159 -0.1226  0.7011
11229SOL     OW36003   1.075   2.494   4.160 -0.1627  0.1342  0.4140
11229SOL    HW136004   1.100   2.433   4.229  1.1294  1.8779  1.5640
11229SOL    HW236005   1.057   2.576   4.206  1.0147  1.4341 -1.3363
11230SOL     OW36006   6.041   7.602   6.755 -0.4707  0.0772 -0.0336
11230SOL    HW136007   6.100   7.676   6.765  1.0258 -0.9063 -1.2206
11230SOL    HW236008   5.991   7.621   6.676 -0.7202  0.2304  0.1599
11231SOL     OW36009   7.014   4.303   8.090  0.1182 -0.4847  0.5360
11231SOL    HW136010   6.951   4.250   8.139  0.6270  0.6462  2.5428
11231SOL    HW236011   7.088   4.312   8.150  0.2531  2.0479  0.0812
11232SOL     OW36012   0.442   4.940   9.198  0.0080 -0.3560 -0.3303
11232SOL    HW136013   0.417   5.024   9.236 -0.7749 -1.2532  1.2414
11232SOL    HW236014   0.378   4.925   9.128  0.5312  0.6104 -1.0450
11233SOL     OW36015   5.287  10.052   5.432 -0.4260  0.2312  0.3251
11233SOL    HW136016   5.235  10.067   5.353  1.2294  0.7532 -0.7165
11233SOL    HW236017   5.299   9.957   5.435 -0.8639  0.1698  0.1980
11234SOL     OW36018   5.231  10.174   5.901 -0.1410  0.1092  0.3515
11234SOL    HW136019   5.197  10.142   5.985 -0.0216  0.3960  0.5123
11234SOL    HW236020   5.165  10.149   5.837 -0.5460  0.4611  0.6272
11235SOL     OW36021   6.926   0.628   6.752  0.1006 -0.2819 -0.3600
11235SOL    HW136022   6.977   0.702   6.720  0.6016  0.5202  2.0758
11235SOL    HW236023   6.954   0.554   6.697  1.1902  0.8681 -1.4136
11236SOL     OW36024   3.634   4.349   2.745 -0.5171 -0.6785 -0.3349
11236SOL    HW136025   3.640   4.435   2.786  2.3983 -0.2673 -1.3642
11236SOL    HW236026   3.582   4.363   2.666 -0.8632 -0.1080 -0.0089
11237SOL     OW36027   1.140   6.404   8.976  0.2765  0.3185 -0.4752
11237SOL    HW136028   1.226   6.366   8.960  0.5651  0.7900 -0.0770
11237SOL    HW236029   1.142   6.430   9.068 -0.3948  0.0757 -0.3835
11238SOL     OW36030   6.974   1.323   6.421  0.6276 -0.5545 -0.3983
11238SOL    HW136031   7.002   1.303   6.332  2.0672  1.6855 -0.5213
11238SOL    HW236032   7.054   1.350   6.466 -0.3494 -0.0168  1.0829
11239SOL     OW36033   2.357   8.996   2.272 -0.6255  0.0609  0.4811
11239SOL    HW136034   2.371   9.090   2.267  0.6487 -0.0663  1.4890
11239SOL    HW236035   2.265   8.985   2.246 -0.1022  1.2985 -2.2982
11240SOL     OW36036   9.126   4.148   7.156 -0.2145  0.2667  0.0810
11240SOL    HW136037   9.121   4.244   7.162  1.8465  0.4174  0.1838
11240SOL    HW236038   9.148   4.131   7.064  2.6283  0.1566  0.6897
11241SOL     OW36039   4.912   0.274   5.253 -0.0388 -0.2971  0.3198
11241SOL    HW136040   4.941   0.341   5.314 -0.0420 -0.9802  1.0930
11241SOL    HW236041   4.868   0.209   5.308 -2.8925  0.5883 -0.7477
11242SOL     OW36042   0.471   8.333   5.849  0.1055  0.1734  0.3911
11242SOL    HW136043   0.450   8.244   5.878 -0.7868  0.0846 -0.4518
11242SOL    HW236044   0.449   8.388   5.924 -1.3808 -0.1205  0.1987
11243SOL     OW36045   1.950   2.532   3.924  0.0527  0.6327  0.4046
11243SOL    HW136046   1.945   2.561   4.015 -0.9573 -0.2077  0.6387
11243SOL    HW236047   2.036   2.490   3.917 -1.0983 -2.2118  1.9197
11244SOL     OW36048   3.870   9.823   3.266 -0.5411  0.0052  0.2840
11244SOL    HW136049   3.898   9.823   3.357  1.5371  2.3193 -0.2463
11244SOL    HW236050   3.793   9.880   3.265 -0.8347 -0.3808  0.6428
11245SOL     OW36051   7.208   8.003   8.256  0.0571  0.6410  0.8221
11245SOL    HW136052   7.172   8.001   8.167  0.0500  0.1484  0.8324
11245SOL    HW236053   7.273   8.073   8.254  0.3063  0.3984  0.3283
11246SOL     OW36054   2.860   0.353   5.548 -0.0152 -0.2122  0.4386
11246SOL    HW136055   2.869   0.431   5.604 -0.6242  0.5132 -0.4630
11246SOL    HW236056   2.767   0.332   5.550  0.3243 -1.9364  1.9765
11247SOL     OW36057   4.547   9.504   1.242  0.5346 -0.3371  0.4377
11247SOL    HW136058   4.570   9.561   1.168  0.1159 -1.9279 -0.9853
11247SOL    HW236059   4.575   9.553   1.319 -0.3907  2.0814 -0.6423
11248SOL     OW36060   5.572   0.732   6.435 -0.1774 -0.0389  0.1349
11248SOL    HW136061   5.537   0.733   6.524  1.2061  0.0265  0.6915
11248SOL    HW236062   5.648   0.675   6.440  0.1813  0.3307 -0.9081
11249SOL     OW36063   8.850   4.146  10.291 -0.3050 -0.2071  0.2942
11249SOL    HW136064   8.891   4.096  10.220  0.6122 -0.2777  0.8443
11249SOL    HW236065   8.764   4.105  10.303  1.1768 -3.1840  2.1263
11250SOL     OW36066   2.245   4.384   2.744  0.1492 -1.1509 -0.5498
11250SOL    HW136067   2.244   4.419   2.655  0.8232  2.8764  0.8289
11250SOL    HW236068   2.166   4.418   2.785  2.4518  1.9872  1.8373
11251SOL     OW36069   0.648   9.389   7.528  0.3977 -0.5587 -0.8439
11251SOL    HW136070   0.658   9.480   7.498  0.1431 -1.5952 -4.6028
11251SOL    HW236071   0.691   9.387   7.613  0.7174  2.9775 -0.7561
11252SOL     OW36072   2.707   2.490   3.864 -0.1407  0.1560  0.4742
11252SOL    HW136073   2.697   2.575   3.820 -2.1110  0.2551  1.0153
11252SOL    HW236074   2.790   2.497   3.912 -1.1247  2.5062  2.0158
11253SOL     OW36075   4.587   2.865   8.270  0.3106  0.4365  0.5157
11253SOL    HW136076   4.674   2.846   8.304 -0.0411  0.6352  1.5629
11253SOL    HW236077   4.535   2.787   8.293 -0.1859  1.0108  1.3955
11254SOL     OW36078   1.822   2.878   0.951 -0.1545  0.1038  0.3465
11254SOL    HW136079   1.753   2.943   0.967  0.6852  1.6382 -1.8903
11254SOL    HW236080   1.892   2.904   1.010  0.0647  1.0889 -0.3275
11255SOL     OW36081   4.422   4.849   2.781 -0.1409 -0.4776  0.6345
11255SOL    HW136082   4.402   4.943   2.786 -0.6675 -0.5866  0.6081
11255SOL    HW236083   4.500   4.839   2.837  0.6754  0.1780 -0.3455
11256SOL     OW36084   9.068   1.708   7.274  0.0114 -0.5360  0.0579
11256SOL    HW136085   9.153   1.712   7.230  0.6193 -1.1122  1.0974
11256SOL    HW236086   9.082   1.755   7.356 -0.9161  0.0446 -0.1145
11257SOL     OW36087   7.307   6.302   8.793 -0.2532 -0.0725 -0.3479
11257SOL    HW136088   7.252   6.233   8.831 -0.1718 -0.0975 -0.2750
11257SOL    HW236089   7.350   6.343   8.868 -0.9404  0.6174 -0.3167
11258SOL     OW36090   6.858   4.169   1.430  0.0422 -0.3196  0.0467
11258SOL    HW136091   6.842   4.096   1.490 -0.5510 -0.9887 -0.9076
11258SOL    HW236092   6.824   4.139   1.346  0.2689  0.8600 -0.4824
11259SOL     OW36093   9.903   9.858   4.678 -0.0239 -0.0946  0.1732
11259SOL    HW136094   9.867   9.793   4.739 -0.7704  0.6353  0.5378
11259SOL    HW236095   9.977   9.896   4.724 -1.5831  1.6440  1.3932
11260SOL     OW36096   9.877   0.273   3.752  0.1409  0.1930 -0.0280
11260SOL    HW136097   9.809   0.340   3.757 -0.3514 -0.3524  0.9848
11260SOL    HW236098   9.957   0.317   3.779  0.5076  1.1873 -2.4743
11261SOL     OW36099  10.340   3.023   4.853 -0.0332 -0.2023  0.2555
11261SOL    HW136100  10.371   3.108   4.886  0.2955 -0.3901  0.4460
11261SOL    HW236101  10.245   3.032   4.849  0.0609  0.5252 -0.7076
11262SOL     OW36102   4.291   3.276   3.895 -0.4606 -0.3178  0.2811
11262SOL    HW136103   4.336   3.192   3.900  1.3510  0.5351 -0.7662
11262SOL    HW236104   4.317   3.322   3.975 -1.4087 -0.6825  0.8276
11263SOL     OW36105   7.434   1.837   5.106 -0.6113 -0.3612 -0.1842
11263SOL    HW136106   7.494   1.893   5.057 -1.0843  1.5830  1.3156
11263SOL    HW236107   7.461   1.747   5.085 -1.4068  0.2540 -4.6364
11264SOL     OW36108   4.849   1.435   8.511 -0.1121  0.6212  0.3888
11264SOL    HW136109   4.886   1.399   8.592 -3.2460  1.7336  2.4983
11264SOL    HW236110   4.875   1.527   8.512 -0.3121  0.6799  0.2498
11265SOL     OW36111   7.389   9.722   5.292 -0.0693  0.6873 -0.0657
11265SOL    HW136112   7.375   9.676   5.375 -0.4940  0.4531 -0.2627
11265SOL    HW236113   7.395   9.814   5.316 -0.0566  0.6077  0.2419
11266SOL     OW36114   5.986   9.931   4.958 -0.2956  0.0438 -0.3463
11266SOL    HW136115   5.953  10.013   4.995 -0.7022 -0.8364  1.3397
11266SOL    HW236116   5.933   9.917   4.879 -1.2779  0.6485  0.1860
11267SOL     OW36117   9.243   4.555   7.508  0.3248  0.2101  0.2559
11267SOL    HW136118   9.299   4.565   7.431  0.9222  1.7957  0.8382
11267SOL    HW236119   9.249   4.462   7.531  1.4227  0.0350 -0.6662
11268SOL     OW36120   9.422   6.296   0.683  0.6031 -0.1038  0.4188
11268SOL    HW136121   9.336   6.254   0.677  1.0849 -1.6453  2.9805
11268SOL    HW236122   9.474   6.253   0.614 -0.2735 -0.1589 -0.2292
11269SOL     OW36123   9.462   9.955   3.500  0.2527  0.2089 -0.2440
11269SOL    HW136124   9.432   9.870   3.466  2.0516 -0.6667  0.2345
11269SOL    HW236125   9.405   9.972   3.575 -0.4931 -0.2763 -0.6785
11270SOL     OW36126   4.135   5.701   6.555 -0.3129 -0.2314 -0.1204
11270SOL    HW136127   4.124   5.765   6.625  1.7656  0.3630 -0.2912
11270SOL    HW236128   4.093   5.741   6.478 -0.3450  0.2381  0.1412
11271SOL     OW36129   8.126  10.046  10.169  0.0023 -0.5350  0.5263
11271SOL    HW136130   8.064  10.081  10.233  0.0064  1.0439 -0.2739
11271SOL    HW236131   8.201  10.106  10.174  0.3668 -0.9117 -0.3383
11272SOL     OW36132   8.266   3.128   9.891 -0.5168 -0.0456  0.1656
11272SOL    HW136133   8.226   3.042   9.898  1.8199 -1.3592 -1.2135
11272SOL    HW236134   8.198   3.183   9.853 -1.6493 -1.6352 -0.2165
11273SOL     OW36135   8.858   7.992   4.182  0.8255  0.1526  0.6330
11273SOL    HW136136   8.814   7.988   4.097  0.1751 -2.3014  1.0278
11273SOL    HW236137   8.951   7.981   4.162  0.4894 -3.1218  0.3093
11274SOL     OW36138   4.127   1.655  10.303 -0.3209  0.0590 -0.7102
11274SOL    HW136139   4.210   1.677  10.346 -1.1788 -1.4558  1.9602
11274SOL    HW236140   4.146   1.575  10.254 -0.2430 -0.4108  0.0791
11275SOL     OW36141   6.717   9.114   2.184  0.6102 -0.6855 -0.2244
11275SOL    HW136142   6.800   9.151   2.214  0.1121  2.7545 -2.5072
11275SOL    HW236143   6.653   9.183   2.200 -0.8992 -1.3919 -2.6987
11276SOL     OW36144   8.095   5.382   1.007 -0.0271  0.9418  0.0970
11276SOL    HW136145   8.094   5.475   0.983  0.6157  1.0735  0.5566
11276SOL    HW236146   8.142   5.340   0.936 -0.6984  0.8962 -0.3316
11277SOL     OW36147   4.401   2.237   1.722 -0.1184 -1.1122 -0.0853
11277SOL    HW136148   4.460   2.217   1.650 -0.7498  0.2275 -1.0315
11277SOL    HW236149   4.401   2.159   1.776  0.6265 -2.0439 -1.3769
11278SOL     OW36150   4.294   0.023   6.006  0.0539 -0.4356  1.0850
11278SOL    HW136151   4.236   0.080   6.057  0.0073 -0.1241  0.6940
11278SOL    HW236152   4.325   0.079   5.934 -2.0119 -1.5732 -0.8379
11279SOL     OW36153   4.790   8.711   3.970 -0.1499 -0.0086  0.5216
11279SOL    HW136154   4.851   8.640   3.989 -0.6413 -0.4189  0.6096
11279SOL    HW236155   4.754   8.688   3.883 -1.5105 -0.7595  1.2389
11280SOL     OW36156   8.572   8.091   8.669 -0.4281  0.3634  0.1768
11280SOL    HW136157   8.637   8.058   8.732 -1.0694 -0.8365  0.2565
11280SOL    HW236158   8.590   8.184   8.662  0.9336  0.1549  0.6270
11281SOL     OW36159   8.332   4.317   2.665  0.3256 -0.0044 -0.5493
11281SOL    HW136160   8.358   4.409   2.659  0.5471  0.1596  1.8659
11281SOL    HW236161   8.237   4.319   2.653 -0.2262  1.1138  2.8032
11282SOL     OW36162   7.395   4.242   6.014  0.2729  0.2109  0.0819
11282SOL    HW136163   7.357   4.171   5.962  0.1303  0.9819 -0.8747
11282SOL    HW236164   7.321   4.279   6.062 -0.0577  1.1147 -1.0822
11283SOL     OW36165   5.942   0.641   7.413 -0.0527 -0.5937  0.3786
11283SOL    HW136166   5.894   0.558   7.404 -2.2834  0.5104  1.4071
11283SOL    HW236167   5.938   0.661   7.507  1.7719 -0.0283  0.3765
11284SOL     OW36168   9.589   0.975   2.810  0.3261 -0.5579  0.4810
11284SOL    HW136169   9.666   1.027   2.837 -1.1577  1.4036  1.2032
11284SOL    HW236170   9.546   0.952   2.893 -0.8440 -0.0108  0.0444
11285SOL     OW36171  10.241   4.007   6.837 -0.0916  0.3552 -0.0049
11285SOL    HW136172  10.307   4.032   6.772  1.1787  1.1698  1.5193
11285SOL    HW236173  10.158   4.034   6.798  0.2630 -1.7458 -2.4868
11286SOL     OW36174  10.175   4.385   9.702 -1.2634  0.0634  0.6295
11286SOL    HW136175  10.226   4.457   9.739 -0.2120 -0.9195  1.1544
11286SOL    HW236176  10.084   4.412   9.713 -0.9065  2.0470 -0.7101
11287SOL     OW36177   9.170   1.367   0.636  0.2199 -0.3064  0.1535
11287SOL    HW136178   9.204   1.355   0.547 -0.6591 -1.5825 -0.0370
11287SOL    HW236179   9.082   1.329   0.633 -0.6293  1.4809  1.0439
11288SOL     OW36180   8.528   6.785   8.125 -0.1550  0.0167  0.8833
11288SOL    HW136181   8.595   6.849   8.104 -0.1976 -0.1680  0.1562
11288SOL    HW236182   8.550   6.709   8.071 -1.1978  0.1133  0.3001
11289SOL     OW36183   8.127  10.321   0.274  0.5582  0.5421  1.0437
11289SOL    HW136184   8.192  10.373   0.225  0.4039  0.8077  1.1164
11289SOL    HW236185   8.178  10.252   0.315  0.4522 -0.7949 -0.9584
11290SOL     OW36186   9.345   5.863   8.888 -0.0469 -0.0576 -0.7218
11290SOL    HW136187   9.364   5.769   8.885  1.0577  0.1464 -0.4587
11290SOL    HW236188   9.388   5.899   8.811  1.8503  0.6069  0.5749
11291SOL     OW36189   6.584   0.076   0.518 -0.1317  0.0216  0.4650
11291SOL    HW136190   6.655   0.104   0.460 -0.1343 -0.3987  0.2583
11291SOL    HW236191   6.548   0.158   0.553  1.2028  0.2007  1.4901
11292SOL     OW36192   0.010   7.450   8.079 -0.3629 -0.1595 -0.0727
11292SOL    HW136193  -0.028   7.364   8.064  0.3327 -0.9392  2.3220
11292SOL    HW236194   0.099   7.443   8.043  0.2885 -1.0536  1.6093
11293SOL     OW36195   6.327   4.890   0.538 -0.0408 -0.7056 -0.2245
11293SOL    HW136196   6.377   4.965   0.504  0.5064 -0.9290  0.0719
11293SOL    HW236197   6.325   4.904   0.632 -0.1049 -0.9661 -0.1881
11294SOL     OW36198   2.831   2.144   2.047 -0.3221 -0.0536  0.5444
11294SOL    HW136199   2.786   2.204   1.988  1.0377 -2.3484 -3.1506
11294SOL    HW236200   2.857   2.198   2.122 -1.7551  3.1847 -1.1100
11295SOL     OW36201   9.269   8.552   4.616 -0.4149 -0.1823 -0.4821
11295SOL    HW136202   9.205   8.610   4.657  0.1451 -1.1137  1.8809
11295SOL    HW236203   9.290   8.594   4.532  1.1283  3.9355  1.7154
11296SOL     OW36204   8.848   1.026   7.039 -0.0629 -0.6261  0.5086
11296SOL    HW136205   8.761   1.040   7.078 -0.9183 -3.4443 -0.1243
11296SOL    HW236206   8.901   0.993   7.112 -0.0648 -0.6750  0.4880
11297SOL     OW36207   6.013   7.996   1.334 -0.4068 -0.1405 -0.4368
11297SOL    HW136208   5.945   7.940   1.296 -1.2891 -1.4450  2.7195
11297SOL    HW236209   5.965   8.072   1.366  0.0556  0.1648 -0.4612
11298SOL     OW36210   8.473   2.012   3.803  0.6920  0.1494  0.3405
11298SOL    HW136211   8.543   1.962   3.762 -0.0058  1.0061 -2.0251
11298SOL    HW236212   8.393   1.965   3.781  0.3487  0.1022  1.5947
11299SOL     OW36213   1.738   7.611   8.667 -0.0715 -0.0843 -0.0949
11299SOL    HW136214   1.681   7.574   8.600  2.2901 -2.3908 -1.0543
11299SOL    HW236215   1.750   7.540   8.729 -0.4979  1.3163  1.6536
11300SOL     OW36216   3.329   6.349   8.044  0.1843 -0.3255  0.5439
11300SOL    HW136217   3.401   6.354   7.982 -1.2062  0.1977 -1.0975
11300SOL    HW236218   3.271   6.282   8.008 -1.0990  0.6182  0.7845
11301SOL     OW36219   4.667   0.361   1.772  0.1469  0.9644  0.5147
11301SOL    HW136220   4.680   0.298   1.844 -0.2658  0.0548 -0.1886
11301SOL    HW236221   4.588   0.330   1.728  1.4926  0.3197 -1.5491
11302SOL     OW36222   0.422   9.153   9.205 -0.2112 -0.4820 -0.0073
11302SOL    HW136223   0.383   9.213   9.269  0.4629 -0.1142  0.0700
11302SOL    HW236224   0.468   9.088   9.259 -0.7116 -0.9195 -0.0966
11303SOL     OW36225   8.322   5.020  10.541  0.5896 -0.3446  0.2160
11303SOL    HW136226   8.246   5.059  10.498  0.1812  0.1776  1.3774
11303SOL    HW236227   8.289   4.937  10.576  0.2246  0.3929  1.6928
11304SOL     OW36228   0.133   0.088   0.767  0.0120 -0.3608 -0.2651
11304SOL    HW136229   0.039   0.074   0.775 -0.2804  1.0825 -0.9108
11304SOL    HW236230   0.166   0.079   0.857 -0.7403 -0.8536 -0.0273
11305SOL     OW36231   8.018   1.947   8.849  0.2475 -0.4053  0.0339
11305SOL    HW136232   7.989   2.034   8.878  0.0619 -0.4399 -0.0441
11305SOL    HW236233   7.946   1.916   8.794  0.6938 -0.2471 -0.6415
11306SOL     OW36234   2.429   7.384   4.758  0.1804 -0.6557  0.5912
11306SOL    HW136235   2.514   7.425   4.770  0.7674 -1.3045 -1.0723
11306SOL    HW236236   2.448   7.292   4.744 -1.0070 -1.2843  2.7156
11307SOL     OW36237   1.635   5.132  10.098 -0.2483  0.4371 -0.0733
11307SOL    HW136238   1.713   5.124  10.153 -0.9652  1.0605  1.0852
11307SOL    HW236239   1.640   5.221  10.062 -0.2378  0.3499 -0.2851
11308SOL     OW36240   1.842   0.806   3.808 -0.4923 -0.0782  0.6440
11308SOL    HW136241   1.811   0.791   3.719  1.0839  1.0689 -0.1631
11308SOL    HW236242   1.772   0.854   3.851 -0.2392  1.7032 -0.8421
11309SOL     OW36243   5.318   4.843   0.493 -0.8617  0.2362 -0.1434
11309SOL    HW136244   5.350   4.826   0.404 -1.0493  0.3401 -0.2322
11309SOL    HW236245   5.329   4.760   0.539 -0.8991  0.1400 -0.3066
11310SOL     OW36246   4.033   4.151   4.827 -0.0186  0.3736  0.8527
11310SOL    HW136247   4.096   4.169   4.898  0.3397 -0.4686  0.7536
11310SOL    HW236248   4.065   4.070   4.787 -0.5519  0.5355  0.0946
11311SOL     OW36249   4.831   8.092   4.694  0.0127  0.1181 -0.0961
11311SOL    HW136250   4.860   8.182   4.677 -0.3196  0.1301 -0.6088
11311SOL    HW236251   4.753   8.081   4.640 -0.0881 -0.4034  0.1476
11312SOL     OW36252   9.702   2.812   5.642  0.2647 -0.5683 -0.3180
11312SOL    HW136253   9.635   2.878   5.660 -0.5124 -1.5998  0.6867
11312SOL    HW236254   9.783   2.852   5.673 -0.3214 -0.4055  1.0643
11313SOL     OW36255   3.957  10.470   2.092  0.4291 -1.0198  0.1019
11313SOL    HW136256   3.958  10.383   2.134 -2.4550  0.1306  2.9928
11313SOL    HW236257   3.882  10.467   2.033  0.3175 -0.4917  0.2166
11314SOL     OW36258   4.839   5.403   8.693  0.1480 -0.2177  0.0530
11314SOL    HW136259   4.814   5.355   8.614 -1.5755 -1.6812  1.3882
11314SOL    HW236260   4.775   5.474   8.699 -0.2162 -0.5862  0.5427
11315SOL     OW36261   3.326   7.244   2.113  0.6150  0.2076  0.3971
11315SOL    HW136262   3.374   7.242   2.030  1.1022  0.5693  0.6612
11315SOL    HW236263   3.394   7.235   2.180  0.2117 -0.2424  0.7583
11316SOL     OW36264   9.553   5.755   4.507  0.4906  0.4484 -0.3745
11316SOL    HW136265   9.472   5.795   4.538  0.9686  0.8920  0.3323
11316SOL    HW236266   9.610   5.828   4.485  0.2448  0.1443 -2.1594
11317SOL     OW36267   6.075   3.482   6.902  0.9233 -0.3062 -0.5301
11317SOL    HW136268   6.139   3.541   6.863  1.7697 -1.1274 -0.4190
11317SOL    HW236269   6.101   3.395   6.872  0.0247 -0.6869 -0.2455
11318SOL     OW36270   8.668   1.384   6.878  0.1370 -0.1140 -0.2901
11318SOL    HW136271   8.718   1.375   6.960 -1.1792 -1.4008  0.4242
11318SOL    HW236272   8.685   1.303   6.831  0.4356  0.3816 -1.0552
11319SOL     OW36273   2.584  10.062   9.307 -0.5405  0.2660  0.5538
11319SOL    HW136274   2.646  10.056   9.235 -0.2730 -0.1007  0.8104
11319SOL    HW236275   2.623  10.009   9.377 -0.8062  0.6005  0.9593
11320SOL     OW36276  10.386   8.098   0.067  0.3499 -0.5209 -0.0004
11320SOL    HW136277  10.342   8.035   0.009 -2.6191  1.2175  0.1654
11320SOL    HW236278  10.360   8.071   0.155  0.9113 -0.3709  0.2129
11321SOL     OW36279   2.911   0.586   5.660 -0.1739  0.1457  0.2425
11321SOL    HW136280   2.910   0.675   5.626  0.1545 -0.5737 -1.7615
11321SOL    HW236281   3.003   0.562   5.663 -0.2532 -0.1141  0.8679
11322SOL     OW36282  10.280   5.915   6.076 -0.2109 -0.2233  0.6485
11322SOL    HW136283  10.348   5.872   6.025 -1.0702 -0.3521 -0.4211
11322SOL    HW236284  10.201   5.906   6.023 -0.6480  1.7158  0.9120
11323SOL     OW36285   5.076   4.845  10.083  0.1860 -0.1380  0.0640
11323SOL    HW136286   5.105   4.764  10.125  0.6702 -0.5083 -0.9264
11323SOL    HW236287   4.987   4.826  10.052  0.4492 -0.4451 -0.5227
11324SOL     OW36288   1.703   5.021   8.316 -0.2826  0.6911 -0.5061
11324SOL    HW136289   1.636   5.089   8.320 -0.6087  0.3235  0.8628
11324SOL    HW236290   1.776   5.056   8.368 -0.3703  0.0893  0.0296
11325SOL     OW36291   9.665   9.996   7.075  0.2484  0.2912  0.1764
11325SOL    HW136292   9.669   9.932   7.147  3.8109  1.9104  1.6633
11325SOL    HW236293   9.701   9.948   7.000  2.5674  0.2848  1.1879
11326SOL     OW36294   0.513   7.447   4.993  0.4638 -0.1926  0.2736
11326SOL    HW136295   0.546   7.386   4.927 -1.1486 -0.5735 -0.2225
11326SOL    HW236296   0.543   7.533   4.963  1.7566 -0.5955  0.3470
11327SOL     OW36297   5.972   2.571   9.775  0.1429 -0.1968 -0.0491
11327SOL    HW136298   5.947   2.662   9.761 -1.4186 -0.4419  0.9037
11327SOL    HW236299   5.894   2.521   9.749  1.3634 -1.3652 -1.6761
11328SOL     OW36300   0.873   4.410   1.312 -0.0793  0.1648  0.2998
11328SOL    HW136301   0.862   4.438   1.221 -3.1319  0.8262  0.7670
11328SOL    HW236302   0.900   4.318   1.305 -1.4293 -0.1682 -1.3228
11329SOL     OW36303   7.465   2.545   3.289  0.2965  0.5235  0.1395
11329SOL    HW136304   7.390   2.546   3.347 -0.0456  1.3729 -0.2905
11329SOL    HW236305   7.535   2.588   3.339  1.3031 -2.4791  1.5028
11330SOL     OW36306   2.658   0.944   9.352  0.0362 -0.2881  0.1863
11330SOL    HW136307   2.641   1.037   9.361 -0.1902 -0.4130  1.1739
11330SOL    HW236308   2.736   0.938   9.297 -0.9120  0.4216 -1.2871
11331SOL     OW36309   1.848   6.057   8.374 -0.0038  0.1113  0.2634
11331SOL    HW136310   1.896   6.108   8.309 -0.1530  0.0613  0.1147
11331SOL    HW236311   1.758   6.058   8.344 -0.0890  0.1605  0.5148
11332SOL     OW36312   6.474   1.847   6.776 -0.0220  0.6854  0.0298
11332SOL    HW136313   6.392   1.844   6.725 -1.3739 -1.4558  2.1450
11332SOL    HW236314   6.469   1.931   6.823 -0.9867  0.6198  0.0734
11333SOL     OW36315   1.213   8.075   9.390  0.0944  0.0954  0.1795
11333SOL    HW136316   1.251   8.073   9.302  1.6976  0.9576  0.8111
11333SOL    HW236317   1.162   7.995   9.397 -2.1077  1.1107 -2.3963
11334SOL     OW36318   1.104   1.800   9.481 -0.1387 -0.1897 -0.1346
11334SOL    HW136319   1.179   1.740   9.485  1.5158  1.6947 -1.2520
11334SOL    HW236320   1.090   1.827   9.571 -0.6045 -1.8116  0.3231
11335SOL     OW36321   5.756   8.019   4.574  0.1307  0.8578 -0.0647
11335SOL    HW136322   5.681   7.967   4.601  2.0640 -0.9832  2.1178
11335SOL    HW236323   5.724   8.110   4.576 -1.8649  0.1925  1.3901
11336SOL     OW36324   0.917   5.166   5.948  0.3827 -0.3040  0.4026
11336SOL    HW136325   0.916   5.158   6.043 -0.9125  0.7016  0.5059
11336SOL    HW236326   0.835   5.125   5.920 -0.0367  0.8559 -0.1206
11337SOL     OW36327   4.709   9.042   2.674  0.3543 -0.1807  0.1571
11337SOL    HW136328   4.695   9.082   2.588  1.0434 -0.9143 -0.3213
11337SOL    HW236329   4.628   8.995   2.693  0.1627  0.0662 -0.0445
11338SOL     OW36330   8.794   7.931   5.648  0.5175 -0.3237 -0.1716
11338SOL    HW136331   8.861   7.919   5.715  2.1568 -0.6555 -1.8085
11338SOL    HW236332   8.742   8.005   5.681  0.9003 -0.8264  1.7108
11339SOL     OW36333   3.735   0.059   7.678  0.2390  0.7936  0.0005
11339SOL    HW136334   3.678   0.061   7.601 -0.5255  0.8814  0.5579
11339SOL    HW236335   3.702   0.129   7.734 -0.8946 -0.9427  1.5784
11340SOL     OW36336   4.288   9.481   1.210 -0.0396  0.5125  0.1610
11340SOL    HW136337   4.383   9.479   1.223  0.3847 -0.1149 -2.4355
11340SOL    HW236338   4.264   9.573   1.223  0.6350  0.4376  2.2610
11341SOL     OW36339   4.017   1.332   6.628  0.6030  0.2877  0.1388
11341SOL    HW136340   4.100   1.374   6.604  1.1214 -0.9080 -0.2352
11341SOL    HW236341   3.980   1.389   6.696  1.8914  0.6571  0.5614
11342SOL     OW36342   6.560   3.695   8.715 -0.3962  0.2068 -0.5864
11342SOL    HW136343   6.596   3.641   8.644  0.6551  0.0478  0.0513
11342SOL    HW236344   6.481   3.735   8.677 -0.1532 -0.3029 -1.6641
11343SOL     OW36345   8.519   3.746   5.732  0.0838  0.3746 -0.0111
11343SOL    HW136346   8.538   3.840   5.731 -2.0966  0.9855 -4.0396
11343SOL    HW236347   8.425   3.741   5.751 -0.1529 -0.8430 -1.3635
11344SOL     OW36348   1.657   2.557   8.883 -0.9328 -0.0210 -0.2819
11344SOL    HW136349   1.616   2.557   8.970 -1.0967 -0.7282 -0.3458
11344SOL    HW236350   1.583   2.560   8.822 -0.7992  0.9499 -0.3977
11345SOL     OW36351   6.648   8.126   1.123 -0.3863  1.0913 -0.0926
11345SOL    HW136352   6.721   8.173   1.082  0.7476  0.5152  1.1801
11345SOL    HW236353   6.639   8.167   1.209  1.1639 -1.4082  1.3958
11346SOL     OW36354   9.890   8.061   6.048 -0.1158 -0.6206  0.4826
11346SOL    HW136355   9.921   8.104   6.128 -1.8492  1.5881  0.0816
11346SOL    HW236356   9.808   8.018   6.075 -0.8086  0.2958 -0.1171
11347SOL     OW36357   7.661   8.609  10.063  0.2978  0.1837  0.0716
11347SOL    HW136358   7.585   8.624  10.007 -0.3111 -0.6533  0.6355
11347SOL    HW236359   7.661   8.514  10.079  1.7020  0.1103 -0.2367
11348SOL     OW36360   0.973   1.341   0.497  0.2363 -0.0544  0.2138
11348SOL    HW136361   0.896   1.284   0.500  0.9673 -1.0920 -0.0609
11348SOL    HW236362   0.942   1.425   0.531 -0.5700 -0.9591  1.8485
11349SOL     OW36363   4.915   9.556   6.251 -0.5701 -0.5425  0.4213
11349SOL    HW136364   4.956   9.603   6.178 -0.5261 -1.3863 -0.1107
11349SOL    HW236365   4.821   9.560   6.232 -0.5723 -0.6003  0.4222
11350SOL     OW36366   0.703   7.163   7.361 -0.4152  0.6348 -0.1474
11350SOL    HW136367   0.767   7.200   7.422 -0.3815  0.6442 -0.1888
11350SOL    HW236368   0.635   7.230   7.352  0.3295  1.2621 -1.2931
11351SOL     OW36369   8.979   9.436   8.940  0.0014 -0.1099 -0.1355
11351SOL    HW136370   8.986   9.490   9.019 -0.1391 -0.8076  0.3638
11351SOL    HW236371   8.885   9.436   8.919  0.1168  0.6619 -0.7393
11352SOL     OW36372   9.107   6.577   5.106 -0.3695 -0.4854 -0.3299
11352SOL    HW136373   9.054   6.521   5.162  0.1560 -0.0586  0.6125
11352SOL    HW236374   9.048   6.647   5.079 -0.8252 -1.0809 -0.9161
11353SOL     OW36375   8.159   9.191   8.693 -0.1352 -0.0144 -0.4165
11353SOL    HW136376   8.175   9.099   8.710  0.7475  0.2944  0.5064
11353SOL    HW236377   8.095   9.192   8.622 -0.8689 -1.3377  0.2016
11354SOL     OW36378   1.971   5.837   3.804 -0.1665 -0.4376  0.3748
11354SOL    HW136379   1.964   5.824   3.898 -1.1228 -0.1730  0.3458
11354SOL    HW236380   1.972   5.749   3.767 -1.0235 -0.5319  0.5571
11355SOL     OW36381  10.403   9.507   6.230  0.8388 -0.0857 -0.3858
11355SOL    HW136382  10.390   9.533   6.139  0.6608  1.4308  0.0390
11355SOL    HW236383  10.445   9.583   6.271  0.4105 -0.5122  0.9168
11356SOL     OW36384   7.264   3.342   4.867 -0.7360  0.2085 -0.6995
11356SOL    HW136385   7.344   3.308   4.826  0.0228 -1.1428  1.7268
11356SOL    HW236386   7.193   3.307   4.812  0.2647 -0.1972 -1.7739
11357SOL     OW36387   4.812   1.251   3.884  0.2137  0.5057  0.1703
11357SOL    HW136388   4.794   1.314   3.814  0.9428 -0.3037 -0.7800
11357SOL    HW236389   4.905   1.264   3.905  0.3592 -0.1844  0.0008
11358SOL     OW36390   2.159   9.043   5.228  0.1249 -0.4237 -0.0594
11358SOL    HW136391   2.158   8.960   5.276 -0.6397 -0.7804 -0.6733
11358SOL    HW236392   2.120   9.022   5.143  1.4930  0.1850 -0.8660
11359SOL     OW36393   0.422   8.579   7.504 -0.7407 -0.4970 -0.0676
11359SOL    HW136394   0.327   8.573   7.488 -1.0149 -0.3825  1.4348
11359SOL    HW236395   0.443   8.502   7.556 -0.3301  0.3384  1.0334
11360SOL     OW36396   9.419   1.010   3.031 -0.5176  0.6938  0.2319
11360SOL    HW136397   9.420   1.036   3.123  2.2352 -0.1781  0.5410
11360SOL    HW236398   9.353   1.067   2.990 -2.9741  0.0646  2.9617
11361SOL     OW36399   0.076   5.730   4.182 -0.2582 -0.5592  0.5562
11361SOL    HW136400   0.047   5.753   4.271  3.9506  0.0423  2.0020
11361SOL    HW236401   0.039   5.797   4.126  0.4526  1.6604  2.5869
11362SOL     OW36402   6.224   2.518  10.077 -0.2143 -0.1324 -0.0798
11362SOL    HW136403   6.317   2.496  10.073 -0.1395 -0.0261  0.9591
11362SOL    HW236404   6.180   2.449  10.027  0.4629  0.1441 -1.0968
11363SOL     OW36405   0.802   5.969   8.536  0.1669 -0.0412 -0.5086
11363SOL    HW136406   0.877   6.024   8.558 -0.1190 -0.4022  1.6808
11363SOL    HW236407   0.839   5.883   8.519  0.3156 -0.0875  0.0203
11364SOL     OW36408   7.607   5.740   3.703 -0.7172 -0.5391 -0.0219
11364SOL    HW136409   7.692   5.696   3.705 -1.0463 -1.2269 -0.5730
11364SOL    HW236410   7.628   5.833   3.698  0.0130 -0.7209 -0.6085
11365SOL     OW36411   3.449   1.329   2.917  0.5437 -0.0146 -0.0531
11365SOL    HW136412   3.512   1.396   2.890 -0.6607  1.5392  0.7799
11365SOL    HW236413   3.409   1.300   2.835  0.7441  0.6599 -0.4047
11366SOL     OW36414   0.139   2.340   4.564 -0.3056 -0.2681 -0.4365
11366SOL    HW136415   0.130   2.433   4.544 -3.7117 -0.3148  0.2779
11366SOL    HW236416   0.119   2.296   4.481 -0.2736 -0.3953 -0.3769
11367SOL     OW36417   5.815   9.901   0.146 -0.3907 -0.1099  0.1201
11367SOL    HW136418   5.767   9.849   0.210 -1.0932 -0.2371 -0.4951
11367SOL    HW236419   5.843   9.979   0.194 -0.9511 -0.1781  0.5664
11368SOL     OW36420   2.870   0.343   8.261  0.5295 -0.1484 -0.4227
11368SOL    HW136421   2.955   0.385   8.277  0.5569  0.6935 -2.5244
11368SOL    HW236422   2.808   0.394   8.314  1.1203  0.1199  0.0215
11369SOL     OW36423   8.826   0.669  10.081  0.1586  0.8780  0.1845
11369SOL    HW136424   8.742   0.681  10.125  0.2681 -0.5529  0.8622
11369SOL    HW236425   8.886   0.644  10.151  0.3642 -1.3895 -0.7144
11370SOL     OW36426   2.931   0.985   9.338  0.2180 -0.2349  0.4605
11370SOL    HW136427   2.930   0.973   9.433  2.0651  0.2101  0.5803
11370SOL    HW236428   2.960   1.076   9.326 -0.8086 -0.0122 -0.5388
11371SOL     OW36429   2.582   2.284   8.460 -0.4776  0.0048  0.1101
11371SOL    HW136430   2.589   2.194   8.491 -1.0772  0.5644  1.9803
11371SOL    HW236431   2.534   2.277   8.378  0.9596 -1.5092 -0.6721
11372SOL     OW36432   0.006   8.546   0.908  0.0053  0.1950  0.1831
11372SOL    HW136433  -0.066   8.544   0.845 -0.4793 -0.3396  0.7407
11372SOL    HW236434   0.079   8.504   0.863 -0.4262 -0.4561  0.0676
11373SOL     OW36435   8.996   8.731   7.140  0.0695 -0.0960  0.0644
11373SOL    HW136436   9.044   8.653   7.110 -0.8355  0.0444 -1.8880
11373SOL    HW236437   8.936   8.751   7.069  2.4595  4.3457 -1.0741
11374SOL     OW36438   6.385   4.505   7.746  0.3083  0.6324 -0.0604
11374SOL    HW136439   6.330   4.566   7.795  0.3907  1.0350 -0.4623
11374SOL    HW236440   6.349   4.419   7.767 -0.8328  0.9217 -0.7376
11375SOL     OW36441   7.588   2.943   3.365  0.7131 -0.0308  0.0308
11375SOL    HW136442   7.657   3.006   3.386  1.9998 -2.3009  3.5907
11375SOL    HW236443   7.633   2.869   3.325 -0.4393  0.2860 -1.9771
11376SOL     OW36444   4.146   6.773   3.539 -0.0736  0.7026 -0.3817
11376SOL    HW136445   4.166   6.839   3.606 -1.3149  1.5197 -0.7860
11376SOL    HW236446   4.056   6.747   3.557  0.3610 -0.8215 -0.3137
11377SOL     OW36447   7.856   7.395   4.641 -0.3042  0.6216  0.1003
11377SOL    HW136448   7.812   7.401   4.556 -1.2879 -4.1620 -0.0142
11377SOL    HW236449   7.949   7.402   4.620 -0.5686  0.6014 -1.1990
11378SOL     OW36450   3.354   0.021   5.971  0.1416  0.1186 -0.2628
11378SOL    HW136451   3.352  -0.072   5.992  1.3571 -0.3209 -1.9822
11378SOL    HW236452   3.263   0.042   5.949 -0.2066 -0.5599  0.4773
11379SOL     OW36453   5.837   8.173   1.424 -0.3099 -0.0347 -0.5781
11379SOL    HW136454   5.852   8.183   1.518  0.4075  0.1241 -0.7039
11379SOL    HW236455   5.745   8.149   1.417 -1.6063  4.0138 -0.0659
11380SOL     OW36456   2.856   2.427   6.656  0.4857  0.3352 -0.4468
11380SOL    HW136457   2.880   2.343   6.696 -0.0693 -0.2637 -1.3270
11380SOL    HW236458   2.770   2.411   6.617  0.2180  1.4178 -0.3406
11381SOL     OW36459   7.623   1.976   9.984 -0.6342 -0.4902 -0.5049
11381SOL    HW136460   7.675   2.057   9.988 -0.9353 -0.2940 -0.5373
11381SOL    HW236461   7.669   1.921   9.921  1.1139 -1.4439  1.4560
11382SOL     OW36462   9.306   4.972   5.663 -0.5711 -0.1089  0.5801
11382SOL    HW136463   9.291   4.901   5.600  0.3687 -1.2543  1.5863
11382SOL    HW236464   9.333   5.046   5.609  0.5951 -1.1726 -0.3793
11383SOL     OW36465   2.559   0.402   4.516 -0.6203 -0.6030 -0.2928
11383SOL    HW136466   2.595   0.475   4.466 -2.0519 -0.0107 -0.5087
11383SOL    HW236467   2.474   0.384   4.475 -1.5251 -0.5745  1.4603
11384SOL     OW36468   1.075   6.302   6.567 -0.1595  0.4366  0.0762
11384SOL    HW136469   1.131   6.229   6.540 -0.4563 -0.6913  2.2841
11384SOL    HW236470   1.045   6.278   6.655 -1.8862  2.3063  0.0742
11385SOL     OW36471   4.475   4.591   3.119 -0.9715 -0.4388 -0.1938
11385SOL    HW136472   4.418   4.544   3.058 -2.2252  0.9662 -0.1566
11385SOL    HW236473   4.427   4.671   3.140  1.0676  0.8626 -0.2146
11386SOL     OW36474   3.559   8.050   4.762 -0.7204 -0.4847 -0.2497
11386SOL    HW136475   3.538   8.143   4.757  0.8694 -0.1468 -1.4691
11386SOL    HW236476   3.538   8.025   4.852  1.5746  1.7998  1.0581
11387SOL     OW36477   1.408   7.448   5.168 -0.0366 -0.0925 -0.1015
11387SOL    HW136478   1.403   7.360   5.203 -2.4574 -0.4523 -1.1935
11387SOL    HW236479   1.405   7.437   5.073  0.0846  1.1450 -0.2698
11388SOL     OW36480   2.915   7.998  10.263  0.0586  0.3968 -0.2326
11388SOL    HW136481   2.829   8.035  10.284  0.9873  2.8488 -0.4512
11388SOL    HW236482   2.899   7.941  10.187 -1.8755 -1.9049  1.7426
11389SOL     OW36483  10.442   2.607   4.436  0.3447  0.2749  0.2248
11389SOL    HW136484  10.470   2.536   4.378  1.4717  0.3708  0.6129
11389SOL    HW236485  10.466   2.687   4.389 -0.0190  0.3778  0.2153
11390SOL     OW36486   4.210   2.257   4.417  0.1588  0.2870  0.3573
11390SOL    HW136487   4.212   2.165   4.445 -0.2229  0.1438 -0.0892
11390SOL    HW236488   4.160   2.257   4.336  0.2641  0.8754  0.2885
11391SOL     OW36489   8.405   9.841   9.927  0.5999 -0.4248 -0.6545
11391SOL    HW136490   8.454   9.767   9.963  0.0745 -0.3948  0.1782
11391SOL    HW236491   8.419   9.837   9.833  1.0875 -1.2153 -0.5541
11392SOL     OW36492   9.076   2.452   7.943 -0.1022 -0.2054  0.7611
11392SOL    HW136493   9.101   2.537   7.908 -0.2997 -0.2469  0.5162
11392SOL    HW236494   9.150   2.425   7.997  0.2437 -0.1776  0.3028
11393SOL     OW36495   9.368   7.389   8.141 -0.2646  0.1745  0.0949
11393SOL    HW136496   9.417   7.422   8.065 -0.0482  0.8685  0.5215
11393SOL    HW236497   9.427   7.328   8.184 -0.5306 -0.5087 -0.5053
11394SOL     OW36498   6.205   3.111   9.064 -0.4576 -0.9257  0.8710
11394SOL    HW136499   6.172   3.192   9.023  0.8342  0.1985  1.9318
11394SOL    HW236500   6.163   3.041   9.016 -1.7662  0.3867  0.0062
11395SOL     OW36501   0.962   8.117   8.009 -0.0184  0.6887 -0.0214
11395SOL    HW136502   0.909   8.167   7.947 -0.4010  2.4343  1.6102
11395SOL    HW236503   1.044   8.166   8.015 -0.3575  1.1290  1.5243
11396SOL     OW36504   2.536   3.960   1.973  0.6508  0.3612  0.7067
11396SOL    HW136505   2.533   4.055   1.970  2.9180  0.5005  1.2736
11396SOL    HW236506   2.531   3.933   1.881  1.6864  1.1409  0.3950
11397SOL     OW36507   7.730   1.762   9.339  0.2418 -0.0368  0.2869
11397SOL    HW136508   7.685   1.764   9.423  0.9510 -0.5432  0.6970
11397SOL    HW236509   7.821   1.784   9.360  0.3014  0.4496 -0.4374
11398SOL     OW36510   4.299   4.857   7.519 -0.0799  0.3861 -0.0732
11398SOL    HW136511   4.337   4.887   7.602  1.8799 -0.1532 -0.7210
11398SOL    HW236512   4.224   4.915   7.505 -1.1264 -0.1876  2.5568
11399SOL     OW36513   1.166   9.993   6.167  0.1574  0.2341 -0.4778
11399SOL    HW136514   1.217  10.020   6.244 -0.4916 -0.9412  0.4134
11399SOL    HW236515   1.092  10.054   6.165  1.0360  1.3091 -1.1775
11400SOL     OW36516   3.943   1.192   8.488 -0.3332 -0.2194  0.0148
11400SOL    HW136517   3.902   1.216   8.571 -0.6212 -1.4314  0.2474
11400SOL    HW236518   4.019   1.140   8.514  1.1873  1.7074 -0.4227
11401SOL     OW36519   4.494   5.192   3.508  0.2340  0.4427 -0.0903
11401SOL    HW136520   4.443   5.220   3.584  0.1471  0.4469 -0.1499
11401SOL    HW236521   4.432   5.141   3.455 -0.0511  1.4684 -0.7759
11402SOL     OW36522   5.779   4.269   7.994 -0.5555  0.0980  0.3385
11402SOL    HW136523   5.783   4.348   8.048 -1.3804  0.3593  0.0325
11402SOL    HW236524   5.734   4.204   8.048  1.3941 -0.6654  1.1594
11403SOL     OW36525   4.712   1.315   1.086  0.5566  0.0431 -0.2831
11403SOL    HW136526   4.678   1.309   0.997  1.8261  0.8837 -0.8596
11403SOL    HW236527   4.638   1.343   1.139 -0.6446 -2.0307 -0.7516
11404SOL     OW36528   6.555   4.049   7.839  0.0149  0.0465 -0.4660
11404SOL    HW136529   6.608   3.979   7.800 -0.3107  0.3718 -1.5266
11404SOL    HW236530   6.555   4.118   7.773 -0.8655  0.4738 -0.0296
11405SOL     OW36531   4.278   8.337  10.122  0.1174  0.3318  0.1907
11405SOL    HW136532   4.270   8.345  10.217 -1.3381  1.7539  0.0027
11405SOL    HW236533   4.278   8.428  10.090 -2.3242 -0.0797 -1.3058
11406SOL     OW36534   7.929   2.104   1.356  0.0938  0.3922 -0.1042
11406SOL    HW136535   7.882   2.173   1.403  0.0707  0.7672 -0.6721
11406SOL    HW236536   7.873   2.082   1.282  0.3764  0.1771 -0.2575
11407SOL     OW36537   9.343   5.320   0.005  0.0994  0.6423 -0.1996
11407SOL    HW136538   9.281   5.340  -0.065 -0.7669  1.0359  0.6570
11407SOL    HW236539   9.392   5.401   0.017  1.7781 -0.0719 -1.8136
11408SOL     OW36540   9.340   1.087   0.115 -0.0988  0.1223 -0.3517
11408SOL    HW136541   9.251   1.070   0.147 -0.1827  1.3153  0.0984
11408SOL    HW236542   9.336   1.066   0.021 -0.6119 -0.6619 -0.1680
11409SOL     OW36543   8.472   2.487   3.417  0.4703  0.0703 -0.1051
11409SOL    HW136544   8.487   2.568   3.467  0.4364 -1.1391  1.9797
11409SOL    HW236545   8.552   2.436   3.431 -0.0592 -0.8181 -0.2532
11410SOL     OW36546   4.761   7.337   2.916  0.0034 -0.4982  0.1367
11410SOL    HW136547   4.802   7.253   2.937 -0.2306 -0.6884 -0.1506
11410SOL    HW236548   4.834   7.398   2.905  0.2665 -1.0305 -1.2657
11411SOL     OW36549   0.528   7.039   0.384  0.1617 -0.3350  0.1187
11411SOL    HW136550   0.606   7.077   0.423  0.2122  0.2767 -0.5516
11411SOL    HW236551   0.470   7.114   0.369 -0.5165 -0.7704  0.5280
11412SOL     OW36552   8.163   1.037   4.079 -0.0476 -0.0187  0.5829
11412SOL    HW136553   8.224   1.071   4.144 -1.4082  0.7808  1.5086
11412SOL    HW236554   8.126   1.115   4.038  1.5772 -0.5119 -1.9978
11413SOL     OW36555   7.545   1.140   8.005 -0.7151 -0.5484  0.4031
11413SOL    HW136556   7.520   1.198   8.077 -1.6794 -1.1200  0.5457
11413SOL    HW236557   7.556   1.054   8.046 -0.1560 -0.6520  0.0480
11414SOL     OW36558  10.189   2.195   1.365 -0.0792 -0.0947  0.1513
11414SOL    HW136559  10.135   2.154   1.297 -0.2853  2.7316 -1.5541
11414SOL    HW236560  10.250   2.127   1.391 -0.9802 -1.7560 -1.8157
11415SOL     OW36561   3.046   6.106   2.678 -0.5123 -0.1487  0.8271
11415SOL    HW136562   3.044   6.029   2.622  0.2667  0.5340 -0.1664
11415SOL    HW236563   3.115   6.161   2.642 -1.1989  1.1299  1.3779
11416SOL     OW36564   9.883   8.950   8.692 -0.3531  0.0778  0.3021
11416SOL    HW136565   9.941   8.953   8.768  0.9689 -2.3058 -0.4790
11416SOL    HW236566   9.933   8.994   8.622 -0.1560 -0.5442  0.0417
11417SOL     OW36567   7.484   4.842   6.141  0.5728 -0.2113  0.2831
11417SOL    HW136568   7.514   4.823   6.230  0.6471  1.7274  0.7314
11417SOL    HW236569   7.549   4.904   6.108  0.3707 -0.6748 -1.0144
11418SOL     OW36570   9.871   8.881   7.573  0.5764 -0.4559 -0.1673
11418SOL    HW136571   9.820   8.866   7.653  0.3733 -0.3803 -0.2836
11418SOL    HW236572   9.866   8.798   7.526 -0.0921 -0.2052 -0.5508
11419SOL     OW36573   1.155   7.414   3.958  0.3483 -0.3005  0.7292
11419SOL    HW136574   1.085   7.350   3.967  0.2345 -0.2653  0.1074
11419SOL    HW236575   1.121   7.493   4.001  0.7994 -0.8765  2.2153
11420SOL     OW36576   1.707   7.889   1.011  0.1489 -0.0304  0.8558
11420SOL    HW136577   1.712   7.939   1.092  2.0723  1.7687 -0.2712
11420SOL    HW236578   1.698   7.798   1.039  0.5294  0.5632  3.0763
11421SOL     OW36579   5.532   1.410   6.450  0.0391 -0.1486 -0.2342
11421SOL    HW136580   5.509   1.368   6.367  1.8327 -2.5786  0.3740
11421SOL    HW236581   5.450   1.447   6.483 -0.9600 -0.2624 -2.4496
11422SOL     OW36582   2.579   1.298   7.578  0.1227  0.7590  0.0776
11422SOL    HW136583   2.657   1.266   7.623 -0.6690  1.3894  2.0457
11422SOL    HW236584   2.511   1.297   7.645 -1.5731  0.2808 -1.5609
11423SOL     OW36585   0.508   6.331  10.573 -0.0711 -0.1253 -0.6977
11423SOL    HW136586   0.593   6.372  10.554 -0.4698  1.1504  0.0853
11423SOL    HW236587   0.525   6.237  10.571  1.5146  0.1078  0.0483
11424SOL     OW36588   0.457   2.116   8.940  0.0977 -0.0412  0.0199
11424SOL    HW136589   0.515   2.142   8.869 -1.8587  0.2835 -1.5717
11424SOL    HW236590   0.409   2.041   8.905  0.5020 -1.1997  1.8018
11425SOL     OW36591   1.563   4.627   7.898  0.4532 -0.3140 -0.1769
11425SOL    HW136592   1.525   4.692   7.958  0.1932 -0.6578  0.0350
11425SOL    HW236593   1.500   4.555   7.899  0.7381 -0.5645 -0.4202
11426SOL     OW36594   1.078   2.631   9.533 -0.1793 -0.4765  0.5209
11426SOL    HW136595   1.041   2.578   9.462 -1.0661  1.7173 -0.7794
11426SOL    HW236596   1.003   2.651   9.589  0.2688 -1.0878  1.3573
11427SOL     OW36597   8.682   3.909   9.047 -0.4044  0.0861  0.2972
11427SOL    HW136598   8.608   3.902   9.108 -1.0015  0.9446 -0.2997
11427SOL    HW236599   8.742   3.840   9.074 -0.4164  0.7528  2.1794
11428SOL     OW36600   1.956   6.982   7.402 -0.1708 -0.0313 -0.3251
11428SOL    HW136601   2.030   7.005   7.458 -0.6759  0.9484 -0.0316
11428SOL    HW236602   1.995   6.946   7.323  0.5709 -0.7755  0.3673
11429SOL     OW36603   7.999   2.395   2.309  0.4160 -0.1218 -0.2453
11429SOL    HW136604   7.964   2.477   2.273  2.2116  0.8320  0.0595
11429SOL    HW236605   7.926   2.333   2.303 -1.1097  1.5779 -0.1938
11430SOL     OW36606   1.306   2.623   0.413 -0.9484 -0.0889  0.0336
11430SOL    HW136607   1.267   2.639   0.327 -1.5543  1.9194  0.6203
11430SOL    HW236608   1.233   2.592   0.467 -0.8563 -0.1236  0.1382
11431SOL     OW36609   1.473   0.003   5.330 -0.0574 -0.1834  0.4254
11431SOL    HW136610   1.398   0.033   5.380 -1.2071 -3.6452  1.0727
11431SOL    HW236611   1.534   0.077   5.329 -2.4424  1.9185  1.9295
11432SOL     OW36612   5.769   6.568   2.900  0.2537  0.0373 -0.0796
11432SOL    HW136613   5.862   6.578   2.881  0.1312  0.5420 -0.4320
11432SOL    HW236614   5.725   6.597   2.821 -0.2186  0.2595  0.2587
11433SOL     OW36615  10.339   7.121   1.314  0.0286  0.2304 -0.2881
11433SOL    HW136616  10.331   7.120   1.409  0.6245 -0.3740 -0.2329
11433SOL    HW236617  10.343   7.213   1.290  1.2924  0.3664  0.4013
11434SOL     OW36618   3.099   0.497   8.332  0.0117  0.0960 -0.4359
11434SOL    HW136619   3.045   0.576   8.335  0.6632  0.5922 -1.2889
11434SOL    HW236620   3.180   0.525   8.290  0.7229 -0.7629  0.3309
11435SOL     OW36621   5.568   3.627   7.465  0.2826  0.2665 -0.0971
11435SOL    HW136622   5.476   3.632   7.440  0.0467 -2.4099 -0.0370
11435SOL    HW236623   5.576   3.689   7.538 -1.1872  1.3245 -0.7784
11436SOL     OW36624   5.498   2.370   6.936 -0.0936 -0.5236 -0.2224
11436SOL    HW136625   5.536   2.329   7.014 -1.3714 -0.7157  0.3236
11436SOL    HW236626   5.435   2.434   6.971 -0.0689 -0.0041 -1.0930
11437SOL     OW36627   8.848   5.550   1.508 -0.2997 -0.0599  0.0970
11437SOL    HW136628   8.831   5.500   1.587 -0.4586 -1.3067 -0.6959
11437SOL    HW236629   8.772   5.608   1.499 -0.0658  0.4180  1.0737
11438SOL     OW36630   7.627   7.286   2.640  0.0588 -0.1350 -0.2209
11438SOL    HW136631   7.536   7.261   2.655 -0.1271  0.6787 -0.0076
11438SOL    HW236632   7.671   7.267   2.723 -0.5596  2.4324  0.7599
11439SOL     OW36633   5.058   2.721   9.775  0.6523 -0.2945  0.3155
11439SOL    HW136634   5.128   2.751   9.833  1.8902  0.5705 -1.5041
11439SOL    HW236635   5.091   2.638   9.739  1.2974  0.6529 -1.3772
11440SOL     OW36636   1.819   9.586   4.552  0.0895  0.3247  0.2084
11440SOL    HW136637   1.891   9.535   4.515  0.0926  0.6444 -0.2464
11440SOL    HW236638   1.828   9.673   4.512 -0.6449  0.3250  0.0176
11441SOL     OW36639   3.620   8.892  10.581 -0.3348  0.2558  0.1936
11441SOL    HW136640   3.604   8.986  10.587 -0.7781  0.1864  0.1428
11441SOL    HW236641   3.685   8.883  10.511 -0.3196  0.5221  0.1728
11442SOL     OW36642   9.500   3.211   3.687 -0.4044 -0.5941 -0.0201
11442SOL    HW136643   9.506   3.131   3.635  0.2639 -1.1597  0.9096
11442SOL    HW236644   9.415   3.205   3.731 -0.3670 -0.7783  0.0285
11443SOL     OW36645   4.619   4.027   6.160 -0.1490  0.2051 -0.7038
11443SOL    HW136646   4.679   4.003   6.090 -0.2682  0.0306 -0.7470
11443SOL    HW236647   4.566   4.097   6.123 -1.3122 -0.9815 -1.3675
11444SOL     OW36648   3.188   9.296   6.953 -0.1823  0.0107  0.4435
11444SOL    HW136649   3.150   9.211   6.927 -1.6103  0.1800  1.8726
11444SOL    HW236650   3.113   9.347   6.983  0.7484  1.6074  0.1249
11445SOL     OW36651   1.508   2.278   3.859 -0.0658  0.0508 -0.7169
11445SOL    HW136652   1.428   2.326   3.881 -1.1501 -2.0646  0.3223
11445SOL    HW236653   1.560   2.279   3.939 -0.0324 -0.3336 -0.7303
11446SOL     OW36654   4.692   1.123   5.614  0.0960 -0.3604  0.3127
11446SOL    HW136655   4.782   1.099   5.635  0.7424  2.2900  0.9369
11446SOL    HW236656   4.677   1.204   5.663 -1.8009  0.6189 -1.7318
11447SOL     OW36657   4.610   9.322   1.511 -0.0893  0.1186 -0.2770
11447SOL    HW136658   4.523   9.286   1.493 -0.8870  1.0835  1.4045
11447SOL    HW236659   4.594   9.410   1.543  1.6718  1.0468 -1.7613
11448SOL     OW36660   5.081   4.168   2.539  0.1133  0.4830 -0.5205
11448SOL    HW136661   5.109   4.189   2.450 -0.2425  1.6191 -0.3908
11448SOL    HW236662   5.162   4.161   2.589  0.2870  0.6160 -0.7816
11449SOL     OW36663   0.198   2.390   3.691  0.0309 -0.3699 -0.1543
11449SOL    HW136664   0.186   2.399   3.596 -1.0688 -3.4590 -0.4011
11449SOL    HW236665   0.275   2.334   3.701 -0.6219 -1.1532  0.6981
11450SOL     OW36666   6.662   3.302   9.822  1.0291  0.1118  0.4274
11450SOL    HW136667   6.611   3.287   9.901 -0.1192 -2.6856 -0.7207
11450SOL    HW236668   6.675   3.397   9.820 -0.6836  0.5018  2.8413
11451SOL     OW36669   2.513   8.103   8.862 -0.4583 -0.3072 -0.3177
11451SOL    HW136670   2.478   8.155   8.934  0.8542 -0.7684  0.6963
11451SOL    HW236671   2.607   8.125   8.859 -0.6341  0.4273 -2.5294
11452SOL     OW36672   2.719   0.177   4.533 -0.7134  0.2484 -0.0394
11452SOL    HW136673   2.769   0.202   4.611  0.1980  0.4062 -0.6640
11452SOL    HW236674   2.639   0.229   4.539 -0.9860 -0.2611  1.1481
11453SOL     OW36675   9.420   2.899   4.079 -0.1286  0.4938  0.1911
11453SOL    HW136676   9.351   2.939   4.026 -0.3552 -1.3079 -0.9574
11453SOL    HW236677   9.496   2.956   4.065 -0.4613  0.6306 -1.3053
11454SOL     OW36678   8.750   2.002   2.234 -0.8751  0.1109 -0.0200
11454SOL    HW136679   8.668   2.038   2.200 -1.5613 -0.0545  1.3757
11454SOL    HW236680   8.730   1.979   2.325  0.9665  0.8549  0.6162
11455SOL     OW36681   3.789   0.217   0.957 -0.0073 -0.0108  0.4698
11455SOL    HW136682   3.817   0.157   0.888 -0.1815  1.4005 -0.8915
11455SOL    HW236683   3.835   0.299   0.938  0.8120  0.1248  2.7174
11456SOL     OW36684   8.091   0.928   3.398 -0.1566  0.2409 -0.3087
11456SOL    HW136685   8.106   0.942   3.491  0.1208 -0.2535 -0.2770
11456SOL    HW236686   8.109   0.835   3.384 -1.5649 -0.0145 -0.5882
11457SOL     OW36687   8.298   0.878   2.264  0.5010 -0.1871 -0.4598
11457SOL    HW136688   8.223   0.934   2.285  1.3899  0.2295  1.9221
11457SOL    HW236689   8.371   0.916   2.313  2.1481 -0.9777 -2.1700
11458SOL     OW36690   0.822   3.826   5.734  0.3946 -0.0778  0.3264
11458SOL    HW136691   0.825   3.863   5.646 -0.7945 -2.3202 -0.7463
11458SOL    HW236692   0.875   3.746   5.728  0.7432  0.0059  1.8286
11459SOL     OW36693   9.105   3.209   6.217 -0.2700 -0.3779  0.2002
11459SOL    HW136694   9.131   3.135   6.272  0.7737 -0.2965 -0.1578
11459SOL    HW236695   9.184   3.263   6.211  0.8727 -2.0837 -4.0801
11460SOL     OW36696   3.348   8.945   5.091 -0.1933  0.1383  0.5509
11460SOL    HW136697   3.282   8.968   5.157 -1.0279  0.2776 -0.3090
11460SOL    HW236698   3.301   8.949   5.008  0.9126  0.2443 -0.0873
11461SOL     OW36699   3.663   4.839   3.907 -0.2018  0.1718  1.0036
11461SOL    HW136700   3.745   4.794   3.927 -0.5441 -0.3701  1.2145
11461SOL    HW236701   3.685   4.897   3.835  0.2140 -0.4519  0.6158
11462SOL     OW36702   8.412   2.431   1.264 -0.3576 -0.7251  0.6546
11462SOL    HW136703   8.430   2.513   1.218 -1.1398  0.0316  1.6453
11462SOL    HW236704   8.453   2.363   1.210 -0.0266  0.2743 -0.3833
11463SOL     OW36705   1.012   7.390   5.710 -0.0740  0.0602 -0.0716
11463SOL    HW136706   0.991   7.449   5.638 -0.1162  0.1240 -0.0074
11463SOL    HW236707   0.945   7.322   5.707  0.4303 -0.4292 -0.6405
11464SOL     OW36708   1.321   3.972   1.459 -0.3578 -0.2113  0.7107
11464SOL    HW136709   1.316   3.913   1.534  0.2478  0.9661  1.7154
11464SOL    HW236710   1.386   4.037   1.484 -1.0532  0.9260 -0.3361
11465SOL     OW36711   3.603   4.180   6.098  0.4876 -0.8473  0.5351
11465SOL    HW136712   3.545   4.246   6.135  1.8955  0.2978  0.8007
11465SOL    HW236713   3.629   4.215   6.013 -2.1777 -3.1377 -1.3918
11466SOL     OW36714   3.637   6.740   0.360 -0.0771 -0.7667 -0.2134
11466SOL    HW136715   3.699   6.673   0.388  0.8995  0.1025 -0.2457
11466SOL    HW236716   3.602   6.708   0.276 -1.6593 -2.5099  1.0110
11467SOL     OW36717   3.398   1.731   7.916 -0.0570 -0.1629 -0.6515
11467SOL    HW136718   3.395   1.826   7.929 -0.0911 -0.3990  1.4976
11467SOL    HW236719   3.306   1.704   7.914 -0.1125  0.0078 -3.1743
11468SOL     OW36720   8.623   0.491   2.270 -0.4466 -0.0251 -0.1090
11468SOL    HW136721   8.546   0.508   2.324 -1.1145  0.6412 -1.2124
11468SOL    HW236722   8.637   0.573   2.223  0.1667 -0.5413 -0.8536
11469SOL     OW36723   4.588   0.979   1.539 -0.1223 -0.1545 -0.3730
11469SOL    HW136724   4.645   0.947   1.609 -0.1196  0.3901 -0.1176
11469SOL    HW236725   4.603   0.919   1.466 -1.1214 -1.5333  0.5071
11470SOL     OW36726   2.579   9.601   2.077  0.2586 -0.4508 -0.4320
11470SOL    HW136727   2.603   9.511   2.054 -0.8436 -1.1462  0.9361
11470SOL    HW236728   2.583   9.603   2.173 -0.5499  0.7200 -0.4008
11471SOL     OW36729   8.826   6.952   1.984  0.4193  0.3689 -0.0553
11471SOL    HW136730   8.784   7.019   2.037  0.1407 -0.0623  0.2781
11471SOL    HW236731   8.905   6.994   1.950  1.0232  0.4125  1.3578
11472SOL     OW36732   8.932   4.700   7.809  0.2788 -0.4022 -0.1716
11472SOL    HW136733   8.937   4.635   7.879  1.4037 -0.5647 -0.3705
11472SOL    HW236734   8.970   4.655   7.733  1.6351  0.6563 -0.1651
11473SOL     OW36735   4.634   7.159  10.471 -0.3837 -0.3711 -0.2502
11473SOL    HW136736   4.590   7.088  10.425 -2.2437  1.0107 -0.7025
11473SOL    HW236737   4.667   7.119  10.551  0.0114 -2.0758 -1.2245
11474SOL     OW36738   2.855   9.095   4.359  0.0574  0.2550 -0.0892
11474SOL    HW136739   2.859   9.014   4.309 -1.7181 -0.4810  0.9072
11474SOL    HW236740   2.896   9.160   4.301 -0.7454 -0.8199 -1.9550
11475SOL     OW36741   8.088   3.231   6.873 -0.1072  0.1878  0.5343
11475SOL    HW136742   8.172   3.212   6.831  0.1707  0.4621  0.9627
11475SOL    HW236743   8.023   3.191   6.815  0.3604 -0.6312  0.5537
11476SOL     OW36744   8.614   0.676   0.768 -0.6040 -0.6880 -0.3574
11476SOL    HW136745   8.540   0.728   0.737 -1.1857 -0.5793  1.1154
11476SOL    HW236746   8.658   0.734   0.831  1.2448 -0.4341 -1.8055
11477SOL     OW36747   4.945  10.394   8.206  0.5413  0.5151  0.2583
11477SOL    HW136748   5.012  10.350   8.156  1.5474  0.9209  1.2054
11477SOL    HW236749   4.993  10.447   8.270 -0.6728  0.3103  1.3958
11478SOL     OW36750   0.281   7.928   2.696  0.4276  0.2621  0.1603
11478SOL    HW136751   0.276   7.845   2.648  2.6515  0.8784 -1.3160
11478SOL    HW236752   0.194   7.940   2.732 -0.7224 -1.4035 -1.8354
11479SOL     OW36753   9.380   1.797   5.584 -0.1104 -0.0819  0.3242
11479SOL    HW136754   9.474   1.780   5.590 -0.1390  0.3261  2.8970
11479SOL    HW236755   9.371   1.890   5.603 -1.0378 -0.1032  0.0302
11480SOL     OW36756   7.564   0.304   1.544 -0.3317  0.3282  0.1634
11480SOL    HW136757   7.579   0.395   1.522 -1.9591  0.8077  0.8774
11480SOL    HW236758   7.470   0.298   1.561 -0.0792 -1.2167  1.2910
11481SOL     OW36759   3.037  10.084   4.737  0.3748 -0.4027  0.0909
11481SOL    HW136760   2.971  10.021   4.708  1.1026 -1.2804  0.2944
11481SOL    HW236761   3.082  10.109   4.656  0.9960 -1.2127  0.1797
11482SOL     OW36762   1.480   9.693   1.965 -0.3201 -0.3858  0.1517
11482SOL    HW136763   1.506   9.603   1.986 -0.6494 -0.4932  0.1053
11482SOL    HW236764   1.560   9.745   1.979 -0.0060 -0.7501 -0.2526
11483SOL     OW36765   1.125   5.943   2.400  0.0107  0.2910  0.4064
11483SOL    HW136766   1.168   5.950   2.315 -2.2109  0.4329 -0.7647
11483SOL    HW236767   1.093   6.031   2.419 -2.4821 -0.3637 -0.3269
11484SOL     OW36768   9.667   7.077   4.632 -0.6960  0.2779  0.1769
11484SOL    HW136769   9.638   6.988   4.613 -0.2282 -0.3914  2.3542
11484SOL    HW236770   9.725   7.100   4.560 -0.0217 -1.5762  0.1029
11485SOL     OW36771   7.421   0.757   3.338 -0.2577 -0.0783 -0.5499
11485SOL    HW136772   7.359   0.828   3.322 -0.6871  0.2804  2.1452
11485SOL    HW236773   7.466   0.783   3.419  0.8139 -2.0628 -0.4542
11486SOL     OW36774   1.213   5.581   5.376 -0.1059 -0.1262 -0.0238
11486SOL    HW136775   1.220   5.676   5.382 -0.8060 -0.1284  1.0018
11486SOL    HW236776   1.239   5.549   5.462  1.3438 -0.9654 -0.7393
11487SOL     OW36777   2.957   7.881   4.499 -0.6132 -0.0734  0.0939
11487SOL    HW136778   2.942   7.823   4.425  0.4408 -0.6959  0.3500
11487SOL    HW236779   2.937   7.968   4.465  0.4833 -0.2649 -1.1360
11488SOL     OW36780  10.200   8.786   1.749 -0.0690  0.2041  0.4649
11488SOL    HW136781  10.220   8.826   1.834 -1.6813 -0.3762  1.1495
11488SOL    HW236782  10.213   8.857   1.686  0.5959  0.7978  1.2390
11489SOL     OW36783   3.223   9.305   5.188  0.4499  0.2059 -0.2186
11489SOL    HW136784   3.169   9.234   5.223  0.9960  0.4351  1.1088
11489SOL    HW236785   3.312   9.269   5.185  0.1523 -0.6138 -3.5724
11490SOL     OW36786   3.183   4.053  10.510 -0.1107 -0.0030 -0.3134
11490SOL    HW136787   3.119   4.123  10.522  0.4072  0.4005  0.1666
11490SOL    HW236788   3.161   4.014  10.425 -0.8165  0.3044 -0.2781
11491SOL     OW36789   7.394   2.821   6.482  0.0885  0.3076 -0.1145
11491SOL    HW136790   7.324   2.757   6.495 -1.0489  1.5216 -0.0273
11491SOL    HW236791   7.454   2.779   6.421 -0.9536 -0.5986 -0.5576
11492SOL     OW36792   8.355   9.816   0.260 -0.1176 -0.2214 -0.4699
11492SOL    HW136793   8.310   9.766   0.328 -0.2622 -2.3723 -2.0431
11492SOL    HW236794   8.418   9.871   0.307 -2.2506  0.6307  1.5717
11493SOL     OW36795   3.316   9.283   8.979  0.2679  0.0196  0.2169
11493SOL    HW136796   3.228   9.310   9.007  0.0189  1.7041 -1.8733
11493SOL    HW236797   3.359   9.366   8.957  1.1300 -0.9643 -2.1224
11494SOL     OW36798  10.148   2.318   9.971  0.1765 -0.2564  0.0745
11494SOL    HW136799  10.104   2.395   9.933  0.0291 -0.1263  0.5059
11494SOL    HW236800  10.226   2.306   9.916  0.7466  0.8199  0.6170
11495SOL     OW36801   6.784   8.863   2.105  0.1942 -0.2797  0.6178
11495SOL    HW136802   6.757   8.951   2.130  0.1585 -0.3479  0.8194
11495SOL    HW236803   6.704   8.820   2.075  0.5680  0.4675 -1.6245
11496SOL     OW36804   6.685   3.713   0.338  0.4354  0.2598 -0.3249
11496SOL    HW136805   6.776   3.732   0.358  0.8778 -1.3232 -0.7302
11496SOL    HW236806   6.642   3.799   0.340  1.4432  0.8134  2.1706
11497SOL     OW36807   8.876   9.044   9.032  0.0762  0.1047  0.5493
11497SOL    HW136808   8.843   9.118   9.083  0.7439 -0.9436  2.6435
11497SOL    HW236809   8.922   9.084   8.958 -2.7125  1.6548 -0.4795
11498SOL     OW36810   5.837   5.131   4.486  0.0219 -0.4594 -0.2171
11498SOL    HW136811   5.905   5.145   4.552  0.2109 -3.2588  0.3041
11498SOL    HW236812   5.870   5.176   4.408  0.5972  1.4739  1.0725
11499SOL     OW36813   9.171   0.092   2.334  0.3864  0.3102 -0.3550
11499SOL    HW136814   9.157   0.176   2.291  0.8670 -0.2436 -1.6215
11499SOL    HW236815   9.255   0.101   2.378  0.5822  0.3859 -0.7461
11500SOL     OW36816   9.263   9.438   7.328 -0.5345  0.2501 -0.2710
11500SOL    HW136817   9.350   9.401   7.315 -0.5490 -0.1869  0.8078
11500SOL    HW236818   9.203   9.370   7.297 -0.5477 -0.4844  1.2831
11501SOL     OW36819   6.994   8.916  10.271  0.4596 -0.0220 -0.0105
11501SOL    HW136820   6.982   8.997  10.321 -1.5510  0.5111 -1.2637
11501SOL    HW236821   7.030   8.945  10.187 -0.1666 -0.4195 -0.4230
11502SOL     OW36822   7.766   5.852  10.536 -0.1134 -0.8569  0.4388
11502SOL    HW136823   7.679   5.862  10.575 -0.2864  0.3140 -0.2227
11502SOL    HW236824   7.822   5.828  10.610 -1.0638 -2.0639  0.8004
11503SOL     OW36825   5.551   1.470   2.205  0.2566 -0.0218 -0.4780
11503SOL    HW136826   5.539   1.563   2.224 -2.1951 -0.8569  3.0050
11503SOL    HW236827   5.483   1.450   2.140  0.0615  0.3941 -0.4036
11504SOL     OW36828  10.490   7.570   5.077  0.1572 -0.3869  0.4643
11504SOL    HW136829  10.536   7.653   5.085  1.3125 -1.1207  2.0405
11504SOL    HW236830  10.409   7.591   5.030  1.3415  1.2330 -0.9840
11505SOL     OW36831   6.207   7.957   0.230  0.1378 -0.0510 -0.3060
11505SOL    HW136832   6.202   7.884   0.292 -0.3712 -1.2962 -1.7540
11505SOL    HW236833   6.185   7.919   0.146  1.8003  1.3671 -1.4652
11506SOL     OW36834   6.167   0.492   8.762 -0.2744  0.1976  0.5159
11506SOL    HW136835   6.081   0.455   8.740 -1.6964  3.2069  0.5824
11506SOL    HW236836   6.196   0.441   8.838 -0.9193 -2.3027 -0.8019
11507SOL     OW36837   5.012   1.953   2.027  0.3076 -0.3100  0.2597
11507SOL    HW136838   4.933   1.996   2.059 -1.1048 -0.9251 -2.1321
11507SOL    HW236839   5.055   2.019   1.973  0.4760 -0.5110  0.1469
11508SOL     OW36840   2.471   0.419   8.171  0.2240 -0.2048 -0.5405
11508SOL    HW136841   2.403   0.364   8.210  0.0463  0.0519 -0.4802
11508SOL    HW236842   2.449   0.508   8.200 -0.0181  0.0187 -1.3840
11509SOL     OW36843   1.609   4.987  10.484 -0.3068  0.1979 -0.0355
11509SOL    HW136844   1.697   5.024  10.490 -0.4639  0.4166  1.1020
11509SOL    HW236845   1.567   5.036  10.413  0.5796 -0.1434 -0.8287
11510SOL     OW36846   4.733   6.943   5.765 -0.7569 -0.2457 -0.2975
11510SOL    HW136847   4.688   7.027   5.752 -1.2072 -0.2091  1.2597
11510SOL    HW236848   4.781   6.954   5.847  0.3200 -1.0483 -0.7969
11511SOL     OW36849   7.609   3.883   7.958 -0.3439  0.5239 -0.0372
11511SOL    HW136850   7.540   3.824   7.928  0.2832 -0.2204 -0.0334
11511SOL    HW236851   7.569   3.970   7.956 -0.8494  0.2786 -1.3710
11512SOL     OW36852   1.486   5.889   4.529 -0.0456 -0.0307 -0.0453
11512SOL    HW136853   1.405   5.919   4.487  0.5321  1.0784 -0.4225
11512SOL    HW236854   1.552   5.893   4.460  0.9322  1.8547  0.9220
11513SOL     OW36855   0.073   1.752   8.797  0.3430 -0.0776 -0.0366
11513SOL    HW136856   0.135   1.766   8.869  0.1051  0.0318  0.1495
11513SOL    HW236857   0.008   1.691   8.832 -0.5378  1.0182  0.3122
11514SOL     OW36858   4.670   8.801   5.011  0.4916 -0.7003  0.0309
11514SOL    HW136859   4.680   8.893   4.988  1.8154 -0.6826  0.6064
11514SOL    HW236860   4.589   8.775   4.968  0.1536  0.6970 -0.2368
11515SOL     OW36861   6.582   0.241   8.781 -0.6819  0.3123  0.8237
11515SOL    HW136862   6.674   0.253   8.759 -0.6961  0.4467  0.8424
11515SOL    HW236863   6.582   0.172   8.847 -0.6681 -0.4157  0.0920
11516SOL     OW36864   0.864   3.875   0.582 -0.3279  0.3028  0.4270
11516SOL    HW136865   0.897   3.859   0.493 -1.3557  0.9751 -0.0994
11516SOL    HW236866   0.781   3.826   0.586 -1.2672  1.8282  0.3181
11517SOL     OW36867   1.905   5.994   9.217 -0.3630 -0.9664  0.3520
11517SOL    HW136868   1.832   5.986   9.156  0.6421 -3.6755 -0.6329
11517SOL    HW236869   1.891   5.925   9.281  0.4370 -0.3845  1.1780
11518SOL     OW36870   9.688   4.329   9.987  0.2285  0.0248  0.3372
11518SOL    HW136871   9.655   4.404  10.037  0.2269  1.9193 -2.2460
11518SOL    HW236872   9.776   4.355   9.961  0.1718 -0.7865 -0.7186
11519SOL     OW36873   6.963   8.273   4.905 -0.1071  0.1107 -0.0806
11519SOL    HW136874   7.025   8.248   4.836  0.6428 -0.6250  0.8328
11519SOL    HW236875   6.994   8.358   4.934 -0.5883  0.5518 -0.8180
11520SOL     OW36876   3.534   4.285   7.842  0.3745 -0.5694  1.0202
11520SOL    HW136877   3.459   4.237   7.806 -0.1914  1.5449 -0.8479
11520SOL    HW236878   3.607   4.223   7.837 -0.2405 -1.1935 -1.5743
11521SOL     OW36879   0.868   4.280   6.683 -0.5418  0.1613 -0.5049
11521SOL    HW136880   0.825   4.354   6.641  0.3718  1.1404  0.2467
11521SOL    HW236881   0.797   4.231   6.726 -0.8833  1.9907  1.1143
11522SOL     OW36882   4.724   8.271   8.228  0.4688 -0.1245  0.0718
11522SOL    HW136883   4.633   8.296   8.244  0.6724  1.0495 -0.4652
11522SOL    HW236884   4.773   8.307   8.302  0.3857 -1.6681  0.9156
11523SOL     OW36885   4.997   8.134   6.323 -0.1822  0.1513  0.0028
11523SOL    HW136886   4.990   8.223   6.290  0.0733  0.3522  0.4828
11523SOL    HW236887   5.056   8.140   6.398  1.6505 -0.7742 -1.2988
11524SOL     OW36888   7.852   7.464   6.346 -0.1775 -0.2862 -0.1086
11524SOL    HW136889   7.789   7.534   6.329 -0.3400 -0.6012 -0.8488
11524SOL    HW236890   7.891   7.486   6.430 -0.8620  0.2227  0.0779
11525SOL     OW36891   9.559   5.511  10.048 -0.2398  0.4575  0.1556
11525SOL    HW136892   9.552   5.560   9.966  3.3595  1.2703  0.2002
11525SOL    HW236893   9.546   5.576  10.117  1.3275  0.7316  0.2094
11526SOL     OW36894   0.458   1.841   5.316 -0.7767  0.0986 -0.0382
11526SOL    HW136895   0.514   1.912   5.348 -0.0589 -0.1405 -0.7219
11526SOL    HW236896   0.494   1.762   5.357 -1.0026  0.0202  0.0089
11527SOL     OW36897   5.567   6.847   6.244 -0.3843  0.1433 -0.0662
11527SOL    HW136898   5.653   6.829   6.207  0.1867  0.9773  0.7854
11527SOL    HW236899   5.554   6.779   6.310  0.6603  1.2902  1.3962
11528SOL     OW36900   0.867   8.232   3.060 -0.2578  0.7814 -0.6154
11528SOL    HW136901   0.833   8.168   2.998  2.9277  0.0447 -1.7886
11528SOL    HW236902   0.934   8.280   3.011  1.8086  0.7484  1.9832
11529SOL     OW36903   3.518   0.292   2.390 -0.6752 -0.3830  0.3725
11529SOL    HW136904   3.522   0.339   2.473  2.7178  0.9475 -0.3510
11529SOL    HW236905   3.497   0.359   2.325  1.8849 -0.2087 -0.3860
11530SOL     OW36906   8.104   5.622   0.919  0.6832  0.0301 -0.1055
11530SOL    HW136907   8.143   5.701   0.958  2.5503 -0.8557 -0.0693
11530SOL    HW236908   8.134   5.622   0.829 -2.0740  1.0621 -1.1262
11531SOL     OW36909   1.971   3.635   7.352  0.0837  0.1489 -0.5308
11531SOL    HW136910   2.062   3.634   7.378 -0.5006 -0.4925  1.6492
11531SOL    HW236911   1.969   3.692   7.275  2.2362  0.4563 -0.4154
11532SOL     OW36912   3.353   2.097   6.593  0.0807 -0.0143  0.4207
11532SOL    HW136913   3.269   2.134   6.565 -0.8819 -1.5838  1.1539
11532SOL    HW236914   3.341   2.003   6.588  2.1107 -0.2833 -0.2967
11533SOL     OW36915   9.253  10.451   0.153  0.1561  0.5285 -0.1147
11533SOL    HW136916   9.335  10.440   0.104  0.2852 -0.0548  0.2194
11533SOL    HW236917   9.249  10.544   0.172  1.4875  0.3768  1.1243
11534SOL     OW36918   9.393   1.073   6.996  0.0757  0.5125 -0.4288
11534SOL    HW136919   9.381   1.165   7.017 -3.5860  0.5419 -1.9233
11534SOL    HW236920   9.466   1.071   6.934  2.7989  1.8021  2.4782
11535SOL     OW36921   1.704   5.312   3.863  0.0406  0.6401  0.2048
11535SOL    HW136922   1.660   5.317   3.779  0.7931  0.3089 -0.2256
11535SOL    HW236923   1.726   5.403   3.885  1.5980  0.5926 -0.9401
11536SOL     OW36924   4.115  10.095   7.841 -0.1144  0.1310 -0.2075
11536SOL    HW136925   4.198  10.089   7.793  0.2095  0.1647  0.3393
11536SOL    HW236926   4.051  10.054   7.783  0.3635 -0.2799 -0.4519
11537SOL     OW36927   9.799   9.692   4.871 -0.0778 -0.0546  0.5393
11537SOL    HW136928   9.828   9.651   4.953 -0.5159 -1.3611  0.0637
11537SOL    HW236929   9.709   9.662   4.860 -0.1371  0.3975 -0.2467
11538SOL     OW36930   4.995   9.227   5.192 -0.3591  0.3736  0.4973
11538SOL    HW136931   4.999   9.178   5.109 -0.7719 -1.5029  1.5160
11538SOL    HW236932   4.970   9.316   5.166  2.5523  0.7090 -1.6603
11539SOL     OW36933   9.124   4.451   2.116 -0.4827 -0.7061  0.2670
11539SOL    HW136934   9.197   4.476   2.059  0.7529  0.1383  2.1299
11539SOL    HW236935   9.162   4.449   2.204 -2.6136 -0.7018  1.2379
11540SOL     OW36936   7.775   3.132   7.687 -0.1266  0.8520 -0.2803
11540SOL    HW136937   7.703   3.103   7.743  1.0461 -0.3078  0.6943
11540SOL    HW236938   7.739   3.129   7.599 -0.6242 -2.0637 -0.0683
11541SOL     OW36939   0.448   6.430   0.353 -0.0083  0.0172  0.5393
11541SOL    HW136940   0.395   6.351   0.365  0.5279 -0.1275  2.1107
11541SOL    HW236941   0.399   6.499   0.398  1.0161 -0.0733  1.8292
11542SOL     OW36942   6.780   4.104   9.816 -0.3737 -0.2453  0.3984
11542SOL    HW136943   6.702   4.130   9.864 -0.3320 -1.2766  1.0491
11542SOL    HW236944   6.755   4.022   9.773  0.1000 -0.1633 -0.0381
11543SOL     OW36945   3.319   6.353   5.032  0.2364 -0.1128 -0.0429
11543SOL    HW136946   3.289   6.419   4.969 -0.4693 -1.4236 -1.1405
11543SOL    HW236947   3.407   6.331   5.002  0.0053 -0.5377 -0.4257
11544SOL     OW36948   0.199  10.190   5.775  0.3682 -0.5520  0.0849
11544SOL    HW136949   0.158  10.161   5.694  2.0276 -0.9635 -0.6610
11544SOL    HW236950   0.262  10.257   5.748  2.4901 -2.1880  0.6746
11545SOL     OW36951   8.119   5.060   1.572 -0.1609 -0.0398  0.3535
11545SOL    HW136952   8.212   5.057   1.548 -0.1429 -0.6946  0.4778
11545SOL    HW236953   8.082   5.130   1.518 -0.5024 -2.5368 -2.9472
11546SOL     OW36954   9.710   5.942   8.778  0.9648 -0.2358 -0.5054
11546SOL    HW136955   9.627   5.937   8.731  0.3210  1.2244  0.4001
11546SOL    HW236956   9.706   6.025   8.825  3.0499 -0.0200 -0.6125
11547SOL     OW36957   3.942   0.009   9.453 -0.0758 -0.4978 -0.7973
11547SOL    HW136958   3.903   0.008   9.541  0.0469 -1.1704 -0.7403
11547SOL    HW236959   3.872   0.040   9.396  0.0490  0.6038 -0.3803
11548SOL     OW36960   9.942  10.597   6.157  0.0207 -0.6390 -0.0452
11548SOL    HW136961  10.021  10.560   6.118  1.2143 -0.6921  2.2492
11548SOL    HW236962   9.919  10.537   6.228 -1.2086  0.1559  0.2699
11549SOL     OW36963   8.994   2.328   0.822 -0.3399  0.0987 -0.0774
11549SOL    HW136964   9.083   2.314   0.854 -0.4066  0.9083  0.5071
11549SOL    HW236965   8.941   2.333   0.902 -1.1365 -1.7402 -0.4660
11550SOL     OW36966   6.878   5.323   2.183 -0.2428 -0.2383 -0.2139
11550SOL    HW136967   6.902   5.230   2.191  0.3633  0.0506  1.6610
11550SOL    HW236968   6.783   5.322   2.175 -0.5871 -0.9334  2.8582
11551SOL     OW36969   7.587   7.544   7.437 -0.4132  0.2350 -0.1259
11551SOL    HW136970   7.614   7.571   7.349 -0.1135  1.8250  0.4168
11551SOL    HW236971   7.659   7.488   7.467 -0.3649 -0.0607 -0.7638
11552SOL     OW36972   0.779   4.663   7.028  0.6879  0.1636  0.0033
11552SOL    HW136973   0.732   4.746   7.036 -0.5150 -0.3422 -1.3831
11552SOL    HW236974   0.791   4.633   7.118 -0.7655  0.8040  0.4291
11553SOL     OW36975   1.560   6.529   2.039  0.0919  0.2461 -0.0894
11553SOL    HW136976   1.537   6.445   2.081  0.8573 -0.6668 -1.4144
11553SOL    HW236977   1.493   6.540   1.971  1.2195 -0.4388 -1.3656
11554SOL     OW36978   0.526   6.046   8.083  1.0920  0.2587  0.0525
11554SOL    HW136979   0.597   5.988   8.056  2.2512  1.5322  0.2718
11554SOL    HW236980   0.490   6.080   8.001 -0.6421 -1.8858 -0.1727
11555SOL     OW36981   0.152   3.475   2.101  0.4157  0.3848 -0.1786
11555SOL    HW136982   0.112   3.473   2.014  0.6193  0.1081 -0.2656
11555SOL    HW236983   0.092   3.425   2.157  0.0062  1.0138 -0.0378
11556SOL     OW36984   3.901  10.440   2.736  0.6493 -0.3169  0.5359
11556SOL    HW136985   3.856  10.433   2.821 -0.1329  0.1628  0.1709
11556SOL    HW236986   3.863  10.371   2.683 -0.0549  0.4188  0.0599
11557SOL     OW36987   5.312   4.631   7.448 -0.2077 -0.2921 -0.4178
11557SOL    HW136988   5.249   4.693   7.485  2.0132  1.9606 -0.1206
11557SOL    HW236989   5.306   4.643   7.354 -2.1008 -2.1368 -0.5943
11558SOL     OW36990   3.100   8.547   0.357  0.1842 -0.3049 -0.1792
11558SOL    HW136991   3.159   8.513   0.425  0.7740  0.6313 -0.2059
11558SOL    HW236992   3.108   8.642   0.364 -2.3110 -0.0723  0.6644
11559SOL     OW36993   7.471   4.516   1.546 -0.6755 -0.0436 -0.7236
11559SOL    HW136994   7.423   4.495   1.465 -2.5215  1.8350 -0.2050
11559SOL    HW236995   7.474   4.611   1.548  1.9351 -0.0603  0.0253
11560SOL     OW36996   0.699   0.290   7.780  0.1748  0.3171 -0.2256
11560SOL    HW136997   0.759   0.238   7.833 -0.8714  0.3133  1.0026
11560SOL    HW236998   0.757   0.346   7.727  1.2680  0.6855  1.2884
11561SOL     OW36999   9.748   3.057   5.310 -0.3260 -0.4417  0.0782
11561SOL    HW137000   9.763   3.070   5.216 -0.3340  0.7022  0.2213
11561SOL    HW237001   9.807   2.985   5.334  0.4161 -0.0791 -0.6044
11562SOL     OW37002   1.645   9.286   1.699  0.3446 -0.1518 -0.0435
11562SOL    HW137003   1.562   9.247   1.671  0.7042 -0.7748 -0.2750
11562SOL    HW237004   1.633   9.302   1.792 -0.7510  1.6408 -0.4391
11563SOL     OW37005   8.798   0.755   1.725 -0.0345 -0.3192 -0.8869
11563SOL    HW137006   8.710   0.769   1.761  0.1825 -0.9259 -0.0928
11563SOL    HW237007   8.829   0.843   1.703  0.8124  0.4675  2.8092
11564SOL     OW37008   9.496  10.471   5.679 -0.0391 -0.0171  0.6727
11564SOL    HW137009   9.459  10.540   5.733 -0.6948 -0.7382  1.1738
11564SOL    HW237010   9.462  10.390   5.717 -0.2807 -0.5613 -0.6439
11565SOL     OW37011   8.202   3.997   7.007  0.4795 -0.1796  0.1209
11565SOL    HW137012   8.215   3.915   7.056  0.7374 -0.4089 -0.3220
11565SOL    HW237013   8.188   4.063   7.074 -0.7767 -0.7614  0.4685
11566SOL     OW37014   6.483  10.098   0.919 -0.0237 -0.5436  0.3263
11566SOL    HW137015   6.421  10.148   0.971  1.3495 -0.3079  1.8076
11566SOL    HW237016   6.461  10.121   0.828 -1.0609  0.7538  0.8681
11567SOL     OW37017   2.561   0.311   5.147  0.4434 -0.6630  0.2863
11567SOL    HW137018   2.521   0.397   5.142  0.7276 -0.4162  1.7518
11567SOL    HW237019   2.606   0.300   5.063  1.7372  1.3019  0.6575
11568SOL     OW37020   4.120   8.502   5.966 -0.5071  0.1415 -0.3404
11568SOL    HW137021   4.177   8.426   5.978 -0.1989  0.1381 -1.6782
11568SOL    HW237022   4.173   8.577   5.993 -0.5547 -0.0493  0.2849
11569SOL     OW37023   6.832   9.937   3.996 -0.8514 -0.8692 -0.0209
11569SOL    HW137024   6.746   9.906   3.967 -0.4649 -2.0430  0.0580
11569SOL    HW237025   6.878   9.858   4.024  0.6925 -0.4247 -1.1972
11570SOL     OW37026   8.585   5.005  10.476  0.3635 -0.8389  0.1910
11570SOL    HW137027   8.577   4.910  10.481  0.9631 -0.8721  0.6853
11570SOL    HW237028   8.500   5.038  10.504  0.3427 -1.2208  0.5799
11571SOL     OW37029  10.185   1.229   8.982 -0.4146 -0.3076  0.6147
11571SOL    HW137030  10.224   1.286   9.049  0.6396  0.0017 -0.2431
11571SOL    HW237031  10.231   1.146   8.991 -1.3871 -0.8045  1.3136
11572SOL     OW37032   5.598   5.063   1.844 -0.0604  0.9574  0.0621
11572SOL    HW137033   5.503   5.072   1.836 -0.2069  0.0790  0.6148
11572SOL    HW237034   5.611   5.034   1.935  0.7255  0.9907 -0.0403
11573SOL     OW37035   8.248   5.721  10.523 -0.4057  0.5953 -0.2341
11573SOL    HW137036   8.290   5.655  10.468 -0.1815 -0.2081  0.8685
11573SOL    HW237037   8.303   5.725  10.602 -1.5607  0.6046  0.5897
11574SOL     OW37038   5.835   8.428   5.847  0.1937 -0.0937 -0.0538
11574SOL    HW137039   5.752   8.401   5.807  0.1718  1.6389 -1.2948
11574SOL    HW237040   5.809   8.482   5.922  0.1605  0.9137 -0.7706
11575SOL     OW37041   1.281  10.199   5.952  0.2400 -0.1810 -0.7108
11575SOL    HW137042   1.263  10.275   6.008 -1.3327 -0.6677 -0.5020
11575SOL    HW237043   1.327  10.137   6.008  1.9974  0.7724 -1.0187
11576SOL     OW37044   3.988   4.721   5.780 -0.0173  0.1783  0.5636
11576SOL    HW137045   3.952   4.809   5.771  2.2502  1.2779  1.4664
11576SOL    HW237046   3.961   4.693   5.867  1.0568  0.9229  1.1622
11577SOL     OW37047   1.438   5.364   6.696  0.2163  0.3071  0.5235
11577SOL    HW137048   1.435   5.355   6.600  1.6517 -1.5507  0.5932
11577SOL    HW237049   1.347   5.352   6.724 -0.3296  1.5053 -0.6125
11578SOL     OW37050   7.479   3.146   4.437 -0.3103 -0.1841  0.2956
11578SOL    HW137051   7.427   3.154   4.517  0.6736  0.2611  0.9132
11578SOL    HW237052   7.570   3.155   4.467  0.2525 -2.4728 -0.5341
11579SOL     OW37053   9.640   8.567   3.380  0.5921 -0.5132  0.5152
11579SOL    HW137054   9.728   8.574   3.418  0.7649 -1.8061  0.3850
11579SOL    HW237055   9.637   8.479   3.342 -0.5944 -0.3043  0.0981
11580SOL     OW37056   1.090  10.456  10.455  0.4102 -0.0854  0.4333
11580SOL    HW137057   1.027  10.386  10.466  1.2901 -0.8581  0.6608
11580SOL    HW237058   1.147  10.450  10.532  1.5180 -0.2048 -0.3725
11581SOL     OW37059   1.540   4.536   6.895  0.0917  0.1909 -0.3064
11581SOL    HW137060   1.455   4.491   6.896 -0.1352  0.5909 -0.8029
11581SOL    HW237061   1.552   4.561   6.803  0.2252  1.1114 -0.0494
11582SOL     OW37062   2.345   7.134   4.213 -0.2468  0.7185  0.2584
11582SOL    HW137063   2.382   7.162   4.297 -1.4937  2.5556  0.2565
11582SOL    HW237064   2.262   7.182   4.206  0.1067  1.1229 -2.3052
11583SOL     OW37065   2.953   4.384   9.729  0.6104  0.2211 -0.3901
11583SOL    HW137066   2.970   4.397   9.823 -0.3934 -1.2415  0.0279
11583SOL    HW237067   2.984   4.296   9.711  0.1161  0.2189 -1.2778
11584SOL     OW37068   1.069   2.600   0.550  0.1699 -0.3296  0.7812
11584SOL    HW137069   1.027   2.553   0.622  0.8047 -2.9776 -0.4637
11584SOL    HW237070   0.996   2.635   0.499 -0.2915  1.7889  2.7021
11585SOL     OW37071  10.586   6.887   3.916 -0.0079  0.6690 -0.2869
11585SOL    HW137072  10.514   6.835   3.954  0.0591  1.7066  1.3920
11585SOL    HW237073  10.663   6.832   3.926 -0.3748 -0.0370 -1.1596
11586SOL     OW37074   3.127   4.502   0.602 -0.1078 -0.0745 -0.2411
11586SOL    HW137075   3.084   4.512   0.518  1.3266  1.3228 -0.8462
11586SOL    HW237076   3.124   4.589   0.642 -0.0732 -0.5381  0.8029
11587SOL     OW37077   4.237   7.666   0.511  0.3126  0.1028  0.2410
11587SOL    HW137078   4.309   7.632   0.458  0.0883 -0.4079  0.2605
11587SOL    HW237079   4.167   7.684   0.449  0.5489  0.8628  0.1867
11588SOL     OW37080   1.423   1.703  10.502 -0.1671  0.3712  0.3169
11588SOL    HW137081   1.397   1.679  10.591  0.6621 -0.3131  0.3919
11588SOL    HW237082   1.440   1.797  10.506 -0.8475  0.4821  0.6988
11589SOL     OW37083   7.455   2.609   7.503  0.3992  0.3798 -0.5558
11589SOL    HW137084   7.411   2.689   7.530 -0.0414  0.1543 -0.5950
11589SOL    HW237085   7.395   2.539   7.528  1.0940  0.0086  0.1311
11590SOL     OW37086   6.415   5.106  10.597  0.2534 -0.2488 -0.0884
11590SOL    HW137087   6.405   5.161  10.519  0.7135  0.5702  0.4178
11590SOL    HW237088   6.486   5.148  10.647 -0.2146 -0.6085  0.9028
11591SOL     OW37089   7.838   4.755   0.148 -0.2079 -1.0394  0.0083
11591SOL    HW137090   7.831   4.836   0.099  0.1292 -1.2591 -0.4089
11591SOL    HW237091   7.907   4.706   0.104  0.2664 -1.1415  0.8317
11592SOL     OW37092   1.920   2.518   3.497  0.5255  0.2911  0.3908
11592SOL    HW137093   1.966   2.447   3.539 -0.4292 -1.0360 -0.7015
11592SOL    HW237094   1.921   2.496   3.404  0.4688  1.8624 -0.0163
11593SOL     OW37095   2.579   5.998   3.286 -0.3528 -0.4357  0.3546
11593SOL    HW137096   2.498   6.037   3.319  0.6408  0.8007  1.4461
11593SOL    HW237097   2.559   5.974   3.196 -1.3052  1.8393 -0.1075
11594SOL     OW37098   1.225   5.055   8.240 -0.0722  0.0613  0.2577
11594SOL    HW137099   1.140   5.013   8.255 -0.9590  1.6523 -0.0657
11594SOL    HW237100   1.246   5.097   8.323  0.8856 -1.1081  0.6282
11595SOL     OW37101   8.514   1.040   6.065  0.1673 -0.0592 -0.4116
11595SOL    HW137102   8.558   1.096   6.129 -0.3243  1.8438 -1.6549
11595SOL    HW237103   8.581   1.020   6.000 -0.3626  1.6402 -1.5421
11596SOL     OW37104   1.733   6.666   9.665 -0.3422  0.1487 -0.0889
11596SOL    HW137105   1.792   6.717   9.609 -0.6186  1.1613  0.5117
11596SOL    HW237106   1.738   6.577   9.631 -1.9435  1.0380 -2.9911
11597SOL     OW37107   0.491   4.095   1.902 -0.6200 -0.1452 -0.1237
11597SOL    HW137108   0.497   4.190   1.910 -2.3722 -0.0884  1.2834
11597SOL    HW237109   0.505   4.063   1.992  2.0782 -1.4263 -0.8862
11598SOL     OW37110   8.329   8.065   7.329  0.0635 -0.0823 -0.1391
11598SOL    HW137111   8.255   8.006   7.318 -0.7761  1.3456 -3.0409
11598SOL    HW237112   8.324   8.093   7.421 -1.5472 -1.8165  0.3532
11599SOL     OW37113  10.057   5.975   7.243 -0.3764  0.2378 -0.3300
11599SOL    HW137114  10.149   5.959   7.261 -0.7660 -2.5556 -0.3461
11599SOL    HW237115  10.013   5.893   7.266 -3.2113  2.1386  1.7931
11600SOL     OW37116   2.511   5.413   3.049  0.4229 -0.1411 -0.0475
11600SOL    HW137117   2.418   5.432   3.063  0.6240  0.7869  0.0946
11600SOL    HW237118   2.550   5.498   3.031  0.9764 -0.6916 -1.7098
11601SOL     OW37119   2.487   6.836  10.105 -0.0770 -0.2851  0.2223
11601SOL    HW137120   2.445   6.774  10.046 -1.0529 -0.2505  0.8553
11601SOL    HW237121   2.573   6.853  10.065 -0.7391 -0.1754 -1.2354
11602SOL     OW37122   9.536   9.933   2.469  0.1512 -0.0162  0.2206
11602SOL    HW137123   9.587  10.003   2.510 -0.6472 -0.0192  1.2699
11602SOL    HW237124   9.587   9.853   2.485  0.4322  0.1499  0.1575
11603SOL     OW37125   6.596   9.415   6.404  0.1008 -0.3161  0.1522
11603SOL    HW137126   6.559   9.336   6.445 -1.8969  1.6334  2.4128
11603SOL    HW237127   6.567   9.410   6.312 -0.1851 -2.0727  0.3062
11604SOL     OW37128   8.514  10.352   2.472  0.4415 -0.3870 -0.4033
11604SOL    HW137129   8.586  10.308   2.426  1.9366  0.4909  1.0218
11604SOL    HW237130   8.508  10.438   2.430  0.1061 -0.5056 -0.6087
11605SOL     OW37131   9.393  10.132   1.329 -0.3884 -0.2532 -0.0800
11605SOL    HW137132   9.358  10.207   1.281 -0.1134 -0.2784 -0.3239
11605SOL    HW237133   9.438  10.079   1.262  1.9518  0.8344  0.5112
11606SOL     OW37134   4.095   2.754   2.143 -0.2859 -0.3686 -0.2005
11606SOL    HW137135   4.185   2.780   2.161 -1.1214  1.2319  2.2976
11606SOL    HW237136   4.099   2.660   2.126  1.7905 -0.4034  0.2596
11607SOL     OW37137   2.385   5.566   7.258  0.0558  0.0315  0.2990
11607SOL    HW137138   2.452   5.609   7.311  0.1804  2.0591 -1.3632
11607SOL    HW237139   2.360   5.632   7.193 -2.3331 -1.2674 -0.2055
11608SOL     OW37140   3.161   0.790   0.059 -0.2134  0.2203 -0.3587
11608SOL    HW137141   3.133   0.803   0.150  0.6779  0.4226 -0.1036
11608SOL    HW237142   3.257   0.786   0.064 -0.2170 -1.5044 -1.0693
11609SOL     OW37143   1.119   8.700   8.131 -0.4451 -0.5566 -0.1702
11609SOL    HW137144   1.203   8.702   8.086  0.6400 -0.6162  1.7646
11609SOL    HW237145   1.069   8.632   8.086  0.6711 -0.7642 -1.1199
11610SOL     OW37146   6.150   2.092   8.041  0.4558 -0.2901 -0.3685
11610SOL    HW137147   6.159   2.181   8.007  0.2794 -0.2284 -0.2560
11610SOL    HW237148   6.083   2.099   8.109  1.9007 -0.0963  1.1063
11611SOL     OW37149   0.028   3.760  10.472 -0.3095  0.2286  0.1087
11611SOL    HW137150  -0.065   3.760  10.448 -0.1482 -1.1849 -0.6379
11611SOL    HW237151   0.072   3.805  10.400 -0.3232  0.1607  0.0583
11612SOL     OW37152   6.431   2.105   3.841  0.7548  0.3459 -0.2274
11612SOL    HW137153   6.437   2.137   3.751  1.7911  0.2825 -0.1880
11612SOL    HW237154   6.356   2.153   3.877  1.1679  1.4057 -0.7110
11613SOL     OW37155   3.064   4.916   3.565  0.3837  0.1154  0.0492
11613SOL    HW137156   3.111   4.978   3.621  0.2860 -1.2308  1.7066
11613SOL    HW237157   2.977   4.910   3.604 -0.6721  1.2484 -1.9475
11614SOL     OW37158   6.308   7.415   4.076  0.1458 -0.0079  0.2005
11614SOL    HW137159   6.243   7.484   4.091 -1.1969 -1.3218  0.7676
11614SOL    HW237160   6.324   7.417   3.982 -1.7816 -0.4986 -0.1949
11615SOL     OW37161   3.399   2.838   0.657 -0.2802  0.0811  0.2818
11615SOL    HW137162   3.380   2.931   0.663 -0.8293  0.1798 -1.9327
11615SOL    HW237163   3.341   2.797   0.721  0.2454  1.2532  1.5550
11616SOL     OW37164   8.723   6.240   5.590 -0.0125  0.1453  0.2098
11616SOL    HW137165   8.642   6.200   5.621  0.7972 -1.5946  0.2088
11616SOL    HW237166   8.726   6.325   5.632  0.9032 -1.8910  4.8880
11617SOL     OW37167   0.297   1.194   0.390  0.4263  0.3092 -0.4217
11617SOL    HW137168   0.330   1.249   0.320  0.8094  0.3977 -0.1712
11617SOL    HW237169   0.299   1.249   0.468  0.4704  0.0581 -0.2418
11618SOL     OW37170   9.826   8.950   5.490  0.0450  0.2293 -0.0350
11618SOL    HW137171   9.779   8.896   5.426 -0.9926  0.5181  0.4633
11618SOL    HW237172   9.880   9.009   5.437 -0.1374 -0.1247 -0.6210
11619SOL     OW37173   5.644   0.993   6.140  0.0788  0.3096  0.0366
11619SOL    HW137174   5.710   0.976   6.207 -0.4635 -0.9186  0.2904
11619SOL    HW237175   5.610   0.906   6.117 -0.6684  0.8251 -0.8787
11620SOL     OW37176   8.955   5.999   8.739 -0.0086  0.3945 -0.3279
11620SOL    HW137177   8.992   5.924   8.694  0.0481  1.2372 -1.7531
11620SOL    HW237178   9.026   6.033   8.793  0.7403  0.8694 -1.5842
11621SOL     OW37179   6.850   9.001   0.713 -0.1730  0.2853 -0.5611
11621SOL    HW137180   6.886   9.062   0.777 -1.3197  1.3436 -0.8926
11621SOL    HW237181   6.876   8.915   0.745  2.1605  0.9425 -0.5003
11622SOL     OW37182   8.260   9.425   0.366  0.0842  0.1281 -0.5066
11622SOL    HW137183   8.330   9.480   0.331  0.4049  0.4004  0.5164
11622SOL    HW237184   8.196   9.486   0.401 -0.7377 -0.1189 -1.5352
11623SOL     OW37185   5.192   6.292   8.235  0.2997 -0.0176  0.1496
11623SOL    HW137186   5.156   6.359   8.177  1.7978 -0.3072 -1.1927
11623SOL    HW237187   5.116   6.256   8.280 -0.7795  1.1036 -0.7138
11624SOL     OW37188   1.196   8.293   9.562  0.5731 -0.4156 -0.4610
11624SOL    HW137189   1.106   8.276   9.587  0.7107 -0.0653  0.2768
11624SOL    HW237190   1.217   8.223   9.499 -0.2673 -0.3756 -0.7940
11625SOL     OW37191   6.030   9.712   9.664 -0.1456  0.5914 -0.4641
11625SOL    HW137192   6.012   9.806   9.658 -0.3284  0.5577 -0.4642
11625SOL    HW237193   5.968   9.680   9.730 -2.3453 -0.0983 -2.7138
11626SOL     OW37194   0.789   7.634   9.481  0.4889 -0.4676  0.0808
11626SOL    HW137195   0.742   7.717   9.485  0.3720 -0.5270 -0.0621
11626SOL    HW237196   0.811   7.615   9.573  1.0724  0.0333  0.0552
11627SOL     OW37197   3.592   2.454   9.777  0.0992  0.3468  0.2840
11627SOL    HW137198   3.575   2.545   9.752 -0.2608  0.0871 -0.4335
11627SOL    HW237199   3.557   2.447   9.866  0.1032  0.9009  0.3326
11628SOL     OW37200   5.945   8.606   8.247  0.1126  0.4549 -0.2727
11628SOL    HW137201   5.867   8.661   8.261 -0.2883  0.4879 -2.3939
11628SOL    HW237202   5.955   8.558   8.330 -2.1330  0.4686  0.0767
11629SOL     OW37203   2.079   2.859   6.013  0.4203  0.4399  0.3670
11629SOL    HW137204   2.148   2.891   5.955  0.0664 -0.0419 -0.3222
11629SOL    HW237205   1.997   2.879   5.967  0.0082  2.0628  1.6838
11630SOL     OW37206   1.521   4.140   7.607  0.1973 -0.0310  0.2740
11630SOL    HW137207   1.473   4.161   7.527  1.3611  1.0812 -0.1659
11630SOL    HW237208   1.455   4.103   7.666 -1.0174  0.6978 -0.5899
11631SOL     OW37209  10.195   3.134   1.917  0.8013  0.2367 -0.4176
11631SOL    HW137210  10.150   3.106   1.836 -1.7512  0.5332  0.7920
11631SOL    HW237211  10.128   3.183   1.965  2.2940  0.1763  1.8332
11632SOL     OW37212   6.944   0.081   4.886  0.2813  0.4577  0.0993
11632SOL    HW137213   6.895   0.162   4.896  0.7242  0.9063 -1.1059
11632SOL    HW237214   7.020   0.091   4.943  0.1159  0.7167  0.2732
11633SOL     OW37215   6.373   6.937   1.983  0.2786 -0.1646  0.5518
11633SOL    HW137216   6.294   6.968   1.937  0.0998 -0.6126  0.5521
11633SOL    HW237217   6.399   7.011   2.038  0.0987  0.1357  0.2401
11634SOL     OW37218   4.541   6.698   3.736  0.2527 -0.5060  0.1671
11634SOL    HW137219   4.446   6.699   3.728  0.3653  0.3705 -1.7065
11634SOL    HW237220   4.568   6.611   3.706  0.1295 -0.0747 -1.2691
11635SOL     OW37221   6.393   2.097   8.821  0.1489 -0.7518 -0.6618
11635SOL    HW137222   6.303   2.109   8.790 -0.2699 -1.0109  0.4258
11635SOL    HW237223   6.431   2.185   8.818 -0.0265 -0.6904 -1.4209
11636SOL     OW37224   2.122   2.707   3.571 -0.1061  0.2802 -0.4330
11636SOL    HW137225   2.085   2.639   3.514 -0.7746  0.6466 -0.4357
11636SOL    HW237226   2.206   2.670   3.599 -0.5507 -0.6361 -0.2693
11637SOL     OW37227   6.498   2.933   0.975  0.4947 -0.7074  0.4128
11637SOL    HW137228   6.434   3.003   0.990 -0.8869 -1.8204 -0.0454
11637SOL    HW237229   6.489   2.876   1.052  1.6883 -0.3449  0.8385
11638SOL     OW37230  10.392   3.217   6.292  0.7175  0.7683 -0.0002
11638SOL    HW137231  10.452   3.228   6.366  1.5679  0.3964 -0.6072
11638SOL    HW237232  10.347   3.301   6.284 -0.1012  0.4943  1.5354
11639SOL     OW37233  10.592   5.273   2.993 -0.1856 -0.6704 -0.2885
11639SOL    HW137234  10.555   5.200   2.943 -0.2143  0.5709 -2.1889
11639SOL    HW237235  10.558   5.351   2.950  1.6730  0.4899  0.2242
11640SOL     OW37236   3.453   3.205   2.585  0.4601  0.0324  0.1654
11640SOL    HW137237   3.378   3.149   2.566 -0.9222  1.0347  2.1984
11640SOL    HW237238   3.506   3.155   2.648  1.2090 -0.4251 -0.8023
11641SOL     OW37239  10.002   9.342   6.046 -0.2435 -0.1304  0.6209
11641SOL    HW137240   9.965   9.255   6.064  1.3236 -0.5978  1.8088
11641SOL    HW237241  10.080   9.324   5.993 -0.3807  0.6309  0.1551
11642SOL     OW37242   5.799   8.111   8.147  0.2225 -0.7572  0.0143
11642SOL    HW137243   5.758   8.089   8.231  0.1113  0.7733  0.3924
11642SOL    HW237244   5.870   8.047   8.137 -0.8552 -2.0686  0.4000
11643SOL     OW37245   9.681   0.131   8.531  0.2270 -0.2128 -1.3690
11643SOL    HW137246   9.606   0.180   8.499  0.0867 -0.9064 -2.1193
11643SOL    HW237247   9.647   0.043   8.548  1.1931 -1.0028 -3.2773
11644SOL     OW37248   5.586   0.726   1.242 -0.3524  0.0504  0.5470
11644SOL    HW137249   5.627   0.702   1.158 -1.2897 -0.8125  0.3181
11644SOL    HW237250   5.495   0.747   1.219  0.1915  3.2826  0.8243
11645SOL     OW37251   9.145   2.692   7.850  0.4665 -0.2774  0.3348
11645SOL    HW137252   9.087   2.767   7.841  1.7046  0.6706 -0.0323
11645SOL    HW237253   9.222   2.726   7.896  0.9022 -1.3955  0.4592
11646SOL     OW37254   6.347   2.301   2.424 -0.1274 -0.2558  0.2810
11646SOL    HW137255   6.352   2.206   2.440  0.5773 -0.1799  0.5576
11646SOL    HW237256   6.381   2.340   2.504 -0.8687  0.2552  0.3590
11647SOL     OW37257   0.983   7.816   2.413 -0.2448  0.6933  0.1433
11647SOL    HW137258   1.016   7.887   2.469  1.0197  0.6078 -0.4495
11647SOL    HW237259   1.000   7.846   2.324  0.9395 -0.6053 -0.1070
11648SOL     OW37260   8.428   8.078   4.136 -0.1596  1.0377  0.1876
11648SOL    HW137261   8.387   8.118   4.059  1.1988  0.2796 -0.9750
11648SOL    HW237262   8.360   8.022   4.173 -0.9662  1.7354 -0.1945
11649SOL     OW37263   0.797   1.762   9.230 -0.4663 -0.1308  0.0566
11649SOL    HW137264   0.782   1.770   9.325 -0.7994  1.2919 -0.0776
11649SOL    HW237265   0.891   1.773   9.220 -0.5170  0.4613  0.1766
11650SOL     OW37266  10.392   2.140   2.677  0.7605  0.0343  0.0768
11650SOL    HW137267  10.298   2.123   2.686  0.6049  1.8873  3.5553
11650SOL    HW237268  10.434   2.070   2.727  1.1115  0.2771  0.1249
11651SOL     OW37269   3.350   3.092   0.696  0.0039  0.5955 -0.3319
11651SOL    HW137270   3.279   3.109   0.634 -0.6250 -1.3160 -0.1856
11651SOL    HW237271   3.356   3.173   0.747 -1.6382  1.0395 -0.7810
11652SOL     OW37272   4.132   9.042   0.555  0.3867  0.4810 -0.2643
11652SOL    HW137273   4.216   9.013   0.519  1.1697  2.5584 -0.2242
11652SOL    HW237274   4.153   9.074   0.642 -0.4081  1.2300 -0.3364
11653SOL     OW37275   9.720   0.829   3.166  0.8534  0.2157 -0.3393
11653SOL    HW137276   9.626   0.848   3.169  0.8267  0.1382 -0.6429
11653SOL    HW237277   9.738   0.787   3.250  0.1844 -1.7499 -1.1231
11654SOL     OW37278   6.727   0.522   7.202 -0.4154 -0.1761  0.1744
11654SOL    HW137279   6.716   0.536   7.108 -0.0679 -1.0224 -0.0029
11654SOL    HW237280   6.639   0.526   7.237 -0.6920 -1.0614 -0.3763
11655SOL     OW37281   6.759   6.960   0.977  0.0768  0.2262 -0.0913
11655SOL    HW137282   6.740   6.868   0.957  2.2746 -0.1171 -0.8718
11655SOL    HW237283   6.763   6.963   1.073 -0.6012 -0.3463 -0.0371
11656SOL     OW37284   9.098  10.365   7.984  0.3527 -0.2873 -0.4603
11656SOL    HW137285   9.132  10.279   8.010  0.7287 -0.2425 -0.7905
11656SOL    HW237286   9.141  10.427   8.043 -0.2262 -0.3613  0.0452
11657SOL     OW37287   0.508   7.863   6.354 -0.5587  0.3058  0.1839
11657SOL    HW137288   0.601   7.863   6.330 -0.8479  0.3162 -0.9647
11657SOL    HW237289   0.501   7.794   6.420  0.3573  0.6612  0.6724
11658SOL     OW37290   9.669   5.082   3.437  1.2637  0.1993  0.0401
11658SOL    HW137291   9.681   4.997   3.478 -0.9479  0.6787  1.9055
11658SOL    HW237292   9.678   5.066   3.343 -0.5417 -2.3941  0.2186
11659SOL     OW37293   5.108   9.588   3.294 -0.2816 -0.1444 -0.6029
11659SOL    HW137294   5.126   9.570   3.202 -1.7440  0.5418 -1.0462
11659SOL    HW237295   5.074   9.506   3.329  0.1140 -0.3563 -0.7037
11660SOL     OW37296   9.427   0.552   3.646  0.1883  0.1696 -0.4699
11660SOL    HW137297   9.392   0.617   3.585  0.2140 -0.0331 -0.7042
11660SOL    HW237298   9.507   0.521   3.603 -1.0863 -1.8034 -1.5680
11661SOL     OW37299   6.526   2.504   4.769 -0.0441 -0.9592  0.0267
11661SOL    HW137300   6.453   2.499   4.830 -0.1693  1.0541  0.1102
11661SOL    HW237301   6.490   2.548   4.692  0.7179 -1.2866 -0.5316
11662SOL     OW37302   1.930   1.158   4.458  0.3553 -0.7608  0.5932
11662SOL    HW137303   1.896   1.233   4.409  0.5355 -0.2546  1.2211
11662SOL    HW237304   1.853   1.122   4.503  0.3798 -0.5451  0.8114
11663SOL     OW37305   8.340   4.020   8.242 -0.6271  0.9482 -0.3560
11663SOL    HW137306   8.341   4.109   8.279 -0.9348  1.2731 -1.1070
11663SOL    HW237307   8.283   3.971   8.301  0.5734  0.9022  0.8097
11664SOL     OW37308   5.419   4.164   7.299  0.0185  0.0913  0.4704
11664SOL    HW137309   5.458   4.245   7.332 -0.4386 -0.1750  1.7630
11664SOL    HW237310   5.338   4.155   7.350 -0.1491 -0.9536  0.0389
11665SOL     OW37311   9.412   3.327   7.196  0.5115  0.0688 -0.6309
11665SOL    HW137312   9.484   3.344   7.257  1.6737 -1.9747 -1.3603
11665SOL    HW237313   9.357   3.262   7.240  0.5195 -0.2822 -1.1331
11666SOL     OW37314   1.197   9.163   3.547 -0.5225  0.2563  0.6929
11666SOL    HW137315   1.116   9.201   3.581 -1.5744 -2.4757  1.5486
11666SOL    HW237316   1.176   9.070   3.535  2.1075 -0.2840 -0.3692
11667SOL     OW37317   3.285   6.256   4.076 -0.2399  0.4182 -0.1309
11667SOL    HW137318   3.282   6.296   3.989 -0.4339  2.0816  0.5892
11667SOL    HW237319   3.328   6.172   4.062 -1.5563 -0.0181 -2.0537
11668SOL     OW37320   2.670   1.224   1.939  0.3716 -0.1466  0.5914
11668SOL    HW137321   2.618   1.158   1.983 -0.3333  0.1950  0.2925
11668SOL    HW237322   2.689   1.186   1.853 -2.0155  0.9156 -0.4954
11669SOL     OW37323  10.008   9.254  10.109 -0.3570  0.0359  0.1284
11669SOL    HW137324  10.004   9.335  10.059 -0.9931  0.3593  0.6962
11669SOL    HW237325   9.966   9.274  10.192  0.5952 -0.5357  0.7641
11670SOL     OW37326   1.441   0.871  10.389  0.1497  0.0478  0.1401
11670SOL    HW137327   1.469   0.862  10.297 -2.2290  3.1349 -1.0583
11670SOL    HW237328   1.370   0.808  10.398  0.2116 -0.0792 -0.2232
11671SOL     OW37329   1.828   6.974   3.836 -0.3420 -0.0036  0.4710
11671SOL    HW137330   1.780   7.056   3.823 -1.6735 -1.0508 -1.8636
11671SOL    HW237331   1.760   6.907   3.833  0.9842 -1.3648 -0.3064
11672SOL     OW37332   7.947   9.734   0.388  0.3106  0.2024 -0.4522
11672SOL    HW137333   8.032   9.742   0.430 -0.4030 -0.3095  1.1670
11672SOL    HW237334   7.934   9.640   0.376 -0.9049  0.1057  1.2901
11673SOL     OW37335   1.010   4.306   3.098  0.1754  0.1109 -0.1046
11673SOL    HW137336   0.942   4.289   3.033 -0.2518  1.2992  0.0014
11673SOL    HW237337   1.031   4.220   3.134 -0.2355 -0.4486 -1.1594
11674SOL     OW37338   2.934   2.887   7.509  0.2070 -0.1226 -0.3811
11674SOL    HW137339   2.890   2.804   7.528 -0.4023  0.1194 -0.6926
11674SOL    HW237340   2.934   2.892   7.413 -1.0249  0.8853 -0.3487
11675SOL     OW37341   0.221   0.680   3.465 -0.0891 -0.2009 -0.3291
11675SOL    HW137342   0.176   0.723   3.393  0.4182  1.3880  0.2500
11675SOL    HW237343   0.210   0.586   3.449 -0.7286  0.1323 -1.9749
11676SOL     OW37344   4.792   5.780   6.145 -0.5314  0.7601 -0.3305
11676SOL    HW137345   4.827   5.709   6.198  2.0605  1.8292 -0.4348
11676SOL    HW237346   4.704   5.795   6.178 -0.1565 -0.7219  1.4772
11677SOL     OW37347   8.978   0.062   9.859 -0.7390 -0.2850 -0.5579
11677SOL    HW137348   9.030   0.044   9.780 -1.9338 -1.9963 -1.0201
11677SOL    HW237349   8.906   0.117   9.827 -0.4884  0.1435 -0.3862
11678SOL     OW37350   7.463   2.470   6.025  0.2602  1.0640  0.2343
11678SOL    HW137351   7.403   2.514   6.085 -1.3792  1.1497 -1.3768
11678SOL    HW237352   7.407   2.415   5.971  1.7025  0.8249 -1.0904
11679SOL     OW37353   2.164   2.997   6.756  0.1583  0.0771  0.1709
11679SOL    HW137354   2.158   3.038   6.842 -0.0569  0.2869  0.0588
11679SOL    HW237355   2.100   3.045   6.703 -1.2891 -1.4456  0.4530
11680SOL     OW37356   2.971   8.548   7.303  0.2476  0.1631 -0.3437
11680SOL    HW137357   2.943   8.555   7.394 -0.7894  1.4697 -0.7372
11680SOL    HW237358   3.038   8.480   7.304 -1.3020 -1.4640  1.0406
11681SOL     OW37359   9.844   9.471   0.212 -0.1576 -1.0517 -0.1116
11681SOL    HW137360   9.761   9.440   0.248 -0.9864  0.5752 -0.5140
11681SOL    HW237361   9.908   9.405   0.239 -1.4472 -1.9684  0.8401
11682SOL     OW37362   4.268   1.866  10.103  0.2202  0.3156  0.0471
11682SOL    HW137363   4.207   1.818  10.047 -0.1129  0.6888  0.0851
11682SOL    HW237364   4.320   1.918  10.042 -0.2784  0.8776  0.0879
11683SOL     OW37365   2.993   6.855   7.063  0.0462  0.2693 -0.2503
11683SOL    HW137366   3.049   6.783   7.035 -2.7391 -2.1947  0.0070
11683SOL    HW237367   2.936   6.871   6.987 -1.0990  0.3419  0.6024
11684SOL     OW37368   5.623   9.233   9.602  0.3415 -0.4048  0.3982
11684SOL    HW137369   5.596   9.325   9.596  0.2847 -0.4481 -0.1117
11684SOL    HW237370   5.706   9.235   9.650 -0.3525 -0.2304  1.6221
11685SOL     OW37371   4.796   7.158   4.044  0.2680 -0.9661  0.1929
11685SOL    HW137372   4.755   7.238   4.010  0.2231 -1.0711 -0.0038
11685SOL    HW237373   4.877   7.151   3.994  0.2385 -1.0793  0.1601
11686SOL     OW37374   8.324   8.260  10.274  0.2757 -0.0879  0.3132
11686SOL    HW137375   8.376   8.250  10.194  1.4850  0.2603  1.0196
11686SOL    HW237376   8.355   8.189  10.330 -3.1100 -2.6413 -0.7638
11687SOL     OW37377   8.391   9.403   6.785 -0.4493  0.0861 -0.3898
11687SOL    HW137378   8.335   9.473   6.819  1.1651  0.8932  0.7946
11687SOL    HW237379   8.436   9.369   6.863 -0.4388 -1.5835 -1.0901
11688SOL     OW37380   3.980   7.315   5.486 -0.0986  0.1256 -0.5225
11688SOL    HW137381   3.992   7.374   5.411  0.1074  0.5677 -0.1465
11688SOL    HW237382   3.885   7.310   5.497 -0.1821 -0.8257 -1.4989
11689SOL     OW37383   1.857  10.553   2.679  0.4767  0.1326  0.0891
11689SOL    HW137384   1.902  10.637   2.668 -1.1054  1.2436  1.5420
11689SOL    HW237385   1.896  10.514   2.757  0.6805 -0.1227 -0.1393
11690SOL     OW37386   8.926   6.612   4.758 -0.0341  0.0843 -0.3918
11690SOL    HW137387   8.833   6.627   4.741 -0.6180  1.8079  3.3087
11690SOL    HW237388   8.933   6.518   4.773 -1.0834 -0.1182 -1.0418
11691SOL     OW37389   6.585   1.656   4.151 -0.7113 -0.1432 -0.2177
11691SOL    HW137390   6.647   1.714   4.196  1.0503 -0.5656 -1.9518
11691SOL    HW237391   6.633   1.626   4.074 -2.4687 -1.9560 -0.6704
11692SOL     OW37392   1.116   2.262   4.754  0.7807  0.0145  0.2161
11692SOL    HW137393   1.060   2.197   4.797  0.1481  1.2206  1.2729
11692SOL    HW237394   1.060   2.302   4.688  1.1554 -0.4549 -0.4003
11693SOL     OW37395   5.009   6.600   6.984 -0.5076  0.3942  0.1776
11693SOL    HW137396   5.078   6.647   7.031 -0.5064  1.0446 -0.4458
11693SOL    HW237397   5.034   6.508   6.989  0.0126  0.5544  0.5899
11694SOL     OW37398   1.229   2.815   9.385 -0.2023 -0.0187 -0.4823
11694SOL    HW137399   1.284   2.783   9.314  2.3442 -1.1781  1.8326
11694SOL    HW237400   1.172   2.741   9.407 -0.3887  0.0487 -0.7327
11695SOL     OW37401   1.851   3.005   4.154  0.2806 -0.1755 -0.2395
11695SOL    HW137402   1.828   3.052   4.073  0.7651  0.4155 -0.0397
11695SOL    HW237403   1.832   3.067   4.224 -1.4291 -1.1670  0.2183
11696SOL     OW37404   9.468   7.865   5.625 -0.2508 -0.0020 -0.4203
11696SOL    HW137405   9.485   7.876   5.532 -1.8180 -0.2511 -0.7524
11696SOL    HW237406   9.407   7.936   5.647  1.2411  0.9800  0.7665
11697SOL     OW37407   5.592   8.780   2.432  0.0414  0.1885  0.3867
11697SOL    HW137408   5.637   8.747   2.354 -0.7804  0.1986 -0.0953
11697SOL    HW237409   5.552   8.862   2.404 -1.2647 -0.3940  0.4592
11698SOL     OW37410   7.661   2.384   2.013 -0.6631  0.4474 -0.2202
11698SOL    HW137411   7.646   2.415   1.924  1.7132 -2.1149 -1.6867
11698SOL    HW237412   7.757   2.375   2.019 -0.8405 -0.6678  2.1370
11699SOL     OW37413   0.132   5.938   6.438  0.0574  0.1921  0.0972
11699SOL    HW137414   0.079   5.969   6.511 -0.4126 -0.2584 -0.0403
11699SOL    HW237415   0.185   6.013   6.412 -0.3723  0.5906  0.3708
11700SOL     OW37416   5.438   7.120  10.067 -0.3152 -0.0825 -0.0522
11700SOL    HW137417   5.398   7.063  10.133 -0.5753  0.5365  0.3326
11700SOL    HW237418   5.396   7.097   9.985 -0.8947  0.0190  0.2166
11701SOL     OW37419   1.486   9.134   6.574  0.2619  0.4506  0.6594
11701SOL    HW137420   1.391   9.128   6.584  0.2480 -0.2860  0.1890
11701SOL    HW237421   1.503   9.226   6.555 -0.2861  0.7158  1.4010
11702SOL     OW37422   7.107   7.555   1.045  0.4277  0.5316  0.2219
11702SOL    HW137423   7.057   7.617   0.992 -0.8120  0.4490  1.2293
11702SOL    HW237424   7.134   7.606   1.122  0.0211  0.0371  0.7069
11703SOL     OW37425   6.331   6.675   6.793  0.0691 -0.7296  0.0580
11703SOL    HW137426   6.354   6.760   6.755  0.2844 -0.8463 -0.0790
11703SOL    HW237427   6.377   6.611   6.737  0.7027 -0.8829  0.7350
11704SOL     OW37428   3.096   8.707   5.187 -0.0464 -0.1298  0.4050
11704SOL    HW137429   3.178   8.671   5.151 -0.4812 -0.9505  0.2144
11704SOL    HW237430   3.123   8.748   5.269  0.3593 -1.6290  1.0645
11705SOL     OW37431   5.485  10.295   1.376  0.3037 -0.1967 -0.5583
11705SOL    HW137432   5.405  10.242   1.384 -0.8421  1.4349 -0.7459
11705SOL    HW237433   5.508  10.290   1.283 -0.2270  0.1910 -0.7190
11706SOL     OW37434   6.170   9.177   4.711 -0.2191  0.4200  0.0397
11706SOL    HW137435   6.261   9.150   4.700 -1.0022 -1.5782 -2.2820
11706SOL    HW237436   6.138   9.123   4.783  0.3178  0.9978  0.7396
11707SOL     OW37437   0.259   3.828   6.423  0.2663 -0.7386  0.0726
11707SOL    HW137438   0.270   3.738   6.390 -1.8187 -0.3938 -1.7857
11707SOL    HW237439   0.231   3.878   6.346 -0.2434  1.1592  1.4443
11708SOL     OW37440   6.756   6.616   3.681 -0.0705 -0.1117  0.4038
11708SOL    HW137441   6.850   6.624   3.665 -0.1462  2.3584  0.7219
11708SOL    HW237442   6.748   6.603   3.776 -0.0546  0.7108  0.5255
11709SOL     OW37443  10.190   3.321   9.177  0.3722 -0.0496  0.3666
11709SOL    HW137444  10.138   3.390   9.218 -0.3126 -1.4830  1.9905
11709SOL    HW237445  10.126   3.261   9.141  0.8909 -1.2134  1.3327
11710SOL     OW37446   8.226   5.846   1.079 -0.0596 -0.2630  0.0362
11710SOL    HW137447   8.186   5.930   1.101 -0.5048 -0.5982  0.5344
11710SOL    HW237448   8.304   5.869   1.029 -0.0236  0.4611  0.4109
11711SOL     OW37449   4.871   5.762   1.096  0.3664 -0.2264  0.8229
11711SOL    HW137450   4.824   5.736   1.016 -1.0294 -1.4455  1.9831
11711SOL    HW237451   4.863   5.857   1.098  0.6023 -0.1598 -0.5906
11712SOL     OW37452   5.263  10.329   4.468  0.1713  0.6018  0.1069
11712SOL    HW137453   5.269  10.398   4.534 -0.5891  1.0912 -0.3085
11712SOL    HW237454   5.258  10.247   4.518  0.2223  0.9192  0.6339
11713SOL     OW37455   7.998   3.049   5.229 -0.1866  0.3513  0.0702
11713SOL    HW137456   8.083   3.010   5.249 -0.2290 -0.5078 -1.2727
11713SOL    HW237457   8.006   3.079   5.139 -1.3585  0.0771 -0.1483
11714SOL     OW37458   4.905   6.922  10.177  0.1664  0.5490  0.2524
11714SOL    HW137459   4.937   6.927  10.267 -0.6552  0.9046  0.5294
11714SOL    HW237460   4.821   6.877  10.183 -0.2164  1.1765 -0.2419
11715SOL     OW37461   5.108   3.574   5.893  0.6017 -0.0237 -0.1627
11715SOL    HW137462   5.056   3.618   5.826  1.7150  0.4392 -0.7413
11715SOL    HW237463   5.159   3.508   5.846  0.3752 -0.6372  0.4314
11716SOL     OW37464   2.105   4.856   0.567 -0.1690 -0.4341  0.0154
11716SOL    HW137465   2.095   4.796   0.493  0.2915 -2.5002  1.5535
11716SOL    HW237466   2.039   4.924   0.552  0.3594 -0.3830 -2.6084
11717SOL     OW37467   1.825   5.445   7.434  0.3635 -0.5034 -0.9310
11717SOL    HW137468   1.864   5.424   7.518  0.8345 -1.7603 -1.4334
11717SOL    HW237469   1.900   5.459   7.376  0.0468 -0.3675 -1.3131
11718SOL     OW37470   8.031   7.489   8.309 -0.9120 -0.3425 -0.6467
11718SOL    HW137471   8.122   7.466   8.325 -0.6907 -0.0202 -1.3910
11718SOL    HW237472   7.989   7.482   8.395  0.0002  0.3598 -0.1258
11719SOL     OW37473   7.307   7.439   4.705  0.1799  0.4057  0.2008
11719SOL    HW137474   7.249   7.378   4.751 -0.4628 -1.5380 -2.8906
11719SOL    HW237475   7.258   7.521   4.704 -0.8474 -0.1736  0.8514
11720SOL     OW37476   8.150   1.306   3.448 -0.1021  0.4116 -0.7809
11720SOL    HW137477   8.058   1.277   3.450  0.3267 -0.9956 -0.0276
11720SOL    HW237478   8.187   1.265   3.370 -0.2447  1.4648 -1.4178
11721SOL     OW37479   9.107   7.952   5.768  0.1162  0.1017  0.1501
11721SOL    HW137480   9.180   8.011   5.749  0.6826 -1.0567 -1.4747
11721SOL    HW237481   9.149   7.870   5.793 -0.6606  0.2205  2.0315
11722SOL     OW37482   3.465   3.839   5.559 -0.0158 -0.2675  0.1190
11722SOL    HW137483   3.420   3.898   5.619 -0.3507 -0.8389  0.4378
11722SOL    HW237484   3.431   3.861   5.472  0.3808  0.4768  0.1482
11723SOL     OW37485   2.463   9.298   3.281  0.2957 -1.1377  0.3349
11723SOL    HW137486   2.390   9.321   3.339  0.2752 -1.0583  0.2769
11723SOL    HW237487   2.465   9.202   3.284 -0.1831 -1.1704 -0.1173
11724SOL     OW37488   6.719   7.647   4.693  0.6784  0.1987  0.0826
11724SOL    HW137489   6.657   7.693   4.748  0.9527  0.5836  0.0735
11724SOL    HW237490   6.747   7.572   4.747 -1.4097 -1.2620 -0.7198
11725SOL     OW37491   4.173   5.211   9.291 -0.6787 -0.1104  0.0319
11725SOL    HW137492   4.140   5.298   9.308  1.0610  0.8300 -1.0478
11725SOL    HW237493   4.251   5.203   9.346  1.7251  0.8038 -2.9905
11726SOL     OW37494   4.000   3.176   6.101 -0.4781  0.6097  0.0205
11726SOL    HW137495   3.960   3.246   6.050 -0.4958  0.3939 -0.2667
11726SOL    HW237496   4.040   3.220   6.175 -1.6779  0.7934  0.5926
11727SOL     OW37497   8.717   7.700   2.432 -0.0365 -0.1314 -0.0889
11727SOL    HW137498   8.695   7.678   2.341 -0.8397 -0.4635  0.1729
11727SOL    HW237499   8.807   7.671   2.443 -0.0899 -0.5340 -0.6433
11728SOL     OW37500   6.864   5.355   3.182  0.6659  0.5794  0.0226
11728SOL    HW137501   6.782   5.308   3.166  0.5515  1.0500 -0.8272
11728SOL    HW237502   6.932   5.288   3.172  0.3971  0.1666  0.8123
11729SOL     OW37503   7.137   0.771   3.756  0.0031 -0.6608  0.2534
11729SOL    HW137504   7.111   0.747   3.846 -2.0063  0.9527  0.1787
11729SOL    HW237505   7.129   0.690   3.707  0.4354 -1.4186  1.3938
11730SOL     OW37506   2.540   0.958   5.223  0.4951  0.2038  0.1310
11730SOL    HW137507   2.580   1.031   5.271  2.0559 -0.0241 -0.7355
11730SOL    HW237508   2.612   0.896   5.210  0.1017  0.1836 -2.3190
11731SOL     OW37509   8.502  10.065   0.206  0.0504  0.0366 -0.0057
11731SOL    HW137510   8.583  10.115   0.219 -0.1277  1.0086 -2.2213
11731SOL    HW237511   8.506  10.035   0.116 -1.7913 -0.3957  0.0114
11732SOL     OW37512   6.950   2.036   4.387  0.1149  0.4466 -0.1185
11732SOL    HW137513   6.872   2.038   4.331 -0.1894 -0.4619  0.2521
11732SOL    HW237514   6.915   2.025   4.475  0.6845 -2.2792 -0.1362
11733SOL     OW37515   2.678   8.674   6.523  0.2536  0.2808 -0.6380
11733SOL    HW137516   2.733   8.663   6.601  1.0036 -1.7336 -1.3904
11733SOL    HW237517   2.731   8.639   6.452 -1.3244 -0.0276 -1.6902
11734SOL     OW37518   9.026   3.359   4.980 -0.9644 -0.5203  0.4231
11734SOL    HW137519   9.114   3.396   4.982 -0.9886 -0.3417 -0.8979
11734SOL    HW237520   9.039   3.268   4.950 -1.1829 -0.6318  0.6693
11735SOL     OW37521   2.683   2.364   9.180  0.5011 -0.2722 -0.0604
11735SOL    HW137522   2.764   2.400   9.143 -0.2967  2.8659  0.9433
11735SOL    HW237523   2.672   2.409   9.263 -1.6321 -1.6006  0.4718
11736SOL     OW37524   0.163   1.441   9.073  0.5843  0.0385 -0.4591
11736SOL    HW137525   0.228   1.433   9.143 -0.9043  1.0326  1.1320
11736SOL    HW237526   0.147   1.535   9.066 -1.6778 -0.2211  0.2350
11737SOL     OW37527   3.788   4.923   0.614  0.2777  0.0645 -0.6868
11737SOL    HW137528   3.702   4.965   0.615  0.1726 -0.0633 -2.1737
11737SOL    HW237529   3.845   4.982   0.663 -0.4417  0.6568 -0.5576
11738SOL     OW37530   7.808   6.437   5.409  0.1710 -0.2786  0.2133
11738SOL    HW137531   7.821   6.345   5.386  0.9200  0.6104 -3.4398
11738SOL    HW237532   7.886   6.482   5.377  1.0802  1.4302  4.2329
11739SOL     OW37533   1.322   5.196   0.261 -0.2294 -0.0514 -0.4707
11739SOL    HW137534   1.405   5.149   0.266 -0.3719 -0.3967 -1.1681
11739SOL    HW237535   1.335   5.274   0.314  0.8316  0.3175 -1.2432
11740SOL     OW37536   3.307   7.660   7.802 -0.2536  0.3012 -0.2606
11740SOL    HW137537   3.402   7.658   7.807 -0.2964 -1.4582  0.4359
11740SOL    HW237538   3.281   7.725   7.867  0.4135 -1.0450  1.4252
11741SOL     OW37539   2.801   1.464   1.962  0.4758  0.3780 -0.2699
11741SOL    HW137540   2.747   1.392   1.931 -0.0723  0.6389  0.0476
11741SOL    HW237541   2.785   1.467   2.057  2.4462 -0.6725  0.1427
11742SOL     OW37542   2.944   5.738   2.723 -0.3059 -0.5058  0.4620
11742SOL    HW137543   2.926   5.658   2.771 -3.0006 -1.0544 -1.2735
11742SOL    HW237544   2.864   5.791   2.732  0.0509  0.4347 -1.3003
11743SOL     OW37545   8.966   2.757   3.162 -0.1177 -0.0008  0.0479
11743SOL    HW137546   8.968   2.662   3.154  0.3213 -0.1076  1.3204
11743SOL    HW237547   9.055   2.782   3.185 -0.3481  0.6735  0.2429
11744SOL     OW37548   6.321   9.862   6.138 -0.2878 -0.1684 -0.2591
11744SOL    HW137549   6.405   9.865   6.092  0.4801  1.7317  1.1206
11744SOL    HW237550   6.256   9.877   6.070  0.7343  1.5683 -0.9142
11745SOL     OW37551   3.318   7.555   7.150  0.4238 -0.0177 -0.0011
11745SOL    HW137552   3.392   7.616   7.156  2.0577 -1.7683 -0.9847
11745SOL    HW237553   3.246   7.608   7.116  1.6971  1.4357 -0.5741
11746SOL     OW37554   5.580   3.067   6.164 -0.1768 -0.1085  0.1611
11746SOL    HW137555   5.552   3.037   6.078 -1.4234  1.5204 -0.0668
11746SOL    HW237556   5.675   3.061   6.162 -0.2563 -1.4048 -0.8091
11747SOL     OW37557   1.806   2.153   0.847  0.1472  0.0052  0.6215
11747SOL    HW137558   1.711   2.139   0.850  0.1501 -0.3732 -0.5997
11747SOL    HW237559   1.819   2.236   0.893 -0.7048 -0.2514  1.3432
11748SOL     OW37560   0.684   9.920   6.388 -0.5381 -0.2043  0.1766
11748SOL    HW137561   0.648   9.855   6.448 -0.5360 -0.1644  0.2211
11748SOL    HW237562   0.776   9.894   6.376 -1.1069 -1.6289 -1.6992
11749SOL     OW37563   5.120   4.226   5.222  0.4343  0.5908  0.0921
11749SOL    HW137564   5.132   4.267   5.307  1.1124  0.2415  0.1768
11749SOL    HW237565   5.161   4.140   5.231 -0.1671  0.2459 -0.3522
11750SOL     OW37566   4.694   0.325   8.221 -0.2173  0.0376 -0.4604
11750SOL    HW137567   4.760   0.393   8.214 -1.0940  0.8052 -1.6985
11750SOL    HW237568   4.616   0.370   8.255  0.1876 -1.0999  2.2201
11751SOL     OW37569   2.428   8.355   0.896 -0.3723  0.6055  0.0600
11751SOL    HW137570   2.431   8.268   0.936  0.2700  0.8806  0.6367
11751SOL    HW237571   2.488   8.350   0.821 -0.4485  0.5055  0.0069
11752SOL     OW37572   6.634  10.051   3.682  0.8419 -0.0934 -0.2949
11752SOL    HW137573   6.729  10.059   3.679  0.9009 -0.9668 -2.0431
11752SOL    HW237574   6.602  10.121   3.625  0.4533  0.0111  0.0496
11753SOL     OW37575   3.928   2.994  10.255  0.0821  0.2764 -0.3438
11753SOL    HW137576   3.933   3.069  10.196  1.0296 -0.3739 -1.1264
11753SOL    HW237577   4.003   3.005  10.314 -0.1314  0.2580 -0.0659
11754SOL     OW37578   0.549   5.916  10.093 -1.3696  0.2343 -0.2491
11754SOL    HW137579   0.492   5.952  10.024 -0.9166  1.0803 -0.2013
11754SOL    HW237580   0.510   5.948  10.174 -0.7349  0.9872 -0.2247
11755SOL     OW37581   9.085   8.112   2.279 -0.2073  0.2193 -0.1706
11755SOL    HW137582   9.035   8.134   2.200 -1.8979  0.4580  0.9197
11755SOL    HW237583   9.143   8.041   2.251 -0.8741  0.1912 -1.5929
11756SOL     OW37584   3.619   8.125  10.002  0.1134  0.1873  0.5769
11756SOL    HW137585   3.630   8.065   9.928 -1.3074  3.6134 -2.7557
11756SOL    HW237586   3.698   8.179  10.001  0.1512  0.1588  1.6777
11757SOL     OW37587   8.635   1.707   8.172 -0.2815 -0.3467  0.0653
11757SOL    HW137588   8.705   1.679   8.230  0.8119 -1.2513 -1.6008
11757SOL    HW237589   8.599   1.626   8.136 -0.6184  0.1876 -0.8480
11758SOL     OW37590   8.498   4.119   9.758  0.4509  0.0329 -0.1081
11758SOL    HW137591   8.491   4.058   9.685 -1.3610  0.3991 -0.2826
11758SOL    HW237592   8.506   4.205   9.718 -0.2649  0.2080  0.1024
11759SOL     OW37593   5.007   0.837   2.638  0.4305  0.4057  0.2230
11759SOL    HW137594   5.001   0.839   2.733  0.2792  0.7496  0.2074
11759SOL    HW237595   5.051   0.754   2.619  1.9400  1.0654  0.6727
11760SOL     OW37596   8.527   4.251   5.391  0.1210  0.5328  0.0038
11760SOL    HW137597   8.589   4.178   5.391 -0.9697 -0.4311  0.1388
11760SOL    HW237598   8.555   4.306   5.464  2.2619  1.4523 -1.4206
11761SOL     OW37599   2.140   5.357   6.877 -0.0668  0.1945  0.0954
11761SOL    HW137600   2.075   5.376   6.945  0.6554 -0.5221  1.0100
11761SOL    HW237601   2.091   5.365   6.794 -0.8881  1.3612  0.6637
11762SOL     OW37602   4.346   7.771   8.248 -0.2109  0.3416  0.1989
11762SOL    HW137603   4.396   7.745   8.326 -0.9535 -1.0751  0.2467
11762SOL    HW237604   4.367   7.703   8.184 -0.6304  0.7777 -0.4004
11763SOL     OW37605   8.646   6.005   3.366  0.2793  0.5446  0.6177
11763SOL    HW137606   8.702   5.932   3.338 -0.2820 -1.3661  3.9419
11763SOL    HW237607   8.705   6.062   3.416  0.1705  0.9367  0.2986
11764SOL     OW37608   3.896   4.702   4.109 -0.0266  0.6561 -0.7624
11764SOL    HW137609   3.812   4.719   4.150 -0.4784  1.1888 -1.8660
11764SOL    HW237610   3.945   4.651   4.174 -1.2120  0.2844 -0.1307
11765SOL     OW37611   4.308   7.933   7.851  0.2135  0.3850  0.4289
11765SOL    HW137612   4.342   7.845   7.867  0.5275  0.9162  3.2681
11765SOL    HW237613   4.380   7.980   7.809  0.8722 -0.1048  0.9936
11766SOL     OW37614   6.507   1.921   4.388 -0.0540 -0.0087 -0.3601
11766SOL    HW137615   6.596   1.955   4.376  0.1289  0.2436  1.4585
11766SOL    HW237616   6.453   1.999   4.402 -0.1549 -0.2638  0.7781
11767SOL     OW37617   3.428   7.663   0.162 -0.3896  0.3655 -0.0487
11767SOL    HW137618   3.490   7.728   0.194 -2.4771  1.8161  1.3292
11767SOL    HW237619   3.402   7.696   0.076 -1.1597  1.2058  0.4859
11768SOL     OW37620   7.141   7.293   7.683 -0.3891 -0.4241 -0.5046
11768SOL    HW137621   7.117   7.296   7.591 -0.3709  0.8644 -0.4814
11768SOL    HW237622   7.194   7.372   7.697  1.1711 -1.5305  0.1804
11769SOL     OW37623   2.462   5.875   1.033  0.5018 -0.2186  0.3581
11769SOL    HW137624   2.541   5.824   1.021  0.6559 -0.0676  0.7259
11769SOL    HW237625   2.471   5.948   0.972 -0.6448 -1.6705 -1.6932
11770SOL     OW37626   3.842   8.294   9.953  0.2239  0.6662  0.0474
11770SOL    HW137627   3.887   8.262   9.875 -0.5527 -0.1989 -0.0601
11770SOL    HW237628   3.850   8.389   9.948  1.0502  0.5791 -0.5558
11771SOL     OW37629   3.696   1.510   1.317 -0.0247  0.0593  0.2464
11771SOL    HW137630   3.779   1.469   1.339  1.3256  2.3479 -0.2070
11771SOL    HW237631   3.669   1.556   1.397 -1.4141 -1.4390  0.6949
11772SOL     OW37632   9.760   7.426  10.496 -0.4603  0.0229  0.2983
11772SOL    HW137633   9.774   7.510  10.453 -3.6689 -0.4433 -1.9725
11772SOL    HW237634   9.798   7.362  10.436  0.9351 -0.2931  1.4620
11773SOL     OW37635   7.486   0.174   0.753  0.8721 -0.2005 -0.1699
11773SOL    HW137636   7.517   0.213   0.835  2.4048 -1.0885 -0.2842
11773SOL    HW237637   7.514   0.082   0.758  1.1374 -0.2374 -1.7466
11774SOL     OW37638   8.211   8.454   8.654 -0.1236  0.4221 -0.1588
11774SOL    HW137639   8.275   8.396   8.613  0.5395  0.2684  1.0207
11774SOL    HW237640   8.253   8.539   8.657  1.7408 -0.3776  3.9194
11775SOL     OW37641   5.244  10.389   9.367 -0.1526 -0.4250  0.2189
11775SOL    HW137642   5.180  10.358   9.431 -1.1287  0.5256 -0.2608
11775SOL    HW237643   5.287  10.463   9.410 -1.4225  0.7736 -0.5123
11776SOL     OW37644   2.488   4.636   6.145  0.3520 -0.0631 -0.6828
11776SOL    HW137645   2.415   4.606   6.199 -0.1457 -0.0542 -1.3319
11776SOL    HW237646   2.502   4.726   6.173  0.8435 -0.4125  0.2086
11777SOL     OW37647   1.177   8.493   3.306 -0.3207  0.3495  0.0309
11777SOL    HW137648   1.268   8.516   3.322 -0.0138  0.3635 -1.6529
11777SOL    HW237649   1.173   8.399   3.319 -0.0263  0.3178 -0.1190
11778SOL     OW37650   8.230   6.693   4.523  0.1934 -0.0276 -0.1925
11778SOL    HW137651   8.268   6.679   4.437  0.3645 -1.2716  0.0612
11778SOL    HW237652   8.232   6.606   4.564  0.3920  0.5912  1.1685
11779SOL     OW37653   9.008   3.868   9.797 -0.5540  0.4605  0.4577
11779SOL    HW137654   8.966   3.796   9.751 -1.3269 -0.6750  2.7607
11779SOL    HW237655   8.987   3.946   9.746 -0.7411 -0.7851 -1.4361
11780SOL     OW37656   9.824   4.004   8.248  0.0933  0.0406  0.0534
11780SOL    HW137657   9.860   3.950   8.178  2.2153  1.9863 -0.4849
11780SOL    HW237658   9.847   3.959   8.329 -0.8115 -1.3126 -0.3990
11781SOL     OW37659   0.955   4.250   9.295 -0.2585 -0.1931 -0.5391
11781SOL    HW137660   0.939   4.341   9.267  0.8790  0.2148  0.0789
11781SOL    HW237661   1.047   4.235   9.274 -0.2790 -1.0021 -0.0660
11782SOL     OW37662   5.437   8.441   3.035  0.7863 -0.1828 -0.5208
11782SOL    HW137663   5.501   8.385   2.991 -0.2972  0.6009 -3.3168
11782SOL    HW237664   5.457   8.529   3.001 -0.9396  0.2575 -0.4454
11783SOL     OW37665   0.683  10.089  10.450 -0.6105  0.1246 -0.0617
11783SOL    HW137666   0.623  10.091  10.525 -0.4651 -0.3701  0.0694
11783SOL    HW237667   0.769  10.110  10.487 -0.5397 -0.1156 -0.0925
11784SOL     OW37668   4.653  10.195   5.409  0.2673  0.2854 -0.1128
11784SOL    HW137669   4.709  10.123   5.438 -0.5685  0.2092  1.4552
11784SOL    HW237670   4.566  10.156   5.400 -0.1780  1.0514  0.6748
11785SOL     OW37671   2.889   3.038   6.693 -0.1494 -0.0406  0.1906
11785SOL    HW137672   2.844   3.110   6.649 -1.6976 -1.4461 -0.6556
11785SOL    HW237673   2.930   2.989   6.621 -0.4266 -0.8588  0.5808
11786SOL     OW37674   9.552   6.963   0.987  0.4297 -0.4458 -0.6124
11786SOL    HW137675   9.464   6.952   0.952 -0.7975  0.9164  1.8014
11786SOL    HW237676   9.603   6.997   0.914 -1.5195  0.5637 -1.5839
11787SOL     OW37677   2.392   0.841   2.314 -0.4378  0.5800 -0.4606
11787SOL    HW137678   2.331   0.784   2.360 -0.5536  1.8359  1.0380
11787SOL    HW237679   2.412   0.794   2.233 -2.3953 -0.4386 -0.4231
11788SOL     OW37680   6.877   0.923   8.103 -0.2219  0.1071  0.6227
11788SOL    HW137681   6.904   0.992   8.163  0.9591 -2.4031  3.2727
11788SOL    HW237682   6.955   0.902   8.053 -0.3414  0.1186  0.4300
11789SOL     OW37683   1.470   5.282   2.436 -0.3695 -0.6092 -0.1740
11789SOL    HW137684   1.392   5.240   2.400  0.3834 -1.1935 -1.2043
11789SOL    HW237685   1.530   5.288   2.361 -0.0923  1.4873  0.1403
11790SOL     OW37686   9.856   2.747   6.110 -0.0639  0.1646 -0.6537
11790SOL    HW137687   9.793   2.806   6.150 -0.1473  0.4148 -1.1412
11790SOL    HW237688   9.805   2.668   6.089  0.2806 -0.5387  0.9862
11791SOL     OW37689   3.257   9.922   3.051 -0.3267  0.4394  0.1107
11791SOL    HW137690   3.260   9.968   3.135 -0.6493 -0.9552  0.9213
11791SOL    HW237691   3.348   9.908   3.027 -0.2367  0.2073  0.5931
11792SOL     OW37692   6.490   3.411   0.708  0.0121  0.3193 -0.0633
11792SOL    HW137693   6.549   3.340   0.733 -1.4567 -1.0123 -0.1638
11792SOL    HW237694   6.545   3.473   0.662  1.5333 -0.3160  0.8041
11793SOL     OW37695   0.941   8.252   9.618  0.0420  0.7794 -0.8524
11793SOL    HW137696   0.903   8.195   9.684  1.4543  1.8901  1.0108
11793SOL    HW237697   0.867   8.302   9.584 -0.5704  0.9708  0.7007
11794SOL     OW37698   9.585   0.124   0.939 -0.1936  0.2426 -0.1578
11794SOL    HW137699   9.516   0.173   0.895 -0.7248 -1.9125 -1.9245
11794SOL    HW237700   9.541   0.047   0.974  1.0473 -0.3890  0.0571
11795SOL     OW37701   8.011   3.478   8.637 -0.1076 -0.2924 -0.0882
11795SOL    HW137702   7.952   3.486   8.712 -0.4590 -0.1124 -0.3833
11795SOL    HW237703   7.970   3.414   8.580  0.0219 -0.2238 -0.2602
11796SOL     OW37704  10.033   3.590   9.619  0.4880 -0.3280  0.2416
11796SOL    HW137705   9.951   3.559   9.580 -0.6786  2.7904 -0.0285
11796SOL    HW237706  10.102   3.541   9.573 -1.1062 -1.0757 -1.4538
11797SOL     OW37707  10.025   8.662   3.951 -0.9170  0.5642  0.0871
11797SOL    HW137708  10.054   8.746   3.984 -0.4108 -0.2134  1.7271
11797SOL    HW237709  10.078   8.598   3.997 -0.5550 -0.6443 -1.8858
11798SOL     OW37710   9.368   2.372   3.970  0.2245 -0.0898 -0.1450
11798SOL    HW137711   9.425   2.320   4.026  0.9462  0.7891 -0.0485
11798SOL    HW237712   9.392   2.463   3.988  0.4318  0.2211 -1.8200
11799SOL     OW37713   7.127   8.168   7.250 -0.2900 -0.2881  0.1246
11799SOL    HW137714   7.046   8.197   7.292 -0.6543  2.5863 -2.1958
11799SOL    HW237715   7.193   8.173   7.319 -1.5803 -0.0313  1.3957
11800SOL     OW37716   0.632   6.328   3.752 -0.1564 -0.2719  0.1048
11800SOL    HW137717   0.614   6.235   3.764  0.8273 -0.2110  3.1158
11800SOL    HW237718   0.721   6.332   3.719  0.4094 -0.4493  1.5291
11801SOL     OW37719   7.048   3.293   2.274 -0.1788  0.3489  0.6730
11801SOL    HW137720   7.095   3.224   2.321  1.3169  2.4911  2.5720
11801SOL    HW237721   6.964   3.298   2.319  0.8577  1.6946  2.6151
11802SOL     OW37722   6.213   4.424   8.267  0.5001  0.4331  0.2419
11802SOL    HW137723   6.210   4.448   8.359  2.0763 -0.2173  0.4937
11802SOL    HW237724   6.142   4.361   8.256  0.6083  0.1462  1.1293
11803SOL     OW37725   4.377   0.836   0.872  0.1032 -0.3150  0.0244
11803SOL    HW137726   4.392   0.927   0.895 -1.5079  0.0809 -0.4124
11803SOL    HW237727   4.282   0.829   0.859  0.3345 -1.7395 -1.2362
11804SOL     OW37728   8.713   4.521   0.744 -0.3890 -0.3621  0.1219
11804SOL    HW137729   8.701   4.444   0.689 -1.2474  0.1171 -0.3945
11804SOL    HW237730   8.785   4.569   0.702 -0.1495 -0.6591  0.1912
11805SOL     OW37731   0.624   3.300   5.428 -0.5964  0.1119  0.2112
11805SOL    HW137732   0.603   3.384   5.388 -0.1014  1.2318  2.1606
11805SOL    HW237733   0.540   3.266   5.458 -0.7851 -0.0627 -0.4935
11806SOL     OW37734   2.290   7.993   6.680 -0.1164  0.2254  0.7220
11806SOL    HW137735   2.323   7.987   6.769  0.2482 -0.5806  0.5379
11806SOL    HW237736   2.195   8.003   6.689 -0.1330 -0.3423  1.1863
11807SOL     OW37737   3.045   0.969   0.688  0.3945 -0.3025  0.6529
11807SOL    HW137738   2.956   1.004   0.681  0.4965 -0.4049 -1.9640
11807SOL    HW237739   3.102   1.043   0.669  0.7779 -0.7212  0.1328
11808SOL     OW37740   5.109   5.770   1.419 -0.0980  0.0394 -0.3741
11808SOL    HW137741   5.109   5.803   1.509  0.4441  0.6705 -0.5950
11808SOL    HW237742   5.032   5.714   1.414 -1.4789  1.8459 -0.1885
11809SOL     OW37743   7.322   5.841   1.401  0.5239  0.4039 -0.3585
11809SOL    HW137744   7.285   5.796   1.325 -2.2340 -0.6074  1.4515
11809SOL    HW237745   7.388   5.780   1.435 -0.7136 -0.7810  0.0280
11810SOL     OW37746   7.264   2.518   5.346  0.3837 -0.5084  0.2478
11810SOL    HW137747   7.344   2.556   5.381  0.3158  1.9485 -1.8884
11810SOL    HW237748   7.293   2.460   5.275  0.3275 -0.0175 -0.1865
11811SOL     OW37749   7.130  10.161   3.776 -0.4932 -0.0043  0.5507
11811SOL    HW137750   7.165  10.246   3.804  0.6626 -0.0198 -0.7452
11811SOL    HW237751   7.195  10.098   3.805  0.5696 -0.0550 -1.7191
11812SOL     OW37752   0.271   5.898  10.343 -0.2610  0.2691  0.1555
11812SOL    HW137753   0.304   5.914  10.431  1.3354 -1.5828 -0.0326
11812SOL    HW237754   0.325   5.825  10.310 -0.0248  1.6223 -2.7652
11813SOL     OW37755   2.174   2.956   7.305 -0.3973  0.7354  0.2992
11813SOL    HW137756   2.212   3.039   7.277 -1.2399  1.3710  1.0006
11813SOL    HW237757   2.124   2.977   7.384 -0.4366 -0.4802  0.6260
11814SOL     OW37758   9.486   4.785   3.599  0.1017 -0.6792  0.2674
11814SOL    HW137759   9.514   4.805   3.510  0.0822  0.4096  0.4871
11814SOL    HW237760   9.566   4.761   3.645  0.1517 -0.9779  0.0239
11815SOL     OW37761   7.100   1.807   6.407 -0.1501  0.2445  0.2136
11815SOL    HW137762   7.061   1.890   6.380  1.4056  1.0618  0.3523
11815SOL    HW237763   7.089   1.750   6.330  0.9684  1.3908 -0.8473
11816SOL     OW37764   4.022   3.756   1.492 -0.1153  0.0625 -0.6684
11816SOL    HW137765   3.944   3.735   1.544 -0.2443 -1.5980 -1.4884
11816SOL    HW237766   4.068   3.673   1.481  0.9944  0.7442 -1.4844
11817SOL     OW37767   2.590   6.918   1.647 -0.6710 -0.0454 -0.1221
11817SOL    HW137768   2.566   7.007   1.674  1.9560  0.1096  2.0936
11817SOL    HW237769   2.658   6.932   1.581  3.1078 -0.1122  3.3751
11818SOL     OW37770   9.604   4.403  10.331  0.2872  0.6870  0.6855
11818SOL    HW137771   9.535   4.438  10.388 -1.3850  0.7351 -1.2624
11818SOL    HW237772   9.639   4.328  10.379 -1.3025  0.5023  1.6228
11819SOL     OW37773   3.006   1.513   9.974 -0.5667  0.8561  0.3984
11819SOL    HW137774   2.940   1.557   9.920  0.5027  0.9592 -0.8704
11819SOL    HW237775   3.088   1.524   9.926  0.0604 -0.9303  0.9602
11820SOL     OW37776   0.267   9.646   9.134 -0.1348 -0.6247 -0.5789
11820SOL    HW137777   0.293   9.712   9.070 -1.2427 -0.9914 -1.4474
11820SOL    HW237778   0.342   9.638   9.192  0.7409  0.0306 -1.5738
11821SOL     OW37779   0.044   2.664   7.604  0.1987  0.3782 -0.0789
11821SOL    HW137780  -0.042   2.639   7.637  0.2218 -0.1589 -0.4148
11821SOL    HW237781   0.089   2.703   7.679  0.9309 -2.4567  1.0925
11822SOL     OW37782   6.317   3.296   7.186 -0.2729  0.1226 -0.2073
11822SOL    HW137783   6.366   3.286   7.268  2.1005  0.6137 -1.4856
11822SOL    HW237784   6.242   3.237   7.196  0.5303 -0.6435  1.8721
11823SOL     OW37785   7.046   0.983   4.151 -0.4463 -0.3536  0.2897
11823SOL    HW137786   7.034   0.929   4.073  0.0102 -2.1378  1.3975
11823SOL    HW237787   6.959   1.018   4.170 -1.0261 -1.6565  0.1802
11824SOL     OW37788   7.201   9.638   4.205  0.6666  0.5379  0.4436
11824SOL    HW137789   7.181   9.654   4.297  0.7829 -2.8917  1.2135
11824SOL    HW237790   7.296   9.653   4.198  0.8014  0.0463  1.1106
11825SOL     OW37791   4.053   8.575   1.267  0.1733  0.2758 -0.2046
11825SOL    HW137792   4.018   8.662   1.285  1.2056  0.7158 -0.2883
11825SOL    HW237793   4.062   8.571   1.172  0.0241  0.0358 -0.2101
11826SOL     OW37794   3.374   8.375   8.929  0.5205  0.0233 -0.5556
11826SOL    HW137795   3.367   8.320   8.851  0.0839 -0.5908 -0.0885
11826SOL    HW237796   3.367   8.315   9.003  1.2150  0.5654 -0.0318
11827SOL     OW37797   8.876   6.574   7.046 -0.0196  0.5531  0.2346
11827SOL    HW137798   8.885   6.654   6.995  1.9426 -0.2410 -0.7822
11827SOL    HW237799   8.936   6.585   7.120  1.5339 -0.5595 -0.7875
11828SOL     OW37800   8.738   0.263   2.813 -0.2477  0.4177  0.1490
11828SOL    HW137801   8.664   0.298   2.862 -0.4143 -0.4386  0.5306
11828SOL    HW237802   8.803   0.332   2.815 -0.4644  0.6097  1.1146
11829SOL     OW37803   3.473   4.050   9.456 -0.3409  0.2563  0.2683
11829SOL    HW137804   3.512   4.134   9.432  0.6208 -0.4417 -0.6770
11829SOL    HW237805   3.524   4.022   9.532 -0.3408  0.2959  0.2838
11830SOL     OW37806   0.851   0.152   8.675  0.0445  0.1983  0.2631
11830SOL    HW137807   0.930   0.164   8.622 -0.1914 -0.7382 -0.3213
11830SOL    HW237808   0.779   0.175   8.617 -0.2656 -1.6205 -0.1345
11831SOL     OW37809   5.975   3.531   7.460  0.0122  0.0741 -0.3966
11831SOL    HW137810   5.958   3.620   7.431 -0.0369 -0.5301 -2.4212
11831SOL    HW237811   6.007   3.486   7.381 -1.8133 -2.1724  0.0320
11832SOL     OW37812   1.566   1.132   5.793  0.0981 -0.2255 -0.6986
11832SOL    HW137813   1.481   1.164   5.823 -0.2434 -0.7911 -1.0408
11832SOL    HW237814   1.555   1.037   5.785  1.3229 -0.5698  1.0688
11833SOL     OW37815   6.050   1.176   9.933  0.2715 -0.0527  0.0997
11833SOL    HW137816   6.083   1.222   9.856  1.1161 -0.9909 -0.1255
11833SOL    HW237817   6.033   1.245   9.997  1.6611  0.5713 -0.1619
11834SOL     OW37818   4.450   1.915   4.567  0.4711 -0.0958 -0.0052
11834SOL    HW137819   4.476   2.003   4.595  0.2166  0.6908 -2.0432
11834SOL    HW237820   4.527   1.880   4.522  0.1024 -0.3131 -0.4829
11835SOL     OW37821   6.364   7.649   3.404 -0.0044 -0.1277 -0.0704
11835SOL    HW137822   6.307   7.703   3.349  0.2493  0.8746  0.6297
11835SOL    HW237823   6.305   7.607   3.466  0.0054  0.9249  0.6661
11836SOL     OW37824   2.198   4.818   4.103  0.3452 -0.9557 -0.1003
11836SOL    HW137825   2.232   4.880   4.038  0.0838 -1.8842 -1.1718
11836SOL    HW237826   2.110   4.850   4.123  0.4722 -0.5966 -0.1226
11837SOL     OW37827   5.730   6.938   1.866  0.0570  0.6151  0.2126
11837SOL    HW137828   5.772   6.991   1.934 -0.4398  0.2163  0.8422
11837SOL    HW237829   5.768   6.969   1.784  2.9566 -0.9770  0.8474
11838SOL     OW37830   2.500   7.065   7.651 -0.1356 -0.1930 -0.5095
11838SOL    HW137831   2.443   7.013   7.595  0.5393  0.5660 -1.9618
11838SOL    HW237832   2.440   7.118   7.704 -0.9384  2.0646 -3.3772
11839SOL     OW37833   6.315   4.274   3.350  0.1340  0.5799  0.0445
11839SOL    HW137834   6.263   4.320   3.416 -0.6488 -0.2397  0.0070
11839SOL    HW237835   6.323   4.184   3.382 -0.1573  0.1964 -0.9139
11840SOL     OW37836   6.698   5.773   3.587  0.5503 -0.0842 -0.3522
11840SOL    HW137837   6.755   5.696   3.584  1.8986  0.8072  0.7532
11840SOL    HW237838   6.751   5.843   3.550 -0.6907  0.3167 -1.4259
11841SOL     OW37839  10.078   8.637   5.348  0.1460 -0.1952 -0.7543
11841SOL    HW137840  10.057   8.727   5.371  0.0446 -0.5581  0.6864
11841SOL    HW237841   9.993   8.597   5.328 -0.0549 -0.4650  0.5518
11842SOL     OW37842  10.140   3.186   8.456  0.2921 -0.3002  1.0132
11842SOL    HW137843  10.184   3.142   8.528  1.4856 -0.5522  0.1593
11842SOL    HW237844  10.156   3.130   8.380 -0.0599  0.4819  0.3450
11843SOL     OW37845   5.154   3.204   1.950 -0.4600  0.2255 -0.5132
11843SOL    HW137846   5.102   3.218   1.871  1.6276 -0.7495 -2.1667
11843SOL    HW237847   5.161   3.291   1.990 -0.8445  0.9159 -1.8899
11844SOL     OW37848   5.972   9.747   2.282 -0.0100 -0.4635  0.2079
11844SOL    HW137849   6.067   9.756   2.273  0.1026  0.7565  2.1201
11844SOL    HW237850   5.952   9.664   2.238  1.8658 -0.5422 -0.5923
11845SOL     OW37851   7.399   0.887   6.760 -0.3665 -0.0883 -0.1899
11845SOL    HW137852   7.338   0.943   6.711 -0.2548 -1.4641 -2.0216
11845SOL    HW237853   7.371   0.798   6.741 -0.3036 -0.7162  2.3483
11846SOL     OW37854   3.238   2.322   7.790 -0.3271 -0.3459 -0.0224
11846SOL    HW137855   3.256   2.379   7.865  0.4879  0.5610 -0.8720
11846SOL    HW237856   3.180   2.374   7.734 -2.0010 -1.5162  0.5565
11847SOL     OW37857   6.564   7.873   3.870 -0.0258 -0.4899  0.2847
11847SOL    HW137858   6.592   7.913   3.787  3.3577  0.6936  1.8313
11847SOL    HW237859   6.513   7.942   3.913 -0.4602 -0.5435 -0.1313
11848SOL     OW37860   9.611   1.560   4.520  0.1587  0.0904 -0.0092
11848SOL    HW137861   9.578   1.472   4.502 -1.0569  0.6416 -0.5895
11848SOL    HW237862   9.633   1.559   4.613 -1.0477 -0.4621  0.2926
11849SOL     OW37863   8.871   2.823  10.376  0.2794 -0.3988  0.1406
11849SOL    HW137864   8.860   2.809  10.470 -0.9621  1.3802  0.3161
11849SOL    HW237865   8.804   2.768  10.335  0.0759 -0.3197  0.3684
11850SOL     OW37866   6.122   8.080   4.666 -0.5812 -0.0745  0.9508
11850SOL    HW137867   6.173   8.158   4.690 -0.6183 -0.0005  0.7931
11850SOL    HW237868   6.041   8.087   4.717 -1.3299  0.8735 -0.3191
11851SOL     OW37869   8.187   8.741   3.829 -0.2108  0.6915 -0.4175
11851SOL    HW137870   8.164   8.831   3.853  0.3239  0.4142  1.2720
11851SOL    HW237871   8.250   8.751   3.757 -0.3928  1.6563 -0.4553
11852SOL     OW37872   9.958  10.308   3.303  0.0059 -0.1198 -0.1432
11852SOL    HW137873   9.922  10.395   3.289 -1.1654 -0.6200 -0.4455
11852SOL    HW237874   9.954  10.295   3.398  1.7455  0.7656  0.0814
11853SOL     OW37875   7.390   1.727   1.805  0.3398  0.0925  0.0283
11853SOL    HW137876   7.337   1.649   1.789 -0.2897  0.4184  0.4832
11853SOL    HW237877   7.333   1.786   1.854  1.0567  0.5453  0.3430
11854SOL     OW37878   4.529   0.021   1.397  0.3907 -0.6787 -0.0932
11854SOL    HW137879   4.520  -0.019   1.310 -1.3517  1.0566 -0.7652
11854SOL    HW237880   4.440   0.036   1.426  0.9685  1.2211  0.8216
11855SOL     OW37881   2.381   2.672   2.235 -0.0810 -0.2852  0.3606
11855SOL    HW137882   2.434   2.662   2.155  0.3200  1.1635  0.4241
11855SOL    HW237883   2.353   2.583   2.255  1.1151 -0.8997 -0.5092
11856SOL     OW37884   2.533  10.328   7.741  0.6738 -0.3297 -0.6500
11856SOL    HW137885   2.619  10.369   7.742  0.7396 -0.4596 -0.9437
11856SOL    HW237886   2.489  10.362   7.820 -0.0047  1.8467 -1.8823
11857SOL     OW37887   8.476   1.937   8.209  0.0896  0.2460  0.2599
11857SOL    HW137888   8.534   1.862   8.200  0.8197  0.0165  4.7511
11857SOL    HW237889   8.533   2.010   8.234 -1.1768  0.6400  2.2465
11858SOL     OW37890   9.607   4.015   2.035  0.4372  0.6387  0.1753
11858SOL    HW137891   9.577   4.103   2.013 -0.3406  0.7797  1.6741
11858SOL    HW237892   9.535   3.978   2.086  0.3093 -1.2538 -1.2794
11859SOL     OW37893  10.142   2.398   1.561  0.1728  0.3659  0.0221
11859SOL    HW137894  10.047   2.394   1.549  0.1271  0.2945  0.3865
11859SOL    HW237895  10.177   2.343   1.491 -0.1280 -0.8341  0.7770
11860SOL     OW37896   6.387   2.563   9.087  0.5388  0.1156 -0.2236
11860SOL    HW137897   6.413   2.473   9.066 -0.8122 -0.6686  1.2658
11860SOL    HW237898   6.450   2.592   9.153 -1.2696 -1.2392  2.2587
11861SOL     OW37899   7.175   9.740   4.473 -0.3337 -0.1178 -0.1370
11861SOL    HW137900   7.142   9.830   4.477  1.3359  0.4896  1.0461
11861SOL    HW237901   7.137   9.697   4.550  0.5034  0.1858  0.4551
11862SOL     OW37902   6.414   2.114   6.837 -0.1971  0.6340 -0.0536
11862SOL    HW137903   6.342   2.148   6.784  0.9956  1.5878 -1.1342
11862SOL    HW237904   6.492   2.159   6.803  1.5224 -2.9860 -1.4709
11863SOL     OW37905   9.367   4.834   3.174  0.7838 -0.0411 -0.4298
11863SOL    HW137906   9.278   4.805   3.155  1.0862 -1.8714  0.6369
11863SOL    HW237907   9.386   4.899   3.107 -2.2660  2.5004  0.9017
11864SOL     OW37908   3.586   3.951   5.305  0.2999 -0.2087  0.1877
11864SOL    HW137909   3.623   3.963   5.218  1.0342 -1.1697  0.3503
11864SOL    HW237910   3.556   4.039   5.331 -0.1258  0.0528 -1.1001
11865SOL     OW37911   7.592   1.446   4.522 -0.4724  0.6587  0.2709
11865SOL    HW137912   7.536   1.381   4.564 -0.6560  0.1551 -0.7362
11865SOL    HW237913   7.555   1.458   4.435  0.8406  0.4816 -0.3365
11866SOL     OW37914   1.593   9.754   0.761 -0.1317  0.1418 -0.2065
11866SOL    HW137915   1.560   9.844   0.767 -0.9954 -0.1569 -0.3560
11866SOL    HW237916   1.529   9.708   0.707  1.3225 -0.0949 -1.8328
11867SOL     OW37917   7.416   1.454   4.138  0.5384  0.1561  0.5487
11867SOL    HW137918   7.490   1.494   4.092  1.6137 -1.9981  0.2915
11867SOL    HW237919   7.362   1.416   4.069  2.3906 -3.4758  0.8866
11868SOL     OW37920   2.765   9.772   1.932  0.2152  0.1795 -0.2101
11868SOL    HW137921   2.771   9.842   1.997  0.7543  1.1950 -1.3104
11868SOL    HW237922   2.734   9.696   1.982 -0.0992  1.1049  1.0777
11869SOL     OW37923   1.748   9.286  10.326 -0.3460 -0.8421 -0.4849
11869SOL    HW137924   1.821   9.263  10.384 -0.4928 -0.4581 -0.1447
11869SOL    HW237925   1.672   9.290  10.383 -0.2364  1.0018 -0.4182
11870SOL     OW37926   7.665   0.237   4.801  0.0043 -0.7029 -0.0506
11870SOL    HW137927   7.613   0.240   4.882  2.2154  0.6104  1.4041
11870SOL    HW237928   7.717   0.157   4.810  1.2695  0.1487  0.5648
11871SOL     OW37929   7.142   5.146   1.130 -0.0579  0.6501  0.4823
11871SOL    HW137930   7.173   5.061   1.097  0.4127  1.0855 -0.2383
11871SOL    HW237931   7.070   5.124   1.189  1.6159 -0.4422  2.2800
11872SOL     OW37932   1.151   2.339   5.419  0.4578  0.0554  0.7001
11872SOL    HW137933   1.244   2.358   5.407  0.2990  0.8157  0.6596
11872SOL    HW237934   1.135   2.356   5.512  0.1604  0.8215  0.5164
11873SOL     OW37935   1.126   9.935   1.776  0.1151  0.9643 -0.1145
11873SOL    HW137936   1.047   9.904   1.732 -0.2768  0.8753  0.6342
11873SOL    HW237937   1.119  10.031   1.773  0.3177  0.9668 -0.6382
11874SOL     OW37938   7.129   1.124   8.794  0.2601  0.1714  0.1510
11874SOL    HW137939   7.076   1.057   8.751  0.6665  0.0552 -0.1751
11874SOL    HW237940   7.139   1.193   8.728  1.3970 -0.2789 -0.1685
11875SOL     OW37941   9.913   9.788  10.331  0.2963 -0.0178  0.1628
11875SOL    HW137942   9.949   9.874  10.351  0.1226  0.7568 -2.4430
11875SOL    HW237943   9.883   9.754  10.416 -0.1062  2.6944  1.2183
11876SOL     OW37944   1.256   7.848   3.693  0.2407  0.3351 -0.4571
11876SOL    HW137945   1.304   7.897   3.760  0.9115 -0.9275  0.0222
11876SOL    HW237946   1.289   7.882   3.610  1.4552 -0.0038 -0.1289
11877SOL     OW37947   2.866   0.233   9.737 -0.2420 -0.4720 -0.3643
11877SOL    HW137948   2.800   0.300   9.724 -0.3760 -0.1935  1.5591
11877SOL    HW237949   2.845   0.166   9.672 -3.0934 -0.9135  0.8866
11878SOL     OW37950   6.939   8.884   5.148 -0.5646 -0.3062 -0.5593
11878SOL    HW137951   7.008   8.831   5.190  0.2892 -0.2885 -1.8867
11878SOL    HW237952   6.893   8.925   5.221 -0.1295 -1.4957  0.4303
11879SOL     OW37953   0.307   5.723   8.883  0.7974 -0.2729  0.2602
11879SOL    HW137954   0.252   5.652   8.914  0.7985 -0.8143 -0.9291
11879SOL    HW237955   0.320   5.705   8.790 -0.2446  1.9583 -0.3910
11880SOL     OW37956   0.537  10.425  10.179  0.0643 -0.5456 -0.1509
11880SOL    HW137957   0.617  10.393  10.221  0.3563 -0.3691 -0.5701
11880SOL    HW237958   0.567  10.482  10.109 -0.4477  0.4080  0.3836
11881SOL     OW37959   8.435   2.191   4.001  0.0748  0.5017  0.0407
11881SOL    HW137960   8.443   2.120   3.937  1.1799  1.0176 -0.4074
11881SOL    HW237961   8.493   2.260   3.969 -0.0809  1.1497  1.0933
11882SOL     OW37962   4.926   4.214   7.595  0.0927 -0.1134 -0.4229
11882SOL    HW137963   4.918   4.219   7.690 -1.6562 -2.2131 -0.3645
11882SOL    HW237964   4.931   4.305   7.566  1.2632  0.5648  1.6853
11883SOL     OW37965  10.377   6.925   5.589  0.3489 -0.2607 -0.1965
11883SOL    HW137966  10.382   7.013   5.626  2.4777 -0.9733  1.4673
11883SOL    HW237967  10.289   6.894   5.611 -0.0895  1.0945  0.0304
11884SOL     OW37968   5.455   5.622   1.814 -0.0489 -0.1624 -0.5379
11884SOL    HW137969   5.521   5.613   1.745  0.0930 -0.0230 -0.4220
11884SOL    HW237970   5.505   5.648   1.891 -0.1482 -0.7344 -0.2712
11885SOL     OW37971   2.347   3.273   4.244 -0.1438 -0.0375 -0.1963
11885SOL    HW137972   2.370   3.209   4.176  0.4549  0.8856 -0.8908
11885SOL    HW237973   2.402   3.249   4.319  0.0996 -0.3140 -0.4577
11886SOL     OW37974   0.859   4.974   2.773 -0.4638 -0.0661 -0.3229
11886SOL    HW137975   0.858   5.047   2.711 -0.2257 -0.1237 -0.3947
11886SOL    HW237976   0.797   5.000   2.841  0.1835  0.5501  0.0490
11887SOL     OW37977   3.313   0.247   5.760 -0.4983  0.4846 -0.1819
11887SOL    HW137978   3.260   0.286   5.830 -0.4385  0.4087 -0.0941
11887SOL    HW237979   3.305   0.308   5.687 -0.7744  0.4313 -0.1962
11888SOL     OW37980   8.606   1.963   6.268  0.2107  0.1178 -0.4490
11888SOL    HW137981   8.540   2.031   6.250 -1.6116 -1.0449  1.3462
11888SOL    HW237982   8.594   1.943   6.361  1.8592 -1.4815 -0.5360
11889SOL     OW37983   2.276   0.636   2.432  0.2779  0.3183 -1.0584
11889SOL    HW137984   2.249   0.645   2.523 -0.6434  0.1569 -1.2978
11889SOL    HW237985   2.345   0.569   2.433 -0.4401 -0.4389 -0.5910
11890SOL     OW37986   8.666   6.324   0.015 -0.4423  0.1332  0.4540
11890SOL    HW137987   8.577   6.310   0.047 -0.9129  0.7750 -0.5013
11890SOL    HW237988   8.686   6.415   0.036 -0.2576  0.1774  0.1010
11891SOL     OW37989   9.373   7.372   4.923  0.3101 -0.0810  0.2213
11891SOL    HW137990   9.405   7.462   4.921 -1.1152  0.4453 -1.8304
11891SOL    HW237991   9.450   7.319   4.899  0.7207  0.7466 -0.3367
11892SOL     OW37992   9.094   7.060   7.528  0.3594  0.4412 -0.5365
11892SOL    HW137993   9.171   7.109   7.502 -0.3723  1.7062 -0.3873
11892SOL    HW237994   9.109   7.038   7.620  0.1478  1.4949 -0.2413
11893SOL     OW37995   2.385   9.148   9.191  0.1532  0.3438  0.4757
11893SOL    HW137996   2.323   9.220   9.202 -0.1116  0.0307  1.1114
11893SOL    HW237997   2.371   9.093   9.268 -0.2533 -0.8457 -0.4141
11894SOL     OW37998   4.161  10.066   2.903  0.1149  0.4264  0.2761
11894SOL    HW137999   4.148   9.974   2.881 -0.9638  0.8389 -0.9448
11894SOL    HW238000   4.186  10.107   2.820 -1.5120  1.5803  0.3096
11895SOL     OW38001   2.225   3.541   8.280 -0.9064  0.3528  0.0174
11895SOL    HW138002   2.225   3.466   8.339 -2.2062 -1.3351 -1.9936
11895SOL    HW238003   2.282   3.605   8.323 -0.5578 -1.3617  2.3029
11896SOL     OW38004   8.077   8.756   5.330  0.1953  0.1000 -0.1286
11896SOL    HW138005   8.115   8.734   5.245 -1.0112  1.2930 -1.0373
11896SOL    HW238006   8.137   8.821   5.367 -0.7671  1.8340 -1.4649
11897SOL     OW38007  10.040   0.836   7.901 -0.3789 -0.3582  0.0249
11897SOL    HW138008   9.956   0.865   7.937 -0.3594  1.2984 -1.1249
11897SOL    HW238009  10.089   0.917   7.887  0.1414 -1.0178 -2.3788
11898SOL     OW38010   3.034   2.569   0.564  0.1290 -0.3543 -0.2459
11898SOL    HW138011   3.055   2.523   0.483  2.7681 -2.0374  1.2499
11898SOL    HW238012   3.099   2.640   0.569  0.8719 -1.0770  0.9544
11899SOL     OW38013   6.584   9.611   4.862  0.6253 -0.9838 -0.0268
11899SOL    HW138014   6.567   9.689   4.915  1.5797 -0.4198 -0.5257
11899SOL    HW238015   6.523   9.619   4.788  2.3778  0.6159 -1.3920
11900SOL     OW38016   6.251  10.389   7.576  0.3541  0.0413 -0.5693
11900SOL    HW138017   6.199  10.309   7.579 -0.5323  0.6115 -0.5251
11900SOL    HW238018   6.242  10.421   7.486 -0.4499  0.8246 -0.2318
11901SOL     OW38019   9.924   0.692   9.363 -0.0847 -0.6857 -0.3618
11901SOL    HW138020   9.978   0.672   9.439 -2.0807  0.0510  1.3334
11901SOL    HW238021   9.883   0.609   9.340 -0.5715 -0.6296  0.2833
11902SOL     OW38022   8.323   9.557   8.879 -0.8543 -0.5003 -0.1096
11902SOL    HW138023   8.251   9.549   8.941 -0.0114  0.3671  1.0324
11902SOL    HW238024   8.296   9.506   8.803 -2.0967 -1.2590  0.8121
11903SOL     OW38025   3.404   9.043   7.754 -0.5210 -0.4036 -0.4994
11903SOL    HW138026   3.493   9.033   7.720 -0.8886  1.4008 -2.1791
11903SOL    HW238027   3.349   9.047   7.675 -1.6518  2.0153  0.3146
11904SOL     OW38028   2.081   2.920   9.825  0.2339  0.0556 -0.1937
11904SOL    HW138029   2.101   3.014   9.822 -0.7029  0.2938  0.6413
11904SOL    HW238030   2.167   2.878   9.834  0.4969  1.0325  2.9092
11905SOL     OW38031   8.333   9.772   4.891 -0.0108 -0.0038  0.0085
11905SOL    HW138032   8.340   9.824   4.971 -0.1141  2.8503 -1.7114
11905SOL    HW238033   8.240   9.754   4.882 -0.0795  0.2633  0.1703
11906SOL     OW38034   2.917   2.258   2.292 -0.1639 -0.0464 -0.1259
11906SOL    HW138035   2.836   2.229   2.333  1.1715 -1.6650  1.5344
11906SOL    HW238036   2.978   2.186   2.307  1.9495  1.6359 -0.2242
11907SOL     OW38037   8.033   9.710   7.533  0.0163 -0.2470  0.2958
11907SOL    HW138038   7.987   9.750   7.459  1.9992  1.3470 -0.1681
11907SOL    HW238039   8.049   9.620   7.504 -2.4608 -0.7716  0.3731
11908SOL     OW38040   0.139   4.820   6.042 -0.2797  0.1286  0.3709
11908SOL    HW138041   0.212   4.763   6.066  0.3676 -0.0074 -1.7372
11908SOL    HW238042   0.105   4.783   5.960 -1.4839  1.2944  0.3104
11909SOL     OW38043   1.805  10.360   0.009 -0.5963  0.2781  0.0102
11909SOL    HW138044   1.848  10.424   0.066 -1.3978 -0.1617  1.1497
11909SOL    HW238045   1.876  10.315  -0.035 -0.0095  1.7899 -0.6365
11910SOL     OW38046   6.977   7.647   0.402  0.4934 -0.5679 -0.2338
11910SOL    HW138047   6.982   7.567   0.350 -0.4484 -0.6764 -0.1833
11910SOL    HW238048   6.893   7.686   0.378  0.3739 -0.2470  0.6711
11911SOL     OW38049   4.972   9.035   9.488  0.2005 -0.4469 -0.3673
11911SOL    HW138050   4.917   9.003   9.418 -1.3053  1.3591 -0.0920
11911SOL    HW238051   4.922   9.106   9.528  2.3093  0.6285  0.5507
11912SOL     OW38052   3.150   2.534   8.297 -0.2513 -0.5587  0.8600
11912SOL    HW138053   3.196   2.522   8.380 -0.0730  0.4733  0.9253
11912SOL    HW238054   3.077   2.593   8.318  0.3779  0.5341  0.1166
11913SOL     OW38055   5.753   1.816   2.791  0.2057 -0.1654  0.8825
11913SOL    HW138056   5.825   1.861   2.747  0.3618 -0.9526  0.3148
11913SOL    HW238057   5.741   1.734   2.742 -1.1843  0.0177  0.8591
11914SOL     OW38058   1.970   8.513   0.222 -0.1239  0.1442  0.7212
11914SOL    HW138059   2.050   8.461   0.227 -0.3834 -0.5808 -1.5570
11914SOL    HW238060   1.931   8.488   0.138 -1.2465  2.6185  0.4397
11915SOL     OW38061   7.940  10.451   9.800  0.1832 -0.2379  0.4032
11915SOL    HW138062   7.992  10.447   9.880  0.9713  0.2446 -0.0725
11915SOL    HW238063   7.886  10.530   9.810  0.1251 -0.2955  0.5478
11916SOL     OW38064   2.534   8.306   3.634  0.1633  0.0295 -0.3332
11916SOL    HW138065   2.506   8.379   3.690 -0.1496 -0.1273 -0.2800
11916SOL    HW238066   2.471   8.236   3.654 -0.2494  0.1333 -1.2333
11917SOL     OW38067   1.919   7.297   0.753  0.2406 -0.3985  0.0283
11917SOL    HW138068   1.856   7.329   0.817 -1.3589 -1.0893 -1.1240
11917SOL    HW238069   1.876   7.311   0.668  1.6262 -0.9222 -0.7952
11918SOL     OW38070   9.329   6.195   2.078 -0.0149 -0.2246  0.0215
11918SOL    HW138071   9.267   6.266   2.064  0.3349 -0.2581 -1.8371
11918SOL    HW238072   9.344   6.158   1.992  0.0331 -2.4017  0.8975
11919SOL     OW38073   0.133   8.614   3.204 -0.1933 -0.4020 -1.4894
11919SOL    HW138074   0.214   8.648   3.164  0.2835  0.1828 -0.0950
11919SOL    HW238075   0.103   8.685   3.261  0.4747 -1.9905  1.0122
11920SOL     OW38076   3.505   3.371   3.705 -0.0588  0.1161 -0.2965
11920SOL    HW138077   3.575   3.435   3.694 -0.2256  0.7409  1.8613
11920SOL    HW238078   3.429   3.411   3.663  0.2093  0.6481 -0.2818
11921SOL     OW38079   9.634   0.725   9.756  0.0890  0.0476  0.6404
11921SOL    HW138080   9.563   0.737   9.692  1.8258 -0.4450 -1.4996
11921SOL    HW238081   9.670   0.639   9.735  0.5172 -0.2724  2.5562
11922SOL     OW38082   1.148  10.337   2.528  0.0472 -0.5273  0.0325
11922SOL    HW138083   1.231  10.376   2.556  1.0126 -1.4368 -1.4525
11922SOL    HW238084   1.082  10.383   2.580  1.3700  0.9921  0.4661
11923SOL     OW38085   8.652   7.727   1.187  0.8396 -0.0516  0.1393
11923SOL    HW138086   8.714   7.754   1.256  0.2492  0.1564  0.5984
11923SOL    HW238087   8.703   7.730   1.107  0.6846  3.1415  0.0400
11924SOL     OW38088   6.067   5.683   4.237 -0.3874  0.4139  0.2363
11924SOL    HW138089   6.055   5.639   4.153  1.9662 -1.0355  0.5675
11924SOL    HW238090   6.114   5.764   4.215 -0.1585  0.2449  0.0931
11925SOL     OW38091   3.984   7.415   8.929  0.0963  0.2996  0.1077
11925SOL    HW138092   3.989   7.479   9.000  2.0009 -1.3707  1.5989
11925SOL    HW238093   3.926   7.347   8.962 -1.3546  0.8675 -1.1822
11926SOL     OW38094   7.691   1.273   1.509  0.0759  0.4430  0.1367
11926SOL    HW138095   7.666   1.231   1.591 -0.4105  0.7378  0.1413
11926SOL    HW238096   7.646   1.223   1.441 -1.2504  1.4917  0.2025
11927SOL     OW38097   5.171   5.200   9.498  0.7087  0.4565  0.5295
11927SOL    HW138098   5.255   5.184   9.541 -0.3114 -1.0696  2.0901
11927SOL    HW238099   5.120   5.249   9.563  0.0126  0.4062  0.0289
11928SOL     OW38100   7.852   7.325   1.796  0.1786 -0.1927 -0.2364
11928SOL    HW138101   7.924   7.288   1.848  0.0624 -1.8660 -1.1959
11928SOL    HW238102   7.781   7.336   1.859  0.5761 -0.6113  0.3012
11929SOL     OW38103   4.827   7.668   4.874 -0.2588 -0.1314 -0.4433
11929SOL    HW138104   4.916   7.637   4.890 -0.0012  0.3673 -0.8786
11929SOL    HW238105   4.819   7.670   4.779 -1.1165 -1.2110 -0.4075
11930SOL     OW38106   8.839   2.303   5.062 -1.0961 -0.1813  0.1725
11930SOL    HW138107   8.901   2.348   5.005 -0.3752 -1.7968 -0.4076
11930SOL    HW238108   8.770   2.272   5.003 -1.3544 -0.2063  0.4850
11931SOL     OW38109   0.306   2.266   7.450  0.1126 -0.0500 -0.3653
11931SOL    HW138110   0.383   2.216   7.475  0.8246  1.3817  0.4174
11931SOL    HW238111   0.312   2.275   7.355  1.9243  1.5835 -0.1486
11932SOL     OW38112   3.803   8.382   8.537  0.4601 -0.2170 -0.2524
11932SOL    HW138113   3.776   8.446   8.603  0.3508  0.4709 -0.9542
11932SOL    HW238114   3.734   8.385   8.471  0.3301 -1.2424 -0.1838
11933SOL     OW38115   4.615   3.473   3.963  0.3005 -0.0973 -0.4969
11933SOL    HW138116   4.711   3.477   3.966  0.2780 -0.0499  1.8632
11933SOL    HW238117   4.588   3.565   3.962  0.2316 -0.0935 -2.2082
11934SOL     OW38118   6.945   4.356   5.345  0.4935  0.2879  0.0385
11934SOL    HW138119   6.884   4.288   5.373  0.8391 -0.3086 -0.6052
11934SOL    HW238120   6.892   4.417   5.294  0.6679 -1.0979 -1.9533
11935SOL     OW38121   0.837   7.985   8.576  0.0050  0.4671  0.3517
11935SOL    HW138122   0.919   7.961   8.533 -0.4103  1.7105 -1.2550
11935SOL    HW238123   0.858   8.064   8.626 -0.1096  0.5531  0.2660
11936SOL     OW38124   5.161   6.476   1.674 -0.5417  0.2153  0.5404
11936SOL    HW138125   5.170   6.548   1.737  0.7903 -0.0484  0.6821
11936SOL    HW238126   5.167   6.518   1.588 -3.6481  0.7479  0.4963
11937SOL     OW38127   1.361   4.106   2.771  0.0608  0.4607  0.0735
11937SOL    HW138128   1.438   4.131   2.821  1.0356 -0.5107 -0.8780
11937SOL    HW238129   1.389   4.029   2.721 -1.8038 -0.4910  0.3940
11938SOL     OW38130   5.741   6.127   3.723 -0.0920 -0.6997 -0.6217
11938SOL    HW138131   5.770   6.080   3.645  0.0135 -1.9663  0.1469
11938SOL    HW238132   5.809   6.108   3.789 -3.0219 -4.9054  1.6750
11939SOL     OW38133   0.848  10.162   7.678 -0.0318  0.7601 -0.7113
11939SOL    HW138134   0.802  10.095   7.727  1.8050  0.9572  1.4242
11939SOL    HW238135   0.817  10.151   7.588 -0.7519 -2.0655 -0.2098
11940SOL     OW38136   6.331   7.323   2.743 -0.5171 -0.5634  0.1204
11940SOL    HW138137   6.390   7.322   2.668 -0.8538 -2.4667 -0.1571
11940SOL    HW238138   6.285   7.407   2.736  0.5771 -0.0213 -0.8933
11941SOL     OW38139  10.348   7.665   6.268  0.3855  0.0730 -0.3363
11941SOL    HW138140  10.420   7.703   6.218  0.6431 -1.7671 -1.4765
11941SOL    HW238141  10.269   7.696   6.225  0.4874  1.5237  0.4763
11942SOL     OW38142   7.640   9.909   4.167 -0.1197 -0.0771  0.4655
11942SOL    HW138143   7.725   9.877   4.139 -0.2139 -0.3605  0.4988
11942SOL    HW238144   7.603   9.951   4.089 -0.1477 -0.3734  0.3186
11943SOL     OW38145   0.954   4.617   0.833 -0.0568  0.1944 -0.4524
11943SOL    HW138146   0.893   4.619   0.759 -0.8831 -3.1386 -0.0469
11943SOL    HW238147   1.011   4.541   0.815  0.8607  0.3629  1.4827
11944SOL     OW38148   7.480   4.512   8.176  0.4876 -0.4960  0.0715
11944SOL    HW138149   7.522   4.435   8.138  2.2145  0.7547 -0.6344
11944SOL    HW238150   7.404   4.476   8.223  0.6073 -2.4969 -1.1400
11945SOL     OW38151   8.710   5.434   7.882  0.0918  0.4453  0.3803
11945SOL    HW138152   8.725   5.343   7.907  0.3176  0.2902 -0.3026
11945SOL    HW238153   8.734   5.485   7.960  1.2977  0.0076  0.3221
11946SOL     OW38154   7.623   4.251   1.504 -0.0342 -0.0922  0.2241
11946SOL    HW138155   7.561   4.322   1.520 -0.1258 -0.2079  0.3902
11946SOL    HW238156   7.705   4.282   1.541 -0.0228  0.0119  0.1111
11947SOL     OW38157   4.190   3.256   1.078 -0.0099  0.0910 -0.6032
11947SOL    HW138158   4.099   3.253   1.106  0.8765  0.9802  2.8598
11947SOL    HW238159   4.201   3.344   1.042 -0.0964  0.7596  0.9196
11948SOL     OW38160   8.559   3.743   2.122  0.4922  0.7288  0.2632
11948SOL    HW138161   8.566   3.674   2.057  0.2114 -0.0831  1.0806
11948SOL    HW238162   8.488   3.799   2.091  0.8443  0.7617 -0.4991
11949SOL     OW38163   9.654   6.187   7.963  0.5466  0.4985 -0.1873
11949SOL    HW138164   9.622   6.262   8.013 -2.7991 -0.9497  0.1509
11949SOL    HW238165   9.653   6.215   7.872 -0.0327  1.0843 -0.0064
11950SOL     OW38166   6.446   9.104   6.226 -0.1104  0.3371  0.3342
11950SOL    HW138167   6.497   9.102   6.145  1.5722 -0.3354  1.3535
11950SOL    HW238168   6.362   9.143   6.201  1.1675  2.2602 -1.2604
11951SOL     OW38169   4.744   9.538   2.675 -0.3519 -0.2674 -0.2286
11951SOL    HW138170   4.835   9.541   2.645  0.2477  0.6706  1.5174
11951SOL    HW238171   4.747   9.489   2.757 -1.3895 -0.0938 -0.0716
11952SOL     OW38172   2.277   9.374   7.129  0.1203 -0.2742  0.0842
11952SOL    HW138173   2.273   9.429   7.207  2.0338 -1.3823  1.0452
11952SOL    HW238174   2.221   9.418   7.065 -1.3423  0.7612  2.0022
11953SOL     OW38175   0.550   4.254   9.487  0.0500 -0.6119 -0.5866
11953SOL    HW138176   0.543   4.185   9.420 -1.8948 -0.2344 -0.8290
11953SOL    HW238177   0.522   4.212   9.568 -0.8804 -0.1999 -0.6838
11954SOL     OW38178   5.204   5.467   6.389 -0.2327 -0.8529 -0.0308
11954SOL    HW138179   5.231   5.379   6.413  1.6044  0.0640  1.5669
11954SOL    HW238180   5.132   5.487   6.449  2.3105  0.2843  2.9104
11955SOL     OW38181   3.693   1.732   5.887  0.9234 -0.3135 -0.0101
11955SOL    HW138182   3.740   1.664   5.839 -0.3505 -0.5227 -1.0252
11955SOL    HW238183   3.717   1.813   5.842  0.1657 -0.4487 -0.6945
11956SOL     OW38184   6.289   0.352   7.570  0.4984  0.0655 -0.2863
11956SOL    HW138185   6.346   0.275   7.574  0.7873  0.3192  0.8358
11956SOL    HW238186   6.236   0.347   7.649 -0.5271  0.2498 -0.9333
11957SOL     OW38187   1.699   9.962   3.738 -0.2907 -0.3178 -0.0434
11957SOL    HW138188   1.688   9.883   3.790 -1.2009  0.7478  1.4497
11957SOL    HW238189   1.793   9.981   3.741 -0.2355 -0.6822  0.5667
11958SOL     OW38190   4.793   5.764   9.318 -0.6677  0.0933  0.4228
11958SOL    HW138191   4.794   5.709   9.240  0.2147  1.2179 -0.3927
11958SOL    HW238192   4.837   5.711   9.385  1.7420  0.3876 -0.8172
11959SOL     OW38193   6.594   6.398   1.158 -0.0912 -0.5841 -0.0049
11959SOL    HW138194   6.585   6.308   1.127  0.6545 -1.1434  1.3316
11959SOL    HW238195   6.529   6.407   1.227 -1.1452  0.3820 -1.0668
11960SOL     OW38196  10.520   8.107   7.241  0.0297  0.1116  0.0080
11960SOL    HW138197  10.539   8.187   7.291 -0.0800 -2.2457  4.3028
11960SOL    HW238198  10.602   8.057   7.244 -1.5146 -2.6116  3.3014
11961SOL     OW38199   2.884   5.677   3.374 -0.6018 -0.1460  0.0413
11961SOL    HW138200   2.888   5.731   3.453 -2.5405  0.5937 -0.3271
11961SOL    HW238201   2.953   5.714   3.317  0.0026  0.0849  0.9014
11962SOL     OW38202  10.243   9.579   4.340 -0.5286 -0.0280  0.1078
11962SOL    HW138203  10.335   9.576   4.312 -0.5048  2.5397 -0.3229
11962SOL    HW238204  10.197   9.621   4.268 -1.8312 -0.1061  0.8581
11963SOL     OW38205   6.960  10.524   6.822  0.2731 -0.0905 -0.3434
11963SOL    HW138206   6.872  10.498   6.792  1.0343 -1.0114 -1.9455
11963SOL    HW238207   6.968  10.616   6.795 -0.0869 -0.0978 -0.4880
11964SOL     OW38208   3.302   8.528   1.979  0.2616 -1.0692  0.0042
11964SOL    HW138209   3.363   8.601   1.990 -1.1000  0.1075  0.0581
11964SOL    HW238210   3.283   8.527   1.885 -1.7408  0.4007  0.3346
11965SOL     OW38211   8.711   9.459   8.893 -0.4471  0.9402  0.6490
11965SOL    HW138212   8.638   9.466   8.832  0.1069 -0.9832 -0.3264
11965SOL    HW238213   8.670   9.468   8.980 -1.8591 -0.0764  0.1331
11966SOL     OW38214   0.017   5.865   9.148 -0.4352  0.1579 -0.0159
11966SOL    HW138215  -0.070   5.901   9.133  0.2777  1.5268 -1.0026
11966SOL    HW238216   0.075   5.941   9.152  0.6287 -0.6677  1.4154
11967SOL     OW38217   8.639   6.332   7.269  0.2363  0.1570  0.0275
11967SOL    HW138218   8.644   6.394   7.196 -1.7959 -1.6369 -1.8073
11967SOL    HW238219   8.702   6.263   7.246  0.0802 -0.0875  0.3276
11968SOL     OW38220   1.415   4.016   0.273 -0.2630 -0.7961 -0.0276
11968SOL    HW138221   1.500   4.058   0.263  0.2186 -1.6458  0.3994
11968SOL    HW238222   1.353   4.078   0.234  0.5312 -0.1225 -0.2491
11969SOL     OW38223   7.779   3.844   2.260 -0.0067 -0.1985  0.6173
11969SOL    HW138224   7.738   3.858   2.174  1.2030 -3.0601 -0.5335
11969SOL    HW238225   7.719   3.886   2.322 -2.6606 -0.8800 -1.3044
11970SOL     OW38226  10.001   2.089   0.335 -0.7122 -0.1014  0.0473
11970SOL    HW138227  10.023   2.043   0.416  1.4077 -0.7805 -0.8326
11970SOL    HW238228  10.085   2.117   0.300 -1.5298 -0.1433 -2.0910
11971SOL     OW38229   0.567   8.191   8.860 -0.6738  0.4795  0.3017
11971SOL    HW138230   0.582   8.107   8.903 -0.8959  0.5709  0.5536
11971SOL    HW238231   0.501   8.235   8.913 -0.4787  0.8612  0.2350
11972SOL     OW38232   1.251   9.327   8.082 -0.5278 -0.2625  0.0405
11972SOL    HW138233   1.317   9.259   8.094 -0.6410 -0.0862  2.1780
11972SOL    HW238234   1.296   9.408   8.107 -1.0969  0.0791 -0.0283
11973SOL     OW38235   9.568   8.403   9.755  0.0736 -0.2060  0.7059
11973SOL    HW138236   9.561   8.311   9.731  0.1186  0.0365 -0.2724
11973SOL    HW238237   9.529   8.408   9.842 -0.6247 -1.0127  0.4505
11974SOL     OW38238   6.948   2.938   9.052  0.4519  0.3244 -0.1311
11974SOL    HW138239   7.043   2.931   9.037  0.2712 -2.1314 -0.5010
11974SOL    HW238240   6.940   2.954   9.146  1.2259  0.0721 -0.0158
11975SOL     OW38241   9.029   5.217   0.642  0.0727 -0.0585 -0.4680
11975SOL    HW138242   9.123   5.236   0.637  0.2705 -0.9733 -0.4045
11975SOL    HW238243   8.989   5.300   0.670  0.8073  0.4579 -0.9066
11976SOL     OW38244   0.533   7.441   2.295  0.2809  0.0324  0.2233
11976SOL    HW138245   0.559   7.359   2.253 -0.7157 -0.3924  0.4065
11976SOL    HW238246   0.461   7.474   2.241  1.3155  1.3275 -0.4317
11977SOL     OW38247   5.308   7.900   1.305 -0.0296 -0.1234  0.4604
11977SOL    HW138248   5.234   7.958   1.294  1.2739  1.4532 -0.4959
11977SOL    HW238249   5.271   7.820   1.344 -2.1651  0.6234  0.0845
11978SOL     OW38250   9.201   1.640  10.532  0.2378  0.1164  0.5188
11978SOL    HW138251   9.169   1.611  10.446  0.2355  2.2691 -0.2574
11978SOL    HW238252   9.293   1.661  10.518 -0.1748  2.1094  0.5761
11979SOL     OW38253   2.307   1.193   6.163 -0.9365  0.1253  0.1229
11979SOL    HW138254   2.383   1.213   6.107 -1.0980  0.4463  0.0152
11979SOL    HW238255   2.235   1.180   6.102 -0.7301 -1.3650  0.1505
11980SOL     OW38256   4.051  10.571   9.190 -1.0189 -0.0156  0.4110
11980SOL    HW138257   4.083  10.639   9.131 -0.9415 -0.6941 -0.3514
11980SOL    HW238258   4.041  10.615   9.275 -0.8316  0.8997 -0.0303
11981SOL     OW38259   8.453   9.241   1.473 -0.3489 -0.0574 -0.2963
11981SOL    HW138260   8.533   9.218   1.425 -0.2826 -0.3489 -0.0493
11981SOL    HW238261   8.417   9.157   1.500 -1.4169 -0.0161 -1.4775
11982SOL     OW38262   8.213   4.429   1.054  0.3575  0.7303 -0.4086
11982SOL    HW138263   8.191   4.463   0.967  1.8819  2.9917  0.0178
11982SOL    HW238264   8.222   4.507   1.109 -1.6599 -0.6603  2.1173
11983SOL     OW38265   5.849   4.633   3.389 -0.1162 -0.0525  0.0565
11983SOL    HW138266   5.832   4.539   3.386  0.3832 -0.1232 -1.4286
11983SOL    HW238267   5.784   4.671   3.329  1.3858  0.2282 -1.4747
11984SOL     OW38268   4.697   6.002   6.711  0.1265 -0.3048 -0.3111
11984SOL    HW138269   4.746   6.085   6.705 -0.6625  0.0611 -2.1183
11984SOL    HW238270   4.669   5.984   6.622 -0.7149 -1.9457  0.2526
11985SOL     OW38271   8.272   4.297   2.193  0.3706 -1.1002  0.6174
11985SOL    HW138272   8.340   4.253   2.244  1.6064  1.0800  0.9636
11985SOL    HW238273   8.308   4.302   2.105  0.4669 -0.3677  0.6935
11986SOL     OW38274   5.489   7.448   2.737 -0.0976  0.3547 -0.7006
11986SOL    HW138275   5.492   7.466   2.643  0.0237 -0.0430 -0.7756
11986SOL    HW238276   5.433   7.370   2.744 -0.0503  0.3424 -0.4508
11987SOL     OW38277   1.726   5.948   2.531  0.2676 -0.7636  0.3169
11987SOL    HW138278   1.802   5.986   2.486  0.0504 -0.6021  0.0872
11987SOL    HW238279   1.680   6.023   2.569 -0.1921 -0.7856 -0.1859
11988SOL     OW38280   8.541   4.882   1.947 -0.5894  0.0751 -0.0439
11988SOL    HW138281   8.634   4.859   1.952 -0.8015 -0.6375  0.9064
11988SOL    HW238282   8.501   4.839   2.023 -1.8750 -0.5113 -0.9978
11989SOL     OW38283   7.104   7.394   4.448  0.3280  0.0773  0.3272
11989SOL    HW138284   7.047   7.461   4.484  0.8847  0.1617  1.0633
11989SOL    HW238285   7.190   7.436   4.440 -0.2784  1.0566 -3.8841
11990SOL     OW38286   3.765   6.480  10.043 -0.3865  0.2221  0.1389
11990SOL    HW138287   3.726   6.419  10.106 -0.8184  1.7085  1.3698
11990SOL    HW238288   3.852   6.444  10.026 -0.1572 -0.0923  1.7984
11991SOL     OW38289   6.073   2.506   8.292 -0.5042 -0.0155 -0.1779
11991SOL    HW138290   6.047   2.533   8.203  1.2761  0.4666 -0.5950
11991SOL    HW238291   6.072   2.587   8.343  0.5658  0.0997 -0.3190
11992SOL     OW38292   6.600   0.155   6.023 -0.3958  0.5609  0.5385
11992SOL    HW138293   6.578   0.238   5.981 -3.6563  0.1420  1.1854
11992SOL    HW238294   6.516   0.117   6.048  0.8747 -3.1677 -0.0939
11993SOL     OW38295   4.677   7.875   0.703 -0.0695  0.3165  0.6850
11993SOL    HW138296   4.619   7.878   0.628  0.8328 -1.0339 -0.1292
11993SOL    HW238297   4.651   7.948   0.758 -1.4033  0.7341 -0.4629
11994SOL     OW38298   7.415   2.003   8.415  0.0657 -0.4391  0.3944
11994SOL    HW138299   7.321   2.017   8.402 -0.2405 -2.7208 -0.3065
11994SOL    HW238300   7.425   1.993   8.509 -0.7730 -2.1704  0.3407
11995SOL     OW38301   8.855   3.830   3.953  0.1098  0.5618 -0.5066
11995SOL    HW138302   8.861   3.899   4.020  0.3857 -0.1946  0.2674
11995SOL    HW238303   8.790   3.769   3.988  0.6322 -0.1028 -0.6905
11996SOL     OW38304   2.987   3.804   7.912  0.2961 -0.6653  0.3123
11996SOL    HW138305   2.989   3.898   7.894 -1.2837 -0.7136 -0.2350
11996SOL    HW238306   3.056   3.767   7.855  0.4214  0.0650 -0.0190
11997SOL     OW38307   7.717   2.733   0.778 -0.0021  0.4382 -0.2265
11997SOL    HW138308   7.797   2.748   0.828 -1.6242  0.0701  2.7044
11997SOL    HW238309   7.689   2.821   0.751  1.4422  0.5491 -1.4844
11998SOL     OW38310  10.017   0.147   8.860 -0.7240 -0.2085 -0.1369
11998SOL    HW138311   9.966   0.096   8.923 -0.9202  0.8518  0.5821
11998SOL    HW238312   9.956   0.211   8.826 -0.2187  0.2243 -0.2459
11999SOL     OW38313   3.842   8.677   9.698 -0.0641 -0.2383  0.8201
11999SOL    HW138314   3.780   8.642   9.762 -0.6967 -1.2923 -0.3352
11999SOL    HW238315   3.848   8.609   9.630  0.5344  0.8804 -0.2837
12000SOL     OW38316   9.833  10.534   3.539  0.5656  0.1301 -0.5388
12000SOL    HW138317   9.750  10.485   3.541  0.0949  0.8588 -1.4068
12000SOL    HW238318   9.844  10.559   3.447  0.6141  1.8993 -0.0971
12001SOL     OW38319   2.699   1.996   6.778  0.4583  0.2729 -0.2547
12001SOL    HW138320   2.606   2.006   6.797  0.2480 -0.2580 -0.9698
12001SOL    HW238321   2.703   1.986   6.683  1.3680  1.6567 -0.3917
12002SOL     OW38322   6.294   0.347   8.077  0.3785  0.5570  0.5040
12002SOL    HW138323   6.293   0.425   8.131  2.8595 -0.9495  2.9989
12002SOL    HW238324   6.385   0.319   8.075 -0.2987 -1.9833 -0.7465
12003SOL     OW38325   2.759   5.812   2.472 -0.1466 -0.3363  0.2450
12003SOL    HW138326   2.780   5.721   2.452 -0.2104 -0.4385  0.6349
12003SOL    HW238327   2.805   5.862   2.405  1.2265 -0.5639  0.9778
12004SOL     OW38328   6.000   8.791   7.379  0.4238 -0.1540 -0.0575
12004SOL    HW138329   5.972   8.726   7.443 -1.7034 -0.2302 -0.9736
12004SOL    HW238330   5.974   8.875   7.417 -0.4578 -0.1680 -0.6101
12005SOL     OW38331   8.720  10.033   0.735 -0.2536  0.0591  0.0727
12005SOL    HW138332   8.804  10.067   0.702  0.3664  0.6932  2.1322
12005SOL    HW238333   8.720  10.056   0.828 -2.0687 -1.2685  0.4548
12006SOL     OW38334   7.426   9.281   6.612  0.0927  0.0115 -0.4864
12006SOL    HW138335   7.503   9.249   6.564  0.2453  0.3155 -0.4506
12006SOL    HW238336   7.382   9.201   6.641 -0.4158 -0.1962 -1.7604
12007SOL     OW38337   6.226   7.361   1.948  0.0479 -0.5077  0.3053
12007SOL    HW138338   6.297   7.388   1.889 -0.7601  1.4275  0.1593
12007SOL    HW238339   6.270   7.342   2.031  0.6956  1.4976  0.4738
12008SOL     OW38340   3.537   8.294   0.944  0.2626 -0.3062 -0.1626
12008SOL    HW138341   3.514   8.348   1.020  0.9706 -0.8689  0.4762
12008SOL    HW238342   3.548   8.206   0.980 -1.9497 -1.1471 -1.3632
12009SOL     OW38343   0.165   5.229   9.669  0.1274  0.0026  0.4776
12009SOL    HW138344   0.199   5.183   9.592 -0.8118  2.7335 -1.7240
12009SOL    HW238345   0.241   5.273   9.707  0.8322 -2.3486  1.9797
12010SOL     OW38346  10.530   4.493   7.551  0.3758  0.1673 -0.0616
12010SOL    HW138347  10.439   4.463   7.549  0.1422  0.8277  0.2755
12010SOL    HW238348  10.526   4.578   7.596  1.2336 -0.0616  0.4637
12011SOL     OW38349  10.499   5.383   3.698 -0.3705 -0.2449 -0.3541
12011SOL    HW138350  10.477   5.442   3.771 -0.1575 -1.2413  0.5310
12011SOL    HW238351  10.582   5.343   3.724  0.1839  0.0656 -1.5787
12012SOL     OW38352  10.401   7.619   5.894 -0.1041 -0.3548  1.0261
12012SOL    HW138353  10.344   7.660   5.959  0.2206 -0.1514  1.1863
12012SOL    HW238354  10.345   7.605   5.818 -0.2442  0.3044  1.0051
12013SOL     OW38355   2.244  10.031   7.182 -0.2333  0.8139 -0.3582
12013SOL    HW138356   2.255  10.098   7.114  0.8105  0.2583 -0.7483
12013SOL    HW238357   2.149  10.021   7.189 -0.3784  0.7859 -1.8456
12014SOL     OW38358   9.202   0.000   1.544  0.1036 -0.3781  0.0691
12014SOL    HW138359   9.130  -0.052   1.508  0.3810 -1.4704  1.0552
12014SOL    HW238360   9.160   0.076   1.584 -0.3158  0.1079 -1.2305
12015SOL     OW38361   4.605   6.231   6.222 -0.1166  0.8913 -0.3185
12015SOL    HW138362   4.600   6.319   6.184 -0.4162  0.7556 -0.5950
12015SOL    HW238363   4.561   6.175   6.158  1.1155  0.3502 -0.7233
12016SOL     OW38364   9.829   0.099   4.419 -0.3530  0.2093  0.5794
12016SOL    HW138365   9.777   0.034   4.372 -1.3651  0.1905  1.6797
12016SOL    HW238366   9.889   0.047   4.473 -0.4629  0.1938  0.6891
12017SOL     OW38367   8.649   8.425  10.117 -0.1547  0.2567  0.2746
12017SOL    HW138368   8.719   8.365  10.092 -0.3989 -0.2877  0.8694
12017SOL    HW238369   8.691   8.511  10.121 -0.1951  0.4833 -2.3841
12018SOL     OW38370   7.335   3.921   1.772  0.0986  0.0126 -0.3961
12018SOL    HW138371   7.342   3.895   1.680  1.4947 -1.4368  0.0551
12018SOL    HW238372   7.415   3.971   1.789 -0.5162  0.9348 -0.1409
12019SOL     OW38373   1.384   1.688   7.059 -0.4330  0.4287  0.2463
12019SOL    HW138374   1.413   1.597   7.057 -1.1388  0.1964  0.4133
12019SOL    HW238375   1.313   1.692   6.995 -1.8588  0.3537  1.7827
12020SOL     OW38376   9.860   0.557   1.428 -0.4094  0.0108  0.1918
12020SOL    HW138377   9.791   0.521   1.483  0.1981 -2.1325 -0.3590
12020SOL    HW238378   9.941   0.524   1.467  0.0165 -2.1231 -2.2357
12021SOL     OW38379   6.534  10.476   3.613  0.0326  0.2171 -0.2878
12021SOL    HW138380   6.444  10.444   3.613 -0.4717  1.4822  1.5742
12021SOL    HW238381   6.586  10.400   3.586 -1.4846 -0.8564 -0.3580
12022SOL     OW38382   9.889   2.283   0.929  0.2309 -0.2575 -0.0152
12022SOL    HW138383   9.820   2.223   0.957  1.5171 -0.3646  3.2607
12022SOL    HW238384   9.955   2.227   0.889  0.5607 -0.8110  1.2728
12023SOL     OW38385   9.694  10.115   2.268  0.5608 -1.0315  0.8533
12023SOL    HW138386   9.660  10.203   2.282  0.7812 -0.9392  0.8142
12023SOL    HW238387   9.625  10.057   2.299 -0.7200 -0.9129 -1.5244
12024SOL     OW38388   6.694   1.420   8.012  0.0428  0.5237  0.3444
12024SOL    HW138389   6.605   1.445   8.035 -0.3273 -1.2263  0.9868
12024SOL    HW238390   6.714   1.470   7.933 -0.9998  1.9328  0.9342
12025SOL     OW38391   0.932   6.139   3.943 -0.0594  0.1532 -0.3483
12025SOL    HW138392   0.966   6.197   4.010  2.2466 -1.0939 -0.3421
12025SOL    HW238393   0.940   6.189   3.862  0.9516  0.2510 -0.2052
12026SOL     OW38394   2.611   0.251   5.437  0.0763 -0.4100 -0.2469
12026SOL    HW138395   2.522   0.225   5.459 -0.0683  0.9613  0.9378
12026SOL    HW238396   2.607   0.274   5.344 -0.7958 -0.3441 -0.1996
12027SOL     OW38397   3.254   5.671   8.654 -0.0460  0.1677 -0.4215
12027SOL    HW138398   3.206   5.648   8.574  1.2275 -0.2735 -1.0952
12027SOL    HW238399   3.331   5.719   8.623  0.7991 -0.5516  0.4676
12028SOL     OW38400   0.284   1.801   2.868 -0.6143 -0.2642  0.1061
12028SOL    HW138401   0.280   1.890   2.833 -0.8925 -0.9033 -1.5513
12028SOL    HW238402   0.292   1.744   2.791 -1.1820 -1.7256  1.0700
12029SOL     OW38403   8.941   8.381  10.442  0.1664 -0.1420 -0.1365
12029SOL    HW138404   8.878   8.325  10.487 -1.2235 -1.1032 -3.0460
12029SOL    HW238405   8.887   8.449  10.401  1.5395  1.6039  0.8132
12030SOL     OW38406   3.589   3.662   6.697  0.0568 -0.0465  0.0587
12030SOL    HW138407   3.554   3.626   6.616 -2.0785  0.8771  0.4983
12030SOL    HW238408   3.622   3.748   6.674  1.1586 -0.5108 -0.1554
12031SOL     OW38409   3.188   5.915   0.587  0.0092 -0.3413  0.4566
12031SOL    HW138410   3.214   5.932   0.678  0.7798  0.1133  0.1616
12031SOL    HW238411   3.136   5.992   0.563 -0.2169 -0.4741  0.5185
12032SOL     OW38412   6.499   8.998   1.355 -0.2852 -0.0047 -0.7351
12032SOL    HW138413   6.481   8.932   1.422 -0.2849 -0.3179 -1.0421
12032SOL    HW238414   6.583   8.973   1.317 -0.9221 -0.6217 -1.7896
12033SOL     OW38415   9.268   9.249   3.739 -0.5788 -0.4901 -0.1890
12033SOL    HW138416   9.195   9.304   3.710 -0.0712  0.2942  0.0066
12033SOL    HW238417   9.234   9.159   3.734 -1.6098 -0.1200  0.0627
12034SOL     OW38418   6.903   3.677   8.228  0.1563 -0.6676 -0.4747
12034SOL    HW138419   6.930   3.585   8.230 -0.2834 -0.7998 -0.6630
12034SOL    HW238420   6.975   3.724   8.271  0.3058 -1.1173 -0.2314
12035SOL     OW38421   3.744   7.912   9.908  0.5223  0.2196  0.3445
12035SOL    HW138422   3.701   7.881   9.988 -0.5950  0.4950 -0.1254
12035SOL    HW238423   3.835   7.887   9.919  0.3054 -0.1479  1.5078
12036SOL     OW38424   7.275   7.423   2.463  0.0856  0.3417  0.0626
12036SOL    HW138425   7.359   7.442   2.422  0.4249 -1.2978 -0.0493
12036SOL    HW238426   7.295   7.361   2.533 -1.2498 -1.6424 -1.2222
12037SOL     OW38427   5.169   0.368   4.256  0.0147  0.1786  0.0307
12037SOL    HW138428   5.133   0.289   4.215  0.1320  1.0308 -1.8019
12037SOL    HW238429   5.215   0.335   4.334 -2.9826 -1.1451  1.3940
12038SOL     OW38430   3.999   2.097   2.221 -0.0055  0.1843  0.6171
12038SOL    HW138431   4.046   2.023   2.183  1.2874  1.5031 -0.4474
12038SOL    HW238432   3.944   2.130   2.150  1.2542  1.7046  0.3095
12039SOL     OW38433   6.441   1.203   8.384 -0.3590  0.0068 -0.1432
12039SOL    HW138434   6.386   1.137   8.425 -0.1227  0.0524  0.2497
12039SOL    HW238435   6.383   1.248   8.323 -0.5715 -0.4294 -0.2672
12040SOL     OW38436   9.514   8.617   1.605  0.5262 -0.0430  0.4847
12040SOL    HW138437   9.512   8.599   1.511  1.5841  0.1046  0.4265
12040SOL    HW238438   9.588   8.566   1.638  1.2413  1.2213  0.9403
12041SOL     OW38439   0.303  10.410   1.999  0.0300  0.1066 -0.1997
12041SOL    HW138440   0.336  10.446   2.081  1.3253  1.3964 -1.2373
12041SOL    HW238441   0.249  10.335   2.025 -0.8223  1.3719  1.9012
12042SOL     OW38442   2.099   4.164   7.962 -0.3166 -0.0522 -0.5505
12042SOL    HW138443   2.136   4.076   7.954 -0.1787  0.0192 -0.7002
12042SOL    HW238444   2.005   4.151   7.951 -0.4565 -0.3710  0.8312
12043SOL     OW38445   7.002   8.522   8.727  0.5858 -0.0993 -0.3422
12043SOL    HW138446   6.952   8.467   8.788  1.0992 -1.6627 -1.2685
12043SOL    HW238447   7.082   8.544   8.775 -0.2419  1.0940  0.5621
12044SOL     OW38448   7.535   3.492   3.723 -0.9146  0.1545 -0.3261
12044SOL    HW138449   7.541   3.478   3.817  2.2297 -1.0299 -0.6036
12044SOL    HW238450   7.462   3.437   3.695 -1.0302 -0.5376  1.2450
12045SOL     OW38451   4.362   2.008   5.784 -0.0998 -0.3855  0.4114
12045SOL    HW138452   4.354   2.023   5.689  0.8053  0.4372  0.4535
12045SOL    HW238453   4.271   2.007   5.815 -0.4224 -0.9707 -0.5028
12046SOL     OW38454   5.094   5.938   2.526 -0.1433  0.1074 -0.1100
12046SOL    HW138455   5.124   5.872   2.589  2.5750  1.3739  0.0898
12046SOL    HW238456   5.016   5.975   2.566 -0.4132 -1.4023  0.8644
12047SOL     OW38457   9.318   5.874   3.045  0.1459 -0.9151  0.9798
12047SOL    HW138458   9.269   5.836   2.972 -1.3707  0.5684  1.1667
12047SOL    HW238459   9.291   5.823   3.121 -0.2803 -0.7946  0.9110
12048SOL     OW38460   3.610   1.840   9.371 -1.1843  0.3435  0.2307
12048SOL    HW138461   3.526   1.820   9.330 -0.8948  1.2681 -0.8660
12048SOL    HW238462   3.671   1.848   9.298 -0.2053  0.0450  0.9851
12049SOL     OW38463   4.197   2.366   2.318 -0.1655 -0.4565  0.1433
12049SOL    HW138464   4.250   2.368   2.398  0.6272  0.8881 -0.3816
12049SOL    HW238465   4.116   2.411   2.341  0.0995  0.0105  0.1804
12050SOL     OW38466   1.481  10.449   4.790 -0.2937 -0.3133 -0.2112
12050SOL    HW138467   1.426  10.383   4.747 -1.3290 -0.5329  1.3720
12050SOL    HW238468   1.517  10.404   4.867 -1.0291  0.9430  0.9097
12051SOL     OW38469   3.195   5.569   1.766 -0.0987 -0.1923 -0.6154
12051SOL    HW138470   3.256   5.521   1.822  0.1144  1.3685  0.5558
12051SOL    HW238471   3.251   5.618   1.706 -0.2974 -0.8380 -1.3465
12052SOL     OW38472   3.174   7.268   5.399  0.4757 -0.2618  0.2638
12052SOL    HW138473   3.223   7.341   5.437  1.0628 -0.6429  0.2662
12052SOL    HW238474   3.178   7.283   5.305 -0.9108  0.6404  0.3250
12053SOL     OW38475   1.255   2.864   5.981 -0.2725 -0.3390  0.2955
12053SOL    HW138476   1.289   2.927   5.918 -0.1051  0.7723  1.4721
12053SOL    HW238477   1.209   2.799   5.927 -1.3598  1.3223 -0.8902
12054SOL     OW38478   7.697   9.832   2.161  0.2197 -0.1999  0.0960
12054SOL    HW138479   7.790   9.828   2.182 -0.3095  0.3334  2.9609
12054SOL    HW238480   7.683   9.921   2.128  0.3443  0.6773  2.2379
12055SOL     OW38481   7.760   3.532   9.405  0.4515 -0.4125 -0.3885
12055SOL    HW138482   7.746   3.473   9.331  1.3207  0.2124 -1.0683
12055SOL    HW238483   7.678   3.580   9.414 -0.0719 -1.3366 -0.1743
12056SOL     OW38484   7.516   4.390   1.045  0.2832 -0.2131  0.2704
12056SOL    HW138485   7.582   4.350   1.102 -0.5462 -1.4307  0.4028
12056SOL    HW238486   7.532   4.352   0.959  0.4206  0.3050  0.0596
12057SOL     OW38487   2.360   0.489   3.802 -0.2316 -0.2536 -0.6075
12057SOL    HW138488   2.369   0.409   3.853 -0.3345  0.0405 -0.1295
12057SOL    HW238489   2.443   0.535   3.814  0.0636 -0.5631 -1.3671
12058SOL     OW38490   7.724   1.619   0.500 -0.4525 -0.1969 -0.4353
12058SOL    HW138491   7.782   1.637   0.426  3.0176 -0.0449  2.0832
12058SOL    HW238492   7.688   1.531   0.482 -0.1184  0.0465 -2.4713
12059SOL     OW38493   9.788   0.487   8.296 -0.2974  0.5645 -0.4321
12059SOL    HW138494   9.859   0.495   8.232  0.3012  1.9188  0.3569
12059SOL    HW238495   9.730   0.420   8.259  2.0094 -1.5852 -0.5137
12060SOL     OW38496   0.896   9.568   5.368  0.5982  0.4105 -0.4822
12060SOL    HW138497   0.806   9.577   5.339  0.4898  1.7857  0.2062
12060SOL    HW238498   0.939   9.515   5.301 -0.7245 -0.3081 -0.7810
12061SOL     OW38499   8.163   3.045   6.306  0.0387 -0.4676 -0.3298
12061SOL    HW138500   8.145   3.111   6.239  0.3877  0.5136  0.5018
12061SOL    HW238501   8.257   3.031   6.301 -0.1601 -1.6489 -1.1455
12062SOL     OW38502   0.282   5.383   0.334 -0.0996 -0.3696  0.3314
12062SOL    HW138503   0.241   5.441   0.399  0.1689  2.1799 -1.6055
12062SOL    HW238504   0.376   5.393   0.349 -0.0612 -1.4121  0.8511
12063SOL     OW38505   2.262   8.006   5.847  0.2498 -0.2748 -0.1095
12063SOL    HW138506   2.271   7.921   5.891 -0.5548 -0.6022 -0.5617
12063SOL    HW238507   2.314   7.996   5.766 -1.6712 -1.1680 -1.3048
12064SOL     OW38508   2.599   5.356   7.205 -0.0729 -0.4688 -0.2275
12064SOL    HW138509   2.655   5.287   7.167  0.2462  0.3220 -1.2658
12064SOL    HW238510   2.651   5.436   7.196  0.0664 -0.2443  2.0714
12065SOL     OW38511   1.472   2.999   2.041 -0.0124 -0.4116 -0.0538
12065SOL    HW138512   1.413   2.957   2.104 -0.7726  0.4996 -0.1426
12065SOL    HW238513   1.510   2.926   1.992  0.2446 -1.1107  1.1519
12066SOL     OW38514   0.399   0.645   3.673 -0.6861  0.3876 -0.0723
12066SOL    HW138515   0.334   0.662   3.604 -1.7466 -0.8981  0.5538
12066SOL    HW238516   0.464   0.590   3.630  0.0547  1.7140 -0.7162
12067SOL     OW38517   5.257   4.469   5.366  0.3326  0.0138  1.0708
12067SOL    HW138518   5.314   4.501   5.296  0.3635  0.0676  1.1200
12067SOL    HW238519   5.315   4.458   5.441  0.8941 -2.8653  0.3197
12068SOL     OW38520   8.017   7.756   8.850 -0.0017  0.4623  0.4537
12068SOL    HW138521   8.048   7.802   8.928 -0.9054 -0.2209  1.2348
12068SOL    HW238522   8.097   7.721   8.810  0.3151 -2.0287  2.9146
12069SOL     OW38523   9.709   7.222   5.546  0.2706 -0.4810  0.3099
12069SOL    HW138524   9.761   7.143   5.532  0.4242 -0.3092 -0.1107
12069SOL    HW238525   9.624   7.190   5.576  0.2165 -0.8221 -0.2069
12070SOL     OW38526  10.227   8.748   2.359  0.1447  0.2656  0.2486
12070SOL    HW138527  10.218   8.720   2.268 -0.4977  0.5063  0.2366
12070SOL    HW238528  10.252   8.669   2.406  0.5209  0.1495 -0.1432
12071SOL     OW38529   1.401   1.313   5.306 -0.4375 -0.0314 -0.4974
12071SOL    HW138530   1.365   1.326   5.394 -0.2372 -1.0195 -0.2606
12071SOL    HW238531   1.398   1.219   5.292  2.2001 -0.2116 -0.4064
12072SOL     OW38532  10.518   7.666   3.733 -0.1390 -0.4402  0.1904
12072SOL    HW138533  10.561   7.644   3.651 -0.5990 -0.3204 -0.0882
12072SOL    HW238534  10.579   7.726   3.777  0.7187 -1.5430  0.5588
12073SOL     OW38535   1.319   3.524   7.844  0.3113  0.1204 -0.5836
12073SOL    HW138536   1.259   3.454   7.821  1.4756 -0.5118 -1.8155
12073SOL    HW238537   1.291   3.598   7.789 -0.3287  0.3341  0.0234
12074SOL     OW38538   7.539   2.821   8.368 -0.4001  0.0133  0.4268
12074SOL    HW138539   7.456   2.781   8.342 -0.4468 -0.6708  1.5510
12074SOL    HW238540   7.563   2.876   8.294 -2.0422  0.5176  0.2156
12075SOL     OW38541   2.517  10.249  10.178  0.1040 -0.6167  0.3131
12075SOL    HW138542   2.467  10.329  10.193 -0.0481 -0.3222 -1.4538
12075SOL    HW238543   2.463  10.179  10.216  0.0429  0.0528  1.5064
12076SOL     OW38544   1.575   8.793   3.586  0.3803 -1.0734  0.2733
12076SOL    HW138545   1.554   8.704   3.558 -0.8043 -0.0550 -2.4052
12076SOL    HW238546   1.491   8.832   3.609  0.6972 -0.2219  0.0433
12077SOL     OW38547   0.774   4.208   7.530  0.2428 -0.0927 -0.8088
12077SOL    HW138548   0.717   4.131   7.532 -0.5923  0.5060 -0.9021
12077SOL    HW238549   0.800   4.221   7.621 -1.0081  0.5103 -0.5132
12078SOL     OW38550   8.326   4.535   9.329  0.2496 -0.2778  0.2372
12078SOL    HW138551   8.308   4.450   9.370  2.0279 -0.8179 -0.0367
12078SOL    HW238552   8.403   4.520   9.275  0.7499  1.5788  0.3835
12079SOL     OW38553   7.485   6.834   9.999  0.4274  0.0525 -0.3929
12079SOL    HW138554   7.573   6.849  10.034  0.6259 -0.2117 -0.7712
12079SOL    HW238555   7.427   6.844  10.074  0.7658  0.4185 -0.1788
12080SOL     OW38556   2.465   3.179   3.993  0.0833 -0.2748 -0.0082
12080SOL    HW138557   2.557   3.153   3.983  0.0160 -0.5162 -0.0072
12080SOL    HW238558   2.460   3.266   3.952 -0.0568 -0.9839 -1.5733
12081SOL     OW38559   1.986   5.191   7.521  0.0330 -0.3390  0.5953
12081SOL    HW138560   1.975   5.096   7.528  2.0207 -0.8182 -1.6246
12081SOL    HW238561   1.944   5.214   7.439 -0.4244  0.7300  1.1085
12082SOL     OW38562   5.258   0.211   4.001  0.1715  0.0755 -0.0225
12082SOL    HW138563   5.189   0.145   4.005 -1.1959  1.4798  0.7065
12082SOL    HW238564   5.314   0.182   3.929 -1.3637 -0.9575 -0.8710
12083SOL     OW38565   2.935   8.492   2.008  0.1953 -0.0361  0.6122
12083SOL    HW138566   2.922   8.562   1.944  1.7561  0.4828  0.8203
12083SOL    HW238567   2.850   8.482   2.051 -1.3652 -1.4423 -2.5067
12084SOL     OW38568   1.232   1.340   9.857  0.5658  0.0543  0.4866
12084SOL    HW138569   1.248   1.302   9.943  1.2404 -0.2440  0.2341
12084SOL    HW238570   1.314   1.383   9.834 -0.4039  2.3957  1.1080
12085SOL     OW38571   0.544   5.309   7.175  0.0690  0.5541  0.3109
12085SOL    HW138572   0.485   5.270   7.239  0.6826  2.6503  2.2990
12085SOL    HW238573   0.626   5.321   7.223  0.4285  2.5906 -0.7228
12086SOL     OW38574   7.725   3.931   6.147 -0.3227 -0.1291 -0.7033
12086SOL    HW138575   7.668   3.861   6.177  0.2000 -0.0145  0.6388
12086SOL    HW238576   7.669   4.008   6.142 -0.0199  0.4699  2.5227
12087SOL     OW38577   6.868   4.910   1.536 -0.0883  0.1888  0.2050
12087SOL    HW138578   6.860   4.828   1.488  0.6722  0.5958 -0.6466
12087SOL    HW238579   6.911   4.969   1.475  0.0295  1.0104  1.0660
12088SOL     OW38580  10.438   3.106   2.954 -0.0297 -0.3330  0.0973
12088SOL    HW138581  10.496   3.047   3.002  1.1241  0.1425 -0.6695
12088SOL    HW238582  10.385   3.047   2.900  0.4996 -0.7272 -0.0079
12089SOL     OW38583   6.700   4.598   9.542 -0.5401 -0.0405 -0.0194
12089SOL    HW138584   6.740   4.513   9.525  0.3028  0.6933 -2.0513
12089SOL    HW238585   6.607   4.579   9.554 -0.3134 -1.2740 -0.0445
12090SOL     OW38586   5.212   3.605   9.206 -0.2648  0.2463  0.5930
12090SOL    HW138587   5.139   3.663   9.227 -1.2746 -0.0181 -1.8038
12090SOL    HW238588   5.176   3.543   9.143  1.8165 -0.3965 -0.0572
12091SOL     OW38589   0.764   6.340   7.331  0.2678 -0.5817 -0.3107
12091SOL    HW138590   0.761   6.355   7.426 -1.1696 -0.6200 -0.3212
12091SOL    HW238591   0.806   6.419   7.296  1.2532 -0.7792  0.3836
12092SOL     OW38592   9.935   5.354   9.212  0.0706 -0.1105 -0.2903
12092SOL    HW138593   9.987   5.295   9.266  2.0383  0.0171 -1.9219
12092SOL    HW238594   9.978   5.439   9.219 -1.2159  0.5552 -0.0007
12093SOL     OW38595   5.002   8.657   8.929 -0.6548 -0.1457 -0.0459
12093SOL    HW138596   4.924   8.644   8.875 -1.3885  1.2085  0.6401
12093SOL    HW238597   5.067   8.695   8.870 -1.6119  1.7940  0.0845
12094SOL     OW38598   8.467  10.265   4.538 -0.4866  0.0728 -0.4025
12094SOL    HW138599   8.450  10.230   4.451  1.7261  1.0000 -1.3016
12094SOL    HW238600   8.546  10.218   4.567 -1.0026  0.0182  0.9597
12095SOL     OW38601   5.376   6.742   5.809  0.6131  0.0175 -0.8855
12095SOL    HW138602   5.403   6.681   5.877  0.2525  1.4161  0.5626
12095SOL    HW238603   5.298   6.703   5.770  0.5810 -0.5919 -0.2185
12096SOL     OW38604   1.586   2.006   1.020  0.1782 -0.3308  0.4900
12096SOL    HW138605   1.539   2.089   1.029 -0.3342 -0.4883 -0.5475
12096SOL    HW238606   1.573   1.962   1.103 -0.2427  0.2823  0.7550
12097SOL     OW38607   7.453   5.137   9.734  0.1848  0.0331  0.2716
12097SOL    HW138608   7.480   5.186   9.656  1.0541  0.0837  0.5877
12097SOL    HW238609   7.524   5.075   9.749 -0.9029 -1.3643 -0.1253
12098SOL     OW38610   5.001   1.878   6.868  0.2969  0.2750 -0.0269
12098SOL    HW138611   5.075   1.818   6.864  1.0988  1.2800 -0.9575
12098SOL    HW238612   5.037   1.958   6.907  0.1242  1.3163 -1.8915
12099SOL     OW38613   1.988   2.501   9.041  0.0369  0.1079  0.0372
12099SOL    HW138614   2.006   2.566   8.974 -1.2417 -0.0946 -0.5276
12099SOL    HW238615   2.074   2.466   9.065  0.6368  1.2848 -0.3684
12100SOL     OW38616   1.201  10.355  10.008 -0.3916  0.6116 -0.8119
12100SOL    HW138617   1.247  10.398  10.081  1.4535 -0.4753 -1.2808
12100SOL    HW238618   1.143  10.292  10.051 -1.0278  1.5578 -0.2285
12101SOL     OW38619   6.968   7.280   2.059  0.2841  0.1087  0.4735
12101SOL    HW138620   7.011   7.251   2.139 -1.4338  0.5489  1.6257
12101SOL    HW238621   6.876   7.289   2.084 -0.2962  0.2856 -1.5557
12102SOL     OW38622   6.223   9.426   6.577 -0.7719  0.2907  0.5370
12102SOL    HW138623   6.241   9.354   6.638  0.6780  1.0423  1.0177
12102SOL    HW238624   6.179   9.383   6.503 -0.9558 -0.9049  1.3035
12103SOL     OW38625   3.485   6.268   5.395 -0.2787  0.2658 -0.2202
12103SOL    HW138626   3.576   6.274   5.425 -0.0110  0.1146 -0.9618
12103SOL    HW238627   3.484   6.190   5.339 -0.5469  0.9751 -1.2401
12104SOL     OW38628   6.275   5.753   9.018  0.2788  0.1394 -0.5104
12104SOL    HW138629   6.261   5.839   9.059  1.1285  0.2992 -0.5532
12104SOL    HW238630   6.254   5.690   9.087 -1.0956  0.3509 -0.6998
12105SOL     OW38631   6.654   3.232   4.316  0.2535 -0.1411  0.7768
12105SOL    HW138632   6.694   3.276   4.241 -0.7003 -0.1276  0.2661
12105SOL    HW238633   6.611   3.302   4.365 -0.0804 -0.3149  0.7277
12106SOL     OW38634   5.700   2.079  10.102 -0.2846 -0.3959  0.2566
12106SOL    HW138635   5.721   2.139  10.031  0.0924 -0.9926 -0.1349
12106SOL    HW238636   5.629   2.024  10.067 -3.1668  2.0304  1.7671
12107SOL     OW38637   3.849   4.760   4.877 -0.1257  0.4868 -0.2958
12107SOL    HW138638   3.812   4.673   4.890  1.2722  0.1755  2.0037
12107SOL    HW238639   3.822   4.784   4.788 -1.0547 -2.0081 -0.7662
12108SOL     OW38640   5.427   9.529  10.361  0.5603  0.1388 -0.0678
12108SOL    HW138641   5.406   9.450  10.411 -2.0013  1.1113  0.5462
12108SOL    HW238642   5.448   9.594  10.428 -0.5756  0.8151 -0.3375
12109SOL     OW38643   3.917   0.724   7.151 -0.3127 -0.2593  0.0553
12109SOL    HW138644   3.964   0.795   7.106 -0.0792  0.2399  1.0642
12109SOL    HW238645   3.875   0.675   7.080  1.2077 -0.3484 -0.8294
12110SOL     OW38646   3.056   6.388   1.760 -0.0831  0.8320 -0.3138
12110SOL    HW138647   3.017   6.475   1.765 -2.2051  0.1112 -2.5953
12110SOL    HW238648   2.984   6.330   1.738  1.4138 -1.4255  0.3708
12111SOL     OW38649   3.218   7.644   0.386 -0.8980  0.3560 -0.1225
12111SOL    HW138650   3.250   7.669   0.472  0.7871  0.3270 -0.7168
12111SOL    HW238651   3.288   7.593   0.347 -2.0272 -0.4937 -1.1463
12112SOL     OW38652   2.785   2.029  10.404  0.0160  0.0105 -0.6684
12112SOL    HW138653   2.863   2.053  10.453  0.3542 -0.6564 -0.8664
12112SOL    HW238654   2.715   2.083  10.441  0.1351 -0.8916  0.9550
12113SOL     OW38655   1.971   8.608   7.691  0.7064 -0.1838 -0.2073
12113SOL    HW138656   1.903   8.580   7.630  0.8251 -0.9857  0.0302
12113SOL    HW238657   1.934   8.687   7.733 -0.0694 -0.6011 -0.0864
12114SOL     OW38658   7.953   4.333   6.068 -0.2893  0.5234 -0.2951
12114SOL    HW138659   8.003   4.270   6.119  2.3233  0.5634 -2.5576
12114SOL    HW238660   7.908   4.280   6.002  0.5567  0.8359 -1.1461
12115SOL     OW38661   3.591   0.439   9.119 -0.4029 -0.4055  0.3909
12115SOL    HW138662   3.547   0.483   9.192  0.6236  0.6350  0.4093
12115SOL    HW238663   3.560   0.483   9.041 -0.7307 -0.8471  0.2684
12116SOL     OW38664   6.057   5.790   1.504 -0.7168 -0.5332 -0.1559
12116SOL    HW138665   6.007   5.814   1.427  0.1290  0.4622 -0.4106
12116SOL    HW238666   6.085   5.873   1.542 -1.8615 -0.9529  1.7562
12117SOL     OW38667   0.172  10.400  10.036 -0.6127  0.0685  0.2960
12117SOL    HW138668   0.084  10.389   9.999 -0.3086 -1.6650 -0.0027
12117SOL    HW238669   0.227  10.341   9.985  0.0578 -1.5143  2.6654
12118SOL     OW38670   7.139  10.009   5.175  0.3924  0.0839  0.2431
12118SOL    HW138671   7.079   9.989   5.104  0.7127  1.2230 -0.3725
12118SOL    HW238672   7.145  10.105   5.175  3.0685 -0.0089 -0.4823
12119SOL     OW38673   2.083   4.712   2.025 -0.9773  0.0435  0.5804
12119SOL    HW138674   2.084   4.764   2.105  0.7582  0.5782  0.2622
12119SOL    HW238675   2.014   4.647   2.039 -0.2416 -0.3446  2.8031
12120SOL     OW38676   9.014   7.919   2.981 -0.0607 -0.1145 -0.0581
12120SOL    HW138677   9.106   7.899   2.997  0.2822  1.6667  0.4393
12120SOL    HW238678   9.015   8.006   2.942 -1.3748 -1.2329 -2.8294
12121SOL     OW38679   1.770   4.293   4.392  0.5734 -0.1443  0.5333
12121SOL    HW138680   1.723   4.336   4.464  1.1294  1.4927 -0.0324
12121SOL    HW238681   1.863   4.307   4.412  0.7951 -1.3567  0.4554
12122SOL     OW38682   8.134   1.801   5.673 -0.1173 -0.5310 -0.2235
12122SOL    HW138683   8.109   1.711   5.652  1.7189 -0.8136 -1.4385
12122SOL    HW238684   8.215   1.791   5.724  1.7821  0.4085 -2.8462
12123SOL     OW38685   2.363   0.116   5.359 -0.2816 -0.1692  0.1481
12123SOL    HW138686   2.429   0.075   5.303  1.1691 -1.1482  2.4289
12123SOL    HW238687   2.281   0.072   5.336  0.3237 -0.7861 -0.9136
12124SOL     OW38688   7.663   4.741   1.453 -0.2847 -0.4046 -0.5175
12124SOL    HW138689   7.737   4.690   1.488 -0.5550 -0.0235  0.6737
12124SOL    HW238690   7.669   4.825   1.498 -1.5010 -0.4014 -0.3293
12125SOL     OW38691   8.017   0.362   7.179 -0.0235  0.2778  0.3334
12125SOL    HW138692   7.947   0.361   7.114 -1.3164  1.3591  1.6210
12125SOL    HW238693   8.078   0.294   7.151  0.9852  2.5000 -3.5553
12126SOL     OW38694   7.710   2.881   2.470  0.1663 -0.2324  0.1124
12126SOL    HW138695   7.681   2.972   2.476 -0.2190 -0.3521  0.0824
12126SOL    HW238696   7.639   2.830   2.509  0.9746 -0.4256  1.4077
12127SOL     OW38697   5.432   8.729   7.106  0.2216  0.4025  0.7277
12127SOL    HW138698   5.520   8.712   7.140 -0.4144 -1.1705  1.6807
12127SOL    HW238699   5.373   8.705   7.178 -1.0196  0.9200 -0.0818
12128SOL     OW38700   7.078   1.505   3.981 -0.1060  0.0085 -0.0489
12128SOL    HW138701   7.089   1.479   4.072 -2.4854 -2.0739 -0.2398
12128SOL    HW238702   7.013   1.576   3.983 -2.6101 -2.1109 -0.1741
12129SOL     OW38703   3.397   4.427   5.581  0.2233 -0.0574 -0.1900
12129SOL    HW138704   3.387   4.517   5.550 -0.0619 -0.1053 -0.2343
12129SOL    HW238705   3.402   4.435   5.677 -0.0398 -0.0190 -0.1811
12130SOL     OW38706   4.589   5.482   8.097 -0.3243 -0.1569 -0.5265
12130SOL    HW138707   4.626   5.568   8.117 -0.5840  0.0623 -0.9631
12130SOL    HW238708   4.496   5.491   8.114 -0.3513 -0.3529 -0.5693
12131SOL     OW38709   5.946   5.451   0.327  0.2642 -0.5288 -0.4808
12131SOL    HW138710   5.856   5.449   0.358  1.0185  0.8394  2.1255
12131SOL    HW238711   5.997   5.477   0.403  2.3703  3.2033 -2.8122
12132SOL     OW38712   3.518   6.617  10.391  0.8405 -0.2400  0.0781
12132SOL    HW138713   3.551   6.688  10.446  0.0139 -0.1700  0.5018
12132SOL    HW238714   3.505   6.656  10.305 -0.9347  0.5198  0.6471
12133SOL     OW38715   8.416   3.672   2.789  0.1607 -0.2633  0.3158
12133SOL    HW138716   8.329   3.700   2.760  0.8351  1.3015 -0.3157
12133SOL    HW238717   8.453   3.749   2.832  1.2630 -0.8832  0.5161
12134SOL     OW38718   6.476   2.445   5.092 -0.4086 -0.2056  0.0024
12134SOL    HW138719   6.385   2.448   5.061 -0.0729  1.8375 -0.9407
12134SOL    HW238720   6.487   2.524   5.144  0.9902 -0.1139 -0.3848
12135SOL     OW38721   7.615   2.208   5.723  0.1840  0.3516 -0.2080
12135SOL    HW138722   7.618   2.301   5.698  0.9804  0.0470 -1.3046
12135SOL    HW238723   7.545   2.203   5.788  0.0810  1.7088 -0.1888
12136SOL     OW38724   2.957   1.386   6.323  0.6905  0.0051  0.2436
12136SOL    HW138725   2.891   1.448   6.354  0.4820  0.7530 -1.5293
12136SOL    HW238726   3.018   1.377   6.395 -0.3743  0.7180  1.2663
12137SOL     OW38727   0.578   5.265   7.539  0.6407 -0.2490  0.2700
12137SOL    HW138728   0.514   5.330   7.510 -0.5446 -1.3446  0.3929
12137SOL    HW238729   0.661   5.296   7.502 -0.4402 -0.4316 -2.5346
12138SOL     OW38730   1.341   9.883   7.946 -0.3316  0.5205 -0.1268
12138SOL    HW138731   1.365   9.976   7.954  1.0667  0.0285  2.2916
12138SOL    HW238732   1.314   9.857   8.034 -0.5485 -1.4249 -0.7199
12139SOL     OW38733   7.136   1.586   2.428 -0.4829 -0.1089  0.4440
12139SOL    HW138734   7.175   1.674   2.425 -1.0701  0.2025  1.4663
12139SOL    HW238735   7.179   1.543   2.501 -1.0533 -0.2364  0.7170
12140SOL     OW38736   3.509   0.424   5.010  0.4651  0.2593  0.3775
12140SOL    HW138737   3.530   0.336   4.978  1.1373  0.4512  0.2820
12140SOL    HW238738   3.579   0.480   4.976  0.4641  0.7006  1.0718
12141SOL     OW38739   5.573   0.957   0.049 -0.0047 -0.3597 -0.3297
12141SOL    HW138740   5.539   1.046   0.056  0.6032 -0.1093 -0.4527
12141SOL    HW238741   5.580   0.927   0.139  1.8834  0.5451 -0.1269
12142SOL     OW38742   0.906   3.390   6.290 -0.1363 -0.2402  0.1582
12142SOL    HW138743   0.992   3.404   6.250  0.1528 -1.4144  0.3436
12142SOL    HW238744   0.849   3.453   6.246  1.2490  2.1743  1.6133
12143SOL     OW38745   5.859  10.141   2.736 -0.4745 -0.2492  0.2340
12143SOL    HW138746   5.874  10.228   2.773  0.5025 -0.3807  0.1739
12143SOL    HW238747   5.947  10.106   2.719 -0.8306 -1.4164  0.6551
12144SOL     OW38748   9.784   9.489   7.898  0.5139 -0.0372 -0.4024
12144SOL    HW138749   9.841   9.412   7.897 -0.7416 -1.0014 -0.5149
12144SOL    HW238750   9.699   9.456   7.870  0.2206  1.6489 -1.6483
12145SOL     OW38751   3.475   3.406   1.196  0.4690 -0.1970  0.3679
12145SOL    HW138752   3.510   3.495   1.200 -1.3718  0.5249  1.5432
12145SOL    HW238753   3.452   3.385   1.286 -0.5980 -1.2280 -0.1255
12146SOL     OW38754   6.453  10.323  10.154  0.2372 -0.1963 -0.2671
12146SOL    HW138755   6.492  10.411  10.155 -0.6430  0.2043 -0.2191
12146SOL    HW238756   6.364  10.336  10.186  0.1342 -1.1347 -0.1430
12147SOL     OW38757   5.764  10.178   6.226  0.5917  1.0679 -0.1448
12147SOL    HW138758   5.768  10.144   6.137  1.7984 -0.6455  0.5118
12147SOL    HW238759   5.692  10.241   6.224 -2.7556 -2.3717 -1.2378
12148SOL     OW38760   9.980   3.689   6.453  0.3283  0.1442 -0.5091
12148SOL    HW138761   9.996   3.776   6.417 -0.0029  0.9622  1.2240
12148SOL    HW238762  10.067   3.654   6.471  0.6499 -1.2064 -3.9933
12149SOL     OW38763   3.327   7.986   2.393  0.0156  0.9973  0.1243
12149SOL    HW138764   3.398   7.925   2.373  0.6699  1.6566  0.3871
12149SOL    HW238765   3.276   7.942   2.460 -0.5330  0.0046 -0.8986
12150SOL     OW38766   5.848   8.780   3.084 -0.3136 -0.1784  0.1914
12150SOL    HW138767   5.914   8.764   3.152  0.2437 -0.1833 -0.3388
12150SOL    HW238768   5.822   8.693   3.055 -0.7278 -0.1810  0.5598
12151SOL     OW38769   4.408   4.306   2.547  0.0373 -0.3418  0.8977
12151SOL    HW138770   4.345   4.279   2.480  0.8964  1.3992 -0.6898
12151SOL    HW238771   4.438   4.223   2.586  2.7722 -2.0440 -3.9087
12152SOL     OW38772   3.049   7.506   9.843  0.0214 -0.5344 -0.1768
12152SOL    HW138773   3.138   7.513   9.810  0.3968 -1.1572  0.6575
12152SOL    HW238774   3.046   7.567   9.917  0.1135 -1.3343  0.5047
12153SOL     OW38775   8.863   1.594   4.746 -0.4282  0.2215  0.2415
12153SOL    HW138776   8.809   1.519   4.771  0.7478 -0.2601  1.4284
12153SOL    HW238777   8.953   1.566   4.762  0.0339  2.0008  1.0440
12154SOL     OW38778   9.603   8.551   2.112 -0.0764 -0.4232  0.0791
12154SOL    HW138779   9.676   8.592   2.066 -0.7694  0.4231 -0.3100
12154SOL    HW238780   9.631   8.461   2.127  0.6887 -0.3590 -0.8671
12155SOL     OW38781   9.784   4.112   5.890 -0.2087  0.6490  0.9037
12155SOL    HW138782   9.689   4.105   5.886 -0.2984  1.6451 -3.1019
12155SOL    HW238783   9.801   4.207   5.893  0.6122  0.5431  0.1991
12156SOL     OW38784   5.586   8.573   6.805 -0.1571 -0.1371  0.3846
12156SOL    HW138785   5.585   8.515   6.729  1.7195  1.6744 -1.1311
12156SOL    HW238786   5.588   8.514   6.881 -1.6420 -1.9858 -0.9369
12157SOL     OW38787   2.502   8.663   7.300  0.4582 -0.8398  0.1471
12157SOL    HW138788   2.453   8.628   7.374  2.0004 -1.2721  1.0101
12157SOL    HW238789   2.578   8.707   7.340  0.5294  0.2449 -1.1049
12158SOL     OW38790   1.285   7.096   1.929 -0.2607  0.5415  0.0489
12158SOL    HW138791   1.354   7.157   1.906  0.1356  0.1650  0.2243
12158SOL    HW238792   1.325   7.037   1.993 -0.4838 -0.2145 -0.4994
12159SOL     OW38793   1.875   6.770   3.010  0.2309  0.1793 -0.3535
12159SOL    HW138794   1.875   6.732   2.922 -0.9258  0.3709 -0.4507
12159SOL    HW238795   1.849   6.861   2.998  0.1798  0.2413  0.1813
12160SOL     OW38796   3.743   4.675   3.589  0.0303 -0.3656  0.1288
12160SOL    HW138797   3.755   4.763   3.624  1.6090  0.8081 -2.9916
12160SOL    HW238798   3.655   4.676   3.552 -1.3725 -1.3935  3.0959
12161SOL     OW38799   4.275   6.035   8.019 -0.9201 -0.2217 -0.7296
12161SOL    HW138800   4.253   6.028   8.112  0.5043 -1.1189 -0.4316
12161SOL    HW238801   4.213   6.099   7.985 -0.0743  1.8607  1.3181
12162SOL     OW38802   9.127   6.549   9.615 -0.1676 -0.3578 -0.1881
12162SOL    HW138803   9.082   6.472   9.651  0.4114 -0.2148  0.8768
12162SOL    HW238804   9.063   6.588   9.555 -1.5766 -0.0313  1.4510
12163SOL     OW38805   1.797   2.465   6.642  1.0862 -0.1674 -0.2124
12163SOL    HW138806   1.833   2.428   6.561  0.9243 -0.6578 -0.0631
12163SOL    HW238807   1.781   2.389   6.698  0.4359  0.1025 -0.0287
12164SOL     OW38808  10.104   9.312   6.943 -0.0718 -0.5321  0.4313
12164SOL    HW138809  10.048   9.366   6.886  2.1672  1.1342 -0.3287
12164SOL    HW238810  10.146   9.250   6.883  1.1018  0.1838  0.4940
12165SOL     OW38811  10.382   1.345   2.114  0.4696  0.3350 -0.2443
12165SOL    HW138812  10.442   1.306   2.177 -0.4611 -0.7230  0.0058
12165SOL    HW238813  10.417   1.320   2.028  1.5685  1.5266 -0.1764
12166SOL     OW38814   6.020   8.600   4.138 -0.1332 -0.3546 -0.4383
12166SOL    HW138815   6.032   8.515   4.096  0.2155 -1.3873  1.5917
12166SOL    HW238816   5.926   8.613   4.140 -0.1552 -0.2475 -1.5341
12167SOL     OW38817   0.324   8.302   2.054  0.7531  0.1475  0.3061
12167SOL    HW138818   0.315   8.215   2.015  0.8499  0.1284  0.3284
12167SOL    HW238819   0.392   8.292   2.120 -1.0925 -0.4247  2.2159
12168SOL     OW38820   5.305  10.371   7.515  0.4431 -0.5074  0.4646
12168SOL    HW138821   5.265  10.336   7.435  2.2647  0.5839 -1.0319
12168SOL    HW238822   5.255  10.451   7.533  2.2558  1.3605 -1.9323
12169SOL     OW38823   1.245   3.835   5.944 -0.3173  0.4284 -0.0259
12169SOL    HW138824   1.198   3.918   5.953  0.5487  1.0589 -1.0306
12169SOL    HW238825   1.304   3.833   6.020  0.1439  1.0895 -0.3453
12170SOL     OW38826   3.231   0.133   8.133  0.1883 -0.0380 -0.4778
12170SOL    HW138827   3.312   0.090   8.106 -0.3675 -1.5482  0.1729
12170SOL    HW238828   3.169   0.062   8.150 -0.7394  0.9996  0.7756
12171SOL     OW38829   9.438  10.495   2.580 -0.1379 -0.2537  0.6692
12171SOL    HW138830   9.409  10.458   2.663 -0.0536 -2.5722 -0.2644
12171SOL    HW238831   9.374  10.463   2.516  0.5677  0.3344 -0.3623
12172SOL     OW38832   7.254   1.825   6.654 -0.2782  0.1584  0.2528
12172SOL    HW138833   7.246   1.746   6.708  1.9344 -0.3220 -0.0225
12172SOL    HW238834   7.198   1.809   6.579  0.7620 -1.5648 -0.2108
12173SOL     OW38835   4.839   0.642  10.519 -0.2928  0.3231  0.3526
12173SOL    HW138836   4.756   0.655  10.472 -0.8832  0.2334  1.3444
12173SOL    HW238837   4.864   0.552  10.501  0.7051  0.9498 -1.6679
12174SOL     OW38838   8.984   3.085   2.642 -0.1803 -0.1864  0.6354
12174SOL    HW138839   8.905   3.091   2.696 -1.8010 -0.8871 -1.4890
12174SOL    HW238840   9.015   2.995   2.655 -1.1003 -0.6487 -0.2403
12175SOL     OW38841  10.016   0.035   5.609  0.0577  0.0146  0.3745
12175SOL    HW138842   9.993   0.015   5.518  0.2472 -0.1802  0.3693
12175SOL    HW238843  10.040  -0.049   5.647 -0.9519 -0.0519  0.8839
12176SOL     OW38844   1.131   6.690   8.137 -0.2950  0.1780 -0.1484
12176SOL    HW138845   1.160   6.753   8.071  1.3376  0.3806  0.7274
12176SOL    HW238846   1.107   6.612   8.086  0.4390  0.5017 -1.0213
12177SOL     OW38847   6.185   5.929   8.457 -0.0898 -0.4307 -0.4824
12177SOL    HW138848   6.188   5.875   8.536  0.0265 -0.4724 -0.5164
12177SOL    HW238849   6.165   6.017   8.489  0.8673 -0.2634 -0.3226
12178SOL     OW38850   0.552   6.445   7.154  0.2532 -0.1191 -0.1951
12178SOL    HW138851   0.573   6.374   7.215 -2.2114 -0.4031  0.4435
12178SOL    HW238852   0.531   6.520   7.211 -1.8061 -0.3039 -0.6424
12179SOL     OW38853   6.203   3.574   6.237  0.1399  0.4165  0.9070
12179SOL    HW138854   6.215   3.484   6.267  0.2313 -0.0004 -0.3114
12179SOL    HW238855   6.292   3.608   6.227  0.1776 -0.1060 -0.7375
12180SOL     OW38856   7.672   6.881   2.154  0.4197 -0.1881 -0.2007
12180SOL    HW138857   7.636   6.843   2.234  0.4378 -1.4603 -0.7776
12180SOL    HW238858   7.636   6.828   2.083  2.0998 -0.4628 -0.9043
12181SOL     OW38859   0.511   5.480   1.120 -0.3141  0.0453  0.0972
12181SOL    HW138860   0.452   5.408   1.140 -0.9397  0.2748 -0.8274
12181SOL    HW238861   0.565   5.447   1.048 -1.4416  0.8945 -1.1862
12182SOL     OW38862   0.118   7.357   1.806  0.1512  0.4242  0.4419
12182SOL    HW138863   0.197   7.336   1.855 -0.6441 -1.7697  0.8680
12182SOL    HW238864   0.062   7.402   1.869  0.6098  1.0719  0.4135
12183SOL     OW38865   3.607   9.944   8.197 -0.7345 -0.2376  0.8557
12183SOL    HW138866   3.569  10.022   8.157  0.0344 -0.4404 -0.3409
12183SOL    HW238867   3.683   9.975   8.245 -0.4352 -0.2426  0.3889
12184SOL     OW38868   8.164   4.661   2.959  0.0411  0.0895  0.0201
12184SOL    HW138869   8.237   4.709   2.999 -1.7456  3.6824 -0.6558
12184SOL    HW238870   8.174   4.571   2.992  3.6794  0.7986  1.3503
12185SOL     OW38871  10.586   0.597   2.017  0.7335  0.1602 -0.0682
12185SOL    HW138872  10.577   0.639   1.932 -2.0735 -1.7476 -0.8451
12185SOL    HW238873  10.593   0.670   2.079  0.8933  1.6251 -1.7496
12186SOL     OW38874   8.742   3.440  10.371  0.0396  0.1777  0.2375
12186SOL    HW138875   8.751   3.534  10.387 -0.4769  0.0500  1.3914
12186SOL    HW238876   8.706   3.434  10.283 -0.5556  1.0913  0.4092
12187SOL     OW38877   5.855   2.795   7.728 -0.1293 -0.4073 -0.0110
12187SOL    HW138878   5.806   2.817   7.806 -1.2309 -0.6187 -0.6236
12187SOL    HW238879   5.908   2.873   7.709 -0.4194 -0.0819  0.5145
12188SOL     OW38880   8.862   9.015   3.585 -0.1059  0.3561 -0.1875
12188SOL    HW138881   8.850   9.058   3.500 -0.2601 -1.8505 -1.3508
12188SOL    HW238882   8.773   8.992   3.612  0.0818 -0.8852 -0.5421
12189SOL     OW38883   6.005   1.867   1.821 -0.3386 -0.2237 -0.5605
12189SOL    HW138884   6.021   1.839   1.731  0.1083  1.7196 -1.1490
12189SOL    HW238885   6.063   1.813   1.874  0.3111 -0.5418 -1.5727
12190SOL     OW38886   6.566   6.647   6.083  0.4467 -0.0513 -0.0171
12190SOL    HW138887   6.597   6.720   6.136 -1.0773  0.0564  0.7761
12190SOL    HW238888   6.526   6.688   6.007 -3.4479  0.2776  1.9736
12191SOL     OW38889   7.128   0.365  10.555  0.0816  0.5652  0.3679
12191SOL    HW138890   7.161   0.294  10.500  1.4767  1.6379 -0.2391
12191SOL    HW238891   7.086   0.426  10.495 -2.0153 -0.1745  0.9969
12192SOL     OW38892   9.828   3.300   7.951 -0.3966 -0.3755 -0.1730
12192SOL    HW138893   9.843   3.251   8.032  0.4304 -1.0769 -0.7342
12192SOL    HW238894   9.787   3.236   7.892 -1.5520  0.2998 -0.1183
12193SOL     OW38895   4.562  10.141   4.571 -0.4821  0.1594 -0.4133
12193SOL    HW138896   4.545  10.205   4.502 -0.3924  1.7100  0.9549
12193SOL    HW238897   4.485  10.084   4.571 -1.2974  1.2405 -0.6022
12194SOL     OW38898   0.804   4.608   4.203 -0.0610  0.4655 -0.1730
12194SOL    HW138899   0.893   4.631   4.231  0.6317 -1.9029 -0.2736
12194SOL    HW238900   0.753   4.604   4.284  0.2029  0.6709  0.0057
12195SOL     OW38901   4.559   9.952   9.313  1.1094 -0.2742 -0.3528
12195SOL    HW138902   4.489  10.011   9.284  2.3379  2.8631  2.4413
12195SOL    HW238903   4.520   9.901   9.383  0.6966 -1.1213 -1.1827
12196SOL     OW38904   4.748   3.669   6.929  0.5388 -0.4248  0.0850
12196SOL    HW138905   4.808   3.731   6.971 -0.0373 -0.9066  1.6488
12196SOL    HW238906   4.767   3.585   6.970  0.0138 -0.9415 -0.6991
12197SOL     OW38907   1.419   0.738   0.379 -0.0594  0.2317  0.0579
12197SOL    HW138908   1.512   0.745   0.358 -0.5040  0.6950 -1.9161
12197SOL    HW238909   1.413   0.766   0.471  1.7070  0.3103  0.1779
12198SOL     OW38910   1.625   5.254   7.600 -0.0009 -0.1483 -0.3379
12198SOL    HW138911   1.558   5.282   7.662  0.3256  1.4721 -0.6881
12198SOL    HW238912   1.673   5.185   7.647  0.5458  1.3652  1.4446
12199SOL     OW38913   3.694   2.032   5.784  0.1669  0.4656 -0.0960
12199SOL    HW138914   3.708   2.037   5.879 -0.8489 -1.2294  0.1861
12199SOL    HW238915   3.769   2.078   5.747  0.6194  1.1226  1.5200
12200SOL     OW38916   2.737   4.266   8.222  0.3836 -0.1138 -0.2421
12200SOL    HW138917   2.745   4.358   8.247  0.5655  0.1237 -1.1284
12200SOL    HW238918   2.743   4.217   8.304 -0.2502  0.6925  0.2921
12201SOL     OW38919   4.042   5.460   1.220 -0.6505  0.2390 -0.0110
12201SOL    HW138920   3.980   5.500   1.160 -0.6395  0.4588  0.1231
12201SOL    HW238921   4.000   5.467   1.306 -0.2458  0.7907  0.1480
12202SOL     OW38922   1.240   3.517   5.931 -0.0617  0.1101  0.3064
12202SOL    HW138923   1.233   3.611   5.913  3.6218  0.4718  0.0926
12202SOL    HW238924   1.222   3.475   5.847 -1.7609  0.5738  0.4072
12203SOL     OW38925   4.974   2.748   4.166 -0.4548 -0.2278 -0.5084
12203SOL    HW138926   5.052   2.791   4.202 -0.3795 -1.3799  0.7847
12203SOL    HW238927   4.916   2.819   4.141 -0.9745  0.7126  2.9403
12204SOL     OW38928   3.339  10.016   6.573 -0.0224  0.1592 -0.4876
12204SOL    HW138929   3.286  10.051   6.644 -0.1238  0.0971 -0.5329
12204SOL    HW238930   3.381  10.093   6.534  0.4801  0.1394 -0.0020
12205SOL     OW38931   4.517   2.553   3.794  0.6672 -0.2643  0.6525
12205SOL    HW138932   4.548   2.517   3.877 -2.2041 -0.8624  1.5907
12205SOL    HW238933   4.515   2.479   3.734  2.4145  0.0985  0.0947
12206SOL     OW38934   4.036   0.207   5.256  1.0666 -0.4212 -0.0428
12206SOL    HW138935   3.981   0.139   5.216  0.4298 -0.0359  0.1663
12206SOL    HW238936   4.010   0.288   5.212  1.9358 -0.3259 -0.4025
12207SOL     OW38937   2.624   2.391   8.712  0.1607  0.0126 -0.3586
12207SOL    HW138938   2.657   2.480   8.705  0.1210  0.0470 -0.1379
12207SOL    HW238939   2.557   2.384   8.645  2.4644 -0.9248 -2.7199
12208SOL     OW38940   9.596   0.678   9.225  0.7947 -0.1432 -0.8126
12208SOL    HW138941   9.505   0.652   9.241  0.9368  0.8666  2.4504
12208SOL    HW238942   9.594   0.720   9.139 -2.4098  2.0858  0.1590
12209SOL     OW38943   8.831   6.728   3.806  0.8920 -0.0916 -0.0664
12209SOL    HW138944   8.919   6.693   3.819  0.7757 -0.8634 -1.2347
12209SOL    HW238945   8.819   6.730   3.711 -0.4917 -0.3784  0.0787
12210SOL     OW38946   5.947   6.689   1.809  0.6260 -0.2232  0.0331
12210SOL    HW138947   5.983   6.612   1.765 -0.9824  0.2968 -2.4196
12210SOL    HW238948   5.919   6.747   1.737 -0.9759  1.2910  1.7653
12211SOL     OW38949   6.472   0.736   3.601  0.7012  0.2364  0.0049
12211SOL    HW138950   6.479   0.798   3.529 -0.9132  0.2288 -0.1805
12211SOL    HW238951   6.415   0.779   3.665  0.3879 -0.6295  0.3234
12212SOL     OW38952   1.281   6.896   4.313 -0.2562 -0.4000  0.0024
12212SOL    HW138953   1.216   6.964   4.296  0.0697 -0.1232 -0.1417
12212SOL    HW238954   1.339   6.934   4.379  1.2563  0.3385 -1.6773
12213SOL     OW38955   5.353   9.914   7.407  0.0942 -0.6521  0.3457
12213SOL    HW138956   5.384   9.828   7.435 -0.4887 -1.3713 -1.1342
12213SOL    HW238957   5.284   9.895   7.344  0.1139  0.9136 -0.1733
12214SOL     OW38958   4.903   2.387   2.783  0.1181  0.1103 -0.5318
12214SOL    HW138959   4.844   2.453   2.819 -2.0437 -2.0461  0.0936
12214SOL    HW238960   4.934   2.337   2.859 -0.0477 -0.9821 -1.1607
12215SOL     OW38961   9.892   6.785   0.738 -0.3150  0.2409 -0.1473
12215SOL    HW138962   9.930   6.747   0.658 -3.0482  1.1787 -2.0533
12215SOL    HW238963   9.893   6.713   0.801  0.6978 -0.9632 -1.4556
12216SOL     OW38964   1.656   7.491   4.859 -0.1192  0.1421 -0.0123
12216SOL    HW138965   1.647   7.586   4.872  2.5912  0.4391  0.2538
12216SOL    HW238966   1.692   7.458   4.941 -0.1740 -0.9897 -0.4236
12217SOL     OW38967   9.586   7.029   3.706  0.2494  0.8067 -0.3477
12217SOL    HW138968   9.615   7.085   3.778 -1.0258  0.1850  0.7034
12217SOL    HW238969   9.603   6.940   3.737 -1.8973  0.4570 -0.0238
12218SOL     OW38970  10.195   1.031   2.629 -0.0968  0.5223 -0.3826
12218SOL    HW138971  10.171   1.032   2.536  1.3382  0.6920 -0.7847
12218SOL    HW238972  10.150   1.108   2.665  0.9854  1.7085 -1.4264
12219SOL     OW38973   2.231  10.514   8.137 -0.1089  0.1232  0.1637
12219SOL    HW138974   2.175  10.528   8.060  0.1017  0.0638  0.0000
12219SOL    HW238975   2.169  10.499   8.209 -0.3248  1.0071  0.1751
12220SOL     OW38976   2.561   2.334   7.419 -0.0275  0.1925 -0.1585
12220SOL    HW138977   2.571   2.315   7.326 -0.3397 -0.9871  0.0283
12220SOL    HW238978   2.641   2.381   7.443  0.2155  0.1914 -0.9446
12221SOL     OW38979   9.163   9.002   5.957  0.1758 -0.6775 -0.1289
12221SOL    HW138980   9.221   8.968   6.025 -1.4009  0.4221  1.8752
12221SOL    HW238981   9.194   9.092   5.943  0.2018 -0.7494 -0.5514
12222SOL     OW38982   0.948   8.494   0.600  0.6793  1.0468 -0.3753
12222SOL    HW138983   0.902   8.417   0.634  2.0692  0.2742 -0.1878
12222SOL    HW238984   0.885   8.566   0.610 -0.2165  0.1672  0.5159
12223SOL     OW38985   3.933   4.701   2.194 -0.0907  0.6059 -0.4365
12223SOL    HW138986   3.942   4.651   2.112 -0.5431 -0.2839  0.0384
12223SOL    HW238987   3.839   4.719   2.200 -0.2505 -0.4022  0.4809
12224SOL     OW38988   1.974   6.264   9.371  0.0915  0.2175  0.4622
12224SOL    HW138989   2.039   6.307   9.316  0.8175 -0.9927  0.3236
12224SOL    HW238990   1.984   6.171   9.350 -1.6653  0.0013  0.4683
12225SOL     OW38991   7.389   8.227   2.381  0.1426  0.6138  0.6816
12225SOL    HW138992   7.483   8.220   2.370  0.2394 -0.4646  1.9121
12225SOL    HW238993   7.377   8.240   2.476 -1.0690 -3.7170  1.3188
12226SOL     OW38994  10.524   2.200   5.060 -0.4584 -0.3614 -0.4350
12226SOL    HW138995  10.555   2.244   4.980  3.1119 -2.0917 -0.2084
12226SOL    HW238996  10.596   2.211   5.122 -1.3660 -2.6306  1.1345
12227SOL     OW38997   0.014   6.410   1.967  0.1142  0.2496  0.6294
12227SOL    HW138998  -0.005   6.317   1.959  2.5913 -0.7823  4.1638
12227SOL    HW238999  -0.067   6.448   2.003 -0.7085 -0.6205 -0.2577
12228SOL     OW39000   3.366   7.841   8.004  0.1660  0.2556 -0.3029
12228SOL    HW139001   3.303   7.906   8.036  0.1414 -0.0650  0.3115
12228SOL    HW239002   3.444   7.854   8.058  0.0346 -0.4629  0.0761
12229SOL     OW39003   8.782   1.265   8.517 -0.3514  0.2280  0.2952
12229SOL    HW139004   8.768   1.200   8.587  2.5047 -0.6319  0.2171
12229SOL    HW239005   8.829   1.216   8.449  1.3343  2.2177 -0.0435
12230SOL     OW39006   8.968   1.103   3.309 -0.2959  0.0729 -0.4869
12230SOL    HW139007   9.006   1.074   3.392 -0.0751 -0.0794 -0.6406
12230SOL    HW239008   8.881   1.134   3.333 -0.0323  0.5455 -0.1095
12231SOL     OW39009   5.945   3.377   6.483 -0.6923  0.0283  0.1155
12231SOL    HW139010   5.960   3.302   6.425  0.9445  0.8917 -0.6488
12231SOL    HW239011   5.909   3.339   6.563 -0.5527 -1.4898 -0.5096
12232SOL     OW39012   7.308   7.835   3.737  0.1395  0.0866  0.3932
12232SOL    HW139013   7.245   7.783   3.786  0.2545 -0.2095  0.2287
12232SOL    HW239014   7.335   7.779   3.665 -0.7038  0.8417 -0.5523
12233SOL     OW39015   3.996   0.929   2.920 -0.3071  0.4991 -0.2162
12233SOL    HW139016   4.052   0.887   2.986 -1.2493 -0.5790 -0.0566
12233SOL    HW239017   4.032   1.017   2.910  1.0928  0.0070  0.2397
12234SOL     OW39018   7.213   8.792   2.304 -0.2108  0.3854  1.3416
12234SOL    HW139019   7.179   8.874   2.269  0.9510  1.2334  2.1283
12234SOL    HW239020   7.151   8.726   2.274 -1.2391  1.5557  0.7909
12235SOL     OW39021  10.149   9.085   7.251 -0.0639 -0.3820  0.1676
12235SOL    HW139022  10.107   9.135   7.321 -1.3136  1.0092 -1.4720
12235SOL    HW239023  10.238   9.119   7.247 -0.4740  0.7050  0.0315
12236SOL     OW39024   5.680   9.523   9.558 -0.2065 -0.8477  0.5922
12236SOL    HW139025   5.628   9.518   9.478  1.0079  0.6918 -0.3619
12236SOL    HW239026   5.671   9.614   9.587  2.5394 -0.2466 -0.1216
12237SOL     OW39027  10.142   2.223   6.695 -0.2636  0.4915  0.0441
12237SOL    HW139028  10.069   2.231   6.634  0.3643 -1.7508 -1.1073
12237SOL    HW239029  10.176   2.135   6.680  1.7673  0.9464  1.5953
12238SOL     OW39030   4.365   5.200   8.111 -0.0218  0.2624 -0.0643
12238SOL    HW139031   4.351   5.291   8.085  0.4790  0.3027 -0.2044
12238SOL    HW239032   4.283   5.174   8.153 -0.7738  0.2721 -1.4713
12239SOL     OW39033   5.692   4.912   0.928  0.5844  0.2058  0.2154
12239SOL    HW139034   5.639   4.912   0.848 -0.7820  1.5126  1.0784
12239SOL    HW239035   5.719   5.003   0.939  0.9892 -0.0122  1.1102
12240SOL     OW39036   9.203   9.941   1.616 -0.0779 -0.2786  0.3560
12240SOL    HW139037   9.289   9.970   1.586 -0.2081 -1.2976 -1.0996
12240SOL    HW239038   9.217   9.913   1.707  0.7901  0.9213  0.6193
12241SOL     OW39039   4.392   2.513   9.356 -0.2198 -0.3381  0.2541
12241SOL    HW139040   4.403   2.570   9.432  1.1145  0.6871 -0.6563
12241SOL    HW239041   4.298   2.493   9.354 -0.7409  1.8281  0.6253
12242SOL     OW39042   3.994   9.950   1.820 -0.1073  0.1956 -0.8991
12242SOL    HW139043   3.931   9.884   1.791  0.3994 -0.5934 -0.2475
12242SOL    HW239044   4.070   9.938   1.763  0.5932 -0.8533  0.2040
12243SOL     OW39045   1.570   0.760   6.544  0.0898 -0.2344  0.1997
12243SOL    HW139046   1.616   0.764   6.627 -1.0117 -0.7089  0.8621
12243SOL    HW239047   1.623   0.811   6.484  0.9392  0.0579  1.1806
12244SOL     OW39048   3.898   6.197   3.433 -0.2648  0.4359 -0.1910
12244SOL    HW139049   3.834   6.252   3.479 -0.7139 -0.1567 -0.0832
12244SOL    HW239050   3.960   6.258   3.394 -0.3829  0.9867  0.4744
12245SOL     OW39051   1.065   2.103   5.330  0.2537 -0.5967  0.1689
12245SOL    HW139052   1.112   2.051   5.265 -0.1118 -0.9915  0.2108
12245SOL    HW239053   1.116   2.183   5.339  0.0409 -0.3097 -0.9748
12246SOL     OW39054   6.099   5.178   2.483  0.0693 -0.0183  0.9398
12246SOL    HW139055   6.030   5.112   2.483 -0.1867  0.2453  1.1102
12246SOL    HW239056   6.094   5.218   2.570  0.7341 -0.3082  1.1155
12247SOL     OW39057   9.429   6.424  10.300 -0.2352 -0.1047  0.1748
12247SOL    HW139058   9.400   6.370  10.374  2.9365  0.4332  1.9725
12247SOL    HW239059   9.463   6.362  10.236 -3.3715 -0.6058 -1.2053
12248SOL     OW39060   0.937   9.679   9.510  0.6517  0.1776 -0.1005
12248SOL    HW139061   0.962   9.662   9.419  0.8292 -1.2424  0.1929
12248SOL    HW239062   0.843   9.694   9.506  0.3654 -1.4996 -0.3416
12249SOL     OW39063   9.798   1.229   1.045 -0.5636 -0.7528 -0.1729
12249SOL    HW139064   9.828   1.320   1.054  0.9467 -1.2867  0.3640
12249SOL    HW239065   9.713   1.228   1.090  0.0732  0.0573  1.1109
12250SOL     OW39066   1.366   8.055   6.680  0.1706  0.0113  0.1240
12250SOL    HW139067   1.314   8.019   6.608  0.4623 -0.1006 -0.0291
12250SOL    HW239068   1.373   8.148   6.660 -2.9010  0.7733  1.8910
12251SOL     OW39069   0.693   0.215   7.208 -0.1972  0.9353  0.5661
12251SOL    HW139070   0.713   0.150   7.140 -1.1173  0.2586  0.9135
12251SOL    HW239071   0.778   0.249   7.235  0.1400  2.4614 -2.0876
12252SOL     OW39072   2.625   4.495   1.976  0.2116 -0.3879 -0.2193
12252SOL    HW139073   2.541   4.483   2.020 -0.1326 -1.4544 -1.1047
12252SOL    HW239074   2.601   4.512   1.885  0.9473 -0.4954 -0.4395
12253SOL     OW39075   0.807   0.413   4.749  0.0479  0.3879  0.5526
12253SOL    HW139076   0.733   0.424   4.809 -0.3057  0.7122  0.0619
12253SOL    HW239077   0.883   0.445   4.798  0.0907 -1.0908  1.5294
12254SOL     OW39078   9.408   9.941   4.261  0.4675 -0.2129  0.2657
12254SOL    HW139079   9.502   9.925   4.251  0.5650 -0.6184  1.5395
12254SOL    HW239080   9.393   9.930   4.355 -0.5126  1.7831  0.3792
12255SOL     OW39081   8.365   1.121   0.405 -0.1514  0.1365 -0.1523
12255SOL    HW139082   8.319   1.133   0.488  0.2872  1.6340 -0.0960
12255SOL    HW239083   8.352   1.028   0.383 -1.4912  0.0611  0.8531
12256SOL     OW39084   6.678   2.251   5.646  0.0106 -0.2953 -0.0146
12256SOL    HW139085   6.676   2.159   5.674  1.4319 -0.0810  0.8890
12256SOL    HW239086   6.771   2.271   5.636 -0.2650  1.1493  0.1416
12257SOL     OW39087  10.397   3.392   8.970  0.4879  0.1036  0.0565
12257SOL    HW139088  10.309   3.377   9.005  0.1848  1.5203 -0.0292
12257SOL    HW239089  10.393   3.358   8.880 -0.5028  1.5927 -0.5103
12258SOL     OW39090   9.353   1.097   6.200 -0.1016  0.1467  0.0968
12258SOL    HW139091   9.387   1.182   6.171 -1.9681 -0.0301 -2.9641
12258SOL    HW239092   9.366   1.039   6.126 -2.3670 -1.2304  0.7099
12259SOL     OW39093   3.237   5.235   3.591  0.0257 -0.0392  0.2647
12259SOL    HW139094   3.164   5.213   3.648  0.9089  1.9227  2.3513
12259SOL    HW239095   3.201   5.299   3.529 -1.1542 -2.8184 -2.1278
12260SOL     OW39096   2.451   3.141   6.428  0.1175 -0.0487  0.2574
12260SOL    HW139097   2.446   3.148   6.333  0.8202 -1.5695  0.0791
12260SOL    HW239098   2.543   3.159   6.448  0.1130 -0.3729  0.5762
12261SOL     OW39099  10.479   7.219   7.984 -0.1127 -0.5935  0.3035
12261SOL    HW139100  10.411   7.214   7.916 -1.6185  0.2565  1.6695
12261SOL    HW239101  10.465   7.141   8.037 -0.8473  0.2033  1.3050
12262SOL     OW39102   1.883   7.059   8.615 -0.4165 -0.0642  0.2617
12262SOL    HW139103   1.966   7.105   8.619 -0.5847  0.2145  0.5800
12262SOL    HW239104   1.905   6.967   8.630  0.0007 -0.1852 -0.9806
12263SOL     OW39105   5.892   2.633   2.230  0.1447 -0.1397  0.8386
12263SOL    HW139106   5.834   2.669   2.164  1.3688 -0.0445 -0.2245
12263SOL    HW239107   5.904   2.703   2.294 -0.7141 -0.0929  0.9592
12264SOL     OW39108   5.711   3.916   9.427  0.0571 -0.4656 -0.3721
12264SOL    HW139109   5.732   3.823   9.430  0.6846 -0.3028  1.5556
12264SOL    HW239110   5.670   3.934   9.512 -2.9654  0.3927 -1.9011
12265SOL     OW39111   7.712   2.195   7.526 -0.1368  0.1924  0.1844
12265SOL    HW139112   7.783   2.155   7.475 -1.0552 -0.1327 -0.8806
12265SOL    HW239113   7.665   2.249   7.463 -2.0317 -1.1623  0.3664
12266SOL     OW39114   0.264   7.745   0.060 -0.3491  0.1589  0.1073
12266SOL    HW139115   0.346   7.700   0.036 -0.0318  0.0537  1.2831
12266SOL    HW239116   0.201   7.717  -0.006  0.1224 -1.1862  0.1835
12267SOL     OW39117  10.525   0.104   9.659  0.0322 -0.4254 -0.3331
12267SOL    HW139118  10.539   0.198   9.644 -0.2867 -0.3283 -0.0323
12267SOL    HW239119  10.430   0.094   9.658 -0.0788 -0.3219  2.0234
12268SOL     OW39120   9.563   8.636   2.357 -0.4818 -0.2967 -0.5031
12268SOL    HW139121   9.509   8.705   2.318  0.8849  0.2133 -1.5972
12268SOL    HW239122   9.565   8.567   2.291 -1.0414 -0.9776  0.1791
12269SOL     OW39123   9.432   7.414   6.934 -0.3561  0.0600  0.0242
12269SOL    HW139124   9.449   7.378   6.848 -0.3263  0.8580 -0.3131
12269SOL    HW239125   9.427   7.509   6.920  2.1091  0.4522  1.2762
12270SOL     OW39126  10.079   7.156   9.428  1.0830 -0.0929 -0.2017
12270SOL    HW139127  10.018   7.203   9.372  0.5798  0.5917  0.8902
12270SOL    HW239128  10.154   7.138   9.371  0.2861 -0.0871 -1.2902
12271SOL     OW39129   1.796   7.405   7.811  0.1549 -0.4111  0.0168
12271SOL    HW139130   1.792   7.394   7.906 -1.1874  0.3931  0.0749
12271SOL    HW239131   1.822   7.496   7.798  0.1008 -0.4485 -0.3871
12272SOL     OW39132   1.270   1.482   5.136  0.6327 -0.2014 -0.2250
12272SOL    HW139133   1.278   1.430   5.216  0.5278  0.4924  0.2440
12272SOL    HW239134   1.329   1.439   5.074  0.9819 -0.5505  0.3372
12273SOL     OW39135   6.307   7.307   7.456 -0.7923  0.0207  0.0500
12273SOL    HW139136   6.379   7.257   7.492 -1.8270 -0.9064  0.8931
12273SOL    HW239137   6.347   7.361   7.387  0.7014 -0.3592  0.5882
12274SOL     OW39138  10.141   1.052   3.436 -0.1356 -0.0443 -0.8640
12274SOL    HW139139  10.123   0.983   3.499  0.3437 -0.0889 -0.7716
12274SOL    HW239140  10.099   1.022   3.355  0.3199 -0.5881 -0.9065
12275SOL     OW39141   8.248   1.373   3.689 -0.1156  0.0437 -0.4183
12275SOL    HW139142   8.334   1.331   3.688  0.3184  0.9029 -1.9027
12275SOL    HW239143   8.202   1.333   3.616 -1.1841 -0.7436  0.6398
12276SOL     OW39144   0.992   8.907   2.758 -0.3350  0.5992 -0.5136
12276SOL    HW139145   1.001   8.988   2.809  0.3549 -0.5454  1.2779
12276SOL    HW239146   1.029   8.839   2.815 -0.8953 -0.9826 -1.9743
12277SOL     OW39147   3.583   3.574   0.775 -0.1533 -0.5279  0.0749
12277SOL    HW139148   3.646   3.554   0.845 -1.4917 -1.2458  1.1239
12277SOL    HW239149   3.580   3.494   0.722 -0.8105 -0.8294  0.5493
12278SOL     OW39150   5.455   2.413   9.887  0.0676  0.0661  0.9127
12278SOL    HW139151   5.476   2.391   9.978 -1.0879  1.0173  1.4481
12278SOL    HW239152   5.527   2.469   9.859  0.4642 -0.2788  1.2282
12279SOL     OW39153   9.534  10.496   5.040 -0.5462 -0.2808  0.1892
12279SOL    HW139154   9.501  10.535   4.959  1.5289  1.0264 -0.1153
12279SOL    HW239155   9.499  10.407   5.040 -2.0020  0.2329 -1.2612
12280SOL     OW39156   7.716   7.634   5.351 -0.0216 -0.0034 -0.7049
12280SOL    HW139157   7.665   7.620   5.271 -1.3748 -0.1591  0.1495
12280SOL    HW239158   7.802   7.664   5.320 -0.2423 -0.8432 -2.2310
12281SOL     OW39159   1.493   4.460   9.626 -0.2313  0.6058  0.3367
12281SOL    HW139160   1.557   4.399   9.663  1.1446  0.7666 -1.5863
12281SOL    HW239161   1.539   4.544   9.624  0.1743  0.4281 -2.4390
12282SOL     OW39162   6.282   8.424   8.435 -0.4739 -0.4414  0.1192
12282SOL    HW139163   6.204   8.457   8.391 -0.5497  0.6874  1.0404
12282SOL    HW239164   6.349   8.422   8.367 -0.2320  2.4892  0.1445
12283SOL     OW39165   5.608   0.437   5.849  0.4165 -0.4484  0.3700
12283SOL    HW139166   5.565   0.434   5.764 -0.7283  1.0027  0.8527
12283SOL    HW239167   5.614   0.345   5.877 -2.4997 -0.7352  0.3100
12284SOL     OW39168   1.649   5.533   5.426 -0.2634  0.9918  0.2933
12284SOL    HW139169   1.735   5.545   5.467 -0.8123  1.3257  1.3735
12284SOL    HW239170   1.595   5.492   5.494 -0.6176 -0.4464 -0.7940
12285SOL     OW39171   8.091   4.608   3.655  0.2338 -0.1079 -0.0391
12285SOL    HW139172   8.176   4.614   3.611  0.9989 -1.1136  1.2404
12285SOL    HW239173   8.109   4.633   3.745 -0.8174 -0.4542  0.2728
12286SOL     OW39174   4.104   2.442   9.807  0.0789 -0.2474  0.6672
12286SOL    HW139175   4.054   2.418   9.885 -0.6570 -1.4595 -0.1332
12286SOL    HW239176   4.071   2.383   9.739  0.4340  1.0206 -0.6541
12287SOL     OW39177   2.594   4.857   0.522 -0.1657  0.0218  0.1192
12287SOL    HW139178   2.547   4.868   0.439  2.6148 -1.3396 -1.7735
12287SOL    HW239179   2.678   4.901   0.509  1.0217 -1.6746  1.5635
12288SOL     OW39180   4.925   0.819   1.513  0.2036  0.2637  0.6439
12288SOL    HW139181   4.979   0.759   1.563  2.0465  2.2396  1.2084
12288SOL    HW239182   4.835   0.796   1.535  0.8897 -1.2680  1.9929
12289SOL     OW39183   4.140   4.764   1.566  0.0587 -0.2410  0.1763
12289SOL    HW139184   4.168   4.672   1.572 -0.1267 -0.2225  1.7467
12289SOL    HW239185   4.182   4.806   1.641 -1.3864  0.5418  0.5718
12290SOL     OW39186   5.206   1.038  10.486 -0.1133  0.4786 -0.1663
12290SOL    HW139187   5.168   1.120  10.517  0.5784  1.9487 -2.9100
12290SOL    HW239188   5.135   0.975  10.492 -1.3335  1.8219 -0.0440
12291SOL     OW39189   7.624   4.914   7.770 -0.1305 -0.7860  0.1398
12291SOL    HW139190   7.615   4.838   7.828  0.6494 -0.9704  0.0401
12291SOL    HW239191   7.602   4.880   7.683  0.4111 -0.9573  0.0642
12292SOL     OW39192   6.362   7.785   2.485  0.0991 -0.7871 -0.3181
12292SOL    HW139193   6.284   7.829   2.521  0.6875 -0.4898  0.6231
12292SOL    HW239194   6.334   7.754   2.399 -0.6768  0.4589 -0.5440
12293SOL     OW39195   9.317   4.284   5.436 -0.6371  0.1816 -0.5646
12293SOL    HW139196   9.301   4.298   5.530 -0.7452  1.0443 -0.7003
12293SOL    HW239197   9.359   4.365   5.407 -0.4027 -0.1721 -1.2184
12294SOL     OW39198   4.051   3.785   7.546  0.5530  0.2685 -0.1254
12294SOL    HW139199   4.064   3.854   7.481  0.2271 -0.8697 -1.4252
12294SOL    HW239200   3.980   3.731   7.511 -0.0692 -0.0184  1.4839
12295SOL     OW39201   7.618   7.300   6.043  0.0769 -0.3455  0.1570
12295SOL    HW139202   7.677   7.245   5.993  1.4041  1.2947 -0.1345
12295SOL    HW239203   7.585   7.243   6.113  1.8590 -1.3443  0.2160
12296SOL     OW39204   9.990   7.286  10.303  0.1331 -0.8942  0.4797
12296SOL    HW139205  10.076   7.327  10.301  0.0276 -0.6901 -0.5474
12296SOL    HW239206  10.004   7.198  10.269  0.0683 -1.1442  1.0833
12297SOL     OW39207   9.448   2.805   7.714  0.2935  0.0915 -0.1946
12297SOL    HW139208   9.375   2.806   7.652  0.1587  0.1846 -0.0351
12297SOL    HW239209   9.443   2.890   7.759 -0.9675 -0.8045  1.5118
12298SOL     OW39210   5.126   0.010   3.877  0.3441  0.0310  0.4025
12298SOL    HW139211   5.062  -0.062   3.877  0.6521 -0.2827  1.6720
12298SOL    HW239212   5.113   0.055   3.794  0.6158 -1.9274 -0.7644
12299SOL     OW39213   7.495   7.000   4.123  0.3066 -0.3985 -0.1769
12299SOL    HW139214   7.430   6.983   4.192 -0.0952  1.1361 -0.1245
12299SOL    HW239215   7.455   7.069   4.070  1.4573 -0.1667 -0.7667
12300SOL     OW39216   6.855   0.490   6.231 -0.1702 -0.2243 -0.3074
12300SOL    HW139217   6.802   0.481   6.310  0.0700 -2.1644 -0.3169
12300SOL    HW239218   6.809   0.554   6.178 -1.6690 -0.7245  0.3467
12301SOL     OW39219   8.897   5.283   2.253  0.6234 -0.1751 -0.1410
12301SOL    HW139220   8.863   5.305   2.167  1.0548 -0.5873 -0.4156
12301SOL    HW239221   8.928   5.367   2.288 -1.5723  0.4193  0.5441
12302SOL     OW39222   9.187   3.923   7.779 -0.1312 -0.1683  0.0643
12302SOL    HW139223   9.282   3.927   7.794 -0.2717 -0.0414  0.9446
12302SOL    HW239224   9.153   3.878   7.856 -1.0534  1.9107  0.9146
12303SOL     OW39225  10.078   8.108   8.676  0.3088 -0.1006 -0.6201
12303SOL    HW139226  10.087   8.203   8.672  0.3009 -0.1187 -1.1491
12303SOL    HW239227  10.167   8.075   8.682  0.2612  0.0042  1.5737
12304SOL     OW39228   2.773   2.821   6.847  0.6616 -0.7608 -0.3683
12304SOL    HW139229   2.817   2.894   6.804  0.4372  0.1873  0.9544
12304SOL    HW239230   2.835   2.748   6.840  0.7229 -0.5907 -2.0528
12305SOL     OW39231   2.520  10.313   1.011  0.0648  0.4911 -0.2419
12305SOL    HW139232   2.468  10.369   1.069  0.0252  0.2050 -0.0023
12305SOL    HW239233   2.553  10.244   1.067 -2.2826 -1.4345 -1.0576
12306SOL     OW39234   2.848   5.970   0.436 -0.3570  0.6434 -0.3237
12306SOL    HW139235   2.771   6.023   0.455 -0.2694  0.4690  0.5606
12306SOL    HW239236   2.921   6.031   0.440  0.0467  0.1568  3.0523
12307SOL     OW39237   0.443   0.041   2.681 -1.0383 -0.0944  0.1589
12307SOL    HW139238   0.375   0.099   2.646 -0.5904 -0.1340 -0.8109
12307SOL    HW239239   0.395  -0.027   2.728 -1.5827  0.9019  1.0834
12308SOL     OW39240   5.914   0.644   6.090 -0.3505  0.2142 -0.1223
12308SOL    HW139241   5.976   0.621   6.020  0.4273 -1.6929  1.1023
12308SOL    HW239242   5.836   0.674   6.044  0.2160 -0.7364 -1.8029
12309SOL     OW39243   0.713   1.350   7.799  0.0949 -0.4675  0.2887
12309SOL    HW139244   0.626   1.360   7.761 -0.0560 -0.8330  0.5329
12309SOL    HW239245   0.703   1.377   7.890 -0.0010 -1.4666  0.5836
12310SOL     OW39246   5.655   2.830   5.052 -0.2026 -0.1494  0.4801
12310SOL    HW139247   5.713   2.838   5.127 -0.8719 -0.6507  1.0588
12310SOL    HW239248   5.673   2.909   4.999  0.8768 -0.2262  0.7201
12311SOL     OW39249   7.998   2.285   3.067  0.1215 -0.0870  0.3145
12311SOL    HW139250   8.023   2.355   3.126 -1.4454  0.7348  0.0544
12311SOL    HW239251   8.029   2.205   3.109  0.1845  0.5922  1.5829
12312SOL     OW39252   7.099   1.045   9.977 -0.0507  0.1767  0.7080
12312SOL    HW139253   7.173   1.016   9.923 -0.7075 -1.1744  0.4835
12312SOL    HW239254   7.122   1.134  10.003  1.6068 -0.1670  0.5651
12313SOL     OW39255   7.986   3.679   9.371 -0.0017  0.0839  0.1673
12313SOL    HW139256   8.064   3.643   9.412  0.6524  3.0552  1.7981
12313SOL    HW239257   7.914   3.624   9.403  1.2040 -1.8998 -0.3475
12314SOL     OW39258   1.383   9.039   4.053  0.0996  0.2757  0.3564
12314SOL    HW139259   1.414   9.125   4.081  0.7442 -0.9389  4.0032
12314SOL    HW239260   1.462   8.992   4.026  0.2245 -0.0564  1.2480
12315SOL     OW39261   5.715   1.210  10.465  0.1412 -0.1530  0.0529
12315SOL    HW139262   5.740   1.264  10.390  0.8335  0.1970  0.5289
12315SOL    HW239263   5.644   1.154  10.432  0.3861  0.0495 -0.8342
12316SOL     OW39264   7.907   5.586   5.499  0.0738 -0.0545 -0.2840
12316SOL    HW139265   7.914   5.490   5.499 -0.0324 -0.0631 -0.9283
12316SOL    HW239266   7.932   5.612   5.410  0.1421  0.5219 -0.0990
12317SOL     OW39267   5.829   3.129   2.988 -0.4266  0.0861 -0.4799
12317SOL    HW139268   5.795   3.049   2.948 -1.6448  0.2480  0.1923
12317SOL    HW239269   5.914   3.104   3.024  0.1708 -0.3570 -2.0905
12318SOL     OW39270   6.635   1.529   4.913  0.7801  0.0113  0.7471
12318SOL    HW139271   6.637   1.434   4.920 -1.5496 -0.2306 -0.6372
12318SOL    HW239272   6.597   1.559   4.996  0.5952 -0.3713  0.8011
12319SOL     OW39273   0.704   6.106   2.265 -0.3427  0.2253  0.6536
12319SOL    HW139274   0.646   6.118   2.190 -0.7969 -4.5032 -0.0442
12319SOL    HW239275   0.647   6.075   2.335  0.7941 -0.9979  1.0810
12320SOL     OW39276  10.269   9.670   2.415  0.0654  0.5724  0.2902
12320SOL    HW139277  10.183   9.699   2.447  0.4590  1.2925  0.7396
12320SOL    HW239278  10.283   9.586   2.458 -1.8873 -1.2951 -2.4078
12321SOL     OW39279   8.045   5.530   0.251 -0.1529 -0.2292 -0.9014
12321SOL    HW139280   8.075   5.440   0.263 -1.4912 -0.9698 -2.6984
12321SOL    HW239281   8.077   5.576   0.329  0.2038 -2.3366  0.2843
12322SOL     OW39282   5.825   3.292   5.124 -0.4718  0.3796  0.3962
12322SOL    HW139283   5.747   3.309   5.072  0.4148  0.6202 -0.8877
12322SOL    HW239284   5.834   3.197   5.124 -0.6758  0.3599  0.4117
12323SOL     OW39285   5.708   7.029   4.871 -0.0709  0.2555  0.6418
12323SOL    HW139286   5.687   6.969   4.942 -0.9606  0.5941  0.6738
12323SOL    HW239287   5.708   6.974   4.793 -0.2980  0.1012  0.7498
12324SOL     OW39288   7.763   0.621   4.460  0.0057  0.0457  0.2401
12324SOL    HW139289   7.788   0.709   4.490  1.2208 -0.1958 -0.0340
12324SOL    HW239290   7.698   0.592   4.524  1.0645  0.3607  1.5066
12325SOL     OW39291   1.059   9.561   5.938 -0.1435  0.2745 -0.2921
12325SOL    HW139292   1.078   9.596   5.851 -1.6579  1.9818  0.0171
12325SOL    HW239293   1.082   9.632   5.998 -0.3593 -0.4080  0.6237
12326SOL     OW39294   0.338  10.057   8.581  0.5597 -0.3138 -0.0377
12326SOL    HW139295   0.331  10.144   8.541  1.9845 -1.0942 -2.1587
12326SOL    HW239296   0.343  10.075   8.675 -0.4635  1.7905 -0.3194
12327SOL     OW39297  10.325   0.333   1.472 -0.3443  0.4801  0.2028
12327SOL    HW139298  10.304   0.254   1.422 -0.7214  0.6604  0.0740
12327SOL    HW239299  10.329   0.303   1.563  1.5602 -0.0996 -0.0220
12328SOL     OW39300   1.830   6.126   1.602 -0.1188 -0.1257  0.2751
12328SOL    HW139301   1.875   6.080   1.530  0.6789  0.3745  0.4432
12328SOL    HW239302   1.897   6.135   1.670 -0.1926  1.4440  0.1719
12329SOL     OW39303   8.162   8.793   6.704 -0.5853  0.4573 -0.1173
12329SOL    HW139304   8.202   8.706   6.696 -2.3478 -0.3275 -1.0092
12329SOL    HW239305   8.146   8.820   6.613 -0.0469  1.7396  0.1516
12330SOL     OW39306   6.602   6.119   3.035 -0.3936 -0.7988  0.4111
12330SOL    HW139307   6.566   6.176   2.966 -1.0789 -0.5803  0.9369
12330SOL    HW239308   6.684   6.087   2.999 -1.4363 -1.8755 -1.1337
12331SOL     OW39309   0.677   3.102   4.810 -0.1947 -0.6023 -0.1694
12331SOL    HW139310   0.657   3.110   4.717  3.5077  2.6165 -0.9574
12331SOL    HW239311   0.773   3.100   4.814 -0.0883  1.7456  3.5866
12332SOL     OW39312  10.449   3.856   0.998  0.7745  0.6821  0.4766
12332SOL    HW139313  10.535   3.836   0.961  0.6032  0.4042  0.2253
12332SOL    HW239314  10.387   3.828   0.931  0.4936  1.0842  0.5684
12333SOL     OW39315   4.866   7.484   3.850 -0.6524  0.2754  0.0475
12333SOL    HW139316   4.871   7.573   3.814  2.2871  0.8326  1.4793
12333SOL    HW239317   4.939   7.438   3.809 -0.9264 -0.8747  0.8182
12334SOL     OW39318   8.163   0.692   0.847  0.0478 -0.2270  0.3727
12334SOL    HW139319   8.249   0.683   0.887 -0.2747 -1.7779  0.7837
12334SOL    HW239320   8.146   0.607   0.807 -1.9815 -0.5157  1.7047
12335SOL     OW39321  10.038   5.248   6.055  0.6104 -0.2206  0.6588
12335SOL    HW139322  10.040   5.294   5.971 -1.4002 -1.9148 -0.4012
12335SOL    HW239323  10.085   5.166   6.039  0.9787 -0.1838  1.4686
12336SOL     OW39324   5.325   9.884   4.645 -0.1652  0.4501  0.0521
12336SOL    HW139325   5.318   9.846   4.558  0.5331 -0.4744  0.3806
12336SOL    HW239326   5.286   9.819   4.703 -0.1797  0.8383  0.4866
12337SOL     OW39327  10.572   7.419   3.568  0.6005 -0.3837 -0.6844
12337SOL    HW139328  10.478   7.434   3.569  0.9009  2.1342 -2.0731
12337SOL    HW239329  10.598   7.432   3.477  2.3535 -0.5821 -0.2556
12338SOL     OW39330   3.370   6.960   6.219  0.1047 -0.8400  0.1903
12338SOL    HW139331   3.371   7.049   6.183 -0.0516 -0.9526 -0.1020
12338SOL    HW239332   3.391   6.971   6.311  0.3293 -0.5226  0.1039
12339SOL     OW39333   2.812   0.560   1.508 -0.3395  1.1197  0.0462
12339SOL    HW139334   2.851   0.516   1.584  0.4151 -0.1216 -1.0338
12339SOL    HW239335   2.752   0.495   1.471  0.0316  1.3498 -0.9898
12340SOL     OW39336   8.946   0.099   8.583 -0.6504  0.0407  0.4260
12340SOL    HW139337   9.011   0.164   8.610 -2.5986  1.9440  0.8246
12340SOL    HW239338   8.961   0.024   8.641 -0.4526  1.4474  2.2708
12341SOL     OW39339   1.677   7.093   9.765 -0.3236  0.3477  0.0641
12341SOL    HW139340   1.641   7.143   9.838 -0.2556  0.5355 -0.0295
12341SOL    HW239341   1.745   7.039   9.804 -0.6149  0.0938  0.2191
12342SOL     OW39342   5.488   5.332   0.785  0.1749  0.7404 -0.0796
12342SOL    HW139343   5.488   5.416   0.830 -1.1602  1.1901 -0.8704
12342SOL    HW239344   5.421   5.280   0.829 -0.4758  0.8480 -0.9124
12343SOL     OW39345   3.332   3.345   5.667 -0.0774 -0.3215 -0.1144
12343SOL    HW139346   3.261   3.364   5.606  0.3209  1.9928  0.0593
12343SOL    HW239347   3.404   3.401   5.639  0.4034  0.1883  1.9506
12344SOL     OW39348   0.830   7.185   7.767  0.5833 -0.1655 -0.0694
12344SOL    HW139349   0.735   7.179   7.754  0.4875 -1.6411  1.0649
12344SOL    HW239350   0.866   7.191   7.678 -0.4510 -1.9603 -0.6506
12345SOL     OW39351   9.179   1.329   4.071 -0.9253  0.0455 -0.6200
12345SOL    HW139352   9.147   1.400   4.127  1.5689 -0.8374  2.1889
12345SOL    HW239353   9.113   1.260   4.081 -0.4152 -0.2030  1.6344
12346SOL     OW39354   4.970   2.423   1.411 -0.0155  0.0529  0.1629
12346SOL    HW139355   4.891   2.472   1.433  1.2581  1.3554  2.2020
12346SOL    HW239356   4.947   2.332   1.426 -1.0924  0.4183  0.8365
12347SOL     OW39357   9.771   7.619   1.537 -0.6208  0.6923  0.0237
12347SOL    HW139358   9.799   7.575   1.456  0.4804 -0.4242  0.9646
12347SOL    HW239359   9.753   7.709   1.511  2.9772  1.3131 -0.9180
12348SOL     OW39360  10.270   3.453   2.497 -0.0682  0.1168  0.2786
12348SOL    HW139361  10.230   3.369   2.476  1.3122 -0.8724  1.4320
12348SOL    HW239362  10.286   3.494   2.411 -0.8258 -0.7478 -0.2908
12349SOL     OW39363   6.159   2.299   1.824  0.5454  0.4092  0.1812
12349SOL    HW139364   6.193   2.361   1.760 -0.4409  0.3870 -0.3891
12349SOL    HW239365   6.221   2.227   1.824  1.1453  0.9183  0.0801
12350SOL     OW39366   3.792   2.180   4.120  0.0088 -0.1191 -0.1586
12350SOL    HW139367   3.851   2.129   4.064  0.5210 -0.3605  0.5863
12350SOL    HW239368   3.781   2.127   4.199 -1.9589 -0.5055 -0.6490
12351SOL     OW39369   9.524   1.805   1.401 -0.0689 -0.3487  0.2829
12351SOL    HW139370   9.527   1.886   1.350 -2.5601 -0.5918 -0.3722
12351SOL    HW239371   9.534   1.736   1.335 -0.0512 -0.6078  0.5599
12352SOL     OW39372   4.998   5.248   2.563 -0.6536  0.1458 -0.2339
12352SOL    HW139373   5.008   5.320   2.500  1.0816  0.2667  0.1351
12352SOL    HW239374   4.905   5.227   2.560 -0.7132  0.4840 -2.4600
12353SOL     OW39375   0.760   7.634   1.081 -0.4115 -0.4913  0.3890
12353SOL    HW139376   0.832   7.676   1.127  0.3430  0.2449 -1.4025
12353SOL    HW239377   0.735   7.696   1.013 -1.0544 -1.8166 -0.6224
12354SOL     OW39378   0.814   2.047   3.057 -0.3902  0.4995 -0.7492
12354SOL    HW139379   0.732   2.015   3.095 -0.0626 -0.7403 -1.0401
12354SOL    HW239380   0.787   2.113   2.994 -1.0863  0.9505  0.0094
12355SOL     OW39381   2.503   4.551   4.026  0.4184 -0.9260 -0.3948
12355SOL    HW139382   2.559   4.492   4.077  1.7067  1.1363  0.7715
12355SOL    HW239383   2.414   4.521   4.043  0.9612 -1.8213  1.0961
12356SOL     OW39384   6.713   0.739   3.389 -0.4400  0.2017  0.0713
12356SOL    HW139385   6.719   0.704   3.478 -2.1160  0.2636  0.2371
12356SOL    HW239386   6.648   0.809   3.394  0.1544  0.8781 -1.0180
12357SOL     OW39387   5.823  10.260  10.433 -0.0063 -0.4029 -0.0849
12357SOL    HW139388   5.820  10.165  10.443  0.0653 -0.4514 -0.5027
12357SOL    HW239389   5.734  10.289  10.454 -0.1721 -0.6169 -0.4803
12358SOL     OW39390   0.560   5.280   2.298 -0.1312 -0.6412 -0.2083
12358SOL    HW139391   0.588   5.196   2.260  0.2624 -0.7118  0.2166
12358SOL    HW239392   0.641   5.331   2.303 -0.5160  0.1055 -1.2768
12359SOL     OW39393   3.302   6.215   7.642  0.5831 -0.1754  0.0438
12359SOL    HW139394   3.260   6.203   7.727  1.4451  0.8791  0.6480
12359SOL    HW239395   3.282   6.306   7.619  2.9130  0.5290  0.5959
12360SOL     OW39396  10.095   2.068   2.797 -0.2362  0.0137  0.5812
12360SOL    HW139397  10.012   2.034   2.830 -1.5838  0.2853 -2.2798
12360SOL    HW239398  10.073   2.154   2.761  1.4006  0.2822  0.1247
12361SOL     OW39399   4.434   6.320   8.224  0.7435 -0.1989 -0.1877
12361SOL    HW139400   4.464   6.282   8.307  0.1536  0.2913  0.2608
12361SOL    HW239401   4.513   6.354   8.183  0.8127  1.2424  1.0637
12362SOL     OW39402   3.250   4.171   9.593  0.5305 -0.2780  0.4420
12362SOL    HW139403   3.190   4.099   9.612  1.7528 -1.0782  1.4201
12362SOL    HW239404   3.314   4.133   9.533  0.6556  0.2669  0.2239
12363SOL     OW39405   1.240   9.295   0.798  0.5008 -0.4914  0.0711
12363SOL    HW139406   1.219   9.378   0.840 -0.5573 -0.4024 -0.5811
12363SOL    HW239407   1.335   9.293   0.792  0.5113  0.9850 -0.5196
12364SOL     OW39408   5.677   1.136   1.355  0.1414  1.1635 -0.1566
12364SOL    HW139409   5.726   1.192   1.295  0.1054  2.1216  0.6829
12364SOL    HW239410   5.590   1.176   1.360 -0.3197  0.2475 -0.5904
12365SOL     OW39411   8.124   5.805   2.715 -0.7033 -0.2190 -0.0409
12365SOL    HW139412   8.177   5.739   2.759 -2.4696 -0.8261  1.3067
12365SOL    HW239413   8.095   5.762   2.634  0.8254  0.1486 -0.8367
12366SOL     OW39414   5.067   3.214   0.016  0.4892 -0.0121 -0.2878
12366SOL    HW139415   5.058   3.222   0.111 -1.1674 -1.1624 -0.3164
12366SOL    HW239416   4.988   3.170  -0.013 -0.9447  3.6252 -2.7195
12367SOL     OW39417   1.999   2.023   4.030 -0.5760  0.2006 -0.6057
12367SOL    HW139418   1.957   2.067   4.104 -0.1118 -0.9828  0.3767
12367SOL    HW239419   2.022   1.936   4.062  0.5915  0.0227 -1.8152
12368SOL     OW39420   0.622   0.362   8.301 -0.3378 -0.2871  0.6132
12368SOL    HW139421   0.560   0.424   8.263  1.1973  0.3439 -0.9698
12368SOL    HW239422   0.583   0.276   8.285 -1.2849  0.1355  0.6022
12369SOL     OW39423   2.496   3.907  10.316 -0.4673 -0.0524  0.2026
12369SOL    HW139424   2.406   3.896  10.285 -0.5840 -0.5235  0.6833
12369SOL    HW239425   2.528   3.817  10.326 -0.0516  0.1125  0.3445
12370SOL     OW39426   0.270   7.710   2.521 -0.6903  0.3205  0.6836
12370SOL    HW139427   0.225   7.707   2.436  1.0915  1.2463 -0.3536
12370SOL    HW239428   0.314   7.626   2.528 -1.6369 -0.1502  1.1862
12371SOL     OW39429   7.255   0.426   2.882  0.3025 -0.2254  0.5315
12371SOL    HW139430   7.204   0.346   2.891 -2.7019  1.4568 -0.0737
12371SOL    HW239431   7.229   0.479   2.957 -0.1411  1.3350 -0.6727
12372SOL     OW39432   3.123   2.268   1.303  0.2605  0.3968 -0.9652
12372SOL    HW139433   3.143   2.314   1.221 -0.2711  2.7513  0.1195
12372SOL    HW239434   3.132   2.336   1.370 -1.8865 -0.7850  0.6250
12373SOL     OW39435   1.656   5.223   2.630 -0.6430  0.4222  0.6775
12373SOL    HW139436   1.586   5.205   2.692 -0.9338 -1.1698 -0.0683
12373SOL    HW239437   1.614   5.275   2.561 -0.7293  0.7192  0.9510
12374SOL     OW39438   5.867   9.260   8.045  0.4033 -0.0198 -0.3058
12374SOL    HW139439   5.824   9.334   8.088 -0.6801 -0.8956  0.1603
12374SOL    HW239440   5.853   9.187   8.105  4.2949  0.0130  0.9126
12375SOL     OW39441   3.663   0.623   3.576 -0.1121 -0.2459 -0.3257
12375SOL    HW139442   3.757   0.625   3.559 -0.2619  2.4012 -1.3435
12375SOL    HW239443   3.656   0.618   3.671  1.0236 -1.1492 -0.2721
12376SOL     OW39444   1.728   6.718   5.352 -0.0895 -0.1311 -0.3060
12376SOL    HW139445   1.803   6.722   5.411  0.5345 -0.1218 -1.0704
12376SOL    HW239446   1.766   6.733   5.265 -0.3454 -3.8979 -1.2504
12377SOL     OW39447   0.649   1.747   4.802 -0.3872  0.1800  0.1278
12377SOL    HW139448   0.554   1.735   4.798 -0.2130 -0.9403 -2.0090
12377SOL    HW239449   0.673   1.776   4.715  1.2881  0.1106  0.5335
12378SOL     OW39450   7.042   7.447   8.570  0.2590  0.1871  0.6563
12378SOL    HW139451   7.041   7.452   8.474 -0.3192  0.4183  0.6683
12378SOL    HW239452   7.099   7.373   8.590 -0.4398 -0.5277  0.0982
12379SOL     OW39453   8.909   8.641   2.214  0.4667  0.7813 -0.0878
12379SOL    HW139454   8.896   8.549   2.239 -0.9477  0.6041 -1.3443
12379SOL    HW239455   8.947   8.636   2.126  1.2356  1.4145  0.1949
12380SOL     OW39456   4.352   7.417   3.686 -0.6341 -0.5722  0.3915
12380SOL    HW139457   4.261   7.388   3.674 -0.9784 -0.0554  1.6614
12380SOL    HW239458   4.350   7.474   3.762  0.8802 -1.0811  0.8564
12381SOL     OW39459   5.145   4.632   6.053 -0.6062  0.3823  0.4977
12381SOL    HW139460   5.136   4.666   5.964 -1.7058 -0.2386  0.3556
12381SOL    HW239461   5.079   4.564   6.060  0.1482 -0.2893  1.4658
12382SOL     OW39462   6.660   5.683   0.138 -0.3598  0.0143  0.1899
12382SOL    HW139463   6.750   5.685   0.171  0.2736 -1.7298 -1.2538
12382SOL    HW239464   6.607   5.666   0.215  0.7190 -0.4883  0.8517
12383SOL     OW39465   9.603   5.036   0.307 -0.3443  0.7893 -0.6028
12383SOL    HW139466   9.607   4.944   0.334  2.7244  0.9569 -0.0240
12383SOL    HW239467   9.550   5.036   0.227  1.0675 -1.8223 -1.6611
12384SOL     OW39468   3.960   2.051   3.934 -0.3168  0.3875 -0.0371
12384SOL    HW139469   4.004   2.063   3.850  0.3854  3.3701  0.6477
12384SOL    HW239470   4.029   2.021   3.993 -0.0385  1.4593  0.1936
12385SOL     OW39471   7.390   3.858   8.558 -0.3627 -0.2350  0.0006
12385SOL    HW139472   7.395   3.813   8.473 -1.4132  0.4489 -0.4433
12385SOL    HW239473   7.310   3.824   8.598 -0.0128 -0.3511  0.6027
12386SOL     OW39474   5.020   7.262   5.989 -0.2299 -0.8874 -0.7508
12386SOL    HW139475   5.035   7.356   5.974  0.6147 -0.9131 -0.1550
12386SOL    HW239476   5.055   7.220   5.910 -1.9238 -0.6316 -1.6716
12387SOL     OW39477   7.664   9.484   4.299  0.2055  0.0277 -0.1991
12387SOL    HW139478   7.658   9.576   4.273 -0.5286  0.0826  0.1343
12387SOL    HW239479   7.596   9.440   4.247  0.4590 -0.2990 -0.2540
12388SOL     OW39480   0.360   3.554  10.344 -0.4534 -0.0814  0.2399
12388SOL    HW139481   0.426   3.512  10.289  0.1950 -0.7082  1.4582
12388SOL    HW239482   0.400   3.635  10.374 -0.4666 -0.1670  0.4920
12389SOL     OW39483   8.432   3.709   4.378  0.1275  0.1020 -0.4710
12389SOL    HW139484   8.430   3.779   4.313 -1.4139 -0.0956 -0.6547
12389SOL    HW239485   8.470   3.750   4.456  1.8741  0.3789 -1.3999
12390SOL     OW39486   6.320   1.878   4.126 -0.2313 -0.1490  0.3846
12390SOL    HW139487   6.288   1.889   4.216  3.3658  0.4466  1.7603
12390SOL    HW239488   6.287   1.954   4.079 -3.2812 -1.1260  0.6997
12391SOL     OW39489   1.162   2.840   6.421 -0.1248 -0.5916  0.1908
12391SOL    HW139490   1.214   2.849   6.341 -1.8597  1.8666 -0.7903
12391SOL    HW239491   1.084   2.791   6.393 -0.4775 -0.2127  0.4922
12392SOL     OW39492  10.336   4.532   5.786 -0.2279 -0.1357  0.4494
12392SOL    HW139493  10.319   4.438   5.796  1.1066 -0.4253  0.2198
12392SOL    HW239494  10.403   4.551   5.851 -1.6752  1.0534  1.6495
12393SOL     OW39495   9.335   7.891   0.281 -0.1938  0.1025 -0.2425
12393SOL    HW139496   9.253   7.927   0.314 -0.5322 -0.7599 -0.0919
12393SOL    HW239497   9.401   7.957   0.302 -1.0413  1.4472 -1.6110
12394SOL     OW39498   4.439   4.623   4.569 -0.5434 -0.1608 -0.1581
12394SOL    HW139499   4.355   4.587   4.542 -0.3399 -0.9276  0.1921
12394SOL    HW239500   4.495   4.547   4.580  0.1909  0.3424 -0.3540
12395SOL     OW39501   6.721  10.244   3.526  0.2040 -0.2891 -0.0090
12395SOL    HW139502   6.714  10.258   3.432  2.2262 -0.0766 -0.1855
12395SOL    HW239503   6.809  10.207   3.537  0.2438  0.2824  1.8513
12396SOL     OW39504   5.183   9.362   4.507  0.1550 -0.0700  0.4892
12396SOL    HW139505   5.264   9.312   4.512  1.1793  1.5073  0.3327
12396SOL    HW239506   5.177   9.390   4.415 -1.2812 -1.2610  0.1764
12397SOL     OW39507   5.883   3.969   7.124 -0.3046 -0.5916  0.2460
12397SOL    HW139508   5.898   3.912   7.049  1.1040  0.5490 -0.3889
12397SOL    HW239509   5.966   3.969   7.172 -0.8194 -0.3982  1.1700
12398SOL     OW39510   8.439   5.098   0.201 -0.1942  0.5553  0.3161
12398SOL    HW139511   8.374   5.064   0.138 -2.0596  2.1318  1.2809
12398SOL    HW239512   8.513   5.124   0.146  0.5051 -2.9557 -0.6645
12399SOL     OW39513   5.343   2.639   3.778 -0.1278  0.0753  0.1859
12399SOL    HW139514   5.339   2.720   3.828  2.6901 -1.1096  2.5777
12399SOL    HW239515   5.402   2.659   3.705 -0.9745  0.6551 -0.3633
12400SOL     OW39516   7.563   3.978   2.415  0.1494  0.6016  0.8698
12400SOL    HW139517   7.509   4.009   2.488 -0.1068  0.9563  0.5372
12400SOL    HW239518   7.504   3.980   2.340  0.8029  1.6748  0.3555
12401SOL     OW39519   4.837   2.399   2.511 -0.4252  0.5743  0.1923
12401SOL    HW139520   4.851   2.411   2.605  2.2507 -0.5499  0.0295
12401SOL    HW239521   4.924   2.377   2.477 -1.8172 -1.8692 -2.0856
12402SOL     OW39522   7.926  10.106   7.769  0.2628  0.0175 -0.0294
12402SOL    HW139523   7.982  10.052   7.713 -0.8842 -0.9494 -0.2728
12402SOL    HW239524   7.973  10.109   7.853  1.9628  1.4164 -0.9650
12403SOL     OW39525   6.628   5.404   6.700  0.1158  0.0076  0.0527
12403SOL    HW139526   6.627   5.421   6.794 -0.0932  3.2556 -0.4429
12403SOL    HW239527   6.576   5.324   6.690  0.5852 -0.7293  2.6995
12404SOL     OW39528   4.097   3.472   8.304  0.4556  0.1971 -0.0789
12404SOL    HW139529   4.082   3.548   8.247  0.1201  1.3689  1.5000
12404SOL    HW239530   4.039   3.486   8.378  2.2888 -0.2281  1.5236
12405SOL     OW39531   4.891   3.853   4.427  0.6995  0.3307  0.0522
12405SOL    HW139532   4.971   3.882   4.384  0.1484  0.7105 -0.7606
12405SOL    HW239533   4.857   3.931   4.471  1.5834 -0.2050  1.7409
12406SOL     OW39534   6.311   3.954   0.019 -0.0340  0.2150  0.8281
12406SOL    HW139535   6.229   3.995  -0.008  1.4147  3.2803  0.6921
12406SOL    HW239536   6.298   3.929   0.110 -0.9520  1.1260  0.9527
12407SOL     OW39537   1.686   7.613   1.766 -0.5751  0.1845  0.1948
12407SOL    HW139538   1.701   7.706   1.752  0.1192  0.2657  1.2901
12407SOL    HW239539   1.756   7.586   1.826 -0.1987 -1.2573 -0.8263
12408SOL     OW39540   3.276   5.262   6.995  0.5391  0.0649 -0.0628
12408SOL    HW139541   3.224   5.201   6.942  1.0320 -0.4245  0.0071
12408SOL    HW239542   3.211   5.314   7.042  0.0755 -1.8010  1.4887
12409SOL     OW39543   8.037   7.193   4.729  0.0500  0.4725 -0.5025
12409SOL    HW139544   7.954   7.239   4.716 -1.4558 -1.7962  0.5270
12409SOL    HW239545   8.097   7.235   4.667 -2.2147  1.2491 -2.3379
12410SOL     OW39546   8.940  10.095   9.145 -0.3235 -0.1626  0.1106
12410SOL    HW139547   8.974  10.094   9.234  0.3619 -1.5893 -0.1367
12410SOL    HW239548   9.012  10.061   9.091 -0.6222  0.9402 -1.0321
12411SOL     OW39549   3.321   4.146   2.909 -0.1666  0.1427  0.1899
12411SOL    HW139550   3.318   4.053   2.933  0.1013  0.1011  0.0568
12411SOL    HW239551   3.411   4.161   2.880 -0.3750  0.2909 -0.3947
12412SOL     OW39552   2.693   3.142   4.702 -0.0429 -0.0625  0.0101
12412SOL    HW139553   2.601   3.162   4.684  0.2125  0.2119 -1.0301
12412SOL    HW239554   2.742   3.191   4.637  0.6946 -2.9104 -1.7861
12413SOL     OW39555   2.828   0.213   2.267 -0.1064 -0.1486 -0.5453
12413SOL    HW139556   2.807   0.122   2.245 -0.1285 -0.0994 -0.7313
12413SOL    HW239557   2.774   0.232   2.344  3.0234 -1.6514  2.2297
12414SOL     OW39558   5.350   3.283   4.933 -0.0096 -0.1128 -0.3912
12414SOL    HW139559   5.265   3.295   4.891 -0.1287  2.9488  0.5573
12414SOL    HW239560   5.330   3.270   5.025  0.5349  0.0780 -0.2427
12415SOL     OW39561   1.420   9.275   7.314 -0.2538  0.3624 -0.1932
12415SOL    HW139562   1.496   9.323   7.280  0.0086  0.5403  0.6181
12415SOL    HW239563   1.344   9.318   7.275  0.0274  0.7486 -0.3192
12416SOL     OW39564   1.960   4.463  10.285 -0.1014 -0.1011  0.1257
12416SOL    HW139565   2.004   4.435  10.366  2.0052 -1.4253 -1.3749
12416SOL    HW239566   2.005   4.544  10.260 -0.3518 -0.0070 -0.0246
12417SOL     OW39567   0.736   6.881   8.933 -0.0195  0.1690 -0.5994
12417SOL    HW139568   0.710   6.789   8.920 -0.2325  0.3292 -1.3658
12417SOL    HW239569   0.654   6.925   8.958 -0.1938  0.3949 -1.5450
12418SOL     OW39570   8.525   2.884   5.395  0.4136 -0.2165  0.6996
12418SOL    HW139571   8.604   2.836   5.371 -0.6047 -0.2535 -3.2591
12418SOL    HW239572   8.468   2.818   5.434  1.1617 -0.9068  0.6591
12419SOL     OW39573   2.407   4.292   2.402  0.3212 -0.1091 -0.5082
12419SOL    HW139574   2.315   4.281   2.425  0.0585  1.9775 -0.3646
12419SOL    HW239575   2.417   4.245   2.319 -1.1953  0.6630 -1.1587
12420SOL     OW39576   3.705   8.120   5.768 -0.0419 -0.3159 -0.0482
12420SOL    HW139577   3.692   8.047   5.829  1.7467 -0.1908  0.5291
12420SOL    HW239578   3.703   8.080   5.682  1.4020 -1.1745  0.2828
12421SOL     OW39579   5.451   1.105  10.415 -0.3703  0.2482 -0.7355
12421SOL    HW139580   5.487   1.023  10.382  0.5049 -0.1919  1.1634
12421SOL    HW239581   5.365   1.081  10.449  0.1189 -0.0507  0.3483
12422SOL     OW39582   7.770   6.505   4.917 -0.1761  0.5704  0.1819
12422SOL    HW139583   7.736   6.576   4.863  0.6600  0.6363 -0.2663
12422SOL    HW239584   7.746   6.530   5.007  0.6818  1.7667  0.1030
12423SOL     OW39585   1.436   1.808   9.419 -0.5857  0.3327 -0.1439
12423SOL    HW139586   1.427   1.714   9.433 -0.7052  0.6262  2.0943
12423SOL    HW239587   1.421   1.847   9.505 -1.5938  2.4938 -1.2230
12424SOL     OW39588   4.537   4.610   8.619  0.0751 -0.3816  0.1945
12424SOL    HW139589   4.616   4.641   8.664 -0.2066 -0.4623  0.7495
12424SOL    HW239590   4.515   4.529   8.664 -2.2851  1.3049  2.3789
12425SOL     OW39591   1.245   4.494   9.113  0.0128  0.2032 -0.7519
12425SOL    HW139592   1.242   4.414   9.166  0.4062  0.3226 -0.5463
12425SOL    HW239593   1.295   4.468   9.035 -0.7545 -0.0334 -1.1812
12426SOL     OW39594   8.613   8.507   6.391 -0.0114  0.4050 -0.4295
12426SOL    HW139595   8.639   8.476   6.477 -0.9263  0.1519 -0.2258
12426SOL    HW239596   8.519   8.526   6.400  0.7106  4.9301 -0.0518
12427SOL     OW39597   9.536   4.280   2.616 -0.1484  0.6049  0.0006
12427SOL    HW139598   9.631   4.276   2.608 -0.2606  0.9650 -2.0145
12427SOL    HW239599   9.505   4.198   2.577 -0.6640 -0.0593  1.6883
12428SOL     OW39600   3.325   4.395   8.825 -0.2455  0.5406 -0.1751
12428SOL    HW139601   3.322   4.486   8.794 -1.3019  0.5493 -0.0841
12428SOL    HW239602   3.353   4.345   8.748 -0.0027  0.8997 -0.3236
12429SOL     OW39603   4.668   4.416   5.134 -0.0595  0.0789  0.2535
12429SOL    HW139604   4.589   4.470   5.126 -0.1784 -0.0743  0.4081
12429SOL    HW239605   4.658   4.372   5.218 -0.5911 -1.1985 -0.4527
12430SOL     OW39606   1.737   3.120   8.282 -0.1588 -0.3594  0.2476
12430SOL    HW139607   1.821   3.119   8.328  0.2388  0.9474 -0.3873
12430SOL    HW239608   1.689   3.193   8.322  0.3771  1.1059 -1.6651
12431SOL     OW39609   9.517   6.032   7.152  0.3901  0.5755  0.6991
12431SOL    HW139610   9.581   5.974   7.195 -0.2362  0.3057  1.2969
12431SOL    HW239611   9.529   6.016   7.059  0.2581 -0.5159  0.8519
12432SOL     OW39612   4.652   5.670   3.254  0.2931 -0.4445  0.0469
12432SOL    HW139613   4.709   5.736   3.214  0.6730 -1.9108 -1.9944
12432SOL    HW239614   4.577   5.720   3.285  1.5281  1.2070  0.5246
12433SOL     OW39615   8.856   9.361   7.065  0.3094 -0.0339  0.1514
12433SOL    HW139616   8.931   9.380   7.121 -0.5851  0.2662  1.2622
12433SOL    HW239617   8.806   9.442   7.062  1.3852  0.6465 -2.8077
12434SOL     OW39618   8.214   8.267   4.414  0.4604  0.0331  0.2786
12434SOL    HW139619   8.229   8.286   4.322  0.0021  0.1818  0.2293
12434SOL    HW239620   8.192   8.352   4.453  0.5467 -0.0453  0.4996
12435SOL     OW39621   9.234   1.891   9.185 -0.3839  0.3372  0.2698
12435SOL    HW139622   9.289   1.907   9.263 -0.6232 -1.0543  0.7461
12435SOL    HW239623   9.201   1.802   9.197 -1.0851  0.4046 -1.0425
12436SOL     OW39624  10.579   4.865  10.279 -0.2915  0.1654 -0.0453
12436SOL    HW139625  10.673   4.851  10.272 -0.0657  0.1293  2.3617
12436SOL    HW239626  10.541   4.810  10.211  1.3749 -0.4880 -0.4866
12437SOL     OW39627   1.429   3.078   4.677 -0.0084  0.2578 -0.0886
12437SOL    HW139628   1.398   3.064   4.767  0.4452  0.6742  0.1426
12437SOL    HW239629   1.375   3.150   4.645 -0.3761 -0.0931 -0.2565
12438SOL     OW39630   0.473   2.137   1.146  0.2154 -0.3259  0.1933
12438SOL    HW139631   0.486   2.130   1.241  2.3532 -0.5009 -0.0528
12438SOL    HW239632   0.502   2.226   1.125  0.8842 -0.6841 -0.4334
12439SOL     OW39633   0.008   6.650   7.632 -0.9712  0.4360  0.1010
12439SOL    HW139634  -0.020   6.737   7.603 -2.5617  0.0137  0.3070
12439SOL    HW239635  -0.062   6.620   7.689 -1.4201 -1.8014 -1.5084
12440SOL     OW39636  10.181  10.001   9.479 -0.7822 -0.1459  0.4552
12440SOL    HW139637  10.195   9.919   9.432 -0.0984  0.3912 -0.2970
12440SOL    HW239638  10.263  10.017   9.525 -1.6071 -0.9276  2.3021
12441SOL     OW39639   5.651   2.787   3.826 -0.0090 -0.1224 -0.1507
12441SOL    HW139640   5.561   2.809   3.853  0.0463 -1.0872  0.8862
12441SOL    HW239641   5.640   2.740   3.744 -0.4550 -0.1706 -0.0705
12442SOL     OW39642   6.585   1.847   6.513  0.2482  0.5698  0.1409
12442SOL    HW139643   6.639   1.926   6.523  1.6846 -0.4207  0.5944
12442SOL    HW239644   6.601   1.798   6.594  0.2191 -0.6696 -0.5843
12443SOL     OW39645   9.257   4.383   3.261  0.3137  0.5333  0.0737
12443SOL    HW139646   9.275   4.294   3.291 -4.3755 -0.6350  0.1930
12443SOL    HW239647   9.319   4.398   3.190  1.6868 -2.5607  0.4936
12444SOL     OW39648   6.626   8.136   0.805  0.0193 -0.6887 -0.2994
12444SOL    HW139649   6.638   8.216   0.856  2.3684  0.7209 -2.8184
12444SOL    HW239650   6.543   8.150   0.758 -0.5787 -0.6418  0.7418
12445SOL     OW39651   4.726   6.207   7.210  0.6668 -0.3315  0.3659
12445SOL    HW139652   4.639   6.209   7.251 -0.8389  0.3043 -2.5458
12445SOL    HW239653   4.778   6.269   7.261 -0.8623 -0.0030  1.6183
12446SOL     OW39654   6.474   7.006   4.529 -0.0587 -0.1627  0.0966
12446SOL    HW139655   6.385   7.039   4.533  0.0820  0.2190  0.1236
12446SOL    HW239656   6.465   6.914   4.506 -0.3844  0.3264 -1.9643
12447SOL     OW39657   5.774   3.338   6.149 -0.4388  0.5277  0.0841
12447SOL    HW139658   5.730   3.386   6.080 -1.7685  0.8541  1.1124
12447SOL    HW239659   5.821   3.405   6.199 -1.2549  0.6138  0.7618
12448SOL     OW39660   6.742   9.310   2.575  0.8519  0.0193 -0.1278
12448SOL    HW139661   6.710   9.227   2.540  0.3243 -0.2685  0.9765
12448SOL    HW239662   6.832   9.317   2.542  1.1773 -1.3874  0.3919
12449SOL     OW39663   3.150  10.402   5.450 -0.2038  0.0288 -0.3896
12449SOL    HW139664   3.071  10.379   5.499 -0.9722 -0.0683 -1.6149
12449SOL    HW239665   3.119  10.415   5.360  0.8294  2.0945 -0.4924
12450SOL     OW39666   2.583   4.630   7.299  0.1746 -0.1150 -0.3250
12450SOL    HW139667   2.666   4.586   7.319  0.5110  0.5187 -0.3039
12450SOL    HW239668   2.541   4.642   7.385 -0.0716 -0.6870 -0.3628
12451SOL     OW39669   2.030   6.906   2.073  0.1760 -0.0694 -0.0022
12451SOL    HW139670   2.065   6.954   2.148 -1.1145  0.2175  0.4294
12451SOL    HW239671   1.987   6.830   2.111 -0.5992  0.1443 -0.4388
12452SOL     OW39672  10.473   6.393   0.214 -0.3332 -0.0318 -0.0661
12452SOL    HW139673  10.547   6.333   0.209 -0.1106  0.2643 -0.3395
12452SOL    HW239674  10.419   6.358   0.285 -0.3377 -0.7088 -0.3882
12453SOL     OW39675   5.031   1.510   1.683  0.1830 -0.8602 -0.3010
12453SOL    HW139676   5.039   1.564   1.761 -1.6780  0.6103 -1.0283
12453SOL    HW239677   5.101   1.540   1.625  0.3118 -0.5204  0.0305
12454SOL     OW39678   9.244   4.071   8.331 -0.0626 -0.1169  0.2093
12454SOL    HW139679   9.250   4.059   8.426 -1.6270 -0.0870  0.3322
12454SOL    HW239680   9.327   4.039   8.298  0.9590  0.8693  1.6795
12455SOL     OW39681   9.182   0.209   8.679  0.2608  0.0938  0.3472
12455SOL    HW139682   9.242   0.249   8.742  0.3386  0.8173 -0.1720
12455SOL    HW239683   9.230   0.210   8.596 -0.8334  1.6743 -0.3180
12456SOL     OW39684   8.887   8.924   2.165  0.3080 -0.3534  0.2187
12456SOL    HW139685   8.797   8.952   2.185 -0.0488 -0.6324 -0.9151
12456SOL    HW239686   8.884   8.829   2.171  1.5295 -0.3364  4.1227
12457SOL     OW39687   3.182   8.771   0.033 -0.6845  0.1029 -0.0038
12457SOL    HW139688   3.264   8.796   0.076 -0.4428 -1.0722  0.2658
12457SOL    HW239689   3.206   8.696  -0.023 -1.3150  0.5856 -0.9535
12458SOL     OW39690   1.918   7.079   7.789  0.4306  0.2927  0.0646
12458SOL    HW139691   1.898   6.995   7.831  1.8470  0.5586  1.3999
12458SOL    HW239692   1.913   7.142   7.860 -1.5105  1.5285 -1.1016
12459SOL     OW39693   3.408   4.286   6.989  0.1536  0.0419  0.1291
12459SOL    HW139694   3.359   4.362   7.022 -0.5418  0.5861 -2.0236
12459SOL    HW239695   3.499   4.303   7.014 -0.4772 -0.3822  3.1006
12460SOL     OW39696   9.262   5.785   6.977 -0.4140 -0.3413 -0.0419
12460SOL    HW139697   9.259   5.880   6.982  0.0998 -0.0984 -2.7138
12460SOL    HW239698   9.345   5.766   6.932 -1.3402 -1.9118 -1.1825
12461SOL     OW39699   8.886   8.248   7.383 -0.1928  0.4195  0.0699
12461SOL    HW139700   8.851   8.270   7.470  0.2163  1.3100  0.0226
12461SOL    HW239701   8.904   8.333   7.343  0.1950 -0.0001 -0.6537
12462SOL     OW39702   8.309   4.718   1.558 -0.2103 -0.0055  0.1898
12462SOL    HW139703   8.222   4.755   1.545 -0.5392 -0.9793 -0.5263
12462SOL    HW239704   8.361   4.790   1.595 -0.6410  1.3947 -1.7667
12463SOL     OW39705   6.315   7.987   4.474 -0.0465  0.0695  0.3231
12463SOL    HW139706   6.369   7.918   4.513 -0.4360 -0.0007  0.7510
12463SOL    HW239707   6.287   8.041   4.548 -2.4409 -1.2069  0.4561
12464SOL     OW39708   1.124   5.090   6.781 -0.3266  0.1903 -0.2587
12464SOL    HW139709   1.142   5.184   6.778 -1.6654  0.6294  2.3474
12464SOL    HW239710   1.029   5.084   6.767 -0.5920 -0.5203  1.5683
12465SOL     OW39711   4.324   5.554   7.814 -0.1122  0.3014 -0.1940
12465SOL    HW139712   4.234   5.527   7.795 -0.1898  1.1873 -1.1882
12465SOL    HW239713   4.354   5.594   7.733  0.7038  1.2819  0.5676
12466SOL     OW39714   4.814   8.560   2.235  0.4332  0.0228 -0.7571
12466SOL    HW139715   4.784   8.651   2.225 -0.1556  0.0363  0.7441
12466SOL    HW239716   4.738   8.515   2.273  1.5046 -0.5177  0.8115
12467SOL     OW39717   3.636   6.578   2.429  0.5774  0.3199 -0.4692
12467SOL    HW139718   3.640   6.673   2.423 -1.7246  0.5760  0.8255
12467SOL    HW239719   3.674   6.558   2.515 -1.1997  0.3767  0.3848
12468SOL     OW39720   5.598   6.634   7.911 -0.3987  0.2564  0.3679
12468SOL    HW139721   5.525   6.687   7.879  0.0004  0.2188 -0.6164
12468SOL    HW239722   5.637   6.596   7.833 -0.2764 -0.9823  1.0023
12469SOL     OW39723   1.287   9.923   4.743 -0.0474 -0.1153  0.1409
12469SOL    HW139724   1.248   9.844   4.781  0.9114 -0.5897  0.1636
12469SOL    HW239725   1.275   9.913   4.649 -0.4476  0.0004  0.1763
12470SOL     OW39726   0.968   5.663   1.048 -0.2882  0.1473 -0.1357
12470SOL    HW139727   0.936   5.688   0.961  0.3551  1.8211  0.0667
12470SOL    HW239728   1.053   5.706   1.056 -0.4929  0.3387  1.4457
12471SOL     OW39729   3.157   0.583   5.160 -0.2559 -0.0946  0.0162
12471SOL    HW139730   3.214   0.592   5.084 -0.3655  1.7046  0.1123
12471SOL    HW239731   3.165   0.666   5.207 -2.5871  0.0609  0.2749
12472SOL     OW39732   6.245   5.206   5.232 -0.3257  0.8161 -0.2177
12472SOL    HW139733   6.286   5.234   5.150  0.2419 -0.1796 -0.3001
12472SOL    HW239734   6.312   5.221   5.298 -1.0384  2.3037  0.2109
12473SOL     OW39735   5.546   3.659   1.828 -0.0892 -0.0479  0.3607
12473SOL    HW139736   5.545   3.584   1.887  0.9425 -0.2927  0.0707
12473SOL    HW239737   5.498   3.727   1.875  0.8152 -0.2050  1.5357
12474SOL     OW39738   8.977   4.624   7.547 -0.6269 -0.4566 -0.2076
12474SOL    HW139739   9.070   4.606   7.564 -0.5378  0.5099  0.3680
12474SOL    HW239740   8.976   4.712   7.511 -1.3947 -0.1906  0.4521
12475SOL     OW39741   1.264   9.456   7.182  0.8072  0.7184  0.4680
12475SOL    HW139742   1.238   9.542   7.148 -2.1837 -0.6890 -1.2403
12475SOL    HW239743   1.186   9.424   7.226  2.1109 -0.8400  1.7491
12476SOL     OW39744   2.652   9.312   7.316 -0.2215  0.6648  0.0837
12476SOL    HW139745   2.580   9.252   7.294 -0.5110  0.3375  1.8334
12476SOL    HW239746   2.627   9.394   7.273 -1.3576  0.3865  0.1760
12477SOL     OW39747   9.740  10.089   2.565 -0.5036 -0.8442 -0.0587
12477SOL    HW139748   9.791  10.122   2.491 -1.8221  3.6480  0.7656
12477SOL    HW239749   9.806  10.068   2.632  0.4976 -0.5558 -0.9266
12478SOL     OW39750   3.070   9.016   2.638  0.1904 -0.1180  0.3115
12478SOL    HW139751   3.142   9.060   2.684  0.1458  0.1969  0.0821
12478SOL    HW239752   2.993   9.034   2.691  0.3820 -0.9796  0.8930
12479SOL     OW39753   7.263   5.143   3.921 -0.5071 -0.0929 -0.1537
12479SOL    HW139754   7.200   5.189   3.867 -0.2874 -0.2603 -0.5571
12479SOL    HW239755   7.332   5.208   3.938 -1.2874  0.4245  1.1778
12480SOL     OW39756   5.112   4.974   9.319 -0.3671 -0.1841 -0.0525
12480SOL    HW139757   5.113   5.051   9.375 -1.4730  1.1434 -1.7574
12480SOL    HW239758   5.157   5.002   9.239 -0.6921 -1.3383 -0.6594
12481SOL     OW39759   5.813   9.744   3.044  0.0964 -0.4576 -0.3360
12481SOL    HW139760   5.900   9.768   3.012  0.1381  0.6827  0.5930
12481SOL    HW239761   5.829   9.703   3.129 -0.2944  0.0233 -0.0277
12482SOL     OW39762   6.174   8.842   0.888 -0.0670  0.0183 -0.8135
12482SOL    HW139763   6.119   8.773   0.851  0.8524 -1.3240  0.2507
12482SOL    HW239764   6.230   8.870   0.815  0.5949 -1.4348 -0.9014
12483SOL     OW39765   0.381   5.778   5.043 -0.6954 -0.7982 -0.1750
12483SOL    HW139766   0.423   5.846   5.096 -1.4298  0.5968 -1.3084
12483SOL    HW239767   0.448   5.709   5.035  0.9433  0.7877 -0.8725
12484SOL     OW39768   8.975   7.054   2.285 -0.1909 -0.3065  0.4632
12484SOL    HW139769   8.951   7.146   2.278 -1.6207 -0.6139  1.0124
12484SOL    HW239770   9.030   7.050   2.364  0.5897  0.1977 -0.0464
12485SOL     OW39771   2.011   1.958   6.622  0.2066  0.0909  0.1252
12485SOL    HW139772   1.998   2.004   6.705 -1.4746 -1.1163  0.5842
12485SOL    HW239773   2.038   1.870   6.648  0.1508 -0.1510 -0.6221
12486SOL     OW39774  10.476   5.451   4.781  0.0539 -0.0192  0.8278
12486SOL    HW139775  10.478   5.484   4.870 -0.2758  1.6302  0.2499
12486SOL    HW239776  10.411   5.380   4.782 -0.3794  0.3865  1.7600
12487SOL     OW39777   9.748   9.486   3.142 -0.2049  0.0321  0.4590
12487SOL    HW139778   9.804   9.556   3.176  3.0004 -2.3575  0.6118
12487SOL    HW239779   9.765   9.486   3.048 -1.3403  0.3589  0.2430
12488SOL     OW39780   4.213   4.764   5.581  0.5135 -0.7719  0.1619
12488SOL    HW139781   4.274   4.692   5.565  1.0445 -0.4757  0.7874
12488SOL    HW239782   4.191   4.756   5.674 -0.6833 -1.0786 -0.1311
12489SOL     OW39783   4.328   2.553   0.454  0.0855 -0.8813  1.0739
12489SOL    HW139784   4.378   2.482   0.495 -3.3050 -3.0860  1.8296
12489SOL    HW239785   4.249   2.510   0.420 -0.9370  2.1767 -0.8260
12490SOL     OW39786   9.797   4.800   4.039 -0.4227 -0.0698  0.2322
12490SOL    HW139787   9.760   4.880   4.077  0.9381  0.4371  0.5517
12490SOL    HW239788   9.877   4.830   3.995 -1.7120 -0.6892 -2.7518
12491SOL     OW39789   7.548   4.110   3.037  0.0548 -0.3548  0.2594
12491SOL    HW139790   7.589   4.034   2.996 -0.1310  0.1283 -0.8603
12491SOL    HW239791   7.587   4.185   2.992 -2.2497  0.1271 -1.0966
12492SOL     OW39792   1.910   9.395   3.510 -0.0504 -0.1281 -0.2607
12492SOL    HW139793   1.911   9.301   3.529 -0.0139  0.2453  1.8148
12492SOL    HW239794   1.819   9.422   3.525  0.0282  0.2481 -0.4338
12493SOL     OW39795   6.206   1.140   5.941 -0.1518  0.2941  0.7217
12493SOL    HW139796   6.123   1.099   5.966  0.4014 -0.3827  1.5127
12493SOL    HW239797   6.200   1.151   5.846 -1.0506  0.0501  0.7415
12494SOL     OW39798   2.540   1.305   5.188 -0.0242  0.1849 -0.4925
12494SOL    HW139799   2.596   1.344   5.121  0.3501  3.4058  1.5065
12494SOL    HW239800   2.601   1.274   5.255 -0.4990 -0.6275 -0.4158
12495SOL     OW39801   5.676   0.125   0.866 -0.7942 -0.4941  0.1156
12495SOL    HW139802   5.753   0.089   0.823 -1.1023  0.0104 -0.8808
12495SOL    HW239803   5.602   0.091   0.816 -1.1978 -0.4627  0.6775
12496SOL     OW39804   0.862   9.924   5.058  0.2323 -0.1124 -0.1231
12496SOL    HW139805   0.771   9.894   5.051 -0.2995  1.3236  0.2221
12496SOL    HW239806   0.913   9.844   5.069 -1.1198 -0.8769  0.9030
12497SOL     OW39807   7.694   1.851  10.508  0.0110 -0.0705 -0.0310
12497SOL    HW139808   7.654   1.937  10.500 -0.3657  0.0379  2.3343
12497SOL    HW239809   7.788   1.868  10.519  0.0653 -0.0305 -0.5406
12498SOL     OW39810   9.725   6.203   4.424  0.2374  0.1753 -0.3305
12498SOL    HW139811   9.701   6.278   4.369 -0.2647  0.6717  0.5455
12498SOL    HW239812   9.661   6.135   4.401 -2.2781  1.5176  2.0597
12499SOL     OW39813   5.804   1.992   1.583 -0.4437  0.2513  0.2807
12499SOL    HW139814   5.864   1.918   1.578 -1.1569 -0.3290  0.2458
12499SOL    HW239815   5.812   2.035   1.498  0.8957  0.9547  0.7400
12500SOL     OW39816   6.766   6.318   3.889  0.2823 -0.5282  0.4975
12500SOL    HW139817   6.773   6.297   3.796 -0.2680 -0.0847  0.3443
12500SOL    HW239818   6.785   6.236   3.935  0.5561 -0.7449 -0.0068
12501SOL     OW39819   4.818   3.927   5.054 -0.1642  0.4992  0.2095
12501SOL    HW139820   4.821   3.944   4.959 -0.3308 -3.2619 -0.6434
12501SOL    HW239821   4.909   3.929   5.081  0.0064  0.3710 -0.3333
12502SOL     OW39822   1.630   4.101   9.805  0.8659 -0.1546 -0.1163
12502SOL    HW139823   1.585   4.018   9.821  2.2162 -0.9304 -0.1817
12502SOL    HW239824   1.668   4.091   9.718  1.2695  0.4283 -0.0086
12503SOL     OW39825   4.631   5.547   1.420  0.0556  0.4331  0.1387
12503SOL    HW139826   4.606   5.460   1.450  0.5498  0.2449  0.0074
12503SOL    HW239827   4.563   5.570   1.356  0.8782 -0.6015 -1.1613
12504SOL     OW39828   4.916   1.682  10.259 -0.0251 -0.0685 -0.3001
12504SOL    HW139829   4.933   1.621  10.187  1.2169  1.3301 -1.2566
12504SOL    HW239830   4.850   1.638  10.313  0.2888 -1.9114 -1.3363
12505SOL     OW39831  10.316   3.150   7.201  0.7586  0.1905 -0.6779
12505SOL    HW139832  10.293   3.108   7.284 -0.4023 -0.9285 -1.5119
12505SOL    HW239833  10.403   3.117   7.181  1.4905  1.2780  0.5700
12506SOL     OW39834   4.945   0.941   6.630 -0.2669 -0.4343  0.5768
12506SOL    HW139835   4.854   0.918   6.651 -0.9177  0.4226 -1.0578
12506SOL    HW239836   4.972   0.875   6.567  0.0496 -0.3424  0.6161
12507SOL     OW39837   6.594   4.434   3.098 -0.0304 -0.2414 -0.1124
12507SOL    HW139838   6.638   4.421   3.182  0.1441 -0.9047 -0.2980
12507SOL    HW239839   6.503   4.451   3.121 -0.0932 -0.9506  0.1983
12508SOL     OW39840   8.508   5.699   9.484 -0.6290 -0.1034  0.2079
12508SOL    HW139841   8.471   5.625   9.436  0.6215 -0.4239 -0.3078
12508SOL    HW239842   8.452   5.708   9.561 -2.1307 -0.1666 -0.8303
12509SOL     OW39843   7.272   1.978   1.141 -0.1157 -0.7874 -0.1996
12509SOL    HW139844   7.181   1.971   1.170 -0.3747  0.1933 -0.7329
12509SOL    HW239845   7.282   2.070   1.117  0.5199 -1.2475 -1.7677
12510SOL     OW39846   1.962   4.606   4.011 -0.1189  0.0772 -0.3655
12510SOL    HW139847   1.954   4.598   3.916  0.4243  1.8612 -0.5878
12510SOL    HW239848   2.049   4.570   4.030 -1.0112 -2.2187 -0.2232
12511SOL     OW39849   6.638   5.780   2.021  0.2052  0.4312  0.2399
12511SOL    HW139850   6.658   5.845   1.954  0.0455 -0.3370 -0.5797
12511SOL    HW239851   6.577   5.824   2.080  0.4939  1.1841 -0.0109
12512SOL     OW39852   7.726   4.462   4.181 -0.0028 -0.6480 -0.1852
12512SOL    HW139853   7.699   4.375   4.212 -0.2187 -0.8343 -0.8895
12512SOL    HW239854   7.821   4.455   4.172  0.0819 -0.5541  0.5360
12513SOL     OW39855   8.183   2.520   3.366 -0.3594 -0.0811  0.0582
12513SOL    HW139856   8.158   2.432   3.393 -1.1905 -0.0667 -0.6068
12513SOL    HW239857   8.276   2.527   3.388 -0.7894 -0.3427  2.0745
12514SOL     OW39858   7.607   2.608   6.459  0.3807 -0.0025  0.0536
12514SOL    HW139859   7.604   2.533   6.399  1.4550  1.6750 -2.2521
12514SOL    HW239860   7.693   2.647   6.444  0.1237  1.3000  1.6991
12515SOL     OW39861   4.002   0.930   3.754  0.2226  0.4900  0.1320
12515SOL    HW139862   4.055   0.874   3.697 -0.0118 -1.4683  1.7091
12515SOL    HW239863   3.914   0.927   3.715  0.1216 -0.6087  0.4098
12516SOL     OW39864   4.978   8.490   0.418  0.2372 -0.0093  0.1203
12516SOL    HW139865   5.001   8.430   0.489  2.9425 -0.9421 -1.4099
12516SOL    HW239866   5.023   8.572   0.440 -1.8742  0.9545  1.2090
12517SOL     OW39867   8.677   5.725   8.994  0.0093  0.0851 -0.1631
12517SOL    HW139868   8.649   5.761   9.078 -0.7545 -0.3974 -0.2141
12517SOL    HW239869   8.605   5.743   8.934  0.5702  0.4774 -0.7410
12518SOL     OW39870   5.206   0.843   7.870  0.6010  0.1212 -0.2549
12518SOL    HW139871   5.151   0.880   7.801 -0.6301 -0.9127  0.1404
12518SOL    HW239872   5.220   0.752   7.843  2.9363  0.5873 -0.8221
12519SOL     OW39873   4.543   7.042   5.957  0.1676  0.0433  0.0703
12519SOL    HW139874   4.595   7.024   6.035  0.5766 -0.6858 -0.3551
12519SOL    HW239875   4.581   7.121   5.919  0.6053 -0.1675  0.0693
12520SOL     OW39876   0.562   9.834   1.874  0.3651 -0.0270  0.3209
12520SOL    HW139877   0.496   9.769   1.897  0.6498 -0.1803  0.7097
12520SOL    HW239878   0.513   9.915   1.861  0.0331 -0.2647  0.0471
12521SOL     OW39879   4.526   0.444   0.213  0.3071  0.1705  0.0383
12521SOL    HW139880   4.485   0.529   0.232 -0.2593 -0.4774  1.8751
12521SOL    HW239881   4.456   0.381   0.225  1.3195 -0.7814  1.1567
12522SOL     OW39882   2.823  10.291   7.275 -0.0131 -0.3903  0.4190
12522SOL    HW139883   2.896  10.295   7.213 -0.3754  1.3625  0.0466
12522SOL    HW239884   2.858  10.240   7.348  0.8463 -1.4164 -0.6660
12523SOL     OW39885   0.104   8.175   3.237 -0.2899 -0.0222 -0.5313
12523SOL    HW139886   0.038   8.217   3.294 -2.1419 -2.2681 -0.8843
12523SOL    HW239887   0.188   8.201   3.276 -1.4256 -0.2446  2.3763
12524SOL     OW39888   3.308   3.291   3.040 -0.0671  0.9125 -0.0849
12524SOL    HW139889   3.254   3.311   3.117  0.7394 -0.3993  0.8602
12524SOL    HW239890   3.245   3.262   2.974 -0.7058  1.2923  0.3507
12525SOL     OW39891  10.479   5.487   1.514  0.0209  0.4888 -0.2735
12525SOL    HW139892  10.450   5.578   1.511 -0.3073  0.4603  1.3012
12525SOL    HW239893  10.479   5.459   1.423 -0.8610  1.7564 -0.6865
12526SOL     OW39894   7.898  10.229   4.394  0.1374  0.1098  0.5240
12526SOL    HW139895   7.967  10.162   4.399 -1.6752 -1.8871  0.3758
12526SOL    HW239896   7.883  10.255   4.484  1.4242  0.9717  0.5116
12527SOL     OW39897   4.836   5.888   6.953  0.6840  0.8723 -0.1588
12527SOL    HW139898   4.782   5.950   6.904 -0.7195 -0.2352 -0.0366
12527SOL    HW239899   4.899   5.855   6.889  0.6900  1.5334 -0.5025
12528SOL     OW39900   4.209   5.494   2.198 -0.8218 -0.1034 -0.0057
12528SOL    HW139901   4.141   5.427   2.193 -0.2654 -0.5668 -3.0814
12528SOL    HW239902   4.184   5.559   2.132  0.3671  1.0587  0.6369
12529SOL     OW39903   4.189   3.207   8.195 -0.1757 -0.5259  0.3576
12529SOL    HW139904   4.239   3.233   8.117 -1.6229  0.4491 -0.2845
12529SOL    HW239905   4.211   3.274   8.260 -0.7357 -0.0305  0.0380
12530SOL     OW39906   3.782   6.240   9.885 -0.3782  0.0303 -0.2772
12530SOL    HW139907   3.791   6.168   9.823 -0.5051  0.4931 -0.8438
12530SOL    HW239908   3.687   6.254   9.892 -0.4252 -0.7112  0.8442
12531SOL     OW39909  10.430   9.759   4.966  0.1358  0.0119 -0.2464
12531SOL    HW139910  10.424   9.804   4.882  2.7879  1.2226  0.1120
12531SOL    HW239911  10.485   9.816   5.020 -1.6787 -0.5959  2.4361
12532SOL     OW39912   3.975   5.885   5.850  0.1555 -0.6097  0.2537
12532SOL    HW139913   3.936   5.961   5.893 -1.6483 -1.7025  0.6778
12532SOL    HW239914   4.053   5.866   5.901  0.9857  1.2997 -0.2322
12533SOL     OW39915   5.220   7.116   7.855  0.4054  0.6901 -0.3190
12533SOL    HW139916   5.133   7.150   7.838 -0.5894 -2.5597 -2.5247
12533SOL    HW239917   5.264   7.115   7.770  0.8290 -2.0733 -0.1520
12534SOL     OW39918   7.379   4.632   0.845 -0.5571 -1.2194 -0.5977
12534SOL    HW139919   7.470   4.641   0.876 -0.3723 -1.9480 -0.9104
12534SOL    HW239920   7.384   4.565   0.778 -1.1235 -0.3772 -1.5038
12535SOL     OW39921   9.430   4.532   5.373  0.4663  0.2417 -0.4758
12535SOL    HW139922   9.377   4.571   5.442 -1.4352 -1.1511 -1.0489
12535SOL    HW239923   9.461   4.607   5.322  0.0808  1.1699  0.6047
12536SOL     OW39924   7.962   2.431   7.736 -0.4335  0.3963 -0.3462
12536SOL    HW139925   7.911   2.404   7.660 -0.3048  1.0668 -0.6732
12536SOL    HW239926   7.910   2.402   7.811 -1.2361  0.9592 -0.6753
12537SOL     OW39927   2.068  10.492   7.868  0.2394 -0.2531  0.0316
12537SOL    HW139928   2.027  10.551   7.805  0.2648  0.3152  0.5400
12537SOL    HW239929   2.121  10.433   7.815  1.2792  1.0255 -0.3869
12538SOL     OW39930   6.444   2.681   8.855  0.5058 -0.3515 -0.6784
12538SOL    HW139931   6.427   2.650   8.944 -0.7971  1.8319 -0.0930
12538SOL    HW239932   6.531   2.648   8.834  0.6463 -1.3181  1.1989
12539SOL     OW39933   9.570   1.631   9.357 -0.0087  0.9528 -0.6701
12539SOL    HW139934   9.482   1.615   9.390 -0.0582  0.2417 -1.1372
12539SOL    HW239935   9.570   1.596   9.268  0.8654  0.5485 -0.5239
12540SOL     OW39936   2.670   5.887   2.725 -0.1496  0.3122  0.2858
12540SOL    HW139937   2.588   5.936   2.735 -0.7308 -0.4117 -0.6907
12540SOL    HW239938   2.674   5.866   2.632  0.2150 -1.2447  0.6145
12541SOL     OW39939   3.235   3.698   9.663 -0.0334 -0.5038 -0.5642
12541SOL    HW139940   3.243   3.793   9.667  0.4347 -0.4754 -1.7180
12541SOL    HW239941   3.163   3.676   9.722  0.9074  0.4044  1.0111
12542SOL     OW39942   4.925   7.546   1.739 -0.4880  0.0327  0.4230
12542SOL    HW139943   4.927   7.639   1.760  1.3782 -0.1297  1.1658
12542SOL    HW239944   4.924   7.543   1.643  1.4724  0.8563  0.3343
12543SOL     OW39945   2.214   4.820   5.115  0.8040 -0.0864 -0.0681
12543SOL    HW139946   2.138   4.766   5.095  0.5730 -0.0565  0.6876
12543SOL    HW239947   2.209   4.835   5.209  1.6845  0.0211 -0.0278
12544SOL     OW39948   5.385   4.533   2.111  0.0319  0.0224 -0.2373
12544SOL    HW139949   5.417   4.446   2.136  0.9893 -0.4014 -2.6564
12544SOL    HW239950   5.411   4.590   2.184  2.9416 -1.0244 -0.3185
12545SOL     OW39951   4.731   4.917   5.396  0.3466  0.3564  0.1570
12545SOL    HW139952   4.801   4.857   5.370 -0.1861  0.0011 -0.4684
12545SOL    HW239953   4.664   4.907   5.329  0.5078  2.1217 -0.3077
12546SOL     OW39954   8.028   3.761   4.865  0.2219  1.5161 -0.0509
12546SOL    HW139955   8.069   3.699   4.806  0.6396 -0.1847  1.9043
12546SOL    HW239956   8.086   3.837   4.865  2.3007  0.0243  1.0140
12547SOL     OW39957   9.537   8.505   7.600 -0.1848  0.1778  0.1427
12547SOL    HW139958   9.564   8.433   7.657 -2.1959 -0.4610  0.3821
12547SOL    HW239959   9.501   8.462   7.523  0.8757  1.0047 -0.8369
12548SOL     OW39960   1.911   5.406   0.492 -0.1621 -0.6946 -0.5150
12548SOL    HW139961   1.816   5.417   0.495 -0.4141 -2.7514  0.1820
12548SOL    HW239962   1.938   5.459   0.417 -1.6630  1.0410  0.0950
12549SOL     OW39963   4.655   4.650   2.424 -0.5927  0.2100  0.7642
12549SOL    HW139964   4.610   4.612   2.349 -0.2643 -0.5158  0.9267
12549SOL    HW239965   4.697   4.576   2.467 -0.0820  0.7370  1.1907
12550SOL     OW39966   5.810   2.416   7.943 -0.4860 -0.1443 -0.3095
12550SOL    HW139967   5.771   2.347   7.999 -0.6139  0.8533  0.8791
12550SOL    HW239968   5.858   2.368   7.876 -1.8091 -1.4113 -0.4068
12551SOL     OW39969   2.767   0.972   4.760  0.1240  0.4331  0.0772
12551SOL    HW139970   2.837   0.934   4.706 -1.4140 -0.7852 -1.1832
12551SOL    HW239971   2.768   1.065   4.738  1.6629  0.5251  0.4702
12552SOL     OW39972   1.676   1.574   9.048  0.1644  0.6415 -0.2821
12552SOL    HW139973   1.583   1.548   9.048  0.5711 -0.9027 -0.0273
12552SOL    HW239974   1.691   1.606   9.137 -0.0916  0.7741 -0.2843
12553SOL     OW39975   9.834   4.038   0.190  0.4061  0.0691 -0.4045
12553SOL    HW139976   9.912   4.082   0.157  0.9940  0.1746  1.0346
12553SOL    HW239977   9.854   4.022   0.283 -1.4021  0.3513  0.0566
12554SOL     OW39978   3.439   5.526   5.361  0.8126  0.1329 -0.4609
12554SOL    HW139979   3.525   5.542   5.321  0.5931  0.2425 -0.8888
12554SOL    HW239980   3.430   5.596   5.426  0.8992  0.3209 -0.6508
12555SOL     OW39981   7.504   7.436   8.309 -0.1392 -0.3838 -0.3319
12555SOL    HW139982   7.513   7.431   8.404  1.4152 -0.9145 -0.4812
12555SOL    HW239983   7.500   7.530   8.290 -1.2705 -0.2882  0.2977
12556SOL     OW39984   7.131   3.285   1.595 -0.0091  0.2214  0.1556
12556SOL    HW139985   7.170   3.321   1.516  0.6437  1.0619  0.8358
12556SOL    HW239986   7.059   3.344   1.616  0.5475  0.6928  0.8159
12557SOL     OW39987   6.148   6.892   5.942 -1.0042 -0.4628 -0.4150
12557SOL    HW139988   6.138   6.984   5.967 -0.9347 -0.1259 -1.5500
12557SOL    HW239989   6.125   6.890   5.849 -1.1876 -1.6320 -0.3596
12558SOL     OW39990   9.061   6.425   8.245  0.4157 -0.2584 -0.1263
12558SOL    HW139991   9.131   6.426   8.180  0.1753 -0.5341 -0.3926
12558SOL    HW239992   9.085   6.493   8.307  0.8073 -0.2030 -0.3370
12559SOL     OW39993   4.505   5.535   4.197  0.2020 -0.3863  0.2240
12559SOL    HW139994   4.596   5.562   4.212 -0.3381  1.6195  0.1146
12559SOL    HW239995   4.493   5.544   4.102 -0.3787  0.2949  0.3586
12560SOL     OW39996   5.103   4.361   9.571 -0.1295  0.2659 -0.2064
12560SOL    HW139997   5.112   4.348   9.665 -0.5134 -0.3755 -0.2514
12560SOL    HW239998   5.027   4.418   9.561 -0.5073 -0.2273 -0.1580
12561SOL     OW39999   4.568   6.375   2.339  0.0099 -0.2065 -0.5081
12561SOL    HW140000   4.551   6.311   2.270 -0.9733  2.2440 -2.6932
12561SOL    HW240001   4.630   6.437   2.300  0.5454  0.4883  1.3408
12562SOL     OW40002   3.940   4.070   5.291 -0.1586 -0.4640 -0.0462
12562SOL    HW140003   3.981   4.021   5.362 -0.4298 -0.8790 -0.1670
12562SOL    HW240004   3.965   4.161   5.306  0.5831 -0.6740  0.0253
12563SOL     OW40005   5.376   3.959   9.521 -0.4271 -0.8547  0.4590
12563SOL    HW140006   5.412   3.920   9.600 -0.6481 -0.4849  0.7519
12563SOL    HW240007   5.329   3.888   9.478 -0.3454 -1.0478  0.6881
12564SOL     OW40008   4.925   6.960   7.951  0.1921  0.0931 -0.3992
12564SOL    HW140009   4.946   7.001   7.867 -0.0979  0.0207 -0.5094
12564SOL    HW240010   4.890   6.874   7.927  2.0765 -0.8008 -0.1220
12565SOL     OW40011   7.542   8.006   8.653 -0.3067 -0.0680 -0.1034
12565SOL    HW140012   7.629   8.004   8.693  0.1327  0.9185 -0.9703
12565SOL    HW240013   7.536   7.922   8.607 -0.4384 -0.7962  1.2049
12566SOL     OW40014   8.168   0.025   6.436  0.0685  0.0511  0.0012
12566SOL    HW140015   8.193   0.100   6.381  2.5972  0.2979  1.3217
12566SOL    HW240016   8.109   0.062   6.501 -0.8778  0.2916 -0.9691
12567SOL     OW40017   3.504   4.837   3.187  0.4027 -0.2070  0.2981
12567SOL    HW140018   3.506   4.748   3.220 -0.1359 -0.3194  0.0478
12567SOL    HW240019   3.411   4.854   3.170  0.5221  0.3262  0.1536
12568SOL     OW40020   8.430   6.771   4.069 -0.5451  0.4887  0.4309
12568SOL    HW140021   8.401   6.730   3.988  0.5853  1.6190 -0.5940
12568SOL    HW240022   8.402   6.862   4.061 -0.5372  0.5886  1.3898
12569SOL     OW40023   1.325   1.974   5.784 -0.6186  0.1583 -0.1690
12569SOL    HW140024   1.269   1.903   5.816  1.8091 -0.9327  2.0408
12569SOL    HW240025   1.379   1.933   5.717 -1.2873  0.7889 -1.1264
12570SOL     OW40026   5.959   0.205   8.944 -0.0293  0.0403 -0.1482
12570SOL    HW140027   5.966   0.270   8.874  0.0974  0.4467  0.2358
12570SOL    HW240028   5.865   0.199   8.962 -0.3077 -1.6713 -1.8245
12571SOL     OW40029   9.415   7.662   0.426  0.0064 -0.1130  0.3816
12571SOL    HW140030   9.432   7.589   0.366  1.6735  0.5885 -0.0402
12571SOL    HW240031   9.370   7.727   0.371 -0.2509 -0.2694  0.4057
12572SOL     OW40032   1.742   8.905   3.387 -0.3302  0.0409 -0.1322
12572SOL    HW140033   1.696   8.879   3.307  2.2529 -0.2770 -1.6353
12572SOL    HW240034   1.677   8.897   3.456 -3.0895  1.5344 -2.3193
12573SOL     OW40035   1.937   5.205   7.235 -0.0796  0.1650  0.0642
12573SOL    HW140036   1.933   5.112   7.213  0.6198  0.2714 -0.5604
12573SOL    HW240037   1.923   5.251   7.152 -2.1302  0.6661  0.6401
12574SOL     OW40038   7.537   6.792   1.410  0.7738 -0.0971  0.5256
12574SOL    HW140039   7.492   6.720   1.456 -2.2338  0.5834 -1.1285
12574SOL    HW240040   7.487   6.870   1.432  2.2364  1.0509 -0.0443
12575SOL     OW40041   6.466   0.774   5.061 -0.4886 -0.1038  0.1317
12575SOL    HW140042   6.468   0.850   5.119  0.3804 -0.3792  0.4824
12575SOL    HW240043   6.430   0.704   5.115  0.6064 -0.4373  0.4544
12576SOL     OW40044   5.349   5.846   7.867  0.2539 -0.7231  0.5259
12576SOL    HW140045   5.309   5.875   7.785  1.1077  0.1361  0.3927
12576SOL    HW240046   5.326   5.753   7.873 -1.2221 -0.3981  0.1689
12577SOL     OW40047   2.000   9.204   3.134  0.8402  0.0940 -0.0536
12577SOL    HW140048   2.001   9.295   3.103  0.2306 -0.1934 -0.9764
12577SOL    HW240049   1.909   9.176   3.123  0.7986 -0.3008  1.2399
12578SOL     OW40050   6.805   5.003   4.805  0.5451 -0.2325 -0.1850
12578SOL    HW140051   6.878   5.058   4.777  0.7761 -0.0072  0.8119
12578SOL    HW240052   6.831   4.972   4.892 -0.3922 -0.4391  0.0346
12579SOL     OW40053   8.962   6.399  10.435 -0.5378 -1.2414 -0.9561
12579SOL    HW140054   8.925   6.376  10.520  3.3767  0.6408  1.5369
12579SOL    HW240055   8.886   6.425  10.382 -3.0273 -0.0694  2.7835
12580SOL     OW40056   9.267   4.145   6.272 -0.2862  0.0084 -0.2658
12580SOL    HW140057   9.246   4.084   6.202 -0.5018 -0.6940  0.3911
12580SOL    HW240058   9.194   4.137   6.334 -1.1564  2.1247 -0.9096
12581SOL     OW40059   5.645   1.615   5.467  0.1592 -0.8533  0.3061
12581SOL    HW140060   5.622   1.523   5.482  0.1754 -0.6403  1.6979
12581SOL    HW240061   5.735   1.612   5.436  0.6814 -1.2250  1.7959
12582SOL     OW40062   6.733   4.162   8.319  0.1688  0.4219  0.1459
12582SOL    HW140063   6.816   4.127   8.286  0.8082  2.4931 -0.5838
12582SOL    HW240064   6.671   4.146   8.249  1.0170  2.8034 -1.2602
12583SOL     OW40065   8.785   8.638   4.072 -0.3522  0.0743 -0.1806
12583SOL    HW140066   8.794   8.614   4.164 -1.2547 -1.0578 -0.3587
12583SOL    HW240067   8.701   8.683   4.066  0.0186  0.7526 -0.3389
12584SOL     OW40068   2.473  10.499   8.775  0.6952 -0.0895  0.5958
12584SOL    HW140069   2.424  10.437   8.828 -1.6805  0.7774 -0.4550
12584SOL    HW240070   2.531  10.544   8.837  0.4448 -1.4009  1.8194
12585SOL     OW40071   9.279   9.301   9.179  0.0907 -0.7871  0.1119
12585SOL    HW140072   9.349   9.237   9.192  1.2572  0.5153  0.4772
12585SOL    HW240073   9.200   9.256   9.210  0.5189 -2.7040 -1.3678
12586SOL     OW40074   1.658   9.531   8.465  0.1129 -0.0294  0.1825
12586SOL    HW140075   1.713   9.456   8.489  1.0991  0.6370  0.0982
12586SOL    HW240076   1.662   9.534   8.369  1.0800  0.8249  0.2277
12587SOL     OW40077   2.398   3.430   6.499  0.2824  0.0647  0.0321
12587SOL    HW140078   2.411   3.393   6.412  2.0170  1.7647 -0.5147
12587SOL    HW240079   2.330   3.376   6.539 -0.4659 -0.8448 -2.3149
12588SOL     OW40080   6.397   9.704   5.292 -0.6197 -0.4343 -0.5467
12588SOL    HW140081   6.485   9.670   5.306 -1.2101 -1.5614  0.6166
12588SOL    HW240082   6.340   9.645   5.341 -1.9625  0.6672 -0.7095
12589SOL     OW40083   3.704   1.869  10.393  0.2918  0.5711  0.0422
12589SOL    HW140084   3.781   1.870  10.336  1.5169  2.4782  1.5999
12589SOL    HW240085   3.729   1.923  10.468 -1.1078 -2.1000  2.6102
12590SOL     OW40086   8.099   4.261   7.084  0.6152  0.0192 -0.4443
12590SOL    HW140087   8.150   4.297   7.156  0.3337 -2.5123  1.1691
12590SOL    HW240088   8.010   4.291   7.101  0.9987  1.9100 -1.5236
12591SOL     OW40089   6.891   1.280   2.080 -0.1289 -0.1485 -0.3978
12591SOL    HW140090   6.947   1.217   2.125  1.0671 -1.2859 -3.2546
12591SOL    HW240091   6.947   1.357   2.067 -0.5612  0.2891  0.2755
12592SOL     OW40092   3.959   1.825   8.145 -0.2755  0.0343  0.3618
12592SOL    HW140093   3.870   1.860   8.152 -0.8568 -1.4790  0.9641
12592SOL    HW240094   3.982   1.802   8.235 -0.1771 -1.6831 -0.0681
12593SOL     OW40095   1.566   8.444   9.645 -0.0787  0.1898  0.1952
12593SOL    HW140096   1.471   8.453   9.651 -0.1774  1.1094 -1.7670
12593SOL    HW240097   1.585   8.455   9.551  1.8426 -1.2421  0.3441
12594SOL     OW40098   8.013  10.423   2.122  0.2428  0.3216  0.1624
12594SOL    HW140099   8.027  10.455   2.033  1.4855 -2.2666 -0.6912
12594SOL    HW240100   7.918  10.418   2.130  0.0900  1.3331 -0.7207
12595SOL     OW40101   7.160   6.153   2.345 -0.0005  0.2072  0.0432
12595SOL    HW140102   7.080   6.124   2.300 -0.8507  0.3156  1.4327
12595SOL    HW240103   7.214   6.075   2.350 -1.2638 -0.6149  1.6339
12596SOL     OW40104   6.881   9.668   7.314  0.6221 -0.0876  0.7528
12596SOL    HW140105   6.823   9.676   7.390 -1.9334  0.0277 -1.0802
12596SOL    HW240106   6.843   9.596   7.263  1.4111  0.7796 -1.1206
12597SOL     OW40107   4.371   5.210   7.275  0.2439  0.0004  0.1813
12597SOL    HW140108   4.335   5.265   7.344 -0.0628  1.4692 -1.1103
12597SOL    HW240109   4.465   5.231   7.275  0.5838 -1.3466  1.3097
12598SOL     OW40110  10.465   2.543   9.675  0.7568  0.4903  0.3077
12598SOL    HW140111  10.457   2.513   9.585  0.4924  0.0189  0.4889
12598SOL    HW240112  10.554   2.520   9.700  0.4203 -0.5470  0.5886
12599SOL     OW40113   7.468   8.313   7.615  0.1020  0.1651  0.0381
12599SOL    HW140114   7.425   8.289   7.697  0.2817  0.2189  0.1489
12599SOL    HW240115   7.559   8.288   7.628 -0.2801 -1.9885 -0.9986
12600SOL     OW40116   2.105   8.955   2.072 -0.1152 -0.4741 -0.4135
12600SOL    HW140117   2.098   8.906   1.991  4.3966 -0.6439 -0.9537
12600SOL    HW240118   2.121   9.045   2.044 -1.7001  0.1309  0.4587
12601SOL     OW40119   7.776   8.318   1.840 -0.2608  0.0116 -0.1457
12601SOL    HW140120   7.864   8.285   1.859 -0.3481  0.8271  2.0181
12601SOL    HW240121   7.790   8.409   1.815 -0.4653  0.1955  0.3786
12602SOL     OW40122   0.873   3.021   0.605 -0.1649 -0.5298 -0.2940
12602SOL    HW140123   0.820   3.017   0.526 -0.6424  2.1726 -0.2115
12602SOL    HW240124   0.818   3.067   0.669  1.7335  1.2888  0.1723
12603SOL     OW40125   6.022   1.759   0.106 -0.3733  0.0920  0.5588
12603SOL    HW140126   6.030   1.755   0.202  3.3545 -0.4564  0.3737
12603SOL    HW240127   6.039   1.850   0.085 -1.7120  0.3229  0.3843
12604SOL     OW40128   4.607   4.264   0.068 -0.2407  0.6066 -0.1235
12604SOL    HW140129   4.632   4.335   0.010 -0.3870 -0.7795 -1.9455
12604SOL    HW240130   4.675   4.263   0.136  1.5956  0.4034 -1.8937
12605SOL     OW40131   8.421   1.585   8.438 -0.2715 -0.1906 -0.0444
12605SOL    HW140132   8.359   1.644   8.394 -0.0804 -0.3916 -0.5890
12605SOL    HW240133   8.422   1.506   8.384 -0.8316 -0.8679  0.9032
12606SOL     OW40134   8.706   1.061   4.697  0.3555 -0.1023  0.5983
12606SOL    HW140135   8.663   0.994   4.751  0.2870  1.0168  1.9666
12606SOL    HW240136   8.796   1.030   4.688  0.1225 -0.7844  0.5166
12607SOL     OW40137   0.456   3.208   3.878  0.7001  0.3997 -0.2553
12607SOL    HW140138   0.459   3.199   3.783  1.0542  1.1445 -0.3285
12607SOL    HW240139   0.523   3.148   3.910  2.4653  2.0562 -0.6574
12608SOL     OW40140   5.167   7.025   4.389 -0.1543 -0.5608 -0.5314
12608SOL    HW140141   5.232   7.034   4.319  1.3136 -0.6439  0.7567
12608SOL    HW240142   5.211   6.972   4.456 -1.4962 -0.4706  0.4674
12609SOL     OW40143   0.648   8.532   1.846  0.5812  0.0651 -0.3944
12609SOL    HW140144   0.669   8.585   1.769  1.5713 -1.5053 -1.2451
12609SOL    HW240145   0.570   8.483   1.821  2.6619 -2.8565 -1.7395
12610SOL     OW40146   6.758   1.585   7.071 -0.4223  0.3478 -0.2089
12610SOL    HW140147   6.805   1.661   7.107 -0.9146  0.0797  1.0653
12610SOL    HW240148   6.803   1.509   7.109 -1.1559  0.0611  0.0954
12611SOL     OW40149   3.018  10.357   5.211 -0.2922 -0.4256  0.1105
12611SOL    HW140150   3.044  10.291   5.147 -1.3901 -0.1841 -0.6209
12611SOL    HW240151   2.931  10.385   5.182  0.0265  1.1320  0.5589
12612SOL     OW40152   1.495   1.091   4.693  0.2388 -0.2490 -0.0423
12612SOL    HW140153   1.518   1.170   4.644 -0.4763  0.8503  1.3327
12612SOL    HW240154   1.402   1.077   4.675  0.4818 -1.1270 -0.7145
12613SOL     OW40155   4.887  10.009   6.394  0.0024 -0.1394  0.0523
12613SOL    HW140156   4.962   9.954   6.419  0.2105  0.8814  1.9129
12613SOL    HW240157   4.821   9.947   6.364  0.6551 -1.3086  0.9234
12614SOL     OW40158   1.167   2.591   0.194  0.1818 -0.3035 -0.0810
12614SOL    HW140159   1.092   2.552   0.238  0.3598  0.1959  0.6661
12614SOL    HW240160   1.132   2.620   0.109  0.1176 -2.3798 -0.8227
12615SOL     OW40161  10.543   9.158   3.705  0.3134  0.0780 -0.2277
12615SOL    HW140162  10.607   9.175   3.636  1.1196  0.9773  0.7226
12615SOL    HW240163  10.494   9.081   3.674  1.8280 -0.6143 -0.9861
12616SOL     OW40164   7.416   2.499   8.832 -0.3004  0.8177 -0.1610
12616SOL    HW140165   7.389   2.417   8.791 -0.6451  1.1241 -0.5576
12616SOL    HW240166   7.344   2.522   8.891  1.1741 -0.8072  2.4284
12617SOL     OW40167   4.854   4.874   4.491  0.2752 -0.3779  0.0214
12617SOL    HW140168   4.771   4.829   4.474  0.3331 -0.7459  0.7106
12617SOL    HW240169   4.913   4.805   4.520  0.5968  0.0187  0.3148
12618SOL     OW40170   8.658   2.604   2.611 -0.4266 -0.7956  0.3115
12618SOL    HW140171   8.584   2.595   2.551 -0.0274  1.0276 -0.5107
12618SOL    HW240172   8.733   2.571   2.562 -0.3540 -0.7856  0.4143
12619SOL     OW40173   3.081   7.593   4.869 -0.0915 -0.0609 -0.0564
12619SOL    HW140174   3.063   7.593   4.963  0.1352 -2.0588  0.0383
12619SOL    HW240175   3.160   7.540   4.859 -0.5605 -0.5707 -1.4131
12620SOL     OW40176   9.941   2.217   8.405 -0.7464  0.6169  0.5042
12620SOL    HW140177   9.937   2.304   8.367  1.6481  0.6108  0.0723
12620SOL    HW240178   9.994   2.227   8.485 -0.6500 -0.3833  0.5885
12621SOL     OW40179   1.035   7.323   7.917  0.2098 -0.1639  0.1146
12621SOL    HW140180   1.111   7.289   7.869 -0.3140  0.2004 -1.0072
12621SOL    HW240181   0.960   7.302   7.861 -0.7343 -1.9438  1.9166
12622SOL     OW40182   9.560   2.857   6.704 -0.8780 -0.1999  0.0227
12622SOL    HW140183   9.511   2.794   6.757 -0.4145 -1.0096 -0.4816
12622SOL    HW240184   9.642   2.869   6.751 -0.7953 -0.3017 -0.0936
12623SOL     OW40185   8.493   7.558   1.946  0.5321 -0.6803  0.4357
12623SOL    HW140186   8.409   7.533   1.984 -1.1764 -0.2916 -2.7063
12623SOL    HW240187   8.487   7.653   1.935  0.5508 -0.8725 -1.5030
12624SOL     OW40188   2.147   1.569   8.725 -0.4334 -0.1491  0.1629
12624SOL    HW140189   2.110   1.584   8.812 -1.3809  0.9331 -0.3982
12624SOL    HW240190   2.076   1.590   8.664  1.0629  2.1087 -0.9665
12625SOL     OW40191   1.225   6.330   4.486 -0.3912 -0.0345 -0.5854
12625SOL    HW140192   1.237   6.414   4.440 -0.8115 -0.1811 -0.9730
12625SOL    HW240193   1.249   6.265   4.420  0.8013 -0.2056 -0.0096
12626SOL     OW40194   7.539  10.588   2.003  0.3755 -0.1572  0.1965
12626SOL    HW140195   7.458  10.567   2.050 -1.5962  0.3074 -2.7109
12626SOL    HW240196   7.521  10.672   1.961  3.4376  1.3152  1.5386
12627SOL     OW40197   7.696  10.459   2.418 -0.2646 -0.1056 -0.2875
12627SOL    HW140198   7.745  10.383   2.449  1.2168  1.0029  0.2010
12627SOL    HW240199   7.752  10.534   2.439 -3.0060  1.4540  2.1212
12628SOL     OW40200   7.621   8.926   2.259  0.2414  0.3459  0.4508
12628SOL    HW140201   7.549   8.944   2.319  1.1409  1.2547  1.3066
12628SOL    HW240202   7.588   8.951   2.173 -1.1584 -1.2203  0.4937
12629SOL     OW40203   9.218   9.521   1.252 -0.2358 -0.4409 -0.3310
12629SOL    HW140204   9.133   9.484   1.275 -0.6580 -0.8513 -2.3540
12629SOL    HW240205   9.279   9.478   1.311 -1.3594 -0.4383  0.8854
12630SOL     OW40206   9.693   4.374   0.096 -0.4843 -0.0770  0.2397
12630SOL    HW140207   9.755   4.337   0.033  0.2735 -1.2460  1.6126
12630SOL    HW240208   9.615   4.394   0.044  0.3057 -0.4997 -1.1593
12631SOL     OW40209  10.023   7.503   3.765  0.3587  0.3882 -0.4003
12631SOL    HW140210  10.009   7.539   3.677 -1.5821  1.2362  0.2006
12631SOL    HW240211   9.939   7.464   3.788  1.5853 -2.1463  0.1106
12632SOL     OW40212   4.476   5.461   4.443 -0.2874  0.2765  0.1133
12632SOL    HW140213   4.389   5.422   4.442 -0.6866  1.1096 -1.5019
12632SOL    HW240214   4.492   5.486   4.352  0.4778  2.6367  0.8039
12633SOL     OW40215   8.854   9.829   9.083  0.4122  0.2704  0.3323
12633SOL    HW140216   8.762   9.838   9.060 -0.1907 -1.1533  1.9190
12633SOL    HW240217   8.865   9.883   9.161  0.9885  0.6005  0.0320
12634SOL     OW40218   9.957   6.314   0.449  0.0741  0.0737  0.1673
12634SOL    HW140219   9.971   6.223   0.478  0.6741 -0.3368 -1.3083
12634SOL    HW240220   9.881   6.309   0.392  0.8347  0.2500 -0.8960
12635SOL     OW40221   6.369   0.153   2.791  0.0812  0.2303  0.0707
12635SOL    HW140222   6.292   0.208   2.780  0.5298  1.0743  0.9758
12635SOL    HW240223   6.373   0.137   2.886  0.5300 -0.5211 -0.0706
12636SOL     OW40224   5.990   2.657  10.403 -0.1660  0.0074  0.1989
12636SOL    HW140225   6.073   2.611  10.392 -0.2691 -0.0379 -0.3778
12636SOL    HW240226   5.951   2.659  10.316 -0.7711  0.0316  0.4624
12637SOL     OW40227   4.313   4.246   0.226  0.1369  0.1833  0.0251
12637SOL    HW140228   4.379   4.183   0.199 -0.7510 -0.0911 -1.6117
12637SOL    HW240229   4.239   4.193   0.256 -0.1099  0.4591 -0.0852
12638SOL     OW40230   8.850   5.136   2.001  0.3181 -0.4291  0.0096
12638SOL    HW140231   8.853   5.052   1.955  0.3325  0.1880 -1.1343
12638SOL    HW240232   8.815   5.198   1.937  1.5053  0.7038  0.4067
12639SOL     OW40233   3.476   6.445   8.345 -0.1707  0.8924  0.4536
12639SOL    HW140234   3.419   6.409   8.413 -0.0949 -0.5619 -0.2232
12639SOL    HW240235   3.564   6.439   8.382 -0.2368  1.1065  0.6466
12640SOL     OW40236   5.428   9.265   1.751  0.4415  0.1573  0.1417
12640SOL    HW140237   5.409   9.350   1.791  1.6595  0.8488 -0.6832
12640SOL    HW240238   5.343   9.233   1.720  0.2530  2.1837 -1.6251
12641SOL     OW40239   2.613   4.149  10.352  0.1716 -0.1596  0.1084
12641SOL    HW140240   2.569   4.171  10.434  1.4709 -1.2963  1.1634
12641SOL    HW240241   2.573   4.067  10.324 -0.1768  0.1573 -0.3377
12642SOL     OW40242   3.727   1.311   9.461  0.0323  0.0858  1.0105
12642SOL    HW140243   3.748   1.229   9.506  1.2468 -1.0848 -1.4648
12642SOL    HW240244   3.811   1.350   9.439 -0.3166 -0.6099 -2.1285
12643SOL     OW40245   3.868   7.176   3.117 -0.8493  0.1677 -0.1879
12643SOL    HW140246   3.856   7.257   3.068 -0.4341  0.8558  0.8241
12643SOL    HW240247   3.961   7.154   3.105 -0.3098  1.2647  1.6334
12644SOL     OW40248   2.649   2.810  10.286 -0.5621  0.5201 -0.4178
12644SOL    HW140249   2.603   2.750  10.344 -1.3897 -2.6879 -4.0204
12644SOL    HW240250   2.640   2.895  10.329 -1.2536 -1.4290  3.9306
12645SOL     OW40251   3.291   4.361   4.712  0.9168 -0.2334 -0.2141
12645SOL    HW140252   3.249   4.299   4.772  1.7971 -1.1936 -0.5618
12645SOL    HW240253   3.373   4.384   4.756  0.2077  1.3922  0.3213
12646SOL     OW40254   3.862   5.589   1.053 -0.2013 -0.8889  0.4220
12646SOL    HW140255   3.900   5.548   0.976  0.6056 -0.0178  0.3308
12646SOL    HW240256   3.773   5.614   1.026  0.2431 -0.1346 -0.4108
12647SOL     OW40257   3.051   8.760   5.650 -0.1294 -0.1694  0.4189
12647SOL    HW140258   3.066   8.839   5.598 -1.0881  0.3774  0.9181
12647SOL    HW240259   2.959   8.767   5.676 -0.7181 -2.2894 -0.8758
12648SOL     OW40260   0.459   7.808   0.287  0.3906  0.1945 -0.3050
12648SOL    HW140261   0.372   7.806   0.247  1.0484  1.2185 -1.8388
12648SOL    HW240262   0.492   7.718   0.277  0.3831  0.3414 -1.7195
12649SOL     OW40263  10.257   1.208   5.525  0.0183 -0.6175  0.0578
12649SOL    HW140264  10.170   1.178   5.500 -0.5985  1.6544 -0.7710
12649SOL    HW240265  10.249   1.230   5.618 -0.0388 -1.1853  0.1929
12650SOL     OW40266   6.362   4.274   0.753  0.1591 -0.0019  0.0062
12650SOL    HW140267   6.400   4.348   0.706 -0.1310  0.5980  0.6968
12650SOL    HW240268   6.278   4.306   0.785  0.4223 -0.3338  1.0770
12651SOL     OW40269   3.092   7.595   3.289 -0.3711  0.3298 -0.4268
12651SOL    HW140270   3.146   7.659   3.335  0.6685  0.6066 -1.9419
12651SOL    HW240271   3.041   7.647   3.227 -1.4267 -0.0754  0.0717
12652SOL     OW40272   4.927   1.666   3.461  0.2124 -0.5326  0.7519
12652SOL    HW140273   4.836   1.662   3.434  0.3068  1.2283 -0.0164
12652SOL    HW240274   4.960   1.747   3.420  1.8378 -0.6196  1.8062
12653SOL     OW40275   0.285  10.066   6.060  0.2539  0.4062 -0.0898
12653SOL    HW140276   0.298  10.140   6.119  2.4687  0.0736 -0.0721
12653SOL    HW240277   0.258  10.106   5.977  4.0811  1.6150 -0.9355
12654SOL     OW40278   5.756   2.562   9.014 -0.4552  0.3927 -0.4385
12654SOL    HW140279   5.821   2.527   8.952 -0.5448  0.5520 -0.6263
12654SOL    HW240280   5.789   2.537   9.100 -1.2350 -1.3715 -0.6068
12655SOL     OW40281   6.885   9.031   3.980 -0.2417  0.2221  0.3287
12655SOL    HW140282   6.849   8.942   3.981  1.6374 -0.6850  3.5443
12655SOL    HW240283   6.888   9.056   4.073  3.0422  1.9491 -0.1009
12656SOL     OW40284   7.045  10.497   3.819 -0.3446  0.1461  0.3907
12656SOL    HW140285   7.077  10.573   3.770  0.4754  0.8891  2.0246
12656SOL    HW240286   7.124  10.449   3.844 -0.8286 -1.0070 -0.1706
12657SOL     OW40287   1.356   3.243   3.445 -0.0787 -0.1062  0.0706
12657SOL    HW140288   1.355   3.339   3.444 -0.3388 -0.0805  1.1536
12657SOL    HW240289   1.447   3.220   3.426 -0.4403  0.2783 -2.3519
12658SOL     OW40290   5.935   5.259   3.736 -0.3189  0.1555  0.1896
12658SOL    HW140291   5.872   5.257   3.808 -2.0458 -0.7459 -1.2779
12658SOL    HW240292   5.984   5.177   3.744 -0.2192  0.2494  0.5630
12659SOL     OW40293   6.492   2.949   6.540  0.2906  0.0438  0.0829
12659SOL    HW140294   6.472   2.889   6.612 -0.2845 -1.5646 -1.3393
12659SOL    HW240295   6.572   2.914   6.501  0.3989  0.6901 -0.2858
12660SOL     OW40296   7.616   1.150   2.495 -0.2829  0.1416  0.8857
12660SOL    HW140297   7.598   1.063   2.532  2.0255 -0.5364  0.5960
12660SOL    HW240298   7.544   1.166   2.434 -0.5485 -1.7820  0.6274
12661SOL     OW40299   8.322   0.252   5.406 -0.3324 -0.5768 -0.6579
12661SOL    HW140300   8.414   0.230   5.391 -0.1915 -0.3095 -0.2026
12661SOL    HW240301   8.274   0.203   5.338  0.1802 -0.3574 -1.1861
12662SOL     OW40302   2.299   1.691   2.613 -0.0908  0.0723  0.4437
12662SOL    HW140303   2.210   1.699   2.649 -0.7307 -2.3130 -0.4247
12662SOL    HW240304   2.315   1.776   2.571 -1.7713  0.7155  1.0054
12663SOL     OW40305   5.836   6.758   7.339 -0.1178 -0.0190 -0.2635
12663SOL    HW140306   5.861   6.848   7.360 -1.3130  0.2087  0.2415
12663SOL    HW240307   5.857   6.749   7.246  1.2473  0.3316 -0.0156
12664SOL     OW40308   1.788   4.263   8.195  0.9787  0.0824  0.3309
12664SOL    HW140309   1.716   4.257   8.133  0.9786 -0.2367  0.3559
12664SOL    HW240310   1.746   4.283   8.279  0.4538 -3.7324  1.1563
12665SOL     OW40311   2.651   5.611   7.388  0.0771  0.2285  0.6757
12665SOL    HW140312   2.667   5.528   7.433 -2.5181 -1.9963 -2.0925
12665SOL    HW240313   2.726   5.622   7.330  0.0420 -0.7403  0.4184
12666SOL     OW40314   0.043   5.808   5.681  0.2055  0.2439  0.2355
12666SOL    HW140315   0.014   5.828   5.592  1.3339 -0.8527 -0.4114
12666SOL    HW240316   0.102   5.880   5.703 -0.3695  0.7152  0.2474
12667SOL     OW40317   7.474   8.636   3.311  0.0204  0.5999  0.0170
12667SOL    HW140318   7.490   8.555   3.359  0.0584  0.9622  0.6286
12667SOL    HW240319   7.457   8.608   3.222 -1.9180 -0.2465  0.6015
12668SOL     OW40320   1.041   1.693   3.924  0.0201 -0.0763 -0.5434
12668SOL    HW140321   1.137   1.696   3.917  0.0350 -0.5941 -0.6068
12668SOL    HW240322   1.009   1.734   3.844  0.1775  1.2131  0.0126
12669SOL     OW40323   9.633   2.953   3.779  0.4189  0.7388 -0.1055
12669SOL    HW140324   9.659   3.037   3.818  0.5739  0.4146  0.4957
12669SOL    HW240325   9.688   2.888   3.823  1.5729  0.4964 -1.8262
12670SOL     OW40326  10.538   3.023   7.113  0.1515 -0.7640  0.1770
12670SOL    HW140327  10.582   2.943   7.142  2.4237  0.4728  0.3792
12670SOL    HW240328  10.535   3.015   7.018  0.4787 -1.0315  0.1878
12671SOL     OW40329   8.762   3.010   1.253 -0.3330 -0.0207  0.0765
12671SOL    HW140330   8.721   2.975   1.174 -0.4606 -1.2275  0.6487
12671SOL    HW240331   8.841   3.055   1.221 -1.1200  0.7290 -0.8519
12672SOL     OW40332   4.370   0.904   3.787  0.8431 -0.5769 -0.0796
12672SOL    HW140333   4.369   0.920   3.882 -1.7249  0.1362 -0.1516
12672SOL    HW240334   4.330   0.818   3.776  1.9972 -1.0877 -0.5148
12673SOL     OW40335   3.908   3.942   9.536  0.1378  0.1402  0.2260
12673SOL    HW140336   3.880   3.992   9.459  1.6167  2.1235  0.8908
12673SOL    HW240337   3.837   3.954   9.600 -0.7905 -0.9718 -0.5599
12674SOL     OW40338   3.948   2.764   0.046 -1.1749  0.3257 -0.4675
12674SOL    HW140339   3.896   2.780  -0.033  1.9267  0.6093 -2.6471
12674SOL    HW240340   4.000   2.844   0.057  0.4402 -0.7558  0.1900
12675SOL     OW40341   4.867   9.066   6.689  0.0104  0.9737  0.1927
12675SOL    HW140342   4.958   9.092   6.679  0.1312  0.0179 -1.8022
12675SOL    HW240343   4.870   8.971   6.699 -0.7596  0.8804 -0.3097
12676SOL     OW40344   5.559   9.864   7.229  0.2135  0.0545 -0.4949
12676SOL    HW140345   5.523   9.853   7.141  1.0867 -1.1837 -0.7255
12676SOL    HW240346   5.483   9.872   7.286 -0.3605  1.7711 -1.4438
12677SOL     OW40347   3.437   1.095   9.971  0.3197 -0.1594  0.6488
12677SOL    HW140348   3.373   1.159  10.005  1.9862  1.2046  1.3813
12677SOL    HW240349   3.448   1.119   9.879  2.2396  1.8453  1.3284
12678SOL     OW40350   4.651   3.182   6.554 -0.0406  0.5484  0.1504
12678SOL    HW140351   4.659   3.183   6.459 -2.3390 -1.5367 -0.1847
12678SOL    HW240352   4.667   3.090   6.578  0.9017  1.1060  1.8712
12679SOL     OW40353   1.376   3.404   3.914  0.2684  0.5308 -0.4471
12679SOL    HW140354   1.348   3.495   3.907 -0.8830  0.2884  0.5652
12679SOL    HW240355   1.410   3.382   3.827 -1.5378  1.2598 -1.3803
12680SOL     OW40356   2.734   7.223   5.773  0.0929 -0.4687 -0.2778
12680SOL    HW140357   2.817   7.179   5.752  0.9165  0.6645  0.5018
12680SOL    HW240358   2.697   7.246   5.687  0.8507 -0.5159 -0.6275
12681SOL     OW40359   5.133   6.021   9.331 -0.5562 -0.1242  0.1068
12681SOL    HW140360   5.135   5.932   9.295  0.9134 -0.2272  0.3749
12681SOL    HW240361   5.045   6.053   9.312 -0.5996 -1.0545 -1.4528
12682SOL     OW40362   0.971   6.696   4.699  0.0525  0.2502  0.2810
12682SOL    HW140363   0.992   6.720   4.789  1.2294 -2.3674  0.7690
12682SOL    HW240364   0.876   6.707   4.693  0.0657  1.2311  1.5625
12683SOL     OW40365  10.171   1.865   3.348  0.2736  0.2051  0.6816
12683SOL    HW140366  10.162   1.772   3.332  0.7722  0.2696 -0.0383
12683SOL    HW240367  10.102   1.906   3.297  1.4906  0.3698 -0.9173
12684SOL     OW40368   1.751   4.612   0.807  0.4135  0.3738 -0.0683
12684SOL    HW140369   1.822   4.552   0.784 -0.2355 -0.2216 -0.5765
12684SOL    HW240370   1.795   4.694   0.829  1.3975 -0.5835  1.7788
12685SOL     OW40371   4.348   6.426   1.703 -0.6617  0.1868 -0.0126
12685SOL    HW140372   4.371   6.393   1.616  1.4517  2.0907 -0.3028
12685SOL    HW240373   4.377   6.518   1.701  2.2129 -0.4326  3.6069
12686SOL     OW40374   7.926   2.707   3.609 -0.0262  0.6030 -0.2183
12686SOL    HW140375   7.903   2.623   3.570  1.2680  0.0460  0.1439
12686SOL    HW240376   7.999   2.739   3.556 -1.2938  2.1222 -1.1236
12687SOL     OW40377   1.902   9.442   0.814 -0.0487  0.4911 -0.0928
12687SOL    HW140378   1.983   9.402   0.846  0.0801  0.8297 -0.0005
12687SOL    HW240379   1.919   9.457   0.721 -0.8002 -1.4727 -0.6035
12688SOL     OW40380   5.369   3.285   3.113  0.3672  0.0102 -0.4061
12688SOL    HW140381   5.459   3.259   3.094  0.1139  0.3244 -2.1366
12688SOL    HW240382   5.321   3.202   3.116  1.1323 -0.5098  3.5820
12689SOL     OW40383   5.216   0.640  10.489  0.3619 -0.0079 -0.2439
12689SOL    HW140384   5.147   0.706  10.501  0.5131  0.1544 -0.2614
12689SOL    HW240385   5.296   0.685  10.516  0.6111  0.1429 -1.2203
12690SOL     OW40386   5.853   8.769   3.857 -0.3236  0.0875 -0.2230
12690SOL    HW140387   5.827   8.858   3.833  1.2927  0.5587 -0.3382
12690SOL    HW240388   5.771   8.721   3.867 -1.2111  1.5859 -0.1820
12691SOL     OW40389   5.892   6.244   1.333 -0.2595  0.6373 -0.0345
12691SOL    HW140390   5.801   6.216   1.345 -1.0544  3.1316  0.4118
12691SOL    HW240391   5.907   6.233   1.239 -0.3537 -1.4892  0.1475
12692SOL     OW40392   6.128   9.627   0.932  0.1561 -0.1509  0.0154
12692SOL    HW140393   6.163   9.680   1.003  0.4041 -0.4503  0.1207
12692SOL    HW240394   6.099   9.690   0.866 -2.3478  0.2629  1.4005
12693SOL     OW40395   6.803   1.811   8.386  0.1632 -0.1845 -0.2032
12693SOL    HW140396   6.726   1.856   8.353 -0.4971  0.9853  2.6677
12693SOL    HW240397   6.798   1.723   8.347 -1.8851  0.2593 -1.0636
12694SOL     OW40398   3.595   1.131   4.915 -0.2035  0.8801 -0.1490
12694SOL    HW140399   3.620   1.128   5.007 -1.4616  2.3447  0.2860
12694SOL    HW240400   3.677   1.148   4.869  0.6410 -1.0791  0.5482
12695SOL     OW40401   2.138  10.187   1.515 -0.1925  0.0849 -0.0622
12695SOL    HW140402   2.219  10.188   1.464  0.1285  1.5412  0.4059
12695SOL    HW240403   2.138  10.271   1.561 -1.8225 -0.0136  0.1901
12696SOL     OW40404   8.299   0.512   2.060  0.0586 -0.2680 -0.4035
12696SOL    HW140405   8.311   0.533   2.152  0.1764  1.9940 -0.8848
12696SOL    HW240406   8.205   0.496   2.051 -0.2016  0.9910 -0.1288
12697SOL     OW40407   8.018   5.274   1.456 -0.0453  0.4119 -0.0728
12697SOL    HW140408   8.019   5.289   1.361 -0.7407 -1.1565 -0.3561
12697SOL    HW240409   8.045   5.358   1.493  2.1306  0.5176 -1.7018
12698SOL     OW40410   4.320  10.156   1.519  0.3561  0.4837 -0.4984
12698SOL    HW140411   4.267  10.233   1.541  0.2813  0.4550 -0.5803
12698SOL    HW240412   4.401  10.193   1.484 -0.2327  0.5227 -1.8662
12699SOL     OW40413   8.477   7.797   6.238  0.3690  0.5384 -0.0742
12699SOL    HW140414   8.392   7.833   6.215  0.0561 -0.9107 -1.3866
12699SOL    HW240415   8.525   7.871   6.277 -1.0306  1.7095 -0.4848
12700SOL     OW40416   6.399   2.957   8.871 -0.1574  0.7562  0.1829
12700SOL    HW140417   6.305   2.948   8.886 -0.2902  1.0961 -0.4121
12700SOL    HW240418   6.427   2.869   8.843 -0.5345  0.9438 -0.8283
12701SOL     OW40419  10.250   0.855  10.513  0.2528  0.7978 -0.1445
12701SOL    HW140420  10.186   0.797  10.472  1.0373  0.6945 -1.2813
12701SOL    HW240421  10.260   0.821  10.601 -2.6431  1.9460  0.7443
12702SOL     OW40422   1.211   4.419   1.786  0.1507  0.4589  0.0643
12702SOL    HW140423   1.280   4.362   1.821 -1.7240 -2.5875 -0.7876
12702SOL    HW240424   1.130   4.382   1.823 -1.1595  3.2271  0.1788
12703SOL     OW40425   1.150   7.614   7.716 -0.3999 -0.8685  0.4219
12703SOL    HW140426   1.077   7.650   7.766  1.3809 -0.2795  2.7917
12703SOL    HW240427   1.212   7.686   7.708 -0.4450 -1.0341 -2.4999
12704SOL     OW40428   7.469   7.361   6.462 -0.1134 -0.6044 -0.1180
12704SOL    HW140429   7.466   7.430   6.528  2.5442 -0.2667 -0.2301
12704SOL    HW240430   7.512   7.287   6.506 -1.4460 -1.6360 -0.4849
12705SOL     OW40431   1.526   3.585   9.460 -0.2444  0.2525 -0.3813
12705SOL    HW140432   1.491   3.513   9.408  1.2416 -0.0436 -1.0281
12705SOL    HW240433   1.546   3.653   9.396  1.5595 -0.0976 -0.2433
12706SOL     OW40434   2.693   1.262   4.930  0.1668  0.0645  0.4063
12706SOL    HW140435   2.740   1.180   4.945  0.3548 -0.5959 -3.0066
12706SOL    HW240436   2.711   1.284   4.839 -2.4903  2.2035  0.2563
12707SOL     OW40437   3.370   6.423   6.618  0.0710  0.2994 -0.1776
12707SOL    HW140438   3.409   6.494   6.566 -1.0439  0.4300 -0.8738
12707SOL    HW240439   3.366   6.458   6.707 -1.1348  1.4212 -0.6423
12708SOL     OW40440   8.304   2.644   2.213 -0.9404  0.5862  0.8106
12708SOL    HW140441   8.256   2.724   2.194 -3.7795 -1.0070  0.7807
12708SOL    HW240442   8.331   2.611   2.128  1.4752  2.0721  0.8806
12709SOL     OW40443   2.395   6.240   9.560 -0.1046  0.1949 -0.8053
12709SOL    HW140444   2.357   6.298   9.494  0.0901  0.1273 -0.9757
12709SOL    HW240445   2.488   6.263   9.562 -0.3422  1.2090  0.4638
12710SOL     OW40446   7.441  10.312   1.723 -0.0442  0.4465  0.4148
12710SOL    HW140447   7.505  10.329   1.792  1.3100  0.6999 -0.8330
12710SOL    HW240448   7.491  10.266   1.656 -1.0658  1.0555 -0.8134
12711SOL     OW40449   4.342   1.512   3.872  0.4207  0.4574  0.2901
12711SOL    HW140450   4.388   1.495   3.954 -1.6118 -0.2850  1.3633
12711SOL    HW240451   4.374   1.445   3.812  1.6472  0.7605  0.5774
12712SOL     OW40452   4.445   9.709  10.527 -0.0059 -0.3581 -0.3445
12712SOL    HW140453   4.535   9.721  10.559  0.2474 -1.3947 -0.6416
12712SOL    HW240454   4.452   9.719  10.432 -0.5292  1.3630 -0.2328
12713SOL     OW40455   6.722  10.543   6.659 -0.1745  0.2202  0.0286
12713SOL    HW140456   6.720  10.480   6.587 -1.0783 -1.9026  1.8071
12713SOL    HW240457   6.636  10.583   6.659 -0.0216  0.5545 -0.3325
12714SOL     OW40458   8.894   1.300   0.654 -0.3379  0.4503 -0.1750
12714SOL    HW140459   8.890   1.279   0.561 -0.7342  0.5004 -0.1676
12714SOL    HW240460   8.853   1.387   0.661  0.5798  0.8968 -0.0984
12715SOL     OW40461   8.292   6.000   1.828  0.3055  0.6085  0.1099
12715SOL    HW140462   8.347   6.008   1.751  1.3346 -0.6750  0.6798
12715SOL    HW240463   8.214   5.953   1.797 -0.0671  1.5952 -0.4919
12716SOL     OW40464   2.015  10.232   8.122 -0.0063  0.4811 -0.4958
12716SOL    HW140465   2.002  10.268   8.034 -0.5359 -0.1204 -0.6728
12716SOL    HW240466   1.953  10.159   8.127 -1.4183  1.6941  1.0603
12717SOL     OW40467   2.243   5.465   9.371  0.1390  0.0259  0.4509
12717SOL    HW140468   2.152   5.434   9.375 -0.5189  1.9373  3.5735
12717SOL    HW240469   2.237   5.558   9.395  2.7532  0.7616 -1.3772
12718SOL     OW40470   0.550   1.852   8.238  0.0235 -0.2285  0.0189
12718SOL    HW140471   0.488   1.780   8.247 -0.5709 -0.1027 -2.3916
12718SOL    HW240472   0.633   1.809   8.216  0.2213 -0.2639  0.7980
12719SOL     OW40473   2.168   1.682  10.253  0.4712  0.4074  0.2489
12719SOL    HW140474   2.255   1.721  10.261  0.1641  1.2181 -0.2670
12719SOL    HW240475   2.147   1.689  10.160 -0.3632  0.6912  0.4544
12720SOL     OW40476   7.014  10.237   3.535 -0.4005 -0.8180  0.1654
12720SOL    HW140477   7.047  10.219   3.623 -1.9295 -0.2870  0.8842
12720SOL    HW240478   7.067  10.182   3.478  0.4831 -1.3406  1.4339
12721SOL     OW40479   1.910   0.264   7.486  0.3275  0.2720 -0.4306
12721SOL    HW140480   1.928   0.198   7.553  2.2445  0.4115 -0.7539
12721SOL    HW240481   1.990   0.316   7.483 -0.2123  1.0417 -1.9566
12722SOL     OW40482   8.073   1.963   7.853 -0.3782 -0.1384  0.1501
12722SOL    HW140483   7.996   1.971   7.797  0.3391 -0.6150 -0.9257
12722SOL    HW240484   8.131   2.033   7.825 -0.0644 -0.3002  0.3847
12723SOL     OW40485   7.082   5.614   0.066  0.4611  0.4800  0.4561
12723SOL    HW140486   7.145   5.584   0.132  0.7042  0.6648  0.3132
12723SOL    HW240487   7.076   5.709   0.081 -0.4403  0.3496  1.0273
12724SOL     OW40488   0.361   2.392   6.448 -0.0046 -0.0276  0.2577
12724SOL    HW140489   0.382   2.360   6.536  0.3656  0.1574  0.2374
12724SOL    HW240490   0.414   2.471   6.437 -0.3658  0.1856  0.0270
12725SOL     OW40491   8.447   0.019   3.062 -0.3447  0.4865  0.4385
12725SOL    HW140492   8.437   0.061   2.977 -0.8350 -1.0131 -0.2803
12725SOL    HW240493   8.513  -0.049   3.047 -3.7418 -3.0210 -0.1159
12726SOL     OW40494   4.530   1.991  10.028  0.6087  0.3663 -0.3799
12726SOL    HW140495   4.592   1.989  10.102 -0.4367  1.5993  0.5724
12726SOL    HW240496   4.555   2.068   9.978 -0.1364  0.8929  0.0293
12727SOL     OW40497   3.645   0.135   3.467 -0.3280 -0.0371 -0.1677
12727SOL    HW140498   3.689   0.068   3.520 -2.0285 -0.0700  1.3212
12727SOL    HW240499   3.638   0.211   3.525 -1.2816  0.3099 -0.7093
12728SOL     OW40500   7.785   6.167   3.157 -0.2590 -0.0315 -0.4042
12728SOL    HW140501   7.844   6.096   3.131  0.6731  0.8744 -0.8349
12728SOL    HW240502   7.830   6.210   3.230 -0.7109  0.2497 -0.2851
12729SOL     OW40503   4.166   2.747   6.985  0.2594  0.4443 -0.2824
12729SOL    HW140504   4.164   2.826   6.932  1.7584  0.4951 -0.3187
12729SOL    HW240505   4.164   2.779   7.075 -1.6681  0.3847 -0.2736
12730SOL     OW40506   4.291   2.316   6.206 -0.0134 -0.1563 -0.2619
12730SOL    HW140507   4.285   2.315   6.110 -1.3074  1.4429 -0.2553
12730SOL    HW240508   4.210   2.358   6.234  0.7106  0.1386  1.5061
12731SOL     OW40509   0.159  10.290   8.646 -0.0283 -0.3157  0.0361
12731SOL    HW140510   0.127  10.261   8.561  1.3509 -0.6964 -0.3776
12731SOL    HW240511   0.232  10.348   8.626  0.8139 -1.0151  0.9492
12732SOL     OW40512   2.613   0.908   0.641 -0.1345 -0.3782 -0.2261
12732SOL    HW140513   2.554   0.871   0.707 -0.5371 -2.5541 -1.6867
12732SOL    HW240514   2.684   0.948   0.692 -2.8049  2.4292  1.5873
12733SOL     OW40515   0.940   2.444   4.605 -0.1742  1.1040  0.0009
12733SOL    HW140516   0.869   2.423   4.665 -0.9457  0.0323 -1.2249
12733SOL    HW240517   1.007   2.484   4.660 -1.4756  1.6008  1.2885
12734SOL     OW40518   6.044   3.032  10.081 -0.2385 -0.0870  0.5302
12734SOL    HW140519   5.969   2.992  10.125 -1.6606  0.2279 -1.4711
12734SOL    HW240520   6.109   2.962  10.078 -1.3524 -1.1666  0.2104
12735SOL     OW40521   5.372  10.506   3.299 -0.6807 -0.2922 -0.2730
12735SOL    HW140522   5.356  10.431   3.356 -1.6589 -0.2114 -0.4143
12735SOL    HW240523   5.410  10.468   3.219  1.7238 -0.2976  0.7930
12736SOL     OW40524   7.340   5.687   3.878  0.5779  0.3796  0.2073
12736SOL    HW140525   7.368   5.667   3.968 -0.1612  0.0536  0.3717
12736SOL    HW240526   7.245   5.693   3.884  0.4197 -0.8115 -0.7807
12737SOL     OW40527   1.785   9.644   4.941  0.0456  0.1920 -0.6152
12737SOL    HW140528   1.827   9.633   5.026 -0.6397  1.2101 -0.1240
12737SOL    HW240529   1.810   9.732   4.914 -1.6176  0.7749 -0.3758
12738SOL     OW40530   7.507   8.910   3.951 -0.1754 -0.4104  0.2840
12738SOL    HW140531   7.491   8.898   4.044 -0.4992  0.6644  0.3909
12738SOL    HW240532   7.598   8.939   3.946  0.4438 -2.2639  0.0752
12739SOL     OW40533   1.732   5.238   0.760 -0.4830 -0.3750  0.1287
12739SOL    HW140534   1.794   5.237   0.833  0.0079  0.2982 -0.2715
12739SOL    HW240535   1.684   5.320   0.770  0.2016  0.1481 -0.8097
12740SOL     OW40536   5.929   5.470   9.943 -0.1952  0.6111  0.1998
12740SOL    HW140537   5.949   5.558   9.910 -0.6444  0.4242 -0.5988
12740SOL    HW240538   5.936   5.478  10.038  0.9683  1.2104  0.0816
12741SOL     OW40539   1.000   3.679   1.638 -0.1068 -0.3869 -0.2387
12741SOL    HW140540   0.964   3.592   1.653 -1.5958  0.2717  0.1958
12741SOL    HW240541   0.960   3.733   1.706  0.0477  0.8315 -1.0931
12742SOL     OW40542   3.730   5.948   1.445  0.5084  0.4442 -0.5014
12742SOL    HW140543   3.719   5.869   1.391  0.3861 -1.5220  2.2212
12742SOL    HW240544   3.822   5.947   1.472 -0.0801 -0.2580  1.6256
12743SOL     OW40545   0.486   0.457   7.892 -0.2605 -0.8531 -0.0515
12743SOL    HW140546   0.449   0.400   7.960 -1.1805 -1.5999 -1.1376
12743SOL    HW240547   0.545   0.401   7.843  0.6919 -0.2164  0.3390
12744SOL     OW40548   5.518  10.339   4.775 -0.0749 -0.0864 -0.7098
12744SOL    HW140549   5.591  10.328   4.836 -1.0645 -0.4059  0.4605
12744SOL    HW240550   5.493  10.250   4.750 -0.7462 -0.0530 -0.2220
12745SOL     OW40551   5.402   4.282  10.490  0.1192 -0.3426 -0.2617
12745SOL    HW140552   5.317   4.265  10.449 -0.5311 -1.2471  1.3752
12745SOL    HW240553   5.454   4.204  10.472  0.7650  0.3664 -1.5837
12746SOL     OW40554  10.028   0.613   3.696 -0.1893  0.2003 -0.3918
12746SOL    HW140555  10.116   0.578   3.688  1.0920  2.9421  0.4166
12746SOL    HW240556  10.014   0.623   3.790 -1.3683 -0.1469 -0.5089
12747SOL     OW40557   8.360   5.133   3.699 -0.8031 -0.0512 -0.5761
12747SOL    HW140558   8.294   5.197   3.726 -2.5077 -1.2913 -1.5824
12747SOL    HW240559   8.340   5.115   3.607  0.6395 -0.8503 -0.7703
12748SOL     OW40560   4.599  10.352   9.785 -0.3324  0.0217 -0.0332
12748SOL    HW140561   4.539  10.411   9.739 -1.0899 -1.0718 -0.4849
12748SOL    HW240562   4.660  10.323   9.717 -0.4848 -0.3815  0.0039
12749SOL     OW40563   3.221  10.047   6.019  0.1936 -0.0688 -0.1296
12749SOL    HW140564   3.244  10.120   5.961  1.2014 -0.1812  0.1155
12749SOL    HW240565   3.145  10.006   5.977 -0.0392  0.7792 -0.5642
12750SOL     OW40566   9.183   9.606   1.603  0.1838  0.1084 -0.3704
12750SOL    HW140567   9.138   9.615   1.687 -0.7818 -0.9780 -0.7483
12750SOL    HW240568   9.124   9.646   1.540  0.3622 -0.1278 -0.6906
12751SOL     OW40569   4.081   7.609   5.000 -0.1154 -0.4110 -0.6229
12751SOL    HW140570   4.005   7.602   4.942  0.3656 -1.2308 -1.1870
12751SOL    HW240571   4.154   7.629   4.942  0.0373  0.8454 -0.0274
12752SOL     OW40572   6.693   1.677  10.461  0.2297 -0.1682 -0.2435
12752SOL    HW140573   6.637   1.736  10.512  2.5357  0.4317  1.7994
12752SOL    HW240574   6.660   1.589  10.481  0.0655  0.1603  0.9764
12753SOL     OW40575   8.722   4.874   7.805  0.4140  0.5571  0.1930
12753SOL    HW140576   8.651   4.822   7.768  0.4962  0.3030  0.3905
12753SOL    HW240577   8.802   4.825   7.784  0.6775  1.5589 -1.2949
12754SOL     OW40578   1.127   0.134   1.270 -0.0062 -0.4718 -0.5498
12754SOL    HW140579   1.102   0.201   1.334  1.7376  0.0185 -0.3572
12754SOL    HW240580   1.088   0.163   1.188 -0.9240 -0.2798 -0.0687
12755SOL     OW40581   9.508   5.467   4.210 -0.6063 -0.1088 -0.1394
12755SOL    HW140582   9.529   5.432   4.297  0.6548 -0.2957 -0.5058
12755SOL    HW240583   9.554   5.551   4.206  0.4248 -0.6927 -1.0931
12756SOL     OW40584   7.591   0.005   3.985  0.3903 -0.2489 -0.5335
12756SOL    HW140585   7.665   0.016   4.045  1.6335 -2.6481 -1.4983
12756SOL    HW240586   7.526  -0.044   4.036 -0.2765  1.1849  0.0618
12757SOL     OW40587  10.363   0.294   0.866 -0.3187  0.2669 -0.5532
12757SOL    HW140588  10.394   0.381   0.892  0.0366 -0.2311  0.7899
12757SOL    HW240589  10.269   0.296   0.881 -0.1792  0.1308  0.4486
12758SOL     OW40590   6.897   3.766   9.242 -0.5453 -0.4837  0.4882
12758SOL    HW140591   6.802   3.757   9.239 -0.6543  0.5918  0.5038
12758SOL    HW240592   6.922   3.789   9.152 -0.6049  1.8529  1.0112
12759SOL     OW40593   3.974   1.248   9.094 -0.9350  0.0619  0.4507
12759SOL    HW140594   4.043   1.202   9.046 -1.3190 -0.2730  0.2126
12759SOL    HW240595   3.969   1.334   9.051 -0.2460  0.3164  0.8697
12760SOL     OW40596   0.692   8.670   8.003  0.0807  0.2975 -0.3821
12760SOL    HW140597   0.632   8.743   8.019 -2.1202 -1.2960 -0.8392
12760SOL    HW240598   0.727   8.686   7.916 -0.7734  0.5789 -0.6838
12761SOL     OW40599   6.206   5.191   9.270 -0.0467 -0.3926 -0.0110
12761SOL    HW140600   6.141   5.121   9.282 -1.5235  1.1785  2.2029
12761SOL    HW240601   6.165   5.251   9.209 -2.4775  2.2435  3.7437
12762SOL     OW40602  10.238   2.069   0.600  0.2487 -0.4761  0.5048
12762SOL    HW140603  10.223   2.160   0.575 -0.0648 -0.3405  1.1391
12762SOL    HW240604  10.319   2.071   0.651 -0.6446 -0.2414  1.9998
12763SOL     OW40605   6.202   1.464   9.474 -0.1283 -0.0514 -0.0873
12763SOL    HW140606   6.259   1.449   9.398 -2.6245 -0.2351 -2.0794
12763SOL    HW240607   6.178   1.556   9.468 -1.2532 -0.3331 -0.2621
12764SOL     OW40608   5.643   6.753   2.147 -0.2466  0.3527 -0.3093
12764SOL    HW140609   5.627   6.837   2.190  0.3510 -0.3439  1.3639
12764SOL    HW240610   5.735   6.735   2.165  0.0447  0.0266 -1.9625
12765SOL     OW40611   5.517   2.490   2.521 -0.1941  0.2067 -0.0676
12765SOL    HW140612   5.594   2.506   2.574  0.1420  0.3973 -0.6047
12765SOL    HW240613   5.529   2.545   2.443  0.5976 -1.9301 -1.5699
12766SOL     OW40614   4.025   7.047   5.427 -0.2045 -0.3401 -0.4805
12766SOL    HW140615   3.944   6.999   5.444 -0.6662  0.1650 -1.1580
12766SOL    HW240616   4.008   7.136   5.460  0.4689 -0.5039  0.3451
12767SOL     OW40617   8.550   6.618   6.676  0.4296 -0.1682  0.0194
12767SOL    HW140618   8.586   6.688   6.621  0.4856 -0.2338 -0.0272
12767SOL    HW240619   8.533   6.660   6.760 -0.1046  0.0560 -0.1903
12768SOL     OW40620   5.852   7.297   2.476 -0.1470 -0.2590 -0.3748
12768SOL    HW140621   5.931   7.278   2.426  0.2914  1.6552 -0.4867
12768SOL    HW240622   5.881   7.294   2.568  0.5484  2.1367 -0.4482
12769SOL     OW40623   4.299   5.171   8.448 -0.1026 -0.0885  0.0395
12769SOL    HW140624   4.236   5.215   8.390 -0.5216  0.6383  1.0285
12769SOL    HW240625   4.250   5.098   8.485 -0.3043  0.3545  0.6504
12770SOL     OW40626   5.036   9.903   9.431 -0.6475  0.5786  0.0860
12770SOL    HW140627   4.948   9.938   9.415 -0.2926  1.0759 -0.8446
12770SOL    HW240628   5.047   9.834   9.366  0.1302  1.4011 -0.6887
12771SOL     OW40629   9.138   8.910   8.860 -0.1592  0.1259 -0.0086
12771SOL    HW140630   9.088   8.992   8.861 -0.2970  0.0393  0.2944
12771SOL    HW240631   9.132   8.877   8.950 -0.5799 -0.5023 -0.2601
12772SOL     OW40632   2.126   3.397   6.980  0.0719  0.4349 -0.5297
12772SOL    HW140633   2.063   3.386   7.051 -1.4055  1.4407 -1.6256
12772SOL    HW240634   2.084   3.355   6.904  2.4862 -2.4828 -0.4445
12773SOL     OW40635   6.493   4.850   0.871  0.9864 -0.0160 -0.9327
12773SOL    HW140636   6.484   4.873   0.964  1.5720 -0.6247 -0.7155
12773SOL    HW240637   6.425   4.900   0.827 -0.2027 -0.7729  0.0011
12774SOL     OW40638   3.530   6.109   4.937 -0.6670  0.0465 -0.2676
12774SOL    HW140639   3.475   6.104   4.859  0.6131 -0.7226 -1.1685
12774SOL    HW240640   3.610   6.063   4.913 -0.1211  0.0305  1.4253
12775SOL     OW40641   7.945  10.413   3.854  0.0657 -0.0702  0.5284
12775SOL    HW140642   8.019  10.463   3.820 -0.9229  0.3314 -1.1476
12775SOL    HW240643   7.964  10.403   3.948  2.3694 -0.2720  0.1002
12776SOL     OW40644   0.021   3.338   9.129  0.0138 -0.4702  0.0577
12776SOL    HW140645  -0.069   3.312   9.148 -0.4113 -0.0388 -1.2578
12776SOL    HW240646   0.035   3.415   9.184 -0.3252 -0.6977  0.4692
12777SOL     OW40647   3.637   1.273   1.658 -0.0021 -0.2981  1.1043
12777SOL    HW140648   3.552   1.304   1.625  0.5115 -0.9810 -1.0123
12777SOL    HW240649   3.664   1.206   1.595  1.6093 -0.8858  2.3541
12778SOL     OW40650   3.847   0.397   6.417  0.4134  0.1621 -0.4227
12778SOL    HW140651   3.909   0.421   6.349 -1.5595  0.4736 -2.2095
12778SOL    HW240652   3.820   0.308   6.395  0.3580 -0.0594  0.4708
12779SOL     OW40653   3.107  10.072   2.400  0.4622  0.3660 -0.4751
12779SOL    HW140654   3.135  10.162   2.417 -0.0186  0.5654 -0.6967
12779SOL    HW240655   3.068  10.043   2.482 -0.8925  0.9551 -0.8716
12780SOL     OW40656   5.618   0.241   7.933  0.8650 -0.3686  0.3458
12780SOL    HW140657   5.560   0.206   8.000  0.5385 -0.5092 -0.0019
12780SOL    HW240658   5.700   0.195   7.946  0.4232 -1.3455 -0.1450
12781SOL     OW40659   9.150   7.133   4.190  0.1010 -0.2806  0.2489
12781SOL    HW140660   9.244   7.139   4.210  0.1325 -0.2529  0.0936
12781SOL    HW240661   9.119   7.058   4.242 -0.3261  1.2589  2.3210
12782SOL     OW40662   6.337   5.310   4.981  0.2746  0.1897  0.6961
12782SOL    HW140663   6.430   5.324   4.997  0.3591  1.1231 -0.4997
12782SOL    HW240664   6.316   5.365   4.905 -1.2900  0.1227  1.0384
12783SOL     OW40665   7.199   7.011   0.989  0.2118 -0.3494  0.3281
12783SOL    HW140666   7.264   6.954   0.949 -0.1100 -0.5203  0.0418
12783SOL    HW240667   7.200   7.090   0.934  0.3549 -0.2542  0.4697
12784SOL     OW40668   5.205   3.608   9.835  0.0215 -0.2273 -0.0927
12784SOL    HW140669   5.144   3.536   9.855  1.2987 -1.0662  0.9610
12784SOL    HW240670   5.172   3.682   9.886  0.2900 -0.9023  1.1124
12785SOL     OW40671   0.896   1.388   3.406 -0.3641  0.4853  0.0071
12785SOL    HW140672   0.811   1.352   3.430 -0.1541 -0.7708 -0.9951
12785SOL    HW240673   0.877   1.452   3.338 -0.4104 -1.0474 -1.4801
12786SOL     OW40674   3.219  10.336   9.657  0.9010  0.2297  0.0572
12786SOL    HW140675   3.272  10.276   9.709  0.8428 -0.3119 -0.5041
12786SOL    HW240676   3.205  10.412   9.714 -0.5889 -1.0417  1.4755
12787SOL     OW40677   8.779   5.027   5.759 -0.0494  0.4280  0.2008
12787SOL    HW140678   8.858   5.080   5.769  0.2740 -0.0849  0.3630
12787SOL    HW240679   8.807   4.952   5.707 -0.2274 -0.2045  1.0167
12788SOL     OW40680   1.600   1.207   7.143 -0.1329 -0.7421 -0.8181
12788SOL    HW140681   1.552   1.289   7.158 -0.9439 -1.3509  0.0969
12788SOL    HW240682   1.660   1.200   7.217 -1.3129 -1.8044  0.0984
12789SOL     OW40683   6.122   5.356   1.255  0.0010  0.3856 -0.0008
12789SOL    HW140684   6.191   5.419   1.276 -0.6396  1.0836  0.0564
12789SOL    HW240685   6.167   5.272   1.249  0.7081  0.6654  1.0424
12790SOL     OW40686   6.675   3.796   3.474  0.0258 -0.5646 -0.2419
12790SOL    HW140687   6.586   3.778   3.503 -0.6046  0.6987 -1.3184
12790SOL    HW240688   6.666   3.828   3.385  1.7096 -1.8679 -0.9484
12791SOL     OW40689   5.982   1.851   5.284  0.5468 -0.3550 -0.0694
12791SOL    HW140690   6.053   1.871   5.223  1.1797 -0.0599  0.7436
12791SOL    HW240691   5.922   1.925   5.276  1.1155  0.1630  0.3642
12792SOL     OW40692   3.649   9.801   0.657 -0.4791  0.0593  0.8552
12792SOL    HW140693   3.727   9.760   0.620 -0.7585  0.5602 -0.3270
12792SOL    HW240694   3.628   9.872   0.597 -1.4505  0.3635  1.5299
12793SOL     OW40695   4.287   7.650   6.291  0.2676 -0.0940 -0.0242
12793SOL    HW140696   4.260   7.599   6.368  0.1588 -0.2521 -0.1651
12793SOL    HW240697   4.238   7.611   6.219  0.6070 -0.1493 -0.2261
12794SOL     OW40698   3.360   6.891   8.073 -0.2254 -0.4017  0.2696
12794SOL    HW140699   3.334   6.810   8.118 -0.3614 -0.3339  0.3155
12794SOL    HW240700   3.319   6.885   7.987  1.2823 -1.2374 -0.4235
12795SOL     OW40701   0.451   0.885   0.754 -0.9762 -0.4529  0.4504
12795SOL    HW140702   0.489   0.928   0.677  0.9293  0.3354  1.7652
12795SOL    HW240703   0.383   0.829   0.718  1.6128 -2.2287 -2.1302
12796SOL     OW40704   8.699   2.819   2.802 -0.3305 -0.1060  0.2396
12796SOL    HW140705   8.791   2.796   2.811 -0.5896 -1.0675  0.6076
12796SOL    HW240706   8.671   2.773   2.723  0.0595  2.1124 -1.2911
12797SOL     OW40707   2.145   5.897   9.159 -0.0587  1.0232 -0.0459
12797SOL    HW140708   2.206   5.951   9.108  0.4533 -0.1374 -0.7011
12797SOL    HW240709   2.065   5.950   9.164  0.9105  2.5013  0.6743
12798SOL     OW40710   9.632   1.073  10.406 -0.2908 -0.1122  0.0257
12798SOL    HW140711   9.568   1.006  10.430 -2.5420  2.0366  0.4502
12798SOL    HW240712   9.639   1.067  10.311 -0.5407 -0.8243  0.0438
12799SOL     OW40713  10.518   2.310   0.525 -0.6082 -0.3332 -0.3598
12799SOL    HW140714  10.487   2.392   0.488  0.8833  0.0073 -0.9454
12799SOL    HW240715  10.518   2.324   0.619  0.6581  0.7820 -0.4845
12800SOL     OW40716   3.823   5.528   2.399  0.5572  0.3266  0.6774
12800SOL    HW140717   3.904   5.506   2.444  0.7067  0.0347  0.2745
12800SOL    HW240718   3.792   5.444   2.364 -0.3660  0.2852  1.5499
12801SOL     OW40719   7.427   2.720   3.712  0.3677 -0.3952 -0.0415
12801SOL    HW140720   7.518   2.721   3.684 -0.0694 -0.6458 -1.6028
12801SOL    HW240721   7.387   2.793   3.664 -0.5486 -1.2130 -0.5648
12802SOL     OW40722   6.593  10.243   7.597 -0.2926  0.0636  0.1556
12802SOL    HW140723   6.620  10.313   7.537 -1.0131  0.3016  0.0972
12802SOL    HW240724   6.602  10.163   7.545  1.3851 -0.0007  0.5002
12803SOL     OW40725   6.327   5.475   5.762 -0.1560  0.4093  0.4584
12803SOL    HW140726   6.324   5.445   5.672 -3.5370  0.6672  0.3652
12803SOL    HW240727   6.321   5.395   5.815 -2.1597  0.4360  0.3301
12804SOL     OW40728   3.245   4.010   9.086  0.4635 -0.1386 -0.7054
12804SOL    HW140729   3.296   3.972   9.014  1.0409 -0.0315 -0.3623
12804SOL    HW240730   3.282   4.098   9.098 -0.5833  0.3763 -1.2126
12805SOL     OW40731   2.511   5.733   9.247 -0.5263 -0.1718  0.5475
12805SOL    HW140732   2.531   5.826   9.243 -1.1029  0.0263  1.7417
12805SOL    HW240733   2.454   5.718   9.171 -0.6781  0.5141  0.5173
12806SOL     OW40734   9.402   6.932   2.672 -0.1258 -0.1213 -0.4148
12806SOL    HW140735   9.485   6.973   2.697 -0.0704 -0.6783  0.3703
12806SOL    HW240736   9.337   6.971   2.732 -0.4808  0.4926 -1.1875
12807SOL     OW40737   1.813   5.218   1.546 -0.1214 -0.2244  0.1513
12807SOL    HW140738   1.870   5.295   1.546 -0.4028  0.0566  2.2886
12807SOL    HW240739   1.748   5.236   1.478  0.4460  0.9333 -0.1105
12808SOL     OW40740   8.791   6.440   8.402 -0.3936  0.1355 -0.4655
12808SOL    HW140741   8.821   6.467   8.316 -0.5375  1.2950 -0.1625
12808SOL    HW240742   8.852   6.371   8.428 -0.9492 -0.9359 -1.8986
12809SOL     OW40743   3.166   2.464   3.512  0.3067 -0.2363 -0.1376
12809SOL    HW140744   3.146   2.400   3.444 -0.5628 -0.8030  0.6354
12809SOL    HW240745   3.162   2.415   3.594  1.4931  0.4012  0.3334
12810SOL     OW40746   2.794  10.210   1.996 -0.2078 -0.3339 -0.3935
12810SOL    HW140747   2.700  10.220   2.012 -0.2334  0.7780 -1.0960
12810SOL    HW240748   2.807  10.247   1.909  1.0940  0.7915  0.2455
12811SOL     OW40749   4.301   3.169   4.242 -0.4434  0.0200  0.2099
12811SOL    HW140750   4.318   3.253   4.198 -1.4620  0.1322  0.0127
12811SOL    HW240751   4.253   3.117   4.177  1.1855 -1.1689 -0.1038
12812SOL     OW40752   2.082   9.884   4.230  0.0069 -0.1148  0.0854
12812SOL    HW140753   2.099   9.969   4.190 -0.5339 -0.3902 -0.7440
12812SOL    HW240754   2.163   9.835   4.217  0.2879  0.2217  0.4835
12813SOL     OW40755   7.392   3.721  10.458  0.3113  0.4156  0.0121
12813SOL    HW140756   7.453   3.676  10.399  1.0880  2.2560 -0.6688
12813SOL    HW240757   7.306   3.710  10.418  0.5186 -0.2930 -0.2409
12814SOL     OW40758   4.140   9.905   7.465 -0.0644 -0.9228  0.1629
12814SOL    HW140759   4.179   9.846   7.401 -2.0943 -1.5194 -0.6233
12814SOL    HW240760   4.179   9.879   7.549  0.9219 -1.7058 -0.5148
12815SOL     OW40761   3.187   8.013   2.097 -0.2203 -0.2302 -0.1582
12815SOL    HW140762   3.211   8.103   2.077  0.4633 -0.3170  0.2378
12815SOL    HW240763   3.113   8.020   2.158 -0.3476  0.0534 -0.3443
12816SOL     OW40764   4.678   3.756   2.711  0.4125 -0.2506 -0.7235
12816SOL    HW140765   4.676   3.823   2.643  1.9185  0.5575 -0.0237
12816SOL    HW240766   4.679   3.804   2.793  0.1923 -1.1750 -0.1588
12817SOL     OW40767   6.997   4.784   6.337 -0.3852  0.0612  0.3052
12817SOL    HW140768   6.964   4.760   6.424  2.3268  0.3958  1.5422
12817SOL    HW240769   7.089   4.805   6.352  0.0951  0.4383 -2.6422
12818SOL     OW40770   5.387   8.412   4.141  0.6079 -0.0437 -0.1753
12818SOL    HW140771   5.441   8.491   4.138 -0.0389  0.3742 -0.9448
12818SOL    HW240772   5.299   8.444   4.162  0.6965 -0.7524  1.4376
12819SOL     OW40773   5.385   1.159   6.709  0.0001 -0.0776 -0.2581
12819SOL    HW140774   5.425   1.105   6.640  0.2418  2.5139 -2.3178
12819SOL    HW240775   5.449   1.229   6.723 -1.0987  0.7121  0.9519
12820SOL     OW40776   7.668   2.317   5.153 -0.2510 -0.0694  0.5031
12820SOL    HW140777   7.739   2.287   5.209  0.1838 -1.0365 -0.5368
12820SOL    HW240778   7.712   2.363   5.082 -0.7595  0.5606  0.5875
12821SOL     OW40779   4.468   8.022   1.639  0.6727 -0.7352  0.2544
12821SOL    HW140780   4.494   8.114   1.644  0.1887 -0.6219  0.8332
12821SOL    HW240781   4.379   8.020   1.674  0.2487 -1.2594 -0.8032
12822SOL     OW40782   4.340   3.331   9.245  0.4526  0.1131 -0.3805
12822SOL    HW140783   4.431   3.301   9.249  0.2513 -0.4489  2.7239
12822SOL    HW240784   4.298   3.290   9.321 -2.2905  0.7382 -1.4610
12823SOL     OW40785   7.470   1.595   5.453 -0.2149  0.7253 -0.2391
12823SOL    HW140786   7.480   1.636   5.539 -0.9824  1.4339 -0.4783
12823SOL    HW240787   7.445   1.505   5.472  0.4942  0.6239  0.2805
12824SOL     OW40788  10.329   3.642   5.273  0.5210  0.0628  0.0940
12824SOL    HW140789  10.341   3.608   5.184 -0.1159  3.0414 -1.2481
12824SOL    HW240790  10.256   3.591   5.308 -0.0399 -0.3581 -1.5693
12825SOL     OW40791   6.718   4.586   7.179  0.9791 -0.2233  0.4128
12825SOL    HW140792   6.762   4.663   7.216 -0.6400 -0.2218  2.5128
12825SOL    HW240793   6.765   4.512   7.217 -0.6112 -0.2207  2.5869
12826SOL     OW40794   8.717   7.153   6.534  0.0983  0.3018 -0.2060
12826SOL    HW140795   8.709   7.058   6.525  0.0786  0.3714 -1.0570
12826SOL    HW240796   8.769   7.165   6.613  0.5608 -0.4431 -0.3813
12827SOL     OW40797   1.971   4.466   0.911 -0.5217  0.6705  0.2369
12827SOL    HW140798   2.034   4.483   0.841 -0.9690 -1.9638 -0.9526
12827SOL    HW240799   2.017   4.407   0.971 -2.3730 -3.4790 -1.9883
12828SOL     OW40800   3.588   2.837   1.782  0.4592  0.0055  0.2179
12828SOL    HW140801   3.645   2.760   1.785 -1.5551 -1.5964  0.0605
12828SOL    HW240802   3.629   2.895   1.718  2.6420 -0.3935  1.1666
12829SOL     OW40803   5.586   4.740   5.420  0.1304  0.1565  0.5572
12829SOL    HW140804   5.543   4.717   5.337  1.7831 -0.6855 -0.1138
12829SOL    HW240805   5.552   4.827   5.441 -1.7054 -0.3631 -0.0384
12830SOL     OW40806   1.661   1.525   7.351  0.8336  0.3160  0.4464
12830SOL    HW140807   1.658   1.575   7.433 -0.6205  1.4224 -0.2411
12830SOL    HW240808   1.731   1.461   7.365  1.6902  1.5049  1.9538
12831SOL     OW40809   2.266   5.227   6.260  0.3393  0.3845  0.1590
12831SOL    HW140810   2.255   5.320   6.277 -1.4236 -0.1010  2.0691
12831SOL    HW240811   2.343   5.202   6.311  0.0263  0.5378  0.7063
12832SOL     OW40812   5.310   8.660   2.057  0.6778 -0.6621  0.4517
12832SOL    HW140813   5.258   8.666   1.977 -1.3002 -3.0908  1.4224
12832SOL    HW240814   5.248   8.682   2.127  1.4914 -1.5852  1.4973
12833SOL     OW40815   6.518   8.712   1.251 -0.1784 -0.1855  0.3367
12833SOL    HW140816   6.472   8.716   1.335 -3.4361 -1.3234 -1.2265
12833SOL    HW240817   6.515   8.620   1.226  1.5588 -0.0131 -0.6439
12834SOL     OW40818   6.352   1.357   7.434 -0.2393  0.4920  0.5010
12834SOL    HW140819   6.328   1.275   7.479 -0.6923  0.0480 -0.5248
12834SOL    HW240820   6.283   1.418   7.459 -0.7686  0.1007  0.0190
12835SOL     OW40821   9.700   0.169   1.967 -0.1593  0.2692 -0.5164
12835SOL    HW140822   9.629   0.129   2.018 -0.9412 -0.6974 -2.2634
12835SOL    HW240823   9.752   0.217   2.031 -1.8569  0.2281  0.9708
12836SOL     OW40824   5.019   9.219   7.118  0.5407 -0.3925 -0.7222
12836SOL    HW140825   5.112   9.233   7.104  0.5319  0.1146 -0.2950
12836SOL    HW240826   5.013   9.176   7.203  0.4589 -1.5816 -1.3037
12837SOL     OW40827   0.337   2.432   5.257  0.0005  0.3364 -0.4658
12837SOL    HW140828   0.325   2.339   5.239 -0.9890  0.7152 -1.9747
12837SOL    HW240829   0.248   2.465   5.274  0.1779  1.2363 -1.2258
12838SOL     OW40830   9.428   1.304   7.861 -0.0833 -0.1206  0.2277
12838SOL    HW140831   9.362   1.367   7.890  0.3520  0.4786 -0.0554
12838SOL    HW240832   9.483   1.290   7.937  1.3809  1.8642 -0.3820
12839SOL     OW40833   1.217   3.519  10.356 -0.6759 -0.3249 -0.7520
12839SOL    HW140834   1.296   3.518  10.410 -0.3647  0.0527 -1.1991
12839SOL    HW240835   1.198   3.612  10.344 -1.8403 -0.3966  0.2943
12840SOL     OW40836   9.971  10.094   3.692  0.1625  0.2941  0.7148
12840SOL    HW140837  10.048  10.067   3.740  0.6210 -1.2094 -0.7742
12840SOL    HW240838   9.908  10.022   3.703 -0.8360  1.2275  1.4113
12841SOL     OW40839   2.162   2.570   1.834  0.2680 -0.3761 -0.0127
12841SOL    HW140840   2.076   2.553   1.873  0.5169 -1.7970 -0.0290
12841SOL    HW240841   2.202   2.636   1.891 -0.2618 -0.7713  0.8358
12842SOL     OW40842   3.153   2.031   3.900  0.6142  0.0081  0.5843
12842SOL    HW140843   3.210   1.972   3.950 -1.0987 -0.6907  1.7999
12842SOL    HW240844   3.102   1.973   3.843  1.6815  0.7031 -1.1569
12843SOL     OW40845  10.567   3.005   2.549  0.4669 -0.5736 -0.1801
12843SOL    HW140846  10.594   3.083   2.598  0.9463 -0.5084 -0.5347
12843SOL    HW240847  10.589   3.026   2.458 -0.3580 -0.7112 -0.4165
12844SOL     OW40848   7.040  10.535   7.078 -0.1556 -0.5627  0.2843
12844SOL    HW140849   6.979  10.568   7.012  0.1368 -1.7988 -0.6570
12844SOL    HW240850   7.009  10.446   7.097  0.9043 -0.9414  0.3323
12845SOL     OW40851   0.690   6.935   7.011  0.4018  0.9809  0.6972
12845SOL    HW140852   0.639   6.900   7.084  0.9387  0.3460  0.7720
12845SOL    HW240853   0.658   7.024   7.000 -0.5005  0.6951  0.9503
12846SOL     OW40854   1.654   4.433   2.073 -0.0932 -0.0800  0.1024
12846SOL    HW140855   1.641   4.339   2.061 -2.5649  0.3047 -0.8669
12846SOL    HW240856   1.605   4.454   2.152  0.3651  0.4163  0.2598
12847SOL     OW40857   2.790   1.209   7.732 -0.8416  0.2770 -0.2582
12847SOL    HW140858   2.854   1.178   7.668  1.2939  0.8058  1.4951
12847SOL    HW240859   2.741   1.131   7.757  1.8603 -1.0926  1.2505
12848SOL     OW40860   2.851   3.680   4.509 -0.0752 -0.6545 -0.0319
12848SOL    HW140861   2.863   3.587   4.490  0.3896 -0.9722  1.6376
12848SOL    HW240862   2.890   3.691   4.596  2.4590  1.6838 -1.3219
12849SOL     OW40863   4.966   2.179   9.331 -0.0981  0.0782 -0.1775
12849SOL    HW140864   5.058   2.156   9.348  0.2705  0.3637 -1.6569
12849SOL    HW240865   4.952   2.260   9.380  0.5871  0.2917 -0.3208
12850SOL     OW40866   3.111   0.726   9.481 -0.1728  0.0637 -0.2560
12850SOL    HW140867   3.152   0.793   9.427 -1.7823  0.9645 -0.4304
12850SOL    HW240868   3.183   0.670   9.509  0.9081  0.4799 -2.0537
12851SOL     OW40869   0.543   7.869  10.531  0.2219  0.2856  0.1391
12851SOL    HW140870   0.555   7.897  10.440  0.1046  0.2557  0.1147
12851SOL    HW240871   0.477   7.928  10.566 -0.9586 -0.7402 -0.2693
12852SOL     OW40872   9.866   2.687   2.971  0.0326 -0.8057 -0.1605
12852SOL    HW140873   9.925   2.615   2.948  1.1539 -0.4721  1.5137
12852SOL    HW240874   9.786   2.643   3.000 -0.1720 -1.2916 -1.3838
12853SOL     OW40875   6.824   6.755   9.568 -0.0837  0.2028 -0.0198
12853SOL    HW140876   6.770   6.800   9.503  0.8515  0.5636 -0.5792
12853SOL    HW240877   6.870   6.688   9.518 -0.3721 -0.4257  0.5417
12854SOL     OW40878   5.452   5.487   3.414  0.1242  0.0055 -0.0280
12854SOL    HW140879   5.375   5.477   3.471  0.6808 -0.4951  0.6510
12854SOL    HW240880   5.503   5.407   3.428  0.7921  0.3505 -0.4418
12855SOL     OW40881   3.238   7.724   6.154 -0.5607  0.1071  0.3331
12855SOL    HW140882   3.254   7.746   6.246  1.2153 -2.7508  0.8438
12855SOL    HW240883   3.155   7.676   6.155 -0.9338  0.7455  0.3059
12856SOL     OW40884   6.778   4.468   2.011  0.0153 -0.4859 -0.3367
12856SOL    HW140885   6.689   4.488   1.982 -0.1437 -1.5273 -0.5779
12856SOL    HW240886   6.790   4.523   2.089 -0.4213  0.5036 -0.9403
12857SOL     OW40887   6.432   3.150   9.731  0.0812 -0.2246  0.1019
12857SOL    HW140888   6.527   3.146   9.744  0.0188  1.0729  1.1735
12857SOL    HW240889   6.405   3.058   9.726  1.3750 -0.6172 -0.1343
12858SOL     OW40890   2.489   4.711   5.448  0.6583  0.0726  0.0453
12858SOL    HW140891   2.569   4.747   5.409  0.2771  0.5797 -0.2903
12858SOL    HW240892   2.418   4.756   5.402  0.1790 -0.3984  0.3139
12859SOL     OW40893   5.597   9.955   8.349  0.3020  0.1143  0.4697
12859SOL    HW140894   5.652   9.975   8.425 -1.7104  0.3288  1.9477
12859SOL    HW240895   5.517  10.004   8.364 -0.9019 -1.3365 -0.8667
12860SOL     OW40896   7.154   5.194   4.428  0.2698 -0.0805 -0.2210
12860SOL    HW140897   7.202   5.111   4.432 -0.1459 -0.3863 -1.3257
12860SOL    HW240898   7.172   5.229   4.341 -1.2661 -0.0581 -0.5627
12861SOL     OW40899   2.193   9.331   5.876 -0.2179  0.2675 -0.4069
12861SOL    HW140900   2.278   9.296   5.849 -0.2857  1.3920 -2.2314
12861SOL    HW240901   2.133   9.308   5.806 -1.3453 -0.1055  0.6423
12862SOL     OW40902   9.875   5.190   0.871  0.0785  0.0717  0.8284
12862SOL    HW140903   9.827   5.263   0.910  0.4374 -0.5653  2.5572
12862SOL    HW240904   9.956   5.230   0.839 -1.2842  1.0604 -1.6652
12863SOL     OW40905   7.239   9.905   3.183  0.0025 -0.1100  0.1381
12863SOL    HW140906   7.311   9.842   3.179  0.1802  0.0501  0.6839
12863SOL    HW240907   7.207   9.911   3.093  0.1913 -0.7385  0.0235
12864SOL     OW40908   1.433   5.589   9.575  0.7501  0.4273 -0.3485
12864SOL    HW140909   1.340   5.564   9.578  0.7455  0.0780 -2.2351
12864SOL    HW240910   1.476   5.525   9.632 -0.0948  0.2837  0.1538
12865SOL     OW40911   1.996   9.350   4.579  0.1196  0.1348 -0.0901
12865SOL    HW140912   1.936   9.361   4.653 -0.0136 -0.6770 -0.0655
12865SOL    HW240913   2.076   9.317   4.619 -0.5941 -2.2836 -0.4757
12866SOL     OW40914  10.585   7.779   5.756  0.9851  0.2484 -0.1733
12866SOL    HW140915  10.541   7.862   5.738  0.0840 -0.6546 -2.4905
12866SOL    HW240916  10.518   7.724   5.798  0.7840 -0.1273 -0.9652
12867SOL     OW40917   9.415   8.323   4.582  0.4261 -0.0224  0.1134
12867SOL    HW140918   9.358   8.274   4.523  0.1541  1.5002 -0.9662
12867SOL    HW240919   9.377   8.411   4.583  1.8953  0.6333  0.5601
12868SOL     OW40920   1.237   1.906   9.231 -0.3260  0.1788 -0.2351
12868SOL    HW140921   1.198   1.870   9.310 -0.5685 -1.1547 -0.9380
12868SOL    HW240922   1.195   1.991   9.220  1.8200  1.8187  2.6562
12869SOL     OW40923   0.054   5.064   4.770 -0.1536 -0.4679 -0.4754
12869SOL    HW140924   0.087   4.979   4.739  0.0673 -0.2996 -0.7027
12869SOL    HW240925  -0.009   5.091   4.704  0.5757  0.0577 -0.9766
12870SOL     OW40926   2.064   1.644   1.897 -0.1313  0.4048  0.0696
12870SOL    HW140927   2.042   1.674   1.984 -1.6782 -0.9896  0.2040
12870SOL    HW240928   2.151   1.604   1.907 -0.5949 -0.3752  1.1375
12871SOL     OW40929   1.474   6.420   9.888  0.5291  0.3969  0.3394
12871SOL    HW140930   1.531   6.393   9.961 -0.2866  1.6997  1.4927
12871SOL    HW240931   1.445   6.508   9.911 -1.8184 -0.1461 -0.2948
12872SOL     OW40932  10.240   8.789  10.282  0.2040  0.2377 -0.0597
12872SOL    HW140933  10.223   8.864  10.338  2.7848  0.3221  0.7564
12872SOL    HW240934  10.284   8.825  10.205 -1.2924 -0.1429 -1.1469
12873SOL     OW40935  10.013   6.863   1.228 -0.4307  0.2268 -0.2464
12873SOL    HW140936   9.983   6.954   1.238  0.8405  0.4891  1.6730
12873SOL    HW240937  10.106   6.866   1.248 -0.4029 -1.5377  0.0413
12874SOL     OW40938  10.162   7.657   6.056  0.4140 -0.2099  0.5540
12874SOL    HW140939  10.102   7.702   6.116  1.7172 -0.0405  1.7957
12874SOL    HW240940  10.121   7.666   5.970  0.3975  3.0479  0.7666
12875SOL     OW40941   7.743   7.009   1.824  0.0516 -0.2600  0.1387
12875SOL    HW140942   7.829   6.998   1.783 -0.3950 -0.8477 -0.6766
12875SOL    HW240943   7.702   7.080   1.775 -0.5324 -1.0452 -0.5417
12876SOL     OW40944   0.401   6.820   2.731  0.2259 -0.9608  0.4987
12876SOL    HW140945   0.406   6.901   2.783 -0.2613 -1.5990  1.5688
12876SOL    HW240946   0.379   6.752   2.795 -0.3122 -1.7833 -0.5382
12877SOL     OW40947   4.007   9.292   5.262  0.0210 -0.3638  0.3550
12877SOL    HW140948   3.911   9.287   5.265  0.0362 -2.5867 -0.7706
12877SOL    HW240949   4.026   9.385   5.248 -1.9551  0.1155  0.5727
12878SOL     OW40950   1.017   0.904   9.787 -0.5030  0.2750  0.2383
12878SOL    HW140951   1.035   0.915   9.880  0.2741 -0.1093  0.1408
12878SOL    HW240952   1.099   0.874   9.749 -1.2123 -1.0894 -0.3069
12879SOL     OW40953   7.536   6.632   5.116 -0.4762  0.6857  0.1703
12879SOL    HW140954   7.457   6.629   5.063  0.8547 -0.0991 -1.8734
12879SOL    HW240955   7.552   6.541   5.142 -0.5871  0.9312  1.1584
12880SOL     OW40956   9.670   3.528   5.600  0.2491  0.1792  0.0413
12880SOL    HW140957   9.712   3.471   5.536  0.9020 -0.2928  0.8757
12880SOL    HW240958   9.638   3.603   5.548 -0.1917 -0.6959 -0.9929
12881SOL     OW40959   0.457   7.963   3.249  0.2496 -0.1121 -0.0796
12881SOL    HW140960   0.429   8.014   3.173  0.1072 -0.9844 -0.6292
12881SOL    HW240961   0.545   7.932   3.226  0.8069  0.8095  0.7270
12882SOL     OW40962  10.041   1.382   1.606 -0.1347 -0.0085  0.1831
12882SOL    HW140963   9.956   1.414   1.639 -0.6691 -1.6237  0.4337
12882SOL    HW240964  10.092   1.363   1.685 -0.0089 -0.2657  0.0387
12883SOL     OW40965   3.792   8.677   4.943  0.7700  0.3969  0.0345
12883SOL    HW140966   3.703   8.711   4.947  0.5915  0.0161 -0.5499
12883SOL    HW240967   3.825   8.684   5.032 -0.6591 -1.5816  0.8033
12884SOL     OW40968   4.338   0.804   7.966 -0.0591  0.1129  0.1163
12884SOL    HW140969   4.354   0.780   8.057  0.0372 -2.5314 -0.5225
12884SOL    HW240970   4.254   0.849   7.967 -1.0742 -1.6907  1.2969
12885SOL     OW40971   1.939  10.545   9.274 -0.1834 -0.5370  0.4421
12885SOL    HW140972   1.997  10.613   9.311 -0.8424 -1.0454  2.5472
12885SOL    HW240973   1.864  10.593   9.241  0.1811 -0.0996  0.2359
12886SOL     OW40974   8.153   1.342   8.238 -0.3643  0.3267  0.2667
12886SOL    HW140975   8.089   1.412   8.222 -0.6142  0.0774  0.1664
12886SOL    HW240976   8.125   1.270   8.181  0.8669  0.7265 -0.8979
12887SOL     OW40977   5.743   0.324   2.427  0.3700  0.1322  0.3264
12887SOL    HW140978   5.716   0.242   2.470 -0.0601  1.1092  2.0147
12887SOL    HW240979   5.710   0.316   2.338  0.2130 -1.4776  0.4973
12888SOL     OW40980   0.165   3.181   5.807 -0.1735 -0.0488  0.1576
12888SOL    HW140981   0.129   3.197   5.720 -0.3898  0.2712  0.3041
12888SOL    HW240982   0.105   3.119   5.848  0.2288 -0.6319 -0.1178
12889SOL     OW40983   4.187  10.499   8.100 -0.1265 -0.7472  0.2195
12889SOL    HW140984   4.232  10.432   8.152  1.6117  0.6029  0.5662
12889SOL    HW240985   4.258  10.542   8.051 -1.4505 -0.5260 -1.6031
12890SOL     OW40986   5.137   4.631   8.686 -0.1741  0.1399 -0.6809
12890SOL    HW140987   5.132   4.602   8.777  0.7462  0.5630 -0.4763
12890SOL    HW240988   5.159   4.552   8.637  2.3646  0.4012 -0.1213
12891SOL     OW40989   0.117   7.623   9.255 -0.2380 -0.2581 -0.3895
12891SOL    HW140990   0.132   7.534   9.286 -2.5512 -0.6289 -0.1576
12891SOL    HW240991   0.098   7.673   9.334  0.1741  0.2703 -0.6123
12892SOL     OW40992  10.390   8.906   0.307  0.0263  0.5292 -0.2571
12892SOL    HW140993  10.297   8.905   0.285 -0.1940  0.9216  0.6450
12892SOL    HW240994  10.419   8.994   0.284 -0.3501  1.1655  1.5301
12893SOL     OW40995   0.332   0.422   0.471 -0.3788  0.6638 -0.4184
12893SOL    HW140996   0.273   0.346   0.476  0.4576  0.0268  0.1146
12893SOL    HW240997   0.366   0.419   0.381  1.8965 -1.3889  0.3985
12894SOL     OW40998   1.619   0.383   9.491  0.1258  0.5440 -0.2414
12894SOL    HW140999   1.671   0.439   9.550 -0.1752 -0.7547  1.3283
12894SOL    HW241000   1.543   0.437   9.469  0.9858  1.6195 -0.7272
12895SOL     OW41001   8.169   6.604   4.993  0.2964  0.4555  0.3650
12895SOL    HW141002   8.149   6.511   4.983  0.6521  0.4587 -0.5066
12895SOL    HW241003   8.250   6.607   5.043  0.1003  0.3151  0.6946
12896SOL     OW41004   1.187   0.212   0.804  0.4461 -0.3651  0.5081
12896SOL    HW141005   1.260   0.151   0.803  0.9538  0.2011 -1.4032
12896SOL    HW241006   1.189   0.254   0.718 -0.9526  1.0734  1.1101
12897SOL     OW41007   5.452   3.657   2.556  0.1940 -0.4646 -0.4607
12897SOL    HW141008   5.388   3.725   2.575  2.4825  1.9664 -0.8754
12897SOL    HW241009   5.443   3.594   2.627 -2.1534  0.1276 -0.1695
12898SOL     OW41010   7.962   5.942   3.520  0.0335  0.3283 -0.1784
12898SOL    HW141011   7.945   5.867   3.462 -2.0105  0.8285 -0.3327
12898SOL    HW241012   7.996   5.903   3.601  1.8861 -0.4693 -1.2803
12899SOL     OW41013   0.243   9.353   8.085  0.1989  0.1861 -0.2527
12899SOL    HW141014   0.178   9.409   8.044  1.0077 -0.0360 -1.9652
12899SOL    HW241015   0.277   9.405   8.158 -3.6541 -0.6888  2.4721
12900SOL     OW41016   8.186   7.733   6.332  0.7074  0.4181 -0.1619
12900SOL    HW141017   8.188   7.790   6.256  4.6005  0.5254 -0.1370
12900SOL    HW241018   8.157   7.790   6.404 -0.7651  0.8689 -1.0581
12901SOL     OW41019   1.605   9.588   4.715  0.1163 -0.3604 -0.0712
12901SOL    HW141020   1.677   9.600   4.653  0.0473 -1.4179 -0.3748
12901SOL    HW241021   1.644   9.542   4.789 -0.4899 -2.1579 -0.8136
12902SOL     OW41022   9.307   7.641   8.234 -0.3173 -0.3133 -0.1608
12902SOL    HW141023   9.248   7.694   8.181  1.9618  0.7318 -1.8325
12902SOL    HW241024   9.299   7.552   8.198  1.6674  0.4917 -2.9179
12903SOL     OW41025   5.237   5.282   7.460 -0.1486 -0.1334  0.1736
12903SOL    HW141026   5.301   5.214   7.484 -1.6819 -1.7490 -0.0723
12903SOL    HW241027   5.159   5.259   7.511 -1.1835  0.5609 -1.0510
12904SOL     OW41028   4.239   9.702   4.910  0.0609  0.0793  0.9521
12904SOL    HW141029   4.221   9.657   4.992 -0.2483 -0.2012  0.7379
12904SOL    HW241030   4.327   9.737   4.919  0.0544 -0.0151  1.3715
12905SOL     OW41031   9.699   5.385   0.962 -0.0191 -0.0301  0.0495
12905SOL    HW141032   9.725   5.477   0.968 -0.0621 -0.0525  0.6046
12905SOL    HW241033   9.645   5.371   1.039 -1.0924 -0.1797 -0.7126
12906SOL     OW41034   8.698   2.646   8.226 -0.5039  0.2157 -0.1696
12906SOL    HW141035   8.792   2.660   8.222 -0.3322 -0.6347  0.5336
12906SOL    HW241036   8.671   2.637   8.134  0.3589 -1.1200 -0.3156
12907SOL     OW41037   1.967   8.978   9.727 -0.6967  0.5086 -0.6830
12907SOL    HW141038   2.006   9.018   9.805 -1.6649  1.0224 -0.4472
12907SOL    HW241039   2.025   9.005   9.655  1.6792 -2.0282  0.0839
12908SOL     OW41040   8.359   7.386   1.748  0.6543 -0.0464  0.1005
12908SOL    HW141041   8.405   7.461   1.785 -0.8115  1.2804 -0.5906
12908SOL    HW241042   8.417   7.354   1.679  1.5320  0.1388  0.7457
12909SOL     OW41043   3.662   4.828   9.767  0.0553  0.7128 -0.2396
12909SOL    HW141044   3.634   4.877   9.844 -1.0924  0.2420 -0.3344
12909SOL    HW241045   3.668   4.893   9.697  0.4795  1.0346  0.0895
12910SOL     OW41046   3.470   2.220   2.157  0.2373  0.3547 -0.3481
12910SOL    HW141047   3.491   2.202   2.066  0.6410 -0.4521 -0.1131
12910SOL    HW241048   3.552   2.201   2.204 -0.3202 -0.4943  0.3136
12911SOL     OW41049   7.337   3.407   8.892  0.1962  0.2471 -0.0132
12911SOL    HW141050   7.244   3.386   8.889  0.3276 -0.2456 -0.7380
12911SOL    HW241051   7.373   3.373   8.810  1.3352 -1.0831  0.9758
12912SOL     OW41052   8.395   4.908   1.730 -0.6912 -0.7292  0.7377
12912SOL    HW141053   8.426   4.989   1.690 -0.1294 -1.6801 -0.7978
12912SOL    HW241054   8.442   4.903   1.813  0.1293 -0.0645  0.3266
12913SOL     OW41055   6.482   7.779   5.252  0.4864 -0.3396  0.0996
12913SOL    HW141056   6.392   7.757   5.229  0.8481 -1.8259 -0.0574
12913SOL    HW241057   6.477   7.865   5.292 -0.8831 -0.0256 -0.6867
12914SOL     OW41058   9.205   7.874   1.059 -0.1556 -0.0956 -0.1654
12914SOL    HW141059   9.154   7.953   1.040 -1.4373 -0.9520 -0.4268
12914SOL    HW241060   9.188   7.817   0.985 -0.6040 -1.2590  0.7971
12915SOL     OW41061   7.103   3.072   6.419 -0.0658 -0.2199 -0.5878
12915SOL    HW141062   7.032   3.136   6.423  1.5985  1.7309 -0.6300
12915SOL    HW241063   7.183   3.125   6.419  1.3990 -2.3150 -0.8238
12916SOL     OW41064   7.894   8.440  10.526 -0.0111 -0.3441  0.5846
12916SOL    HW141065   7.952   8.416  10.598  0.1203  0.6012  0.7971
12916SOL    HW241066   7.895   8.535  10.524  1.5540 -0.3214 -1.9244
12917SOL     OW41067   1.445  10.320   3.168  0.0162 -0.0390  0.0594
12917SOL    HW141068   1.408  10.236   3.197  0.5251  0.5286  2.6084
12917SOL    HW241069   1.509  10.296   3.101 -0.6215 -1.5821 -0.0328
12918SOL     OW41070   5.571   7.099   6.146 -0.1902  0.7429  0.2386
12918SOL    HW141071   5.548   7.013   6.181  1.7030  0.3346  0.6183
12918SOL    HW241072   5.604   7.081   6.058 -0.6761  1.2122 -0.0458
12919SOL     OW41073   5.697   0.254   8.960 -0.2329  0.7377 -0.3446
12919SOL    HW141074   5.688   0.350   8.956 -0.5433  0.6819 -1.1700
12919SOL    HW241075   5.674   0.224   8.872  2.1038  0.0747 -0.7857
12920SOL     OW41076   7.264   6.990   4.327  0.5314 -0.0275  0.7969
12920SOL    HW141077   7.195   6.981   4.261  0.7838  0.1064  0.5120
12920SOL    HW241078   7.229   7.053   4.389 -0.1846 -1.0051  1.4217
12921SOL     OW41079   9.756   0.716   8.961 -0.0990  0.2384 -0.5446
12921SOL    HW141080   9.719   0.798   8.930 -2.1978 -0.1862  0.6185
12921SOL    HW241081   9.840   0.740   8.999 -0.7593  1.8975 -0.0350
12922SOL     OW41082   6.068   1.176   6.835  0.8065 -0.3701  0.9584
12922SOL    HW141083   6.151   1.223   6.825  0.4315  0.1132 -0.0529
12922SOL    HW241084   6.075   1.132   6.920  1.9752 -0.1020  1.0156
12923SOL     OW41085   7.014   0.479   2.057  0.4376 -0.2117 -0.5890
12923SOL    HW141086   6.979   0.535   1.987 -0.2297  2.6490  1.8224
12923SOL    HW241087   7.101   0.454   2.026 -0.3739 -0.2981 -3.0302
12924SOL     OW41088   8.403   6.403   6.122  0.5591 -0.2716 -0.1487
12924SOL    HW141089   8.338   6.344   6.083  1.4146 -1.3050 -0.0483
12924SOL    HW241090   8.481   6.349   6.134  2.0569  1.3276 -1.8874
12925SOL     OW41091   0.359   6.313   4.693 -0.4691 -0.1680 -0.1414
12925SOL    HW141092   0.290   6.346   4.636 -1.5891 -1.1243  0.6081
12925SOL    HW241093   0.325   6.329   4.782  0.5139 -0.1753  0.2436
12926SOL     OW41094   5.443   6.600   6.065 -0.2085 -0.1273 -0.7370
12926SOL    HW141095   5.462   6.680   6.115  0.3893 -2.0732  2.4143
12926SOL    HW241096   5.352   6.580   6.087  0.7373 -2.2792  1.7457
12927SOL     OW41097   1.376   2.437   2.938 -0.1814  0.4249 -0.2855
12927SOL    HW141098   1.309   2.379   2.902  0.7664 -1.1678  0.3888
12927SOL    HW241099   1.346   2.454   3.028 -0.1852  0.5394 -0.3083
12928SOL     OW41100   4.548   7.635   2.325 -0.1045 -0.2183 -0.2646
12928SOL    HW141101   4.464   7.636   2.279  0.2553 -0.2858 -0.9431
12928SOL    HW241102   4.584   7.548   2.308 -0.3205 -0.5237  0.8218
12929SOL     OW41103   7.934   0.291   3.471  0.4669  0.3894  0.1144
12929SOL    HW141104   7.899   0.337   3.547  1.0682  1.4906 -0.2494
12929SOL    HW241105   8.011   0.244   3.504  1.1837  1.4809  0.0660
12930SOL     OW41106   3.833   9.939   8.351 -0.2385 -0.0322 -0.0942
12930SOL    HW141107   3.922   9.964   8.378 -0.2672 -0.4261  0.3647
12930SOL    HW241108   3.819   9.852   8.388 -1.2726  0.5286  0.8943
12931SOL     OW41109   5.860   8.531   2.908  0.6091 -0.0648 -0.4716
12931SOL    HW141110   5.769   8.501   2.912  1.1993 -2.0657 -0.9038
12931SOL    HW241111   5.873   8.558   2.817  0.2043  1.1431 -0.1876
12932SOL     OW41112   9.018   5.994   3.253  0.2547 -0.0624 -0.1037
12932SOL    HW141113   8.942   5.954   3.209 -0.2559 -0.7387  1.3375
12932SOL    HW241114   9.088   5.930   3.241  0.4737  0.3262 -0.9878
12933SOL     OW41115   6.813   3.325  10.089 -0.0931 -0.5554 -0.3765
12933SOL    HW141116   6.719   3.339  10.082 -0.0138  0.5194  0.4934
12933SOL    HW241117   6.851   3.379  10.020 -0.0584 -0.2330 -0.1052
12934SOL     OW41118   7.656   1.811   3.400  0.0332 -0.4145 -0.3745
12934SOL    HW141119   7.639   1.886   3.343 -2.3296  0.6267  1.5207
12934SOL    HW241120   7.622   1.736   3.353 -1.2502  0.3249 -0.6589
12935SOL     OW41121   1.291   7.902   8.515  0.2393 -0.0433  0.2233
12935SOL    HW141122   1.384   7.881   8.509 -0.2209 -2.1463 -0.7140
12935SOL    HW241123   1.271   7.898   8.608  0.7717 -1.4093  0.3132
12936SOL     OW41124   8.436   2.317   5.617  0.3592  0.3051 -0.0964
12936SOL    HW141125   8.494   2.265   5.561  0.7568  0.8026 -0.1538
12936SOL    HW241126   8.484   2.399   5.632  1.5954 -0.8824  3.3421
12937SOL     OW41127   5.835   1.290   1.167 -0.0011  0.5876 -0.6897
12937SOL    HW141128   5.805   1.320   1.082 -1.3507  0.3593 -0.3254
12937SOL    HW241129   5.867   1.201   1.151  0.3540  0.7767 -1.0605
12938SOL     OW41130   8.838   5.940   9.384  0.1274 -0.5317 -0.0549
12938SOL    HW141131   8.787   5.964   9.462 -1.5783 -2.1354 -0.5917
12938SOL    HW241132   8.915   5.894   9.418 -1.6845 -3.1921  0.7432
12939SOL     OW41133   6.241   0.024   4.537 -0.5663  0.0416  0.0630
12939SOL    HW141134   6.214   0.026   4.629  0.3589  0.7545  0.3369
12939SOL    HW241135   6.286  -0.060   4.528 -1.1430 -0.2763  0.1129
12940SOL     OW41136  10.448   5.168   4.084  0.2183  0.2584  0.4932
12940SOL    HW141137  10.514   5.237   4.085  0.6288 -0.1451  1.4894
12940SOL    HW241138  10.368   5.211   4.114 -0.2493  0.9745 -1.5581
12941SOL     OW41139   6.899   6.097  10.142  0.2141 -0.6100 -0.0450
12941SOL    HW141140   6.854   6.095  10.227  0.8748 -0.5405  0.3152
12941SOL    HW241141   6.909   6.190  10.123  0.0467 -0.6258 -0.2145
12942SOL     OW41142   4.766   6.942   8.405 -0.4551  0.4154  0.0219
12942SOL    HW141143   4.812   6.858   8.406  0.3609  0.8481 -0.6443
12942SOL    HW241144   4.782   6.977   8.318 -0.4487  1.4584  0.4326
12943SOL     OW41145   9.985   8.587   9.851 -0.0667  0.0850 -0.7450
12943SOL    HW141146  10.051   8.657   9.853  2.0664 -1.7247 -2.4456
12943SOL    HW241147  10.005   8.533   9.928 -1.0484  0.7518 -0.0083
12944SOL     OW41148   6.181   3.394   3.648 -0.0274 -0.0140  0.1601
12944SOL    HW141149   6.275   3.402   3.630  0.4327 -1.7674  1.4744
12944SOL    HW241150   6.167   3.300   3.660 -2.6021 -0.2306 -3.0764
12945SOL     OW41151   2.793   3.840   8.776  0.3788  0.2167 -0.2137
12945SOL    HW141152   2.812   3.840   8.869  3.1185  0.6227 -0.6839
12945SOL    HW241153   2.754   3.926   8.759  0.2181  0.2841  0.4692
12946SOL     OW41154  10.292  10.001   0.397 -0.0313 -0.0143 -0.7108
12946SOL    HW141155  10.226   9.992   0.329 -0.0633 -0.9576 -0.5672
12946SOL    HW241156  10.373  10.018   0.350  0.2420 -2.1847 -1.1139
12947SOL     OW41157   8.324   1.093   1.225  0.0122  0.0829 -0.1422
12947SOL    HW141158   8.399   1.052   1.182  0.9079 -0.1415  1.5511
12947SOL    HW241159   8.345   1.186   1.225 -0.7500  0.2896 -1.5581
12948SOL     OW41160   7.942   0.261   8.712 -0.5941  0.8296 -0.3789
12948SOL    HW141161   7.945   0.218   8.797 -1.8422  0.3500 -0.5608
12948SOL    HW241162   7.863   0.227   8.670 -0.4061  1.6233 -1.4284
12949SOL     OW41163   9.192   9.575   2.196 -0.1491 -0.0395  0.2864
12949SOL    HW141164   9.145   9.653   2.227  1.1096  0.1221  1.9250
12949SOL    HW241165   9.128   9.529   2.140 -1.1055  1.8417 -0.2414
12950SOL     OW41166  10.328   0.920   6.188 -0.5226 -0.5697 -0.2755
12950SOL    HW141167  10.243   0.910   6.146 -0.1272 -0.3271 -1.1574
12950SOL    HW241168  10.359   0.831   6.201 -1.4123 -0.6987  1.1272
12951SOL     OW41169   7.144   4.613   7.232  0.0497  0.4219  0.8048
12951SOL    HW141170   7.175   4.606   7.142  1.0643 -3.1652  1.2531
12951SOL    HW241171   7.048   4.614   7.225  0.1235  2.3265 -0.3229
12952SOL     OW41172   6.859   1.234   1.158  0.5359 -0.3245 -0.0770
12952SOL    HW141173   6.779   1.246   1.208  0.9513  3.8999 -0.0082
12952SOL    HW241174   6.830   1.205   1.071 -0.7668 -1.3344  0.6717
12953SOL     OW41175   4.198   6.764   5.702  0.2849 -0.3296 -0.2592
12953SOL    HW141176   4.190   6.680   5.658 -0.2834 -0.9186  0.9149
12953SOL    HW241177   4.232   6.823   5.635 -2.1188 -0.7622 -1.9910
12954SOL     OW41178   4.070   4.377   0.640 -0.1927 -0.3884  0.8304
12954SOL    HW141179   4.141   4.350   0.698  1.7181  1.3222 -0.5824
12954SOL    HW241180   4.066   4.472   0.650 -1.2254 -0.2857 -0.2944
12955SOL     OW41181   6.511  10.514  10.525  0.3995  0.2632  0.0003
12955SOL    HW141182   6.561  10.489  10.603  2.1710  1.3192 -0.7216
12955SOL    HW241183   6.446  10.445  10.516  2.7583 -2.1758  0.1166
12956SOL     OW41184   4.044  10.168   6.641 -0.2783 -0.2857 -0.9943
12956SOL    HW141185   4.111  10.114   6.599  2.2471  0.0869  2.1835
12956SOL    HW241186   4.070  10.258   6.620  0.9223 -0.1017  1.0038
12957SOL     OW41187   7.213   7.882   1.667 -0.2217  0.7401 -0.7236
12957SOL    HW141188   7.120   7.884   1.645 -0.8159 -1.0787  1.2530
12957SOL    HW241189   7.255   7.845   1.590 -1.0113  2.1438 -1.8804
12958SOL     OW41190   1.118   6.289   2.507 -0.1718  0.2200 -0.2601
12958SOL    HW141191   1.118   6.382   2.484  0.7157  0.3709  0.3094
12958SOL    HW241192   1.039   6.254   2.466 -1.5486  1.6128  1.0567
12959SOL     OW41193   9.211   6.288   4.006 -0.2090 -0.2542 -0.3687
12959SOL    HW141194   9.174   6.312   3.921  0.0357 -0.0107 -0.4082
12959SOL    HW241195   9.178   6.200   4.023  0.2341 -0.5468 -0.9993
12960SOL     OW41196   7.713   6.516   1.400 -0.4490  0.2604  0.3289
12960SOL    HW141197   7.720   6.605   1.364 -1.2299 -0.1826 -0.9678
12960SOL    HW241198   7.732   6.459   1.326 -2.1729 -0.6939  0.5896
12961SOL     OW41199   7.765   0.464   0.693 -0.2714  0.1220 -0.1704
12961SOL    HW141200   7.710   0.478   0.770 -1.4992  0.9265 -1.1585
12961SOL    HW241201   7.744   0.537   0.635  1.1985 -0.0500 -0.9605
12962SOL     OW41202  10.225   2.806   7.281  0.3469  0.6149 -0.3745
12962SOL    HW141203  10.304   2.776   7.326 -0.6832 -0.5862  0.7108
12962SOL    HW241204  10.163   2.825   7.351 -0.2447  1.8134 -1.1968
12963SOL     OW41205   7.310   0.344   9.414 -0.1607 -0.4141  0.7623
12963SOL    HW141206   7.293   0.252   9.394  0.3929 -0.1481 -1.0916
12963SOL    HW241207   7.263   0.392   9.346  1.1432  0.6031  0.5563
12964SOL     OW41208   3.070   6.064   2.189  0.2463 -0.1885  0.5774
12964SOL    HW141209   3.041   6.051   2.098  0.2725 -1.0054  0.6783
12964SOL    HW241210   3.161   6.036   2.190 -0.3776 -2.3989  1.3284
12965SOL     OW41211   3.537   1.080   1.997  0.7974  0.2924  0.2938
12965SOL    HW141212   3.555   1.026   1.919  0.7672  2.1083 -1.0381
12965SOL    HW241213   3.584   1.161   1.981  0.1362  1.0109  1.8219
12966SOL     OW41214   3.192   0.997   6.755 -0.0510  0.1129  0.2689
12966SOL    HW141215   3.107   0.955   6.771  0.3331 -1.0187 -0.5326
12966SOL    HW241216   3.183   1.085   6.793 -2.6915  1.2226 -2.5065
12967SOL     OW41217   3.622   5.108   8.216 -0.1690  0.4103 -0.2834
12967SOL    HW141218   3.600   5.036   8.156 -0.3047 -0.6369  0.9782
12967SOL    HW241219   3.717   5.119   8.207 -0.2165  0.4015 -0.8282
12968SOL     OW41220   6.189   0.923   7.744 -0.2074  0.2713 -0.2923
12968SOL    HW141221   6.101   0.957   7.759 -1.0737 -1.4910 -1.0611
12968SOL    HW241222   6.205   0.864   7.818 -0.0365 -0.0575 -0.5848
12969SOL     OW41223   2.618   2.286   1.873  0.3410 -0.0409 -0.2664
12969SOL    HW141224   2.627   2.306   1.780  0.3279  1.3403  0.0024
12969SOL    HW241225   2.576   2.200   1.875 -1.8958  0.9128 -1.5861
12970SOL     OW41226   6.301   4.557   1.661 -0.0919 -0.0954  0.2913
12970SOL    HW141227   6.343   4.635   1.698  0.2620 -0.3764  0.4912
12970SOL    HW241228   6.294   4.575   1.568 -3.7244  1.9277  0.7687
12971SOL     OW41229   1.531   8.793   4.305 -0.1467  0.1785  0.2824
12971SOL    HW141230   1.453   8.849   4.299 -0.7413 -0.5838  0.6999
12971SOL    HW241231   1.521   8.730   4.234 -0.0086 -0.0480  0.4639
12972SOL     OW41232   4.468   6.495   2.840  0.1369  0.3354 -0.1399
12972SOL    HW141233   4.447   6.460   2.927 -0.1001 -0.3315 -0.4557
12972SOL    HW241234   4.460   6.419   2.782 -1.5819  1.1406 -1.0445
12973SOL     OW41235   1.449   2.343   9.746 -0.2525 -0.3182 -0.4869
12973SOL    HW141236   1.459   2.297   9.663  0.3527 -0.2097 -0.4750
12973SOL    HW241237   1.449   2.436   9.722 -0.2337 -0.2909 -0.3828
12974SOL     OW41238   9.441   3.996   4.804 -0.0487  0.2118  0.5012
12974SOL    HW141239   9.407   3.924   4.858  0.7539 -0.5982 -0.0464
12974SOL    HW241240   9.499   4.044   4.862  1.0942 -0.8696  0.2899
12975SOL     OW41241   0.324   0.204   7.299  0.0231 -0.1111 -0.0442
12975SOL    HW141242   0.365   0.117   7.292 -0.1956 -0.1670 -0.6579
12975SOL    HW241243   0.272   0.199   7.379 -1.2873 -1.0996 -0.9245
12976SOL     OW41244   8.943   3.769   0.036  0.0491  0.5985  0.4350
12976SOL    HW141245   8.918   3.735   0.122 -0.5167 -0.0659  0.0194
12976SOL    HW241246   9.012   3.710   0.006 -0.1829  0.4638  0.1685
12977SOL     OW41247   9.104   8.788   7.849  0.0320 -0.0943  0.4864
12977SOL    HW141248   9.164   8.715   7.837 -0.6984 -0.6945  0.4634
12977SOL    HW241249   9.134   8.854   7.786  0.0136 -0.8029 -0.2676
12978SOL     OW41250   3.266   5.340   2.751 -0.4309 -0.1650  0.0444
12978SOL    HW141251   3.323   5.284   2.698 -0.4914 -0.3713  0.1985
12978SOL    HW241252   3.192   5.284   2.775 -1.2696  0.4115 -1.0965
12979SOL     OW41253   6.611   7.513   6.808 -0.4974 -0.1536 -0.5629
12979SOL    HW141254   6.522   7.532   6.835 -0.4913 -2.1659  1.0959
12979SOL    HW241255   6.665   7.571   6.862 -0.7103 -0.8119  0.3830
12980SOL     OW41256   7.142   8.289   0.570 -0.1134 -0.6429  0.5014
12980SOL    HW141257   7.221   8.312   0.619  0.5229 -1.1921 -0.2487
12980SOL    HW241258   7.138   8.353   0.499  0.4188 -1.4386 -0.2611
12981SOL     OW41259   8.700   3.755   5.948 -0.3881 -0.0706 -0.2802
12981SOL    HW141260   8.671   3.715   5.866  0.4433 -0.3219 -0.4630
12981SOL    HW241261   8.623   3.753   6.005 -0.8761 -0.2094 -0.9353
12982SOL     OW41262   6.517   0.325   4.186 -0.2425  0.4649 -0.7057
12982SOL    HW141263   6.442   0.354   4.134 -1.1123  0.8277  0.6813
12982SOL    HW241264   6.483   0.320   4.276  0.8775 -1.2588 -0.3189
12983SOL     OW41265   0.951   4.897   8.558 -0.2862  0.3849 -0.2374
12983SOL    HW141266   0.921   4.806   8.558  2.1675 -0.5349  1.0207
12983SOL    HW241267   0.989   4.909   8.645 -0.1175  2.4637 -0.5558
12984SOL     OW41268   8.855   6.204   8.051 -0.4975  0.3903 -0.5821
12984SOL    HW141269   8.863   6.137   8.119 -1.4199  1.8036  0.9739
12984SOL    HW241270   8.770   6.186   8.010 -0.3673  0.1026 -0.7257
12985SOL     OW41271   7.166   2.846   0.640  0.5798  0.3090  0.0532
12985SOL    HW141272   7.234   2.868   0.704 -0.3635  0.4976  1.0137
12985SOL    HW241273   7.085   2.846   0.690 -0.1402  0.0844 -1.0789
12986SOL     OW41274   5.243   3.246   7.091 -0.4811  0.9095  0.3564
12986SOL    HW141275   5.228   3.301   7.013 -0.5098  1.0271  0.4446
12986SOL    HW241276   5.296   3.301   7.148  1.0265  0.1919 -0.3130
12987SOL     OW41277   3.479   1.782   7.580  0.3355 -0.3072  0.0937
12987SOL    HW141278   3.401   1.832   7.603  0.7170  0.1901  0.3209
12987SOL    HW241279   3.464   1.696   7.620  0.0153 -0.1357  0.3472
12988SOL     OW41280   7.715   3.274   0.383 -0.4478 -0.3602 -0.1604
12988SOL    HW141281   7.745   3.258   0.294  0.9337  0.1357  0.1852
12988SOL    HW241282   7.620   3.263   0.379 -0.4350 -0.1302 -1.7322
12989SOL     OW41283   8.776   0.146  10.558  0.1560  0.1643 -0.1502
12989SOL    HW141284   8.740   0.070  10.604  1.5750 -1.1269 -1.0879
12989SOL    HW241285   8.771   0.216  10.623  0.6103 -1.1984  1.4480
12990SOL     OW41286   0.927   5.978   9.475  0.1555 -0.6137 -0.0681
12990SOL    HW141287   1.003   6.035   9.485  0.3077 -0.8878  0.3903
12990SOL    HW241288   0.947   5.923   9.400 -0.7768  1.1440 -1.6903
12991SOL     OW41289   5.292   5.153   6.405 -0.4575  0.1038 -0.0706
12991SOL    HW141290   5.321   5.159   6.314 -1.5722  0.3797 -0.4244
12991SOL    HW241291   5.203   5.118   6.399 -0.7525  0.6755  0.8769
12992SOL     OW41292   4.416   6.809   6.530 -0.1017 -0.2120 -0.2924
12992SOL    HW141293   4.342   6.749   6.521  0.1993 -0.6175 -0.0877
12992SOL    HW241294   4.409   6.867   6.454  0.3524 -1.3263 -1.2035
12993SOL     OW41295   0.292   2.263   7.943  0.2176  0.5942  0.0667
12993SOL    HW141296   0.237   2.339   7.921 -1.2544 -0.5253 -0.3626
12993SOL    HW241297   0.355   2.258   7.872 -0.0611  1.0804 -0.2221
12994SOL     OW41298   6.606   7.261   1.251  0.3266  0.0703 -0.7423
12994SOL    HW141299   6.607   7.351   1.284  1.6555  0.3334 -1.4581
12994SOL    HW241300   6.588   7.208   1.329 -0.7831  0.9533 -0.3604
12995SOL     OW41301   2.694   5.135   7.470  0.0018 -0.4220  0.2632
12995SOL    HW141302   2.757   5.093   7.411 -1.4564 -1.5118 -0.5802
12995SOL    HW241303   2.743   5.207   7.510  1.7271 -1.1381 -0.4674
12996SOL     OW41304   5.021   9.397   6.441  0.5529 -0.1356  0.0001
12996SOL    HW141305   5.018   9.441   6.356  0.7465  1.3913  0.7506
12996SOL    HW241306   5.060   9.461   6.500 -0.1768 -0.9141  1.3863
12997SOL     OW41307   9.508   4.345   2.206  0.5895  0.2416 -0.5028
12997SOL    HW141308   9.585   4.401   2.213  1.8088 -1.4202 -0.0504
12997SOL    HW241309   9.543   4.256   2.207 -1.4171 -0.5986  0.7832
12998SOL     OW41310   3.878   5.623   9.081 -0.2368  0.0863  0.0171
12998SOL    HW141311   3.948   5.567   9.116  0.0239 -0.3305 -1.1251
12998SOL    HW241312   3.923   5.684   9.023 -0.8351 -0.4016 -0.9975
12999SOL     OW41313   3.526   3.134   3.091  0.1713 -0.1837 -0.0156
12999SOL    HW141314   3.539   3.135   3.186 -1.2874  2.6881  0.2570
12999SOL    HW241315   3.442   3.178   3.078  0.7536  0.3039 -2.6994
13000SOL     OW41316   3.294   7.141   3.509  0.5284 -0.1858  0.2333
13000SOL    HW141317   3.317   7.231   3.534  1.1963  0.1654 -1.4834
13000SOL    HW241318   3.293   7.142   3.413 -1.7260 -1.4757  0.1744
13001SOL     OW41319   1.274   3.947   3.007 -0.5315 -0.3461 -0.7926
13001SOL    HW141320   1.212   3.975   3.075  0.1232 -1.2839  0.2166
13001SOL    HW241321   1.258   4.007   2.935 -1.3879  0.5585  0.1119
13002SOL     OW41322   8.787   5.103   6.855 -0.6269 -0.3051  0.0424
13002SOL    HW141323   8.828   5.050   6.787 -1.0428 -2.3387  1.2816
13002SOL    HW241324   8.860   5.141   6.904 -0.3136  0.0613 -0.7029
13003SOL     OW41325   7.084   0.103   8.991  1.0919 -0.0228  0.2229
13003SOL    HW141326   7.105   0.194   8.971  1.2544  0.1586  1.1538
13003SOL    HW241327   7.089   0.098   9.087  0.5807 -0.8866  0.2154
13004SOL     OW41328   7.859   5.484   2.186 -0.3223  0.1132 -0.2687
13004SOL    HW141329   7.831   5.393   2.199 -1.4907  0.7143  1.7297
13004SOL    HW241330   7.786   5.537   2.218  1.1268  1.7478  0.4957
13005SOL     OW41331   5.855   3.275   0.960  0.0038 -0.0877  0.2999
13005SOL    HW141332   5.768   3.303   0.989 -0.8019  1.1266 -2.9349
13005SOL    HW241333   5.902   3.356   0.940  0.8674 -0.7945 -0.6573
13006SOL     OW41334   1.032   7.382   3.662  0.0583 -0.4239 -0.5455
13006SOL    HW141335   1.023   7.380   3.758  1.2722 -1.6325 -0.4194
13006SOL    HW241336   1.043   7.475   3.641 -2.2493  0.0978  0.2340
13007SOL     OW41337   2.995   2.124   6.577 -0.1400 -0.1166  0.2196
13007SOL    HW141338   2.905   2.107   6.550  0.0677  0.1666 -0.7039
13007SOL    HW241339   2.989   2.143   6.671 -0.9636 -0.6598  0.2861
13008SOL     OW41340   1.452   4.201   8.717 -0.3230  0.3480 -0.3398
13008SOL    HW141341   1.545   4.223   8.720 -0.4900  1.0231  0.0383
13008SOL    HW241342   1.450   4.105   8.711  0.3985  0.3577 -0.8502
13009SOL     OW41343   5.218   7.239  10.432  0.6493 -0.1460 -0.0224
13009SOL    HW141344   5.141   7.285  10.466  0.8786 -0.3106  0.7263
13009SOL    HW241345   5.237   7.172  10.498  0.3468 -1.3103 -1.0549
13010SOL     OW41346   3.889   3.040   5.810 -0.0545 -0.3133  0.3757
13010SOL    HW141347   3.901   2.966   5.869 -1.6580 -0.5189  0.5088
13010SOL    HW241348   3.794   3.051   5.805 -0.0070 -0.4775 -2.3708
13011SOL     OW41349   4.206   7.437   6.489  0.3251 -0.8437  0.4829
13011SOL    HW141350   4.295   7.410   6.468  0.9690  0.2532  1.6061
13011SOL    HW241351   4.150   7.374   6.445  1.5998 -0.4064 -1.9450
13012SOL     OW41352   2.494   1.921   6.465  0.1166  0.4615 -0.3933
13012SOL    HW141353   2.404   1.936   6.494  0.2736 -0.6019  0.7120
13012SOL    HW241354   2.512   1.830   6.486  1.1882  0.4134 -1.3713
13013SOL     OW41355   0.013   1.049   1.982 -0.1721 -0.5581 -0.7413
13013SOL    HW141356   0.092   0.998   2.002  0.8686  1.0266 -0.6782
13013SOL    HW241357  -0.056   0.983   1.976  0.7557 -1.7951  1.2096
13014SOL     OW41358   5.431   5.642   6.430  0.6236  0.1457  0.3984
13014SOL    HW141359   5.480   5.582   6.375  0.9340 -0.1292  0.9628
13014SOL    HW241360   5.341   5.637   6.398  1.0701  1.2125 -1.1230
13015SOL     OW41361   8.887   5.644   0.475 -0.3010 -0.1328 -0.0841
13015SOL    HW141362   8.919   5.719   0.424  1.3235  1.0567  2.4953
13015SOL    HW241363   8.793   5.658   0.482 -0.1643  1.1361 -0.4983
13016SOL     OW41364   6.341   6.152   4.197 -0.1628 -0.2426 -0.0059
13016SOL    HW141365   6.409   6.169   4.262  0.4395 -0.4968 -0.5624
13016SOL    HW241366   6.361   6.211   4.125 -1.1120  0.3931  0.2213
13017SOL     OW41367   8.378   6.293   3.546  0.1671  0.1917 -0.3240
13017SOL    HW141368   8.473   6.280   3.557  0.4355  0.1538 -2.2176
13017SOL    HW241369   8.361   6.380   3.581  0.7512 -0.0835  0.6972
13018SOL     OW41370   1.512   1.059   5.506 -0.2103 -0.1406 -0.1760
13018SOL    HW141371   1.578   1.111   5.552  0.5180 -0.1384 -1.1923
13018SOL    HW241372   1.437   1.059   5.565  0.3048  0.7929  0.5159
13019SOL     OW41373   3.428   4.982   7.208  0.0270  0.5158  0.5182
13019SOL    HW141374   3.507   4.928   7.210  0.7829  1.6139  2.1018
13019SOL    HW241375   3.460   5.071   7.193 -0.6116  1.3272  3.4038
13020SOL     OW41376   0.831   6.999   2.798 -0.1863  0.1444 -0.0609
13020SOL    HW141377   0.922   7.014   2.774 -0.1388 -0.1574 -0.0666
13020SOL    HW241378   0.804   7.081   2.840  0.9201 -0.7167  2.5332
13021SOL     OW41379   6.428  10.002   3.854  0.3462  0.0927  0.9646
13021SOL    HW141380   6.477  10.026   3.775 -1.8462  1.7755 -0.0135
13021SOL    HW241381   6.486   9.943   3.902  2.9232  1.2494 -0.5018
13022SOL     OW41382   6.624   6.473   3.482  1.0056  1.0216 -0.4075
13022SOL    HW141383   6.678   6.443   3.410  0.8009  0.5204 -0.3581
13022SOL    HW241384   6.686   6.497   3.551  1.1503 -0.5700  0.0441
13023SOL     OW41385   1.362   5.541  10.228 -0.3479 -0.4096  0.0165
13023SOL    HW141386   1.357   5.454  10.266  2.6461 -0.3299  0.7856
13023SOL    HW241387   1.382   5.599  10.302  2.0270  0.2581 -1.0637
13024SOL     OW41388   6.914   2.185   8.829 -0.0705  0.9282 -0.0847
13024SOL    HW141389   6.968   2.200   8.906  0.6965  0.5483 -0.5410
13024SOL    HW241390   6.857   2.112   8.854 -0.8078  1.7160  0.6063
13025SOL     OW41391   5.040   0.663   0.973  0.3899  0.7029 -0.4637
13025SOL    HW141392   5.017   0.608   1.048  0.6862  1.3316  0.0954
13025SOL    HW241393   5.009   0.751   0.997 -0.1432  0.7830 -1.3777
13026SOL     OW41394   4.676   5.769   0.716 -0.0157  0.3140 -0.6885
13026SOL    HW141395   4.641   5.787   0.803  2.7031 -0.1793  0.6056
13026SOL    HW241396   4.691   5.674   0.715  0.8110  0.4423 -1.3618
13027SOL     OW41397   5.810   8.959   9.283 -0.1039  0.8133 -0.8203
13027SOL    HW141398   5.834   9.048   9.308  1.6417  0.3358 -0.6810
13027SOL    HW241399   5.824   8.955   9.189  0.3373  0.5398 -0.7450
13028SOL     OW41400   3.568   1.074   4.387  0.3429  0.2285  0.2225
13028SOL    HW141401   3.582   1.039   4.299 -0.0869 -1.4466  0.7882
13028SOL    HW241402   3.536   1.164   4.372  0.8650  0.1943 -1.2928
13029SOL     OW41403   9.438   3.274   6.407 -0.0107  0.1980 -0.3652
13029SOL    HW141404   9.502   3.211   6.439 -0.8840  0.7030  2.8036
13029SOL    HW241405   9.464   3.357   6.447 -2.6971  0.3508  1.3672
13030SOL     OW41406   0.128   5.687   5.159 -0.6494  0.5208  0.1971
13030SOL    HW141407   0.152   5.600   5.130 -0.3742  1.0081 -1.1121
13030SOL    HW241408   0.190   5.745   5.115 -1.1564  1.4151  0.6270
13031SOL     OW41409   4.515   8.959   1.930 -0.5097 -0.2812  0.6108
13031SOL    HW141410   4.538   9.032   1.873 -0.3298  0.0089  1.0512
13031SOL    HW241411   4.419   8.953   1.924 -0.4646 -0.4962 -0.0096
13032SOL     OW41412   1.388   9.764   5.324  0.1647 -0.0827 -0.2541
13032SOL    HW141413   1.457   9.700   5.342  0.9905  0.7705 -0.3330
13032SOL    HW241414   1.338   9.725   5.252  1.1567 -0.2662 -0.8623
13033SOL     OW41415  10.378   5.097   9.445  0.6141  0.7986 -0.2828
13033SOL    HW141416  10.303   5.153   9.423  0.6673  1.0046  0.0442
13033SOL    HW241417  10.438   5.156   9.490 -0.3029 -0.0006  2.1527
13034SOL     OW41418   0.186   3.720   0.150 -0.0717  0.0767  0.0571
13034SOL    HW141419   0.155   3.637   0.186  1.8586 -0.9355 -0.4693
13034SOL    HW241420   0.139   3.787   0.200 -1.5402 -1.3008  0.6264
13035SOL     OW41421   6.823  10.264  10.294 -0.0743  0.3805  0.1988
13035SOL    HW141422   6.801  10.329  10.227 -0.2540  1.0001  0.8445
13035SOL    HW241423   6.901  10.300  10.337  1.8532 -1.3908 -1.5349
13036SOL     OW41424   8.053   9.595   7.769  0.1472  0.3492 -0.8245
13036SOL    HW141425   8.047   9.640   7.685  1.5320  0.5593 -0.8374
13036SOL    HW241426   8.069   9.665   7.833  0.7198  0.0358 -0.6195
13037SOL     OW41427   0.533   3.214   6.653 -0.0952  0.1651 -0.3683
13037SOL    HW141428   0.460   3.258   6.697 -0.4830 -1.1919  0.4301
13037SOL    HW241429   0.492   3.169   6.579  0.3024  1.1357 -1.2022
13038SOL     OW41430   0.044   2.696   6.890  0.3217 -0.5015 -0.1718
13038SOL    HW141431   0.078   2.781   6.862  0.0794 -1.2381 -3.0246
13038SOL    HW241432   0.121   2.639   6.894  0.2736 -0.5517  0.0433
13039SOL     OW41433   9.554   0.309   4.003 -0.2956  0.4050 -0.3358
13039SOL    HW141434   9.519   0.280   4.087  0.8773 -1.0374 -0.3149
13039SOL    HW241435   9.642   0.341   4.023  0.7908 -1.8256 -1.2457
13040SOL     OW41436   6.931   5.537   1.572 -0.2690 -0.1192  0.2874
13040SOL    HW141437   7.015   5.506   1.539 -0.1300 -0.6944  1.1530
13040SOL    HW241438   6.936   5.526   1.667 -1.4467 -0.4854  0.3305
13041SOL     OW41439   2.338   3.622   2.411 -0.2383  0.3592  0.4447
13041SOL    HW141440   2.292   3.653   2.489 -2.0730  0.3181 -0.5551
13041SOL    HW241441   2.397   3.693   2.387  0.3098  0.3952  1.8050
13042SOL     OW41442   6.242  10.112   1.597 -0.4381 -0.4636  0.0418
13042SOL    HW141443   6.232  10.027   1.553  0.8851 -1.2496  1.1622
13042SOL    HW241444   6.324  10.103   1.646 -0.0922  1.6078 -0.0885
13043SOL     OW41445   2.180   0.416   2.949 -0.4747 -0.9702  0.4636
13043SOL    HW141446   2.155   0.439   2.860  0.3365 -1.4003  0.1127
13043SOL    HW241447   2.102   0.372   2.985 -1.2880  0.3935  0.4449
13044SOL     OW41448   4.777   0.959   7.061 -0.1030  0.3303 -0.1399
13044SOL    HW141449   4.709   1.023   7.038  0.2064  0.6842 -0.0813
13044SOL    HW241450   4.850   0.980   7.003  1.2350  2.1562  2.0495
13045SOL     OW41451   5.490   9.669   4.131 -0.5383 -0.7807 -0.4264
13045SOL    HW141452   5.426   9.602   4.105 -0.8485 -0.6186 -0.0802
13045SOL    HW241453   5.454   9.751   4.097  0.4779 -0.9388 -2.0036
13046SOL     OW41454   0.817   1.534   8.479 -0.0288  0.0820 -0.2390
13046SOL    HW141455   0.896   1.480   8.475 -1.6039 -2.3890  0.1877
13046SOL    HW241456   0.765   1.507   8.403 -1.2054  0.3932  0.4252
13047SOL     OW41457   5.987   7.146   3.938  0.0753  0.7803  0.5672
13047SOL    HW141458   6.007   7.156   4.030 -0.3254  2.4574  0.4914
13047SOL    HW241459   6.071   7.126   3.896  0.1694 -0.5468  1.3392
13048SOL     OW41460   5.345   0.409   9.766 -0.2185 -0.4752 -0.3117
13048SOL    HW141461   5.297   0.343   9.715  1.3513 -0.2160 -2.2520
13048SOL    HW241462   5.313   0.492   9.732  2.3466 -0.2730 -2.6022
13049SOL     OW41463  10.317   6.858   2.665  0.1819  0.1052  0.0874
13049SOL    HW141464  10.333   6.763   2.665  0.8561  0.2013 -0.9820
13049SOL    HW241465  10.271   6.874   2.583  0.5902  0.7943 -0.0062
13050SOL     OW41466   0.746   3.292   9.031  0.2156  0.6271 -0.2542
13050SOL    HW141467   0.810   3.235   9.074 -0.6466 -0.1576  0.0372
13050SOL    HW241468   0.796   3.370   9.005  0.7358  1.2543  2.3809
13051SOL     OW41469   8.795   7.758   2.008 -0.2308 -0.2505 -0.0825
13051SOL    HW141470   8.809   7.833   1.951 -0.4647  0.7984  1.1884
13051SOL    HW241471   8.729   7.705   1.963 -0.1785  0.3805 -0.9253
13052SOL     OW41472   0.670  10.470   0.671 -0.0685 -0.5802 -0.5958
13052SOL    HW141473   0.632  10.383   0.678  1.9190 -1.4698 -0.2065
13052SOL    HW241474   0.648  10.512   0.754  2.0199 -2.0690  0.8100
13053SOL     OW41475   1.581   5.128   6.752 -0.0818  0.9715  0.1697
13053SOL    HW141476   1.515   5.198   6.759 -0.8691  0.2181  0.4223
13053SOL    HW241477   1.564   5.072   6.828 -0.9453 -0.7465 -1.2349
13054SOL     OW41478   8.269   2.729   2.538 -0.1182  0.6164 -0.7738
13054SOL    HW141479   8.202   2.694   2.479 -1.6779  1.2276  0.5468
13054SOL    HW241480   8.350   2.684   2.512 -1.0564 -0.2892 -2.3025
13055SOL     OW41481   6.666   4.624   2.877 -0.2044 -0.1767 -0.3030
13055SOL    HW141482   6.717   4.675   2.940  0.2131  0.9916 -1.5552
13055SOL    HW241483   6.647   4.542   2.923  0.6964  0.3546  1.0787
13056SOL     OW41484   7.709  10.459   2.131  0.0657  0.1599  0.2591
13056SOL    HW141485   7.644  10.495   2.071 -0.4858  0.4973  1.0347
13056SOL    HW241486   7.681  10.489   2.218  0.5976 -0.6694  0.7347
13057SOL     OW41487   3.567   5.599   2.077 -0.1475 -0.1375 -0.0085
13057SOL    HW141488   3.480   5.630   2.105 -0.4328 -0.1032 -0.8934
13057SOL    HW241489   3.560   5.503   2.081 -1.3567 -0.2966 -3.1620
13058SOL     OW41490   1.378   4.658   2.473  0.3885  0.4368  0.1037
13058SOL    HW141491   1.355   4.634   2.563  2.3051  0.2406  0.6015
13058SOL    HW241492   1.408   4.749   2.479  2.2996 -0.1358  0.0806
13059SOL     OW41493   6.227   2.283  10.347  0.1961 -0.3462  0.0675
13059SOL    HW141494   6.141   2.275  10.307 -0.0101 -1.1121  0.6474
13059SOL    HW241495   6.282   2.223  10.297  0.6751  0.9093 -0.9905
13060SOL     OW41496   6.590   2.312   6.778 -0.0156  0.5707  0.5063
13060SOL    HW141497   6.629   2.334   6.863  2.8018  0.7163 -0.6975
13060SOL    HW241498   6.617   2.383   6.720 -0.3051 -0.4200 -0.8962
13061SOL     OW41499   9.101   3.921   0.742  0.8195  0.3248  0.6035
13061SOL    HW141500   9.104   4.011   0.709  0.8476  0.0631 -0.1393
13061SOL    HW241501   9.051   3.874   0.675  2.7639 -0.6902 -0.2197
13062SOL     OW41502   8.321   0.459   9.793 -0.3707  0.0037 -0.5361
13062SOL    HW141503   8.283   0.481   9.878  0.1223  1.3259 -0.6314
13062SOL    HW241504   8.246   0.445   9.736 -0.7077 -1.2138  0.1809
13063SOL     OW41505   4.095   2.508   0.307  0.5186 -0.0123  0.1614
13063SOL    HW141506   4.108   2.459   0.225 -1.0915  0.6986 -0.5656
13063SOL    HW241507   4.134   2.594   0.290  0.4899  0.0201  0.2587
13064SOL     OW41508   6.637   1.694   0.338  0.2728  0.0524  0.3512
13064SOL    HW141509   6.547   1.688   0.304  0.3373 -2.2133  0.4516
13064SOL    HW241510   6.636   1.643   0.419  1.9895 -1.3629 -0.4536
13065SOL     OW41511   4.589   9.493   8.497  0.0502 -0.7892 -0.3468
13065SOL    HW141512   4.594   9.403   8.466 -0.4831 -0.7830 -0.4654
13065SOL    HW241513   4.563   9.544   8.420  1.6781 -0.3275 -0.6155
13066SOL     OW41514   6.184   3.753   4.554 -0.0679  0.7422  0.1865
13066SOL    HW141515   6.234   3.690   4.502 -0.3136 -0.2378  1.0877
13066SOL    HW241516   6.245   3.781   4.622 -0.4432  0.1834  0.7811
13067SOL     OW41517   5.558   6.012   3.316 -0.1719  0.3773  0.1147
13067SOL    HW141518   5.481   5.960   3.339 -1.2035  2.5096  1.8627
13067SOL    HW241519   5.526   6.074   3.250  0.4770  0.2891 -0.2986
13068SOL     OW41520   5.775   7.868   2.996  0.1639 -0.2351 -0.3107
13068SOL    HW141521   5.681   7.885   2.984  0.7774  2.1550 -2.3553
13068SOL    HW241522   5.781   7.772   3.000 -2.3620 -0.4450  0.1854
13069SOL     OW41523   7.674   6.826   5.258  0.4161  0.1167  0.3114
13069SOL    HW141524   7.644   6.738   5.236 -0.1228  0.4776 -0.4207
13069SOL    HW241525   7.734   6.850   5.187  1.6548 -0.1812  1.2129
13070SOL     OW41526   2.708   1.124   2.790  0.4217 -0.0974 -0.2431
13070SOL    HW141527   2.742   1.036   2.806  0.2461  0.0385  1.0444
13070SOL    HW241528   2.619   1.111   2.759  0.6879 -0.3855 -0.9043
13071SOL     OW41529   1.963   4.700   2.784  0.0250 -0.6315  0.0914
13071SOL    HW141530   1.884   4.735   2.744  0.5306  0.4183 -0.0099
13071SOL    HW241531   1.967   4.740   2.871  0.4097 -0.7380  0.1269
13072SOL     OW41532   2.335   3.561   6.953  0.4531  0.1842 -0.0209
13072SOL    HW141533   2.262   3.500   6.962  0.2240  0.6186  1.2572
13072SOL    HW241534   2.404   3.526   7.009  1.3690 -0.3819 -1.4445
13073SOL     OW41535   9.834   5.211   4.365  0.1715 -0.3924 -0.0487
13073SOL    HW141536   9.865   5.227   4.454 -1.5297  1.4645  0.2919
13073SOL    HW241537   9.900   5.250   4.309  0.2561  0.2636  0.4976
13074SOL     OW41538   8.987   8.767   5.660 -0.2253 -0.3244  0.1469
13074SOL    HW141539   9.045   8.749   5.586 -0.7690 -1.1734 -0.0918
13074SOL    HW241540   8.900   8.748   5.626 -0.4962 -0.5338  0.9601
13075SOL     OW41541   5.209   5.105   8.246 -0.1542 -0.3193 -0.0428
13075SOL    HW141542   5.239   5.194   8.265 -0.5522 -0.1735 -0.0779
13075SOL    HW241543   5.151   5.115   8.171 -0.7577 -0.5013  0.3871
13076SOL     OW41544   5.010   5.451   2.768  0.5242  0.2392  0.0666
13076SOL    HW141545   5.010   5.375   2.710 -0.7408  0.2653  0.0028
13076SOL    HW241546   4.955   5.515   2.723 -2.4425 -0.5299  2.2385
13077SOL     OW41547   6.510   3.747   1.979  0.5030  0.0887 -0.2089
13077SOL    HW141548   6.493   3.655   1.955 -2.1999  0.2449  0.7885
13077SOL    HW241549   6.522   3.791   1.895  1.5184 -1.0645 -0.7209
13078SOL     OW41550   2.426   7.645   6.881  0.2017 -0.1317  0.7717
13078SOL    HW141551   2.464   7.558   6.867  2.0713  0.8415 -0.7346
13078SOL    HW241552   2.340   7.640   6.840  0.2318 -1.3059  0.8057
13079SOL     OW41553   2.361   4.535   4.924  0.3261  0.3114  0.2025
13079SOL    HW141554   2.418   4.591   4.977  2.0056 -2.8046  2.0516
13079SOL    HW241555   2.420   4.496   4.859 -0.2826 -0.8355  0.3022
13080SOL     OW41556   2.836  10.455   8.064 -0.0035  0.3046 -0.6191
13080SOL    HW141557   2.802  10.544   8.074  0.7183  0.4233  1.0169
13080SOL    HW241558   2.787  10.403   8.127  0.8774 -0.0723 -0.2278
13081SOL     OW41559   3.534   0.361   7.135 -0.4393  0.2086  0.2515
13081SOL    HW141560   3.511   0.442   7.180 -0.3146  0.3157  0.1253
13081SOL    HW241561   3.453   0.312   7.132 -1.2189  1.4837 -2.0597
13082SOL     OW41562   7.884   1.236   8.388 -0.0869  0.4263  0.4539
13082SOL    HW141563   7.941   1.224   8.312  1.5029 -2.2263  1.9160
13082SOL    HW241564   7.796   1.216   8.356  0.6149 -1.1364 -0.6174
13083SOL     OW41565   4.608   4.768   9.575 -0.2066  0.0169 -0.3280
13083SOL    HW141566   4.587   4.859   9.554  1.7468  0.3253 -1.2008
13083SOL    HW241567   4.547   4.716   9.523 -0.4466  0.8251 -0.8706
13084SOL     OW41568   6.486  10.036   9.977 -0.1717 -0.3985  0.1519
13084SOL    HW141569   6.448   9.971   9.917 -0.1147 -0.7639  0.5105
13084SOL    HW241570   6.411  10.070  10.026  0.0053 -1.4257  1.1577
13085SOL     OW41571   2.200  10.517   7.220  0.2266 -0.1348  0.3602
13085SOL    HW141572   2.288  10.525   7.256  0.0389 -0.4353  0.8981
13085SOL    HW241573   2.172  10.430   7.246  0.3824 -0.6875 -1.1980
13086SOL     OW41574   6.340   4.972   6.785  0.2405  0.0954  0.2477
13086SOL    HW141575   6.319   4.930   6.701  1.8451  0.5551 -0.4176
13086SOL    HW241576   6.349   4.899   6.846 -1.2150 -0.2299  0.1000
13087SOL     OW41577   1.272   8.919  10.027  0.1429 -0.1489 -0.1484
13087SOL    HW141578   1.350   8.863  10.035 -0.0710 -0.4938 -0.4152
13087SOL    HW241579   1.213   8.869   9.970 -1.0766 -0.7682  1.5829
13088SOL     OW41580   1.885   8.956   5.872 -0.3698  0.1360  0.3570
13088SOL    HW141581   1.800   8.987   5.905 -0.7143  0.1937 -0.5654
13088SOL    HW241582   1.864   8.888   5.809  0.2691  0.1804  0.0826
13089SOL     OW41583   3.260   7.493  10.080 -0.3998  0.5570  0.3594
13089SOL    HW141584   3.353   7.481  10.102 -0.4596 -0.2327  0.2115
13089SOL    HW241585   3.227   7.553  10.146  0.4046  1.4954 -0.0474
13090SOL     OW41586   1.988   3.174   7.788 -0.2920  0.6682 -0.6861
13090SOL    HW141587   1.960   3.191   7.878  0.5684  1.1386 -0.4998
13090SOL    HW241588   2.047   3.099   7.796 -2.8595 -1.5728 -1.3081
13091SOL     OW41589   6.898   8.331   0.212  0.5172  0.4473  0.2151
13091SOL    HW141590   6.833   8.373   0.268 -1.0537 -1.4153 -0.0983
13091SOL    HW241591   6.969   8.306   0.271  0.0729  0.8248  0.9111
13092SOL     OW41592   1.806   0.701   4.905 -0.2832 -0.3732 -0.0749
13092SOL    HW141593   1.794   0.758   4.981 -0.9811 -0.1095 -0.3719
13092SOL    HW241594   1.822   0.614   4.942 -0.0005 -0.1370  0.3730
13093SOL     OW41595   5.939   0.926   9.976  0.0751 -0.5273 -0.8486
13093SOL    HW141596   5.849   0.949   9.954 -0.3463  0.4400  1.5535
13093SOL    HW241597   5.987   1.009   9.969  0.1009 -0.3710  0.7776
13094SOL     OW41598   6.031   4.873   0.234  0.2145 -0.3181 -0.1834
13094SOL    HW141599   6.078   4.916   0.306  1.1074  0.6185 -1.2661
13094SOL    HW241600   5.970   4.940   0.202  0.1548 -0.5537 -0.5782
13095SOL     OW41601   0.700   5.598   0.557  0.0080  0.9317 -0.1507
13095SOL    HW141602   0.683   5.602   0.651 -0.2703  0.8018 -0.1960
13095SOL    HW241603   0.678   5.509   0.532  1.9405  0.3593  0.0198
13096SOL     OW41604   8.842   4.641   6.561 -0.1568  0.1665 -0.4430
13096SOL    HW141605   8.765   4.636   6.618  1.0760 -0.1865  1.2414
13096SOL    HW241606   8.841   4.559   6.512  1.4438 -1.9219  2.7196
13097SOL     OW41607   3.072  10.240   3.452  0.2270 -0.2348 -0.4701
13097SOL    HW141608   2.998  10.298   3.471  0.2610 -0.0066 -1.0419
13097SOL    HW241609   3.148  10.285   3.491  0.5061  0.8591 -2.1889
13098SOL     OW41610   6.621   1.358   1.891  0.1334 -0.1904 -0.3756
13098SOL    HW141611   6.716   1.365   1.896  0.0817  0.5697 -0.3806
13098SOL    HW241612   6.602   1.341   1.799  0.3672 -2.3261 -0.0832
13099SOL     OW41613   3.842   6.752  10.100 -0.1687 -0.0251 -0.0335
13099SOL    HW141614   3.807   6.665  10.076  0.8333 -0.5550  0.3694
13099SOL    HW241615   3.820   6.762  10.192 -0.9135  0.4706 -0.2601
13100SOL     OW41616   9.003   3.014  10.205 -0.2436 -0.1837 -0.0784
13100SOL    HW141617   9.097   3.018  10.224 -0.4307 -0.4813  0.9773
13100SOL    HW241618   8.969   2.949  10.266 -1.0058 -0.7202 -1.0469
13101SOL     OW41619   4.551   8.050   2.627  0.5218 -0.3098 -0.4424
13101SOL    HW141620   4.618   8.108   2.590 -0.1695 -0.4824 -2.0241
13101SOL    HW241621   4.473   8.105   2.636  0.8397 -0.0943  1.4539
13102SOL     OW41622   8.758   7.144   3.799 -0.6085  0.1573 -0.6123
13102SOL    HW141623   8.779   7.225   3.754  3.1072  0.8646  1.9846
13102SOL    HW241624   8.824   7.135   3.867 -3.5889 -2.6962  2.3360
13103SOL     OW41625   6.204   1.251   3.438  0.2189  0.6801 -0.2562
13103SOL    HW141626   6.137   1.183   3.428  0.8737 -0.1189  0.5898
13103SOL    HW241627   6.197   1.278   3.530  1.2712  0.3304 -0.0573
13104SOL     OW41628   8.321   3.306   8.305 -0.4682 -0.4446  0.5037
13104SOL    HW141629   8.277   3.264   8.232 -1.2279  0.6490  0.3178
13104SOL    HW241630   8.408   3.266   8.306  1.2252  2.4583 -3.7212
13105SOL     OW41631   9.004   3.733   1.868 -0.6072  0.3431 -0.3012
13105SOL    HW141632   9.083   3.700   1.911  0.1089  1.5167 -0.6594
13105SOL    HW241633   8.938   3.734   1.937 -0.1007  0.0657  0.1981
13106SOL     OW41634  10.096   4.636   4.259 -0.0043  0.3278 -0.4879
13106SOL    HW141635  10.135   4.722   4.274  1.4714 -0.0660 -1.7607
13106SOL    HW241636  10.107   4.622   4.165 -0.2990 -1.2078 -0.3114
13107SOL     OW41637   5.189   3.877   7.048  0.6923  0.6536 -0.1344
13107SOL    HW141638   5.241   3.829   7.113  1.9478  2.4388  0.2548
13107SOL    HW241639   5.229   3.963   7.045 -1.2197  1.5599 -1.1183
13108SOL     OW41640   0.765   4.599   0.631  0.5832  0.3089 -0.4116
13108SOL    HW141641   0.785   4.512   0.598  0.5855  0.5582 -1.0912
13108SOL    HW241642   0.707   4.637   0.564 -1.0034  0.1318  0.7994
13109SOL     OW41643   3.255   2.377   9.706 -0.2698 -0.1121  0.1307
13109SOL    HW141644   3.173   2.335   9.681  0.1788 -0.0710 -1.5549
13109SOL    HW241645   3.252   2.463   9.665 -0.0254  0.4896  1.3259
13110SOL     OW41646   9.891   0.654   6.411 -0.3361  0.1542 -0.5641
13110SOL    HW141647   9.964   0.689   6.359  0.7969 -1.5884 -0.2395
13110SOL    HW241648   9.856   0.583   6.358  1.1472 -1.9799  1.1070
13111SOL     OW41649   9.783   7.465   8.137  0.1202  0.9199  0.1200
13111SOL    HW141650   9.720   7.459   8.065  0.2792  0.9398 -0.0210
13111SOL    HW241651   9.767   7.386   8.189  0.8100  0.2981 -0.5924
13112SOL     OW41652   4.269   6.955   9.539  0.8726  0.1083 -0.0694
13112SOL    HW141653   4.299   6.918   9.456  1.7319  0.4431  0.0754
13112SOL    HW241654   4.212   7.028   9.514  0.4789 -0.2974 -0.3575
13113SOL     OW41655   9.325  10.037   6.373  0.2283 -0.4172 -0.0962
13113SOL    HW141656   9.275  10.017   6.294  0.1437 -0.9033  0.0796
13113SOL    HW241657   9.380   9.960   6.387  1.7136  0.4745 -0.8078
13114SOL     OW41658   7.619   4.786   2.022  0.0641 -0.1107  0.5283
13114SOL    HW141659   7.579   4.830   1.947  3.2537 -1.5532 -2.2833
13114SOL    HW241660   7.570   4.704   2.030 -1.9708  1.1518  1.8443
13115SOL     OW41661   0.759   5.766   0.052  0.2961  0.1540 -0.1324
13115SOL    HW141662   0.852   5.784   0.044  0.2755  0.4572  0.2481
13115SOL    HW241663   0.746   5.752   0.146  0.5081 -2.9979 -0.4583
13116SOL     OW41664   1.441   8.428   5.063 -0.3994  0.1826  0.3688
13116SOL    HW141665   1.484   8.356   5.109  0.1171 -0.2108 -0.6993
13116SOL    HW241666   1.410   8.486   5.133  0.2156 -0.4783  1.2111
13117SOL     OW41667   0.978   4.446   8.711  0.0296  0.4545  0.7951
13117SOL    HW141668   1.072   4.436   8.696  0.1439  0.7297  1.3190
13117SOL    HW241669   0.953   4.523   8.660 -0.2811 -0.6575 -0.8364
13118SOL     OW41670   2.875   9.337   0.412 -0.0357  0.7461 -0.5636
13118SOL    HW141671   2.887   9.385   0.494 -0.3427  2.4454 -1.4826
13118SOL    HW241672   2.841   9.252   0.440  2.0814  0.3947  1.2219
13119SOL     OW41673   1.445   7.866   1.653 -0.2093  0.4469 -0.3237
13119SOL    HW141674   1.406   7.953   1.649  0.9768  0.9658 -2.6790
13119SOL    HW241675   1.537   7.881   1.673 -0.5133 -0.5386  2.1587
13120SOL     OW41676   4.820   7.391   3.572 -0.4757 -0.2852  0.1808
13120SOL    HW141677   4.787   7.480   3.582 -1.1383 -0.0955 -2.7401
13120SOL    HW241678   4.901   7.390   3.622 -0.2952  2.0768  0.0661
13121SOL     OW41679   1.924   9.785   2.162 -0.2949  0.5776  0.3462
13121SOL    HW141680   2.001   9.730   2.173  0.2359  1.3094  0.3410
13121SOL    HW241681   1.956   9.862   2.114 -0.9489  1.0539  0.6617
13122SOL     OW41682   0.950   6.809   3.955  0.2465  0.2201  0.2740
13122SOL    HW141683   0.887   6.814   4.027 -0.2730  1.1741 -0.2342
13122SOL    HW241684   1.004   6.887   3.965  0.6546 -0.0358  0.0689
13123SOL     OW41685   0.352   1.162   7.019  0.4225 -0.4911  0.2849
13123SOL    HW141686   0.334   1.210   7.100  2.3883 -0.1451  0.5786
13123SOL    HW241687   0.266   1.135   6.987 -0.5686  1.2280  1.3382
13124SOL     OW41688   5.554   3.052   4.328 -0.3400 -0.3709 -0.4117
13124SOL    HW141689   5.563   2.988   4.257  0.1703 -0.8697  0.0927
13124SOL    HW241690   5.543   3.136   4.283 -0.6799 -0.7634 -1.0790
13125SOL     OW41691   6.526   4.486   3.814  0.6559 -0.1428 -0.1875
13125SOL    HW141692   6.501   4.415   3.873  0.3216 -0.8813 -1.1929
13125SOL    HW241693   6.446   4.504   3.764  0.5942  1.2890  0.3962
13126SOL     OW41694   9.882   0.403   1.173 -0.1486 -0.2839  0.1654
13126SOL    HW141695   9.952   0.444   1.224 -0.4239 -0.7266  0.9208
13126SOL    HW241696   9.900   0.309   1.179 -0.6853 -0.3892  0.1879
13127SOL     OW41697  10.176   6.764   8.051  0.2571  0.5495 -0.1077
13127SOL    HW141698  10.084   6.793   8.042  0.1151 -0.1715 -1.2148
13127SOL    HW241699  10.200   6.788   8.140 -1.1144  0.4694  0.3102
13128SOL     OW41700   1.718   8.682   2.332 -0.0688 -0.4009  0.6529
13128SOL    HW141701   1.661   8.715   2.262 -1.7638 -0.6744  1.8290
13128SOL    HW241702   1.792   8.743   2.332 -0.2218 -0.1486 -1.0786
13129SOL     OW41703   9.766   4.300   5.361 -0.0652  0.3817 -0.2079
13129SOL    HW141704   9.753   4.218   5.408  0.7534 -0.1086 -0.8123
13129SOL    HW241705   9.802   4.273   5.276 -0.5834  1.3081 -0.7357
13130SOL     OW41706   6.831   6.709   6.478  0.7676 -0.4790 -0.3522
13130SOL    HW141707   6.749   6.701   6.430 -0.4559  1.3395  1.3128
13130SOL    HW241708   6.855   6.618   6.499 -0.7565 -1.0520 -0.9328
13131SOL     OW41709   7.821   3.937   0.815 -0.2773  0.6487  0.2710
13131SOL    HW141710   7.863   3.918   0.731 -0.4592  1.0221  0.0936
13131SOL    HW241711   7.743   3.988   0.792  0.4297  2.0069  0.7517
13132SOL     OW41712   6.842   7.267   5.034  0.0292 -0.2432  0.4139
13132SOL    HW141713   6.880   7.301   5.114  2.0040 -0.9246 -0.1719
13132SOL    HW241714   6.841   7.172   5.046 -0.8116 -0.2765  0.1159
13133SOL     OW41715   3.589   8.540   8.211 -0.2771 -0.2235  0.3523
13133SOL    HW141716   3.523   8.516   8.276 -0.1259 -1.4206  0.0819
13133SOL    HW241717   3.654   8.470   8.215 -0.1100 -0.1645 -0.8745
13134SOL     OW41718   7.740   9.329   5.762 -0.7608  0.7673 -0.2171
13134SOL    HW141719   7.765   9.409   5.715 -1.5641  1.5025  0.5636
13134SOL    HW241720   7.645   9.332   5.765 -0.7729  0.0833  0.3503
13135SOL     OW41721   4.435   8.419   0.802  0.2750  0.3188  0.1617
13135SOL    HW141722   4.391   8.445   0.883 -2.1643 -2.2959 -0.1866
13135SOL    HW241723   4.410   8.485   0.738  0.3495  1.1636  0.9886
13136SOL     OW41724   2.897   2.836   8.906 -0.4445 -0.1513  0.1336
13136SOL    HW141725   2.893   2.849   8.812 -1.5071 -1.1261  0.0279
13136SOL    HW241726   2.960   2.765   8.918 -0.9125 -0.5816  0.0858
13137SOL     OW41727   4.671   4.921   1.600  0.3397  0.0184 -0.0953
13137SOL    HW141728   4.683   4.971   1.520  1.3011 -1.7482 -1.1219
13137SOL    HW241729   4.580   4.890   1.596  0.2909  0.1955 -0.3394
13138SOL     OW41730   1.470   4.456   3.004  0.1840  0.0227 -0.4688
13138SOL    HW141731   1.392   4.463   3.059 -0.7916  1.5489 -1.9514
13138SOL    HW241732   1.542   4.483   3.061 -0.5650  0.0266  0.5013
13139SOL     OW41733   1.865   1.033   1.636  0.4532  0.3624  0.6911
13139SOL    HW141734   1.856   1.073   1.549  0.8474  0.8563  0.8675
13139SOL    HW241735   1.914   0.952   1.620  0.3659  0.3607  0.4305
13140SOL     OW41736   7.653   8.996   3.583  0.0416  0.1562 -0.4041
13140SOL    HW141737   7.641   9.080   3.539 -0.5598  0.8824  1.0652
13140SOL    HW241738   7.719   9.014   3.651 -0.3795 -0.4499  0.1763
13141SOL     OW41739   3.701   0.410   5.354 -0.3705  0.4734 -0.3185
13141SOL    HW141740   3.651   0.444   5.429 -2.3273 -0.8293 -0.9362
13141SOL    HW241741   3.702   0.482   5.291 -1.2437  0.6312 -0.1644
13142SOL     OW41742   0.015   1.689   0.203  0.3321 -0.3834 -0.1768
13142SOL    HW141743  -0.072   1.713   0.235  0.8950 -0.1470  1.2543
13142SOL    HW241744   0.026   1.598   0.231  1.7396  0.5142  2.4808
13143SOL     OW41745   4.632   4.035   3.317 -0.8769  0.4060 -0.3082
13143SOL    HW141746   4.589   4.051   3.232  0.9793 -0.1535 -1.4197
13143SOL    HW241747   4.573   4.074   3.381 -2.5100  0.5768 -1.8252
13144SOL     OW41748   4.490   7.960   5.174 -0.5183  0.2999  0.2176
13144SOL    HW141749   4.566   7.993   5.127  0.0570 -0.4135  0.6189
13144SOL    HW241750   4.436   8.037   5.191 -0.2340  0.7087 -0.7020
13145SOL     OW41751   9.092   8.430   5.166 -0.0557  0.3445  0.1852
13145SOL    HW141752   9.159   8.424   5.234  0.0857 -0.2365 -0.0017
13145SOL    HW241753   9.011   8.450   5.213  0.0185 -0.1765  0.5394
13146SOL     OW41754   9.590   8.243   8.354  0.2121 -0.6072  0.0460
13146SOL    HW141755   9.682   8.221   8.370 -0.0851 -1.2709  0.9346
13146SOL    HW241756   9.592   8.300   8.278  1.2237 -1.9265 -0.9565
13147SOL     OW41757   2.326   2.960   5.484 -0.4388  0.7767  0.4220
13147SOL    HW141758   2.324   3.051   5.513 -1.5479  0.1204  2.6635
13147SOL    HW241759   2.319   2.909   5.564  1.9594 -1.3746 -0.5898
13148SOL     OW41760   1.023   6.943   4.546  0.1072  0.3410 -0.0791
13148SOL    HW141761   1.052   6.876   4.608  1.5305  0.6856 -0.3323
13148SOL    HW241762   1.036   6.903   4.460 -1.5432 -0.0093 -0.2022
13149SOL     OW41763   0.782   9.971   8.949 -0.3536  0.1224  0.1841
13149SOL    HW141764   0.824  10.036   9.007  1.2782 -1.5704  0.9928
13149SOL    HW241765   0.735   9.913   9.009 -0.4876 -0.3572 -0.3839
13150SOL     OW41766   2.815   0.282   3.337 -0.2292 -0.2716 -0.3523
13150SOL    HW141767   2.862   0.356   3.375 -0.6820  0.0539 -0.4121
13150SOL    HW241768   2.876   0.209   3.342  0.8405  0.4621 -1.7330
13151SOL     OW41769   9.519   5.433   9.711 -0.7222 -0.3184  0.2859
13151SOL    HW141770   9.449   5.414   9.773 -0.7050  0.8887  0.7041
13151SOL    HW241771   9.474   5.447   9.627 -1.0332  0.7449  0.6127
13152SOL     OW41772   7.825   4.383  10.455  0.4712  0.6330 -0.0216
13152SOL    HW141773   7.821   4.292  10.426  1.4620  0.8027 -0.7773
13152SOL    HW241774   7.749   4.394  10.512 -0.7234 -0.1617 -1.3721
13153SOL     OW41775   1.471   4.734   3.233 -0.6909 -0.2736 -0.3483
13153SOL    HW141776   1.532   4.661   3.227 -1.1182 -0.6072 -0.7458
13153SOL    HW241777   1.479   4.779   3.149 -0.2963  0.2464 -0.0349
13154SOL     OW41778   5.329  10.373   6.244  0.9379  0.1713 -0.2073
13154SOL    HW141779   5.311  10.304   6.307 -0.0362  0.4206 -0.1928
13154SOL    HW241780   5.336  10.453   6.296 -0.6761  0.5064 -0.4676
13155SOL     OW41781   3.596   2.534   3.709  0.0165  0.1007  0.0882
13155SOL    HW141782   3.636   2.462   3.758 -0.6021 -1.0173 -1.0104
13155SOL    HW241783   3.561   2.592   3.777  0.2071 -0.8152  0.9916
13156SOL     OW41784   7.170   1.888   2.518  0.3627  0.1977  0.2990
13156SOL    HW141785   7.091   1.916   2.471  0.0535 -1.1445 -0.0352
13156SOL    HW241786   7.167   1.934   2.601 -2.0960 -1.6172  1.3294
13157SOL     OW41787   7.866   1.164   7.707  0.1328 -0.0663 -0.4440
13157SOL    HW141788   7.826   1.128   7.628  0.1219 -1.0621  0.0063
13157SOL    HW241789   7.959   1.140   7.700  0.0558 -0.5210  0.0374
13158SOL     OW41790   8.652   8.223   4.649  0.7895  0.0811 -0.2830
13158SOL    HW141791   8.706   8.289   4.606  1.5060 -0.1896  0.1868
13158SOL    HW241792   8.714   8.159   4.683  0.1779 -0.2011  0.3299
13159SOL     OW41793   2.670   6.270   8.505 -0.0327 -0.2365 -0.2991
13159SOL    HW141794   2.620   6.212   8.562 -0.2621  1.1415  0.9473
13159SOL    HW241795   2.762   6.251   8.525 -0.0849 -0.9634 -0.7320
13160SOL     OW41796   0.434   4.001   4.764 -0.1321 -0.0404 -0.0010
13160SOL    HW141797   0.491   3.947   4.819  0.3356  0.2015 -0.2463
13160SOL    HW241798   0.377   4.046   4.827 -1.2508 -1.5866  0.1706
13161SOL     OW41799   5.548   1.498   4.463  0.1032 -0.0458 -0.1948
13161SOL    HW141800   5.521   1.505   4.555  0.9735  2.3796 -0.0396
13161SOL    HW241801   5.532   1.407   4.440  0.6937 -0.9572  2.6309
13162SOL     OW41802   1.345   5.194   0.675 -0.1844 -0.2159  0.2227
13162SOL    HW141803   1.250   5.188   0.689 -0.2939  1.3779  0.3310
13162SOL    HW241804   1.380   5.220   0.760  0.2053  0.4030 -0.1211
13163SOL     OW41805   6.513   4.059   8.131 -0.0434  0.3840  0.3884
13163SOL    HW141806   6.562   4.058   8.049 -1.0294  1.0889 -0.2371
13163SOL    HW241807   6.426   4.091   8.106 -0.5598 -0.0246  1.6013
13164SOL     OW41808   3.743   4.401   5.598  0.3044  0.2166 -0.2754
13164SOL    HW141809   3.671   4.455   5.629  0.9620  0.2996  1.2144
13164SOL    HW241810   3.732   4.398   5.503 -0.4139  2.0052 -0.2891
13165SOL     OW41811   2.180   2.905   1.657 -0.2369  0.1152  0.0286
13165SOL    HW141812   2.114   2.868   1.716 -0.7740  0.1726 -0.5281
13165SOL    HW241813   2.171   2.999   1.667  0.1001  0.1211  0.3133
13166SOL     OW41814   3.666  10.386  10.413  0.2563 -0.3146  0.0163
13166SOL    HW141815   3.598  10.420  10.356 -0.4759  0.9549  1.5799
13166SOL    HW241816   3.657  10.290  10.408 -1.2205 -0.1726 -0.2962
13167SOL     OW41817   9.242   2.052   1.422  0.0165  0.0645 -0.1681
13167SOL    HW141818   9.149   2.044   1.443  0.4523  1.7007  3.0435
13167SOL    HW241819   9.265   1.968   1.383 -2.4522 -0.9996  0.4878
13168SOL     OW41820  10.206   8.738   9.918 -0.1593 -0.1329 -0.1154
13168SOL    HW141821  10.228   8.810   9.977  0.7039 -0.2225 -0.3257
13168SOL    HW241822  10.267   8.668   9.941  0.9593  0.2132 -1.8469
13169SOL     OW41823  10.138   5.472   8.437  0.3708  0.5256  0.3451
13169SOL    HW141824  10.056   5.518   8.455 -1.4018 -1.2689 -2.3775
13169SOL    HW241825  10.161   5.430   8.520 -2.3087 -0.0756  0.8654
13170SOL     OW41826   6.877   5.194   0.845  0.0025  0.2724  0.5996
13170SOL    HW141827   6.854   5.197   0.938  0.6965 -0.6960  0.8100
13170SOL    HW241828   6.921   5.110   0.834  0.0661  0.4535 -0.5775
13171SOL     OW41829   0.115  10.106   8.850 -0.4434  0.3440 -0.3432
13171SOL    HW141830   0.048  10.152   8.901  1.5371  2.3047  0.6433
13171SOL    HW241831   0.148  10.172   8.789  0.4619 -0.6304 -0.9280
13172SOL     OW41832   3.203   8.095   0.153 -0.3940 -0.2924  0.4859
13172SOL    HW141833   3.141   8.157   0.115  0.1296  0.5540  0.9804
13172SOL    HW241834   3.184   8.097   0.247  1.3377  1.1278  0.8636
13173SOL     OW41835   2.538   4.581   2.975  0.1265  0.1941 -0.0890
13173SOL    HW141836   2.540   4.498   2.927  1.7688  0.4517 -0.5024
13173SOL    HW241837   2.512   4.556   3.064  0.0665 -0.6931 -0.3494
13174SOL     OW41838   9.286   5.270   9.839 -0.5683 -0.0122 -0.2922
13174SOL    HW141839   9.195   5.245   9.821 -0.8268  0.8891 -0.2492
13174SOL    HW241840   9.279   5.341   9.903  0.1902 -0.3205  0.1472
13175SOL     OW41841   0.149   6.875   7.000  0.0681 -0.0530 -0.0558
13175SOL    HW141842   0.163   6.810   6.932 -0.7565 -1.3403  0.9616
13175SOL    HW241843   0.155   6.826   7.082 -1.3019  0.9939  0.7122
13176SOL     OW41844   1.239   2.130   6.003  0.1089  0.3376 -0.7927
13176SOL    HW141845   1.290   2.107   5.926 -0.7060  0.9088 -1.5282
13176SOL    HW241846   1.272   2.216   6.029  0.1827  0.2752 -0.6794
13177SOL     OW41847   1.493   1.159   7.773  0.1934 -0.2707  0.3962
13177SOL    HW141848   1.420   1.187   7.828 -0.6134 -1.6532  0.0945
13177SOL    HW241849   1.566   1.149   7.833 -0.0037  0.6163  0.7962
13178SOL     OW41850   8.839   3.248   3.042  0.3642  0.3160 -0.1537
13178SOL    HW141851   8.782   3.310   3.088 -0.1017  0.0818 -0.4131
13178SOL    HW241852   8.834   3.167   3.093 -0.2283  0.0269 -0.6630
13179SOL     OW41853   3.176   4.173  10.108 -0.0405 -0.1185  0.3839
13179SOL    HW141854   3.151   4.100  10.165 -0.3335 -0.7778 -0.5759
13179SOL    HW241855   3.267   4.192  10.133 -0.3067 -0.1018  1.3775
13180SOL     OW41856   5.125   8.429   9.028  0.7545  0.4822  0.0922
13180SOL    HW141857   5.104   8.359   8.965  0.8577 -1.4908  2.1334
13180SOL    HW241858   5.071   8.503   9.000 -0.6479 -0.9414 -1.1721
13181SOL     OW41859   8.575   0.125   6.956  0.3273  0.0560  0.1109
13181SOL    HW141860   8.526   0.098   7.035  0.8816  0.5126  0.6167
13181SOL    HW241861   8.539   0.070   6.887 -2.3923  1.7486  0.0049
13182SOL     OW41862   0.242   1.810   5.493  0.4989 -0.4571 -0.0624
13182SOL    HW141863   0.312   1.811   5.427  0.9106 -1.1429  0.3529
13182SOL    HW241864   0.180   1.746   5.461  1.1894 -1.5342  0.6956
13183SOL     OW41865   8.269   8.458   8.155 -0.1416 -0.2481 -0.3201
13183SOL    HW141866   8.360   8.431   8.147 -0.2974 -0.3235 -2.5167
13183SOL    HW241867   8.269   8.524   8.224  1.2671 -1.4493  0.8724
13184SOL     OW41868   6.755   6.031   1.552  0.6538  0.0800  0.1528
13184SOL    HW141869   6.673   6.063   1.516  1.2540  0.5505 -0.8566
13184SOL    HW241870   6.803   5.996   1.476  1.9416  1.0739  0.4646
13185SOL     OW41871   4.040   2.768   6.678  0.0524  0.4730  0.2764
13185SOL    HW141872   4.082   2.683   6.686  1.6182  1.3587  3.3543
13185SOL    HW241873   4.083   2.810   6.603 -0.2707 -1.1361 -0.8494
13186SOL     OW41874   3.160   9.604   0.150  0.1706  0.3788  0.4861
13186SOL    HW141875   3.090   9.664   0.176 -1.8268 -0.9925 -1.3589
13186SOL    HW241876   3.187   9.635   0.064 -1.2677 -1.5480 -0.7382
13187SOL     OW41877   1.633   1.739   6.320  0.0851  0.1156  0.5240
13187SOL    HW141878   1.603   1.713   6.408  0.1583  0.3044  0.6047
13187SOL    HW241879   1.711   1.792   6.336 -0.6087  1.1856  0.4086
13188SOL     OW41880   7.293   4.121  10.396 -0.0797 -0.3220 -0.1721
13188SOL    HW141881   7.282   4.096  10.488  0.9820 -0.9516 -0.2059
13188SOL    HW241882   7.203   4.128  10.363 -0.4741 -2.3916  0.3150
13189SOL     OW41883   2.022   2.905   9.042 -0.3221  0.1541  0.4598
13189SOL    HW141884   2.061   2.885   9.127 -0.6367 -0.8318  0.3846
13189SOL    HW241885   2.078   2.972   9.004 -0.1478  0.5641  1.4235
13190SOL     OW41886   4.299   7.596   8.785  0.3191  0.6776  0.0277
13190SOL    HW141887   4.366   7.613   8.717 -0.9466  0.9066 -1.2081
13190SOL    HW241888   4.219   7.635   8.749 -0.4810  0.4274  1.4966
13191SOL     OW41889   9.327   1.639   0.937  0.1328  0.1278  0.2773
13191SOL    HW141890   9.236   1.609   0.942  0.8706 -2.1660  1.0717
13191SOL    HW241891   9.369   1.578   0.875  1.0372  1.4643 -0.4751
13192SOL     OW41892   9.645   1.476   5.040 -0.0840 -0.4185  0.0956
13192SOL    HW141893   9.624   1.445   4.951  0.6714 -2.6455  0.6203
13192SOL    HW241894   9.614   1.406   5.097  1.9657 -0.3536  1.3778
13193SOL     OW41895   3.624   9.856   7.370  0.3370  0.1250 -0.1537
13193SOL    HW141896   3.634   9.781   7.430 -2.8942  1.3912  2.3207
13193SOL    HW241897   3.674   9.926   7.411 -1.9215  1.0086  1.3399
13194SOL     OW41898   6.996   4.508   9.333 -0.1857 -0.7258  0.2902
13194SOL    HW141899   6.904   4.508   9.360 -0.7093  2.0091 -1.1619
13194SOL    HW241900   7.024   4.599   9.343  2.0477 -1.2721 -0.3801
13195SOL     OW41901   8.330  10.199   2.240  0.0977  0.3195 -0.3097
13195SOL    HW141902   8.283  10.157   2.312  1.5939  0.4753  0.8085
13195SOL    HW241903   8.406  10.143   2.225  0.6444  1.1359 -0.6745
13196SOL     OW41904   0.966   0.866   6.561  0.4739  0.0772 -1.1721
13196SOL    HW141905   0.974   0.811   6.639 -2.1482  0.0467 -0.8262
13196SOL    HW241906   1.054   0.901   6.547  1.6671 -2.1412  0.1056
13197SOL     OW41907   3.624   5.297   8.010 -0.1688  0.2263 -0.3843
13197SOL    HW141908   3.679   5.236   8.061  0.5444  0.6119 -0.6849
13197SOL    HW241909   3.669   5.306   7.927 -1.2308 -0.2355 -1.0261
13198SOL     OW41910   4.698   2.602   1.321  0.0391  0.2340 -0.6067
13198SOL    HW141911   4.613   2.618   1.363  0.3440 -1.5098  0.7871
13198SOL    HW241912   4.732   2.690   1.303 -0.5427  1.1113  2.0006
13199SOL     OW41913   0.936   3.578   7.113 -0.4204 -0.1820 -0.1527
13199SOL    HW141914   0.878   3.510   7.079 -0.7644  0.2663 -0.4911
13199SOL    HW241915   0.876   3.647   7.142 -0.0588  0.9089 -1.8330
13200SOL     OW41916   6.124   0.055   4.277 -0.7959  0.3465 -0.0775
13200SOL    HW141917   6.135  -0.040   4.275 -0.5509  0.3792 -0.6579
13200SOL    HW241918   6.145   0.080   4.367  0.4463 -0.0025 -0.2511
13201SOL     OW41919   9.406   0.246   1.923 -0.3296  0.0542 -0.0108
13201SOL    HW141920   9.377   0.189   1.994  1.0799 -0.7725 -0.0766
13201SOL    HW241921   9.324   0.282   1.887 -1.0862  0.1384  1.7071
13202SOL     OW41922   7.664   4.557   0.172 -0.1992 -0.0763  0.1780
13202SOL    HW141923   7.728   4.489   0.194  0.7028  1.2117  1.8243
13202SOL    HW241924   7.715   4.638   0.170 -1.3523  0.6767 -1.0929
13203SOL     OW41925   8.561   5.542   2.782 -0.1751 -0.0626  0.1622
13203SOL    HW141926   8.617   5.499   2.716  1.1803  0.4403  0.9385
13203SOL    HW241927   8.576   5.635   2.768 -1.9546  0.1579 -0.5364
13204SOL     OW41928   0.645   3.559   0.350 -0.1251  0.2343  0.0588
13204SOL    HW141929   0.723   3.549   0.295 -0.6086 -1.4625 -0.4054
13204SOL    HW241930   0.572   3.547   0.289 -0.6863 -0.7077  0.8910
13205SOL     OW41931   2.889   3.825   6.420  0.9175  0.1475  0.8265
13205SOL    HW141932   2.882   3.733   6.444  0.5009  0.3234  1.4331
13205SOL    HW241933   2.898   3.825   6.325 -2.9456 -0.4254  0.2911
13206SOL     OW41934   1.805   2.828   4.472 -1.2337  0.2469  0.3676
13206SOL    HW141935   1.878   2.879   4.436 -0.7930  0.4721  1.5582
13206SOL    HW241936   1.737   2.893   4.488 -0.2983  0.7166  2.8903
13207SOL     OW41937   2.529   6.976   8.860  0.2841 -0.0367  0.4522
13207SOL    HW141938   2.625   6.981   8.858  0.3438 -0.8933  0.7296
13207SOL    HW241939   2.509   6.886   8.833 -0.5176  0.5689 -1.1139
13208SOL     OW41940  10.578   8.001   0.648 -0.2008 -0.1167  0.5892
13208SOL    HW141941  10.487   7.992   0.675 -0.9428 -2.1267 -2.1986
13208SOL    HW241942  10.606   7.911   0.627  1.3866  0.7995 -1.5842
13209SOL     OW41943   0.610   3.382   6.318  0.2895 -0.2656  0.1547
13209SOL    HW141944   0.664   3.386   6.240  0.5735  1.9075  0.4152
13209SOL    HW241945   0.524   3.354   6.286 -0.1846  2.5889 -1.3262
13210SOL     OW41946   8.154   1.436   0.973 -0.3348 -0.1421 -0.1385
13210SOL    HW141947   8.095   1.421   1.046  0.2055 -1.5026  0.0482
13210SOL    HW241948   8.120   1.380   0.903 -1.1916  1.5776 -1.1651
13211SOL     OW41949   1.140   5.924   4.461 -0.0519 -0.3509  0.2536
13211SOL    HW141950   1.165   6.011   4.428  0.6065 -0.8231 -0.4969
13211SOL    HW241951   1.057   5.906   4.416 -1.3731  0.8125  2.0570
13212SOL     OW41952   5.278   9.491   9.808 -0.4859  0.1123  0.5300
13212SOL    HW141953   5.360   9.449   9.834 -0.0837  1.0935  0.8674
13212SOL    HW241954   5.295   9.526   9.721 -0.1768  1.2670  1.0381
13213SOL     OW41955   2.542   4.382   7.914 -0.0596 -0.1206  0.2557
13213SOL    HW141956   2.542   4.287   7.905 -0.2540 -0.2052  1.0462
13213SOL    HW241957   2.455   4.409   7.886  0.4950  0.0051 -1.4857
13214SOL     OW41958   9.201   0.931   1.968  0.2301 -0.4031 -0.2475
13214SOL    HW141959   9.262   0.861   1.946  0.3905 -0.0737 -0.8634
13214SOL    HW241960   9.256   1.000   2.006  0.6140  0.7914 -2.7565
13215SOL     OW41961   6.668   7.914   8.570  0.4533 -0.3279 -0.7394
13215SOL    HW141962   6.605   7.918   8.497 -1.1580 -1.0771  0.5308
13215SOL    HW241963   6.688   8.005   8.590 -1.5272  0.0483 -0.1806
13216SOL     OW41964   3.066   1.794   4.880  0.0572  0.4562 -0.0573
13216SOL    HW141965   3.102   1.773   4.965  2.3496  0.5273 -0.9421
13216SOL    HW241966   3.081   1.716   4.827  0.0943  0.9558 -0.8016
13217SOL     OW41967  10.170   0.423   5.931  0.0350 -0.2413  0.0051
13217SOL    HW141968  10.078   0.408   5.950 -0.1779 -0.0847 -0.8559
13217SOL    HW241969  10.195   0.350   5.873  0.5255 -0.4352  0.4467
13218SOL     OW41970   8.993   5.321   4.874 -0.3436  0.0008  0.1005
13218SOL    HW141971   8.972   5.245   4.927 -1.0805 -0.1648 -0.4226
13218SOL    HW241972   9.086   5.338   4.893 -0.3567 -0.5915  0.7469
13219SOL     OW41973   0.593   4.353   7.411 -0.4503  0.3382 -0.4647
13219SOL    HW141974   0.654   4.291   7.450 -0.0094  0.7115 -0.5588
13219SOL    HW241975   0.528   4.369   7.480 -0.4708 -0.0954 -0.3833
13220SOL     OW41976   0.622   5.657   5.024  0.0735  0.7824  0.7423
13220SOL    HW141977   0.676   5.578   5.017 -1.0454  0.1387 -1.1293
13220SOL    HW241978   0.686   5.729   5.026  1.0606  0.0466 -1.4266
13221SOL     OW41979   6.475   1.574   2.610 -0.5830  0.3918  0.0140
13221SOL    HW141980   6.445   1.483   2.605 -2.7977  0.8808  2.3783
13221SOL    HW241981   6.476   1.604   2.520  3.0522 -2.7117 -1.2517
13222SOL     OW41982   5.192   4.492   2.658  0.7966 -0.1581 -0.1101
13222SOL    HW141983   5.245   4.413   2.672  2.7775  1.3394  1.3017
13222SOL    HW241984   5.120   4.483   2.722  0.5297 -1.1747 -0.5289
13223SOL     OW41985   4.105   3.136   0.630  0.3908 -0.5403  0.2655
13223SOL    HW141986   4.053   3.213   0.655 -1.7073 -2.4060  1.9977
13223SOL    HW241987   4.166   3.123   0.702 -1.0840 -1.9988  1.3035
13224SOL     OW41988   2.156   8.363   7.433 -0.5615 -0.0764 -0.5747
13224SOL    HW141989   2.177   8.376   7.341  0.5122  0.0444 -0.3265
13224SOL    HW241990   2.110   8.279   7.436 -1.8043  0.5453 -1.3697
13225SOL     OW41991   9.503   0.761   3.825  0.2570 -0.6804 -0.2061
13225SOL    HW141992   9.456   0.678   3.811  0.5724 -0.6845 -1.3199
13225SOL    HW241993   9.505   0.771   3.921 -2.2322 -0.5468 -0.0939
13226SOL     OW41994   2.959   4.752   9.434  0.3062 -0.1658  0.2972
13226SOL    HW141995   2.957   4.656   9.438 -0.5151 -0.1344  0.7595
13226SOL    HW241996   2.991   4.778   9.520  1.5789 -0.0432 -0.1926
13227SOL     OW41997   2.052   7.698   6.936 -0.5458 -0.0424  0.0793
13227SOL    HW141998   1.965   7.736   6.929 -1.6696 -2.2193  0.9934
13227SOL    HW241999   2.084   7.694   6.846 -0.6374  2.2984 -0.1057
13228SOL     OW42000   8.437  10.531   4.315  0.9887  0.1288 -0.2406
13228SOL    HW142001   8.389  10.505   4.237  0.5063 -1.1038  0.4498
13228SOL    HW242002   8.468  10.449   4.353  1.0188  0.6925  0.9908
13229SOL     OW42003   7.187   8.495   0.373  0.7353  0.0292  0.1228
13229SOL    HW142004   7.136   8.556   0.320  0.6370 -0.2871 -0.1542
13229SOL    HW242005   7.277   8.527   0.368  0.7937 -0.2303 -0.5817
13230SOL     OW42006   7.005   9.206   0.480  0.1935 -0.4264  0.1292
13230SOL    HW142007   7.052   9.149   0.541  0.2671  0.7936  1.2311
13230SOL    HW242008   6.974   9.279   0.533 -0.4742  0.2437 -1.1347
13231SOL     OW42009   6.754   4.711   9.842 -0.3971  0.1757  0.9286
13231SOL    HW142010   6.762   4.637   9.901  1.1997 -0.3771  0.0993
13231SOL    HW242011   6.719   4.674   9.761  2.0667 -0.1102 -0.1004
13232SOL     OW42012   4.217   2.475   5.386 -0.2698 -0.0787 -0.0100
13232SOL    HW142013   4.302   2.440   5.410 -0.1511  0.4595  0.3707
13232SOL    HW242014   4.179   2.505   5.468 -0.7934 -0.2343 -0.1878
13233SOL     OW42015   3.109   2.362   4.595 -0.5835  0.0577  0.1694
13233SOL    HW142016   3.119   2.381   4.688 -0.2857  1.7826 -0.1897
13233SOL    HW242017   3.017   2.335   4.586 -0.8481  0.7125  0.8277
13234SOL     OW42018   4.501   4.532   7.726 -0.3554 -0.6325  0.4479
13234SOL    HW142019   4.565   4.479   7.679  0.9650  0.1772  1.2748
13234SOL    HW242020   4.516   4.512   7.818  0.1887  1.1191  0.7879
13235SOL     OW42021   1.036   0.771   5.997 -0.5397  0.2560 -0.0414
13235SOL    HW142022   1.043   0.690   5.946  1.1501 -1.0611  2.1119
13235SOL    HW242023   0.976   0.748   6.069  0.9500  0.4625  1.3096
13236SOL     OW42024   7.350   8.152   8.542  0.3385  0.0119 -0.0125
13236SOL    HW142025   7.404   8.097   8.599 -1.3584 -0.7365  0.9284
13236SOL    HW242026   7.381   8.130   8.453  0.9496 -1.0852  0.4445
13237SOL     OW42027   5.498   5.139   5.195 -0.6126  0.0759 -0.5236
13237SOL    HW142028   5.541   5.213   5.238 -0.4858  0.4855 -1.3232
13237SOL    HW242029   5.568   5.076   5.180 -0.6095  0.0404 -0.3615
13238SOL     OW42030   7.555   5.209   3.455  0.7532  0.1676 -0.1521
13238SOL    HW142031   7.534   5.240   3.543 -0.8870 -0.3639 -0.3238
13238SOL    HW242032   7.644   5.175   3.462  0.6495  0.1560  1.2983
13239SOL     OW42033   5.176   3.545   0.130  0.1466 -0.3204 -0.0167
13239SOL    HW142034   5.151   3.540   0.222  0.4161 -0.0193  0.0772
13239SOL    HW242035   5.177   3.454   0.100 -2.1483 -0.2935 -0.3371
13240SOL     OW42036  10.472   4.095   8.560  0.5478 -0.4034 -0.2382
13240SOL    HW142037  10.461   4.139   8.645  1.3779  1.1839 -0.9012
13240SOL    HW242038  10.399   4.034   8.554 -0.5175  0.7188  0.8654
13241SOL     OW42039   7.548   9.587   2.161  0.2799  0.2748  0.2059
13241SOL    HW142040   7.597   9.520   2.113 -1.0957 -0.4114 -0.2959
13241SOL    HW242041   7.606   9.663   2.161  1.1628 -0.3644 -0.7556
13242SOL     OW42042   6.153   1.946   5.019 -0.1907  0.1657  0.1663
13242SOL    HW142043   6.209   1.973   4.946  3.0947 -1.4812  1.8350
13242SOL    HW242044   6.115   2.027   5.051  1.1670  1.4063 -1.1649
13243SOL     OW42045   1.803   3.036   6.897  0.5502  0.2559 -0.0693
13243SOL    HW142046   1.843   2.999   6.975 -0.2075  3.0559  1.7932
13243SOL    HW242047   1.718   2.991   6.890  1.2962 -1.1724 -0.3147
13244SOL     OW42048   7.884   8.025   3.048  0.0326 -0.3851  0.2901
13244SOL    HW142049   7.883   7.970   3.126 -0.3081  0.0533  0.6042
13244SOL    HW242050   7.895   7.964   2.975 -0.1457 -0.8443  0.6432
13245SOL     OW42051   6.544   1.836   7.257  0.0900 -0.2593 -0.0114
13245SOL    HW142052   6.507   1.913   7.215  0.0648 -0.3161 -0.0951
13245SOL    HW242053   6.574   1.781   7.184  1.2139  0.2162  0.0914
13246SOL     OW42054  10.214   3.826   4.599 -0.2732 -0.1518 -0.4830
13246SOL    HW142055  10.300   3.801   4.630 -0.3306  0.6388  0.3457
13246SOL    HW242056  10.159   3.828   4.677 -1.2967 -1.5664 -1.1082
13247SOL     OW42057   2.289   6.384   6.889 -0.8492  0.3853 -0.0109
13247SOL    HW142058   2.284   6.331   6.809 -5.0579 -2.6145  1.8706
13247SOL    HW242059   2.307   6.321   6.959  1.3604  2.7047  1.7278
13248SOL     OW42060   6.380  10.472   1.778 -0.5496  0.2071  0.3376
13248SOL    HW142061   6.415  10.454   1.865 -2.3328 -3.2231  0.5070
13248SOL    HW242062   6.443  10.431   1.718 -0.0778  1.2979  0.0629
13249SOL     OW42063   5.657   9.065   0.314  0.1697  0.1690 -0.8169
13249SOL    HW142064   5.632   9.142   0.365 -0.1834 -1.7131  2.0773
13249SOL    HW242065   5.574   9.024   0.290  0.3721  0.3538 -1.8990
13250SOL     OW42066   5.024   9.866   4.991 -0.5986 -0.2464 -0.2015
13250SOL    HW142067   5.016   9.944   4.936 -0.7466  0.1647  0.3914
13250SOL    HW242068   4.969   9.885   5.067 -1.1800 -1.2201 -0.3696
13251SOL     OW42069   4.100   5.335   9.855 -0.2683 -0.1234 -0.6427
13251SOL    HW142070   4.024   5.289   9.820 -0.1732 -1.1278  0.4038
13251SOL    HW242071   4.079   5.349   9.948  0.3332  0.6316 -0.6134
13252SOL     OW42072   9.789   3.844   4.578  0.1785 -0.0179  0.0625
13252SOL    HW142073   9.836   3.928   4.575  1.9207 -0.8665  1.2724
13252SOL    HW242074   9.841   3.791   4.639 -0.8211 -2.0151 -0.7542
13253SOL     OW42075   4.719   0.852   7.666  0.2274  0.5748  0.2919
13253SOL    HW142076   4.629   0.878   7.688  0.0235  1.6261 -1.6126
13253SOL    HW242077   4.733   0.771   7.715 -3.1476 -1.7957 -2.2519
13254SOL     OW42078   9.256   8.731  10.240  0.4899  0.4185  0.5150
13254SOL    HW142079   9.213   8.812  10.215 -0.4534 -0.8185 -2.2120
13254SOL    HW242080   9.235   8.721  10.333  0.2809  3.0319  0.8191
13255SOL     OW42081   5.440  10.252   5.550  0.3169 -0.3151  0.5922
13255SOL    HW142082   5.379  10.272   5.621  1.0175  1.6829  0.7078
13255SOL    HW242083   5.396  10.184   5.499 -1.4916  0.2335  1.3392
13256SOL     OW42084   7.385   6.050   1.063 -0.6002  0.1084  0.1878
13256SOL    HW142085   7.337   5.976   1.026  0.8222 -0.0486 -1.4432
13256SOL    HW242086   7.338   6.070   1.145 -2.6748 -0.7953 -0.7038
13257SOL     OW42087   0.334   9.064   4.229 -0.1480  0.2679  0.7762
13257SOL    HW142088   0.245   9.096   4.213  0.3633  1.3770 -0.0530
13257SOL    HW242089   0.380   9.139   4.267 -0.1800 -1.0396  3.6083
13258SOL     OW42090   6.627   6.793  10.068  0.3637  0.0738  0.1389
13258SOL    HW142091   6.633   6.881  10.105  0.3154 -0.5886  1.8553
13258SOL    HW242092   6.643   6.804   9.975 -1.5049  2.1390 -0.0090
13259SOL     OW42093   0.484   3.998   7.094 -0.5703 -0.6076  0.6936
13259SOL    HW142094   0.471   4.015   7.001  0.4514 -0.0363  0.6407
13259SOL    HW242095   0.513   4.081   7.130  1.3061 -1.3500  1.0564
13260SOL     OW42096   2.957   9.943   2.614  0.1996  0.6537  0.2912
13260SOL    HW142097   2.866   9.952   2.642 -0.3387 -2.5500 -0.0332
13260SOL    HW242098   3.008   9.976   2.688 -1.2386  0.4988  1.3984
13261SOL     OW42099   4.198   1.414   2.380  0.0973 -0.1957  0.1695
13261SOL    HW142100   4.145   1.453   2.449 -1.1711 -0.9129 -0.3554
13261SOL    HW242101   4.285   1.452   2.391 -0.5937  1.2347  0.8875
13262SOL     OW42102   1.277   6.922   9.594  0.1766  0.0782 -0.1609
13262SOL    HW142103   1.289   7.012   9.563  0.3960 -0.1676 -0.7962
13262SOL    HW242104   1.201   6.927   9.653  1.9427  1.2241  2.1890
13263SOL     OW42105   6.208   2.589   0.958 -0.4661  0.0230 -0.2103
13263SOL    HW142106   6.230   2.653   0.890  0.0328 -1.2958 -1.3366
13263SOL    HW242107   6.174   2.513   0.910 -0.5176 -0.7763  1.0385
13264SOL     OW42108   2.583   9.144   5.251 -0.3702  0.0109  0.1381
13264SOL    HW142109   2.515   9.169   5.314 -1.9662  0.7864 -1.8042
13264SOL    HW242110   2.539   9.084   5.191  0.5432  0.7669 -1.3479
13265SOL     OW42111   9.819   2.794   8.191  0.1595  0.1230  0.1555
13265SOL    HW142112   9.754   2.814   8.259  2.4825  0.4269  2.4771
13265SOL    HW242113   9.787   2.839   8.113 -1.9622  0.9414  1.4035
13266SOL     OW42114   2.023   5.118   4.861 -0.1414 -0.0425 -0.1853
13266SOL    HW142115   1.943   5.115   4.915 -0.5813  2.9715 -0.5320
13266SOL    HW242116   1.997   5.165   4.782  1.3826 -1.3142 -1.5086
13267SOL     OW42117   4.027   3.190   6.545  0.2477  0.6646 -0.1958
13267SOL    HW142118   3.991   3.140   6.618  1.2994  1.0510  0.6223
13267SOL    HW242119   3.960   3.186   6.477 -0.1837 -0.8566  0.2800
13268SOL     OW42120   6.707   4.986   3.839  0.5794  0.5229 -0.4496
13268SOL    HW142121   6.720   4.901   3.882  1.1145 -1.1944 -3.6767
13268SOL    HW242122   6.614   5.005   3.852  0.0440 -1.4606 -1.0752
13269SOL     OW42123   5.508   1.215   4.904 -0.1413  1.3948  0.5230
13269SOL    HW142124   5.545   1.201   4.991 -0.2792  1.7120  0.6344
13269SOL    HW242125   5.582   1.242   4.851 -0.2411  2.2365  0.7965
13270SOL     OW42126   0.395   8.735   9.904  1.0197 -0.2041 -0.1110
13270SOL    HW142127   0.483   8.719   9.867  0.5974  1.5120 -2.0466
13270SOL    HW242128   0.401   8.822   9.943  0.1843 -0.0431 -0.3232
13271SOL     OW42129   6.236   3.279   0.458  0.1065 -0.5236  0.2548
13271SOL    HW142130   6.290   3.201   0.467  0.4687 -0.2226  0.7567
13271SOL    HW242131   6.220   3.308   0.548 -0.5816 -0.3981  0.0989
13272SOL     OW42132   0.834   8.619   6.537  0.0993 -0.1897  0.4919
13272SOL    HW142133   0.844   8.709   6.507 -0.0852 -0.3399 -0.0231
13272SOL    HW242134   0.768   8.624   6.606 -0.6347 -0.0664 -0.2005
13273SOL     OW42135   6.546   9.526   4.273  0.2589  0.2329  0.2178
13273SOL    HW142136   6.576   9.614   4.292  0.2489  0.3445 -0.2668
13273SOL    HW242137   6.575   9.510   4.183  0.8820 -0.5192  0.5329
13274SOL     OW42138   3.782   3.168   4.004  0.1956  0.1910 -0.3006
13274SOL    HW142139   3.775   3.080   4.041 -0.3867 -0.1830 -1.2712
13274SOL    HW242140   3.799   3.224   4.079  1.2782 -0.8359  0.2519
13275SOL     OW42141   3.092   5.779   3.134  0.4678 -0.3897 -0.3081
13275SOL    HW142142   3.073   5.859   3.085  0.5809  0.9797  1.7724
13275SOL    HW242143   3.099   5.711   3.067  0.4708  1.3396 -2.1528
13276SOL     OW42144   4.037   6.179   6.199 -0.1667  0.0293  0.3133
13276SOL    HW142145   4.108   6.128   6.237 -0.4466 -0.0057  0.7983
13276SOL    HW242146   3.980   6.200   6.273 -0.5090  0.3048 -0.0227
13277SOL     OW42147   6.108   4.307   0.049  0.6786 -0.0398  0.0857
13277SOL    HW142148   6.123   4.378  -0.014  1.2418  0.5233  0.8410
13277SOL    HW242149   6.192   4.299   0.095 -0.3510  1.0425  2.2701
13278SOL     OW42150   4.068   2.031   7.942  0.0868 -0.1783  0.6474
13278SOL    HW142151   4.056   2.105   8.001 -0.6450 -0.4680  0.8644
13278SOL    HW242152   4.020   1.959   7.983  0.1333 -0.5644  0.0391
13279SOL     OW42153   5.545   4.607   9.365  0.0997  0.4688  0.2609
13279SOL    HW142154   5.475   4.547   9.392  1.0105 -0.5861  0.3358
13279SOL    HW242155   5.614   4.594   9.430  0.9601  0.3887 -0.6403
13280SOL     OW42156   4.148   0.288   2.290  0.4739 -0.3207 -0.1758
13280SOL    HW142157   4.072   0.323   2.243  0.4464 -1.2562 -0.8496
13280SOL    HW242158   4.145   0.194   2.275  2.3070 -0.3045 -1.0660
13281SOL     OW42159   4.382   4.262   2.116 -0.4372  0.7942 -0.6833
13281SOL    HW142160   4.452   4.326   2.120 -0.5974  0.9206  0.2504
13281SOL    HW242161   4.361   4.254   2.023 -0.6906  2.3940 -0.7787
13282SOL     OW42162   8.538   0.846   4.498 -0.4958 -0.1820  0.0927
13282SOL    HW142163   8.493   0.809   4.422 -0.8657  0.9682 -0.2553
13282SOL    HW242164   8.468   0.867   4.560 -0.1072 -2.9051  1.6380
13283SOL     OW42165   6.496   6.681   4.903 -0.3035 -0.2046 -0.6622
13283SOL    HW142166   6.444   6.675   4.983 -1.1908 -0.4222 -1.2430
13283SOL    HW242167   6.432   6.695   4.833  0.5374  1.1765 -1.2073
13284SOL     OW42168   0.642   4.427  10.063 -0.1421  0.0150  0.4066
13284SOL    HW142169   0.728   4.388  10.081 -0.1001 -1.3557 -2.2453
13284SOL    HW242170   0.637   4.428   9.967 -2.5162  1.4019  0.4916
13285SOL     OW42171   5.677   2.931   9.959  0.7930  0.4817 -0.3475
13285SOL    HW142172   5.585   2.903   9.957  0.2163  1.9057  2.0666
13285SOL    HW242173   5.675   3.023   9.935  1.2852  1.0204  1.5125
13286SOL     OW42174   2.691  10.510   0.978 -0.8091 -0.2890 -0.1051
13286SOL    HW142175   2.662  10.576   0.916 -0.5056  0.1612  0.2264
13286SOL    HW242176   2.625  10.441   0.973 -1.4362  0.3041 -0.0193
13287SOL     OW42177   5.885   8.929   2.279 -0.4242 -0.1575  0.6151
13287SOL    HW142178   5.867   8.997   2.344 -3.1343 -2.3502  2.3900
13287SOL    HW242179   5.863   8.970   2.195  0.3160  1.8430  1.3240
13288SOL     OW42180   7.962   9.291   1.463 -0.2585  0.6028 -0.0963
13288SOL    HW142181   8.027   9.251   1.404 -0.0662  1.5010 -0.5268
13288SOL    HW242182   7.998   9.278   1.550  0.1054  0.3872 -0.2742
13289SOL     OW42183   2.533   5.775   0.740 -0.6141 -0.2856 -0.4820
13289SOL    HW142184   2.588   5.761   0.663 -1.2092  0.2981 -1.0151
13289SOL    HW242185   2.448   5.801   0.705 -1.3396 -1.4649  0.3162
13290SOL     OW42186   4.372   5.575   9.079  0.2536 -0.3620  0.1862
13290SOL    HW142187   4.313   5.593   9.005 -0.2183 -1.2230  0.3363
13290SOL    HW242188   4.319   5.596   9.156  0.6190  0.1807  0.2884
13291SOL     OW42189   2.604   2.891   5.680 -0.6771 -0.1940  0.4010
13291SOL    HW142190   2.521   2.850   5.656  0.6610 -1.5860 -2.3657
13291SOL    HW242191   2.642   2.831   5.745 -0.9194 -0.6743  0.1043
13292SOL     OW42192  10.124   5.723   5.516 -0.1972 -0.1228 -0.0922
13292SOL    HW142193  10.047   5.681   5.479 -0.2027  0.3810 -0.6859
13292SOL    HW242194  10.187   5.652   5.528 -0.0000 -0.2545 -1.6165
13293SOL     OW42195   1.349   2.749   3.943 -0.0560 -0.0752  0.3762
13293SOL    HW142196   1.303   2.831   3.926  0.2297 -0.0646 -0.4105
13293SOL    HW242197   1.370   2.752   4.036 -3.0143 -0.8152  1.1575
13294SOL     OW42198   9.717   3.281   7.243 -0.4209  0.1047  0.0345
13294SOL    HW142199   9.698   3.313   7.332  2.0594 -1.2273  1.1433
13294SOL    HW242200   9.717   3.360   7.189 -0.9520  1.0958  1.4164
13295SOL     OW42201  10.430   0.104   2.788 -0.0316 -0.1555  0.4729
13295SOL    HW142202  10.362   0.154   2.743 -0.1101 -0.2834  0.4478
13295SOL    HW242203  10.469   0.166   2.850  1.0024  0.4151 -0.7094
13296SOL     OW42204   1.513   2.731  10.468  0.0851 -0.2341  0.2529
13296SOL    HW142205   1.583   2.773  10.418  0.0086  1.3381  1.3822
13296SOL    HW242206   1.437   2.732  10.409  0.0162  1.5227  0.3061
13297SOL     OW42207  10.255  10.570   2.114  0.3298 -0.0125 -0.1572
13297SOL    HW142208  10.175  10.561   2.062  1.3835 -0.4987 -1.7444
13297SOL    HW242209  10.270  10.483   2.150 -0.9314  0.5329  1.8730
13298SOL     OW42210   8.155   4.512   0.794  0.8396 -0.1972 -0.1591
13298SOL    HW142211   8.156   4.517   0.699  1.0396  0.2344 -0.1320
13298SOL    HW242212   8.179   4.599   0.824 -0.2901 -0.0274  0.2910
13299SOL     OW42213   7.879   4.857   6.822  0.9021 -0.0085  0.7987
13299SOL    HW142214   7.854   4.837   6.913  0.0343 -0.1943  0.5317
13299SOL    HW242215   7.924   4.779   6.792  0.1019 -0.4361  0.6865
13300SOL     OW42216   5.940   5.718   3.756  0.0727 -0.0047 -0.3596
13300SOL    HW142217   6.016   5.767   3.786  0.3054 -1.4296  1.6208
13300SOL    HW242218   5.865   5.771   3.784  0.3095  0.7842 -1.1830
13301SOL     OW42219   5.446   2.329   0.828 -0.0813  0.6430  0.5502
13301SOL    HW142220   5.391   2.365   0.897 -0.5673 -0.9065  1.0177
13301SOL    HW242221   5.437   2.234   0.836  1.4484  0.3656 -0.3588
13302SOL     OW42222   3.123   3.821   9.269  0.1182 -0.3585  0.1680
13302SOL    HW142223   3.166   3.902   9.239 -1.3278  0.3244 -0.1341
13302SOL    HW242224   3.187   3.752   9.249  0.7064  0.5084 -1.1063
13303SOL     OW42225   2.493   3.453   9.476 -0.1365  0.4761 -0.3107
13303SOL    HW142226   2.455   3.419   9.558 -2.3860 -0.6127 -1.7055
13303SOL    HW242227   2.555   3.385   9.449 -0.4590  0.1407 -0.2261
13304SOL     OW42228   5.182   4.966   3.425  0.2842 -0.0755 -0.2563
13304SOL    HW142229   5.117   4.896   3.432  1.8735 -1.5407  0.3234
13304SOL    HW242230   5.140   5.041   3.469 -1.0992 -0.8983 -0.1078
13305SOL     OW42231   5.906  10.037   9.873 -0.6765  0.4529 -0.0056
13305SOL    HW142232   5.879   9.952   9.838 -0.8463  0.7326 -0.5712
13305SOL    HW242233   5.925  10.090   9.795 -2.3997  1.5337  0.2629
13306SOL     OW42234   1.192   2.318   8.439 -0.0412  0.3138  0.2245
13306SOL    HW142235   1.182   2.414   8.438 -0.6198  0.2922  1.4232
13306SOL    HW242236   1.160   2.292   8.526 -0.2230 -1.0069 -0.2183
13307SOL     OW42237   4.125   7.803   0.308 -0.2198 -0.6405  0.2173
13307SOL    HW142238   4.141   7.896   0.294 -0.0552 -0.9513 -2.0092
13307SOL    HW242239   4.040   7.787   0.266  0.6464 -1.8326 -1.1745
13308SOL     OW42240   1.497   0.627   0.106 -0.4302 -0.5725 -0.4705
13308SOL    HW142241   1.449   0.671   0.176 -0.8449 -1.8984  0.1055
13308SOL    HW242242   1.503   0.692   0.036 -1.5854  0.1704  0.0989
13309SOL     OW42243  10.054   6.393   0.136 -0.0186  0.4032 -0.0085
13309SOL    HW142244   9.967   6.371   0.103  0.1837 -0.7884  0.2370
13309SOL    HW242245  10.048   6.382   0.230  1.0073 -1.9890 -0.1626
13310SOL     OW42246   6.888   1.824   7.199  0.5108  0.3028 -0.3874
13310SOL    HW142247   6.836   1.896   7.236 -0.3917 -0.9754  0.9823
13310SOL    HW242248   6.958   1.809   7.263  0.0285 -0.7287 -0.0666
13311SOL     OW42249   5.974   6.284   9.807  0.0367  0.2038  0.3639
13311SOL    HW142250   5.996   6.296   9.899  0.6670  1.2893  0.0916
13311SOL    HW242251   6.038   6.222   9.774  0.4306  0.5738  0.4282
13312SOL     OW42252   4.093   9.835   9.412 -0.2420 -0.2364 -0.3121
13312SOL    HW142253   4.119   9.818   9.502  0.4494  0.0787 -0.4484
13312SOL    HW242254   4.036   9.761   9.389  0.8933 -1.1996 -0.1483
13313SOL     OW42255   0.754   8.737   3.658  0.9102 -0.0073  0.0696
13313SOL    HW142256   0.804   8.751   3.578  1.0624  2.9895  0.5660
13313SOL    HW242257   0.811   8.771   3.728 -0.9644  1.7957  0.8498
13314SOL     OW42258   6.962   4.966   3.257  0.4549  0.1604  0.1693
13314SOL    HW142259   6.993   4.876   3.262  0.7964  0.2058 -0.9780
13314SOL    HW242260   6.867   4.959   3.247  0.5423 -0.0891 -0.4962
13315SOL     OW42261   4.528   7.091   1.773  0.6497 -0.3329  0.0571
13315SOL    HW142262   4.571   7.096   1.859 -2.5482 -1.3933  1.8871
13315SOL    HW242263   4.469   7.016   1.781 -1.7384  1.1905 -2.1236
13316SOL     OW42264   9.733   4.462   4.981 -0.2815  0.0347 -0.3427
13316SOL    HW142265   9.689   4.460   4.896  0.2032 -0.9917 -0.5924
13316SOL    HW242266   9.663   4.450   5.045 -0.6509  0.8331 -0.5943
13317SOL     OW42267   0.185   7.986   4.867  0.3952 -0.6030  0.5017
13317SOL    HW142268   0.222   7.903   4.836  1.6889  0.1950 -0.1896
13317SOL    HW242269   0.123   7.961   4.935 -0.7103 -2.2654 -1.0155
13318SOL     OW42270   7.155   4.624   2.943  0.5482 -0.7679  0.3950
13318SOL    HW142271   7.084   4.560   2.936  2.3440 -2.7301 -2.1503
13318SOL    HW242272   7.180   4.622   3.036 -1.4088 -1.4776  0.9562
13319SOL     OW42273   1.457   7.741  10.325  0.5073 -0.2884 -0.1922
13319SOL    HW142274   1.411   7.806  10.378 -0.8585  0.3439 -2.0502
13319SOL    HW242275   1.522   7.791  10.276  1.2001 -0.7474  0.2301
13320SOL     OW42276   1.676   4.310   8.824  0.5306  0.7184 -0.0564
13320SOL    HW142277   1.658   4.319   8.918 -0.8045 -0.5151 -0.1570
13320SOL    HW242278   1.681   4.400   8.792 -0.8292  1.1667  0.8861
13321SOL     OW42279   7.545   7.507   9.377 -0.1342  0.0018 -0.1162
13321SOL    HW142280   7.605   7.533   9.308  0.3324 -1.7850 -0.4418
13321SOL    HW242281   7.600   7.500   9.455 -0.3315  0.3556  0.0580
13322SOL     OW42282   2.244   3.757   8.088 -0.2958 -0.2255  0.3347
13322SOL    HW142283   2.327   3.800   8.109 -0.9477  1.5869 -0.5409
13322SOL    HW242284   2.204   3.740   8.173  0.3241  0.2256  0.7316
13323SOL     OW42285   0.678   3.318   6.060 -0.2613 -0.1659 -0.3150
13323SOL    HW142286   0.671   3.385   5.992  0.4856 -1.3297 -1.6011
13323SOL    HW242287   0.686   3.235   6.012  0.7247 -0.9976  1.1725
13324SOL     OW42288   7.801   1.337   0.096 -0.7478  0.1531 -0.1058
13324SOL    HW142289   7.815   1.431   0.101  0.7232 -0.0359 -0.1602
13324SOL    HW242290   7.818   1.305   0.185  1.1210 -0.3012 -0.5696
13325SOL     OW42291   5.035   8.874   0.920 -0.7125  0.4077  0.0778
13325SOL    HW142292   5.103   8.824   0.965 -0.0873  1.0469 -0.1224
13325SOL    HW242293   4.987   8.917   0.990 -1.4686 -0.7169  0.2703
13326SOL     OW42294   2.642   1.213   6.424 -0.0310 -0.1458  0.6391
13326SOL    HW142295   2.674   1.252   6.342  0.1764  0.6574  1.0901
13326SOL    HW242296   2.651   1.119   6.410  1.3218  0.0116  0.2535
13327SOL     OW42297   9.418   2.909   3.040 -1.0486  0.2203 -0.6635
13327SOL    HW142298   9.399   2.994   3.001  0.3069  0.7963 -0.1454
13327SOL    HW242299   9.486   2.871   2.985 -0.5318  0.1771 -0.0139
13328SOL     OW42300   5.797   1.467  10.282 -0.4210 -0.2409  0.2443
13328SOL    HW142301   5.819   1.494  10.371  0.1417  1.9839 -0.5072
13328SOL    HW242302   5.719   1.517  10.259  0.4827  0.6309 -1.1126
13329SOL     OW42303   0.285   1.653   6.086 -0.0751  0.4269 -0.0413
13329SOL    HW142304   0.372   1.688   6.103 -0.3291  1.4191 -0.6748
13329SOL    HW242305   0.228   1.698   6.149  0.0628 -1.3885  1.4803
13330SOL     OW42306   8.690   0.526   1.512  0.1068 -0.1010  0.4521
13330SOL    HW142307   8.716   0.475   1.435  0.7797 -1.1784  1.3679
13330SOL    HW242308   8.723   0.614   1.495 -0.8031 -0.0209 -1.0233
13331SOL     OW42309   4.858   4.767   1.738 -0.1474 -0.5445 -0.1949
13331SOL    HW142310   4.920   4.836   1.761  0.8300 -1.4280 -0.1111
13331SOL    HW242311   4.781   4.814   1.704  0.5665  0.5718 -0.3137
13332SOL     OW42312   5.904   5.159   1.111 -0.4221 -0.3402 -0.0627
13332SOL    HW142313   5.979   5.104   1.086 -0.7615 -1.1339  0.6359
13332SOL    HW242314   5.855   5.171   1.030 -0.6316 -1.5244 -0.1251
13333SOL     OW42315   6.402   9.615   1.618  0.1041  0.6886  0.2347
13333SOL    HW142316   6.338   9.677   1.583 -0.4222  0.5660  0.9333
13333SOL    HW242317   6.352   9.535   1.631  0.9294 -0.0849 -1.2458
13334SOL     OW42318   1.675   9.312   3.803 -0.0654  0.5796 -0.5575
13334SOL    HW142319   1.618   9.387   3.785 -2.8036 -1.2835 -0.2811
13334SOL    HW242320   1.631   9.238   3.761  1.5263 -1.1878  0.7428
13335SOL     OW42321   5.202   5.232   7.809  0.3037  0.1310  0.6789
13335SOL    HW142322   5.138   5.261   7.745  1.5219  1.9844  0.2186
13335SOL    HW242323   5.274   5.197   7.757  1.2928  1.6329  0.9766
13336SOL     OW42324   9.111  10.275   1.057  0.5901 -0.1490  0.6755
13336SOL    HW142325   9.155  10.353   1.025  0.7112 -0.0645  1.0431
13336SOL    HW242326   9.157  10.202   1.015  0.0881 -0.0013 -0.1347
13337SOL     OW42327   6.107   0.137   0.405  0.0115 -0.5833  0.4151
13337SOL    HW142328   6.142   0.125   0.493 -0.2973  2.6478  1.1152
13337SOL    HW242329   6.157   0.210   0.369 -0.2176 -1.5025 -1.9405
13338SOL     OW42330   9.287   2.324   8.454 -0.1720 -0.2142  0.4019
13338SOL    HW142331   9.355   2.376   8.410 -0.2122  1.2124  1.9311
13338SOL    HW242332   9.221   2.387   8.479 -1.5482 -1.4313 -0.0292
13339SOL     OW42333   1.728   1.573   7.074 -0.1945 -0.1540 -0.3053
13339SOL    HW142334   1.699   1.565   7.165 -0.5083 -1.3777 -0.4891
13339SOL    HW242335   1.724   1.667   7.055  1.1005  0.2730  1.3309
13340SOL     OW42336   4.664   8.458   1.831  0.3855 -0.2546  0.1851
13340SOL    HW142337   4.631   8.546   1.811  1.6002 -0.0625 -1.1368
13340SOL    HW242338   4.693   8.463   1.922 -0.4946  0.4174  0.4323
13341SOL     OW42339   8.445   8.185   5.174 -0.1524 -0.3445 -0.3626
13341SOL    HW142340   8.450   8.100   5.129  0.5218 -0.6692  0.2994
13341SOL    HW242341   8.456   8.164   5.266  3.1523  0.6862 -0.3883
13342SOL     OW42342   1.349   6.201   9.786  0.0107  0.1332 -0.3939
13342SOL    HW142343   1.393   6.283   9.809 -0.3712  0.2737 -0.1446
13342SOL    HW242344   1.273   6.198   9.844  0.0400 -0.4159 -0.3771
13343SOL     OW42345   2.062  10.422   1.738  0.0841 -0.1467  0.1622
13343SOL    HW142346   1.984  10.471   1.711 -0.2110 -0.7791 -0.1555
13343SOL    HW242347   2.134  10.484   1.728 -0.3952  0.5025  0.6366
13344SOL     OW42348   6.574   2.529   5.591  0.0359  1.0259  0.6994
13344SOL    HW142349   6.626   2.570   5.522 -0.5187  1.3326  0.4597
13344SOL    HW242350   6.596   2.436   5.585 -0.1082  1.0291  0.0198
13345SOL     OW42351   3.783   4.433   2.305  0.6401 -0.0167  0.0686
13345SOL    HW142352   3.715   4.371   2.277  0.5370 -0.6901  1.6671
13345SOL    HW242353   3.740   4.518   2.304 -0.0403 -0.3494  0.4208
13346SOL     OW42354   9.038   5.158  10.201  0.2706  0.0689  0.0800
13346SOL    HW142355   9.054   5.086  10.262 -0.0857  0.2798  0.4279
13346SOL    HW242356   8.943   5.170  10.202 -0.0805 -1.6993 -2.5647
13347SOL     OW42357   0.145   9.829   1.395  0.5007 -0.6252 -0.3053
13347SOL    HW142358   0.119   9.902   1.339  0.9175 -0.2929 -0.0672
13347SOL    HW242359   0.062   9.789   1.421  0.3160 -2.1613 -2.9315
13348SOL     OW42360   2.902   9.442   1.859 -0.2311 -0.1868 -0.4586
13348SOL    HW142361   2.858   9.358   1.843  0.2996 -0.5611  0.0212
13348SOL    HW242362   2.895   9.489   1.776 -0.0503 -0.9265 -0.8945
13349SOL     OW42363   6.025   6.146   3.815 -0.2516 -0.1202 -0.2555
13349SOL    HW142364   6.062   6.215   3.760  0.6491  1.4449  2.1673
13349SOL    HW242365   6.092   6.078   3.816  1.0376  1.0996  1.1324
13350SOL     OW42366   4.042   7.772  10.571 -0.0282 -0.6084 -0.1885
13350SOL    HW142367   3.983   7.734  10.635 -1.4619  0.3464 -0.8919
13350SOL    HW242368   4.029   7.867  10.579 -1.4427 -0.4754 -2.8968
13351SOL     OW42369   3.568   4.072   2.778 -0.2253  0.2642  0.3646
13351SOL    HW142370   3.602   4.009   2.713 -0.9377 -1.1052  1.2647
13351SOL    HW242371   3.561   4.154   2.730  0.0197 -0.5217 -1.0806
13352SOL     OW42372   1.474   4.911   5.795  0.8793  0.0545  0.4258
13352SOL    HW142373   1.510   4.822   5.803 -0.7856 -0.7669 -0.5974
13352SOL    HW242374   1.503   4.956   5.875  0.0996 -2.0394  1.9937
13353SOL     OW42375   4.544   6.421   3.627 -0.9450 -0.7063 -0.0870
13353SOL    HW142376   4.469   6.383   3.672 -1.5984  0.1802 -0.3943
13353SOL    HW242377   4.512   6.441   3.539 -0.5055  0.1235 -0.0714
13354SOL     OW42378   2.341   6.208   3.585 -0.4115 -0.3221  0.2400
13354SOL    HW142379   2.260   6.161   3.564 -0.1031 -1.0994  0.7523
13354SOL    HW242380   2.408   6.139   3.591 -0.0581  0.1101  1.5334
13355SOL     OW42381   0.143   9.754   2.749  0.1297 -0.0231 -0.0132
13355SOL    HW142382   0.230   9.720   2.772  0.3550  0.9073  0.5880
13355SOL    HW242383   0.084   9.713   2.812  0.1536 -0.5354 -0.3204
13356SOL     OW42384   1.816   2.755   9.404 -0.4063  0.6954 -0.6768
13356SOL    HW142385   1.731   2.711   9.394 -0.3708  0.9236 -2.2521
13356SOL    HW242386   1.806   2.808   9.483 -0.1418 -2.7387  1.8707
13357SOL     OW42387   6.426  10.111   7.798  1.0789  0.0191  0.5373
13357SOL    HW142388   6.462  10.172   7.733 -0.7307 -0.2744 -0.8171
13357SOL    HW242389   6.377  10.048   7.746  0.1926 -0.6777  2.1698
13358SOL     OW42390   3.014   2.963   3.722 -0.0683 -0.1507  0.6625
13358SOL    HW142391   2.941   2.917   3.765 -1.0397 -0.3411 -1.0974
13358SOL    HW242392   3.054   2.896   3.667 -2.3053  1.2097 -2.9532
13359SOL     OW42393   0.265   1.424   8.806  0.1679  0.3263 -0.3086
13359SOL    HW142394   0.225   1.376   8.878  1.3280 -1.3831 -0.7153
13359SOL    HW242395   0.224   1.510   8.808 -1.2690 -0.3339  1.1286
13360SOL     OW42396   6.351   5.163   1.138  0.4922 -0.0711  0.2658
13360SOL    HW142397   6.388   5.237   1.091  0.9258  0.8652  2.0021
13360SOL    HW242398   6.273   5.139   1.088 -1.6046  3.6962  1.3373
13361SOL     OW42399   4.069   2.038   4.731  0.2124  0.2071 -0.1522
13361SOL    HW142400   4.026   2.017   4.814 -0.4112  1.8145 -0.0353
13361SOL    HW242401   4.092   2.131   4.739  2.4860 -0.2376 -0.7603
13362SOL     OW42402   5.190   0.255   1.401  0.4532 -0.0027 -0.3028
13362SOL    HW142403   5.286   0.255   1.402  0.5836 -3.5836 -0.7770
13362SOL    HW242404   5.166   0.208   1.481 -0.6998 -2.1853 -1.8525
13363SOL     OW42405   0.556   6.641  10.003  0.2448 -0.4136  0.3890
13363SOL    HW142406   0.583   6.552  10.025  2.7733  0.3581  0.7876
13363SOL    HW242407   0.638   6.685   9.979 -0.7804  2.0532  1.1118
13364SOL     OW42408   9.605   5.617   0.277  0.0889 -0.2212 -0.2601
13364SOL    HW142409   9.689   5.654   0.307  0.8506 -0.6919 -1.6837
13364SOL    HW242410   9.568   5.574   0.354  1.1327  0.0512  0.4171
13365SOL     OW42411   5.785   3.468  10.099 -0.4832  0.1572  0.1270
13365SOL    HW142412   5.839   3.403  10.143  0.2638  0.4808 -0.2942
13365SOL    HW242413   5.795   3.448  10.006 -2.5185 -0.9035  0.0753
13366SOL     OW42414   9.467  10.366   4.669  0.2698  0.0330 -0.0700
13366SOL    HW142415   9.442  10.459   4.668  0.2378  0.0767 -2.6893
13366SOL    HW242416   9.561  10.366   4.685  0.5796  0.6769 -1.7231
13367SOL     OW42417   4.572   4.284   1.291  0.5170 -0.2797 -0.0646
13367SOL    HW142418   4.583   4.335   1.211  0.9049  0.1173  0.2393
13367SOL    HW242419   4.642   4.218   1.287  1.5005  0.6812  0.6607
13368SOL     OW42420   1.857   7.537   1.980  0.4911 -0.8652  0.1833
13368SOL    HW142421   1.852   7.514   2.073  2.3933 -1.8362  0.0794
13368SOL    HW242422   1.937   7.590   1.972 -0.6456  0.8374 -0.6137
13369SOL     OW42423   9.975  10.558   0.190  0.1229  0.1401  0.8057
13369SOL    HW142424   9.918  10.595   0.258 -1.7187  1.4841 -1.3269
13369SOL    HW242425  10.006  10.475   0.227 -2.8284 -0.4177  2.3458
13370SOL     OW42426   4.780   2.264   0.149 -0.3528 -0.2906  0.1108
13370SOL    HW142427   4.831   2.345   0.155 -2.5801  1.1348  5.2988
13370SOL    HW242428   4.826   2.202   0.206 -1.9259 -0.4433  1.2943
13371SOL     OW42429  10.084   4.799   8.339  0.1329 -0.6703 -0.1282
13371SOL    HW142430  10.131   4.715   8.335  1.8009  0.1729  0.6377
13371SOL    HW242431  10.153   4.864   8.356 -1.0158  0.9682 -1.4515
13372SOL     OW42432  10.092   0.763   5.644  0.1691 -0.1614  0.5456
13372SOL    HW142433  10.048   0.684   5.676  1.4922 -1.0467  0.2565
13372SOL    HW242434  10.181   0.734   5.624 -0.0783  0.7135 -2.3325
13373SOL     OW42435   6.495   4.127   5.657 -0.5278  0.3384  0.5929
13373SOL    HW142436   6.473   4.203   5.711  1.5118 -0.4406  2.6487
13373SOL    HW242437   6.469   4.052   5.709  1.4596 -0.4426  0.5159
13374SOL     OW42438   6.708   2.793   7.047 -0.4753 -0.1844  0.0691
13374SOL    HW142439   6.751   2.732   6.987  1.6691  0.6375  0.6698
13374SOL    HW242440   6.764   2.870   7.046 -2.2283  1.1688  0.5927
13375SOL     OW42441   8.638   5.032   8.029 -0.0263 -0.7065  0.2751
13375SOL    HW142442   8.665   4.964   7.967 -0.3653 -0.2698 -0.3585
13375SOL    HW242443   8.544   5.017   8.041 -0.0750 -0.4328  0.2375
13376SOL     OW42444   4.897   5.300   0.036  0.6582 -0.9859 -0.3043
13376SOL    HW142445   4.826   5.280  -0.025  0.3627 -0.8604  0.0004
13376SOL    HW242446   4.901   5.223   0.093 -1.2278  0.1971  1.6004
13377SOL     OW42447   7.909   3.647   1.701 -0.2265 -0.2955 -0.4052
13377SOL    HW142448   7.905   3.723   1.643  0.4931  1.1020  1.2831
13377SOL    HW242449   7.996   3.609   1.686 -0.4795 -0.6294 -1.0473
13378SOL     OW42450   5.492   3.969   7.120 -0.0870  0.2551  0.2663
13378SOL    HW142451   5.465   4.021   7.195  1.2041  0.9710  0.2614
13378SOL    HW242452   5.531   3.890   7.157  0.9635  0.8140  0.3813
13379SOL     OW42453   2.013   0.023   7.067 -0.7287  0.3463  0.5921
13379SOL    HW142454   2.084  -0.014   7.120 -0.5088 -1.1535 -0.6619
13379SOL    HW242455   1.995   0.108   7.107  2.4523  1.2445  0.4301
13380SOL     OW42456   5.047   0.853   6.327  0.5149  0.3090  0.4977
13380SOL    HW142457   4.965   0.826   6.286  1.7763 -2.3399 -0.5730
13380SOL    HW242458   5.064   0.787   6.394  2.3390 -0.0023 -0.1862
13381SOL     OW42459   7.455   7.734   8.935 -0.6604  0.3160 -0.3161
13381SOL    HW142460   7.433   7.665   8.997  0.4922 -0.2870 -0.5623
13381SOL    HW242461   7.539   7.768   8.965 -0.7281  0.9283 -0.7871
13382SOL     OW42462   9.677   3.022   7.453 -0.3522 -0.0705 -0.0495
13382SOL    HW142463   9.595   2.994   7.412 -0.1868  0.2106 -0.5856
13382SOL    HW242464   9.708   2.946   7.502 -0.3004 -0.5683 -0.8525
13383SOL     OW42465   5.280   7.838   6.140  0.2570 -0.4074 -0.4398
13383SOL    HW142466   5.205   7.874   6.187  0.0786  1.5501 -2.1058
13383SOL    HW242467   5.330   7.791   6.207 -1.3333  0.0533  1.1356
13384SOL     OW42468   8.036   7.353   3.084  0.3673  0.5015 -0.2512
13384SOL    HW142469   7.993   7.345   3.170 -1.7587 -0.9800 -1.3407
13384SOL    HW242470   8.123   7.316   3.098  0.1861  0.5887  1.3522
13385SOL     OW42471   4.506   7.407   2.987  0.5880  0.1594  0.2354
13385SOL    HW142472   4.503   7.502   2.996 -0.7006  0.1149  0.4398
13385SOL    HW242473   4.594   7.389   2.954  0.0230  1.6416 -2.3216
13386SOL     OW42474   3.048   5.714   7.530  0.0588  0.0797  0.4249
13386SOL    HW142475   2.999   5.730   7.449  0.5581  0.4890  0.1909
13386SOL    HW242476   3.105   5.791   7.538 -0.0046  0.0546  1.1848
13387SOL     OW42477   2.187   2.003   0.664 -0.2285  0.3122  0.0776
13387SOL    HW142478   2.119   2.035   0.723  0.3764 -0.1768  1.0853
13387SOL    HW242479   2.170   2.047   0.581 -1.6073  0.3991  0.3759
13388SOL     OW42480   3.242   8.852   8.981  0.5734 -0.0690 -0.3250
13388SOL    HW142481   3.215   8.809   9.062  0.1806 -1.3713 -1.1171
13388SOL    HW242482   3.320   8.902   9.005  0.6408 -0.6693  0.7805
13389SOL     OW42483   4.180   6.919   9.939  0.7430 -0.3769  0.0009
13389SOL    HW142484   4.129   6.917   9.858  0.8880 -1.7662 -0.0721
13389SOL    HW242485   4.268   6.891   9.913  0.5362 -1.8456  0.7919
13390SOL     OW42486   1.330   8.648   7.650 -0.4478 -0.7229  0.5681
13390SOL    HW142487   1.330   8.632   7.556 -0.7046 -0.0370  0.4413
13390SOL    HW242488   1.238   8.660   7.672 -0.3982 -1.0055  0.9297
13391SOL     OW42489   6.413   6.139   4.796  0.2212 -0.9425 -0.0187
13391SOL    HW142490   6.437   6.140   4.889  0.0767  0.6558  0.0315
13391SOL    HW242491   6.445   6.054   4.764  1.8026 -0.8186  1.0955
13392SOL     OW42492   3.612   3.282   7.794 -0.6843 -0.0072  0.0058
13392SOL    HW142493   3.707   3.273   7.795 -0.5882  0.8503 -0.3260
13392SOL    HW242494   3.585   3.239   7.713 -0.4864  0.4971 -0.3342
13393SOL     OW42495   8.733   0.496   0.601 -0.3376 -0.4592  0.3283
13393SOL    HW142496   8.811   0.489   0.656 -0.4758  1.2734  0.7966
13393SOL    HW242497   8.675   0.555   0.649 -1.5291 -0.9185 -0.4957
13394SOL     OW42498   4.741   1.171   9.086  0.0249  0.1665  0.2470
13394SOL    HW142499   4.692   1.089   9.089 -1.2431  0.9057  0.7435
13394SOL    HW242500   4.831   1.146   9.104 -0.1482 -1.2441 -0.6729
13395SOL     OW42501   2.835   2.960   2.685 -0.4387 -0.1705  0.3465
13395SOL    HW142502   2.869   2.956   2.775  0.5457 -0.3929 -0.0218
13395SOL    HW242503   2.758   2.903   2.687 -0.8986  0.4417  1.2306
13396SOL     OW42504   5.345  10.114   2.658 -0.2679  0.2245 -0.0493
13396SOL    HW142505   5.267  10.071   2.621 -1.2014  2.2809 -0.5809
13396SOL    HW242506   5.341  10.093   2.751 -1.7884  0.7500  0.0327
13397SOL     OW42507   6.104   5.386   2.058  0.2023  0.3197 -0.1911
13397SOL    HW142508   6.145   5.467   2.087  0.0560  0.0408  0.8261
13397SOL    HW242509   6.087   5.400   1.965 -0.3000  1.6658  0.0727
13398SOL     OW42510   9.022   9.599   6.717 -0.1707  0.4261 -0.4021
13398SOL    HW142511   8.979   9.650   6.785 -2.7985 -0.4846 -1.2402
13398SOL    HW242512   8.993   9.509   6.732  2.7803 -0.5785 -0.1271
13399SOL     OW42513   5.046   8.527   2.750 -0.0456 -0.2900 -0.0613
13399SOL    HW142514   5.040   8.432   2.753  0.4049 -0.3704 -1.1499
13399SOL    HW242515   5.087   8.552   2.832  0.2239 -1.0695  0.0454
13400SOL     OW42516  10.572   8.203  10.257  0.0699 -0.3885 -0.2311
13400SOL    HW142517  10.557   8.109  10.248 -1.4801 -1.3298  6.4299
13400SOL    HW242518  10.484   8.241  10.256  0.3778  0.3756  0.5703
13401SOL     OW42519   5.040   7.261   7.416  0.0083 -0.0510 -0.3397
13401SOL    HW142520   4.997   7.319   7.353  0.7546  0.0162 -0.8028
13401SOL    HW242521   4.968   7.215   7.459 -0.4973 -1.0996 -2.2069
13402SOL     OW42522   2.615   9.265   0.538  0.6509  0.1209 -0.2369
13402SOL    HW142523   2.591   9.300   0.453  1.0782  0.1797 -0.3391
13402SOL    HW242524   2.651   9.178   0.519  0.8329  0.1711 -0.1265
13403SOL     OW42525   7.451   4.945   5.390  0.1161  0.2186 -0.0181
13403SOL    HW142526   7.517   4.986   5.335  1.3181 -0.4478  0.8734
13403SOL    HW242527   7.454   4.852   5.366 -0.1795  0.1063  0.3627
13404SOL     OW42528   1.715   6.779   9.923 -0.3706  0.1621 -0.3182
13404SOL    HW142529   1.794   6.824   9.891 -0.8193  0.4321 -1.0915
13404SOL    HW242530   1.689   6.723   9.850 -0.4316 -0.5557  0.2425
13405SOL     OW42531   9.453   1.386   9.330 -0.1242  0.2740 -0.0152
13405SOL    HW142532   9.409   1.381   9.245 -1.8839 -1.6287  0.9013
13405SOL    HW242533   9.382   1.372   9.394  1.3980 -0.0949  1.6763
13406SOL     OW42534   7.148   7.963   5.734  0.3260  0.4059  0.1817
13406SOL    HW142535   7.223   7.989   5.680  0.9989  0.6797  1.2051
13406SOL    HW242536   7.115   8.045   5.771  0.4794  0.1442  0.9277
13407SOL     OW42537   6.433   5.718   3.521 -0.2573  1.0189  0.8717
13407SOL    HW142538   6.380   5.797   3.512  0.2293  1.4143  1.3676
13407SOL    HW242539   6.522   5.750   3.537  0.2934  0.3804 -0.6702
13408SOL     OW42540   1.447  10.519   2.468 -0.2673 -0.1553 -0.9371
13408SOL    HW142541   1.366  10.548   2.425 -1.0008 -1.3233 -0.4075
13408SOL    HW242542   1.453  10.572   2.547  0.3955  1.0936 -1.7920
13409SOL     OW42543   5.078   4.784   6.794 -0.2619  0.0645  0.0143
13409SOL    HW142544   5.107   4.823   6.876 -0.2832  1.3942 -0.5786
13409SOL    HW242545   5.153   4.733   6.764  0.6742  1.5707 -0.3424
13410SOL     OW42546   6.616   6.814   6.711 -0.6164 -0.1706 -0.1447
13410SOL    HW142547   6.676   6.872   6.665  1.1881 -0.6402  1.4605
13410SOL    HW242548   6.565   6.772   6.642  1.5756 -0.4735 -1.6942
13411SOL     OW42549   2.765   1.541   3.239  0.1827  0.0972  0.1719
13411SOL    HW142550   2.762   1.574   3.150 -0.9448 -0.5688 -0.0552
13411SOL    HW242551   2.849   1.496   3.246  0.8005  1.1619 -0.1640
13412SOL     OW42552   1.981   8.068   5.379 -0.2289  0.7119  0.3408
13412SOL    HW142553   1.898   8.021   5.376 -0.3785  0.9468  0.8018
13412SOL    HW242554   2.015   8.052   5.467  0.4819  0.1628 -0.0169
13413SOL     OW42555   6.022   7.868   6.963 -0.6812  0.1944  0.2812
13413SOL    HW142556   6.077   7.874   6.884  1.2339 -3.1313  1.1542
13413SOL    HW242557   5.939   7.831   6.932  0.2711 -1.6690 -0.2026
13414SOL     OW42558  10.139   3.467   8.687 -0.7212 -0.4672 -0.4734
13414SOL    HW142559  10.179   3.415   8.617 -0.2758  0.0991 -0.6503
13414SOL    HW242560  10.082   3.528   8.641  0.3452  0.5948 -0.4386
13415SOL     OW42561   4.740   7.628  10.217 -0.1100  0.2062  0.7160
13415SOL    HW142562   4.703   7.539  10.220  0.0570  0.1480  1.0479
13415SOL    HW242563   4.808   7.628  10.284 -0.3222  0.6824  0.9400
13416SOL     OW42564   1.316   2.602   3.500 -0.0730  0.4065  0.3849
13416SOL    HW142565   1.247   2.563   3.554  0.3175 -1.4605 -0.3802
13416SOL    HW242566   1.375   2.644   3.562 -1.3506  1.1678  1.1280
13417SOL     OW42567   1.057   9.016   6.289 -0.0111  0.2928 -0.3524
13417SOL    HW142568   1.142   8.990   6.255 -1.1485 -2.5194 -1.4013
13417SOL    HW242569   1.024   9.080   6.226  0.2472 -0.6222 -1.4575
13418SOL     OW42570   8.019   0.940   0.886  0.2092 -0.2837  0.0033
13418SOL    HW142571   8.081   0.868   0.870  0.8800  0.3991 -0.5529
13418SOL    HW242572   8.062   1.017   0.849 -1.4068  0.0298 -1.3457
13419SOL     OW42573   0.903   9.707   1.699 -0.1826 -0.1793 -0.3841
13419SOL    HW142574   0.829   9.675   1.750  0.4817  0.6866  1.1946
13419SOL    HW242575   0.871   9.787   1.657  0.1664  0.8831  1.2909
13420SOL     OW42576   0.080   9.924   2.030  0.4375  0.3585 -0.3760
13420SOL    HW142577   0.038   9.944   2.114  1.3761  2.8393 -0.4283
13420SOL    HW242578   0.132   9.845   2.048 -2.3902 -1.5342  0.2545
13421SOL     OW42579   1.837   0.232   5.791  1.1155  0.1518  0.1303
13421SOL    HW142580   1.908   0.193   5.842 -0.5449 -2.7179  0.4586
13421SOL    HW242581   1.767   0.167   5.794 -1.2012  2.4168 -0.9874
13422SOL     OW42582   8.536   6.606   7.723  0.3405 -0.0293  0.4054
13422SOL    HW142583   8.581   6.580   7.804 -0.4267 -1.0492  0.5248
13422SOL    HW242584   8.563   6.541   7.659  1.1288  0.9088 -0.2516
13423SOL     OW42585   4.392   4.037   8.789  0.1644  0.4551  0.1221
13423SOL    HW142586   4.341   4.029   8.869 -0.9681  2.4402 -0.3291
13423SOL    HW242587   4.412   4.130   8.783  2.6346 -0.0485 -0.4890
13424SOL     OW42588   6.012   8.509   7.424 -0.2379 -0.0948  0.1392
13424SOL    HW142589   5.938   8.472   7.377 -1.6480 -1.2676  3.0434
13424SOL    HW242590   6.089   8.465   7.388 -1.2182 -0.8782 -1.0626
13425SOL     OW42591   7.671   7.543   5.875  0.1385 -0.0102 -0.0985
13425SOL    HW142592   7.597   7.486   5.895 -0.4886  0.2260 -1.6376
13425SOL    HW242593   7.745   7.483   5.864 -0.0930 -0.3509  0.1959
13426SOL     OW42594   6.361   1.145   1.535 -0.2311 -0.5607  0.0045
13426SOL    HW142595   6.383   1.236   1.514 -0.3324 -0.3602  0.7378
13426SOL    HW242596   6.286   1.124   1.480 -0.3886 -0.1011  0.0452
13427SOL     OW42597   6.186   7.917   1.522 -0.1371 -0.3923 -0.2754
13427SOL    HW142598   6.125   7.942   1.453  0.2071  0.2234 -0.3564
13427SOL    HW242599   6.263   7.972   1.509 -0.3262  0.2174  0.9976
13428SOL     OW42600   9.256   6.255  10.461 -0.0937 -0.1609  0.0225
13428SOL    HW142601   9.253   6.181  10.521  2.5157 -0.7685 -0.4878
13428SOL    HW242602   9.232   6.330  10.514  0.5459 -0.9124  1.4350
13429SOL     OW42603   4.858   3.678   8.577 -0.5519 -0.9520  0.7771
13429SOL    HW142604   4.773   3.721   8.572 -0.9811 -1.8957 -0.5028
13429SOL    HW242605   4.921   3.750   8.585 -1.4642 -0.2564  2.2406
13430SOL     OW42606   3.399   4.007   7.507  0.4715  0.2513 -0.0657
13430SOL    HW142607   3.356   4.090   7.526  1.3740  1.0774 -1.3786
13430SOL    HW242608   3.364   3.946   7.571 -0.7787  1.4637  0.4588
13431SOL     OW42609   9.297   4.507   0.785  0.4148  0.0215 -0.1323
13431SOL    HW142610   9.285   4.600   0.765 -1.9213 -0.3675 -0.8667
13431SOL    HW242611   9.235   4.490   0.856 -0.5978 -1.3341 -1.2718
13432SOL     OW42612   4.704  10.007   0.757 -0.1665  0.0532 -0.0016
13432SOL    HW142613   4.772  10.055   0.803 -1.8216  2.2080  0.3354
13432SOL    HW242614   4.752   9.945   0.701  2.0035  0.9002  0.8233
13433SOL     OW42615   3.060   6.591   6.839  0.7103 -0.8818 -0.1369
13433SOL    HW142616   3.033   6.612   6.750  0.9021  0.7697  0.1643
13433SOL    HW242617   2.996   6.526   6.869 -0.9117  0.4436 -0.5967
13434SOL     OW42618  10.109  10.494   7.864 -0.5483  0.1778 -0.4623
13434SOL    HW142619  10.050  10.421   7.844 -0.0187 -0.4474  0.1884
13434SOL    HW242620  10.196  10.457   7.856 -0.2537  0.9201 -0.7590
13435SOL     OW42621   6.747   1.745   9.444 -0.6358 -0.3949  0.0855
13435SOL    HW142622   6.735   1.711   9.355 -0.5775 -3.4538  1.1226
13435SOL    HW242623   6.662   1.732   9.486 -0.9035  1.7872  0.3050
13436SOL     OW42624   5.306   8.704   3.477  0.1437 -0.5446 -0.1805
13436SOL    HW142625   5.339   8.716   3.566 -2.0629  0.2587  0.5976
13436SOL    HW242626   5.365   8.755   3.422  0.6580  0.1943  1.0193
13437SOL     OW42627  10.195   1.964   6.666  0.1226 -0.0829  0.1590
13437SOL    HW142628  10.136   1.902   6.709 -0.4512 -0.7107 -1.4524
13437SOL    HW242629  10.283   1.933   6.689 -0.1556 -0.2105  1.1068
13438SOL     OW42630   5.278   3.114   0.378 -0.2733 -0.0738  0.0925
13438SOL    HW142631   5.357   3.167   0.393 -0.8300  1.2121 -1.2716
13438SOL    HW242632   5.256   3.079   0.465  0.7968  0.9586  0.8135
13439SOL     OW42633   1.400   7.110   3.509 -0.6516 -0.4066  0.4391
13439SOL    HW142634   1.460   7.162   3.456 -2.0554  0.0911 -0.7236
13439SOL    HW242635   1.313   7.146   3.490 -1.2606 -0.4120  2.8585
13440SOL     OW42636   7.629   9.280   2.785  0.5421  0.9481 -0.0971
13440SOL    HW142637   7.724   9.267   2.784  0.7044  1.9063  0.7791
13440SOL    HW242638   7.596   9.212   2.843  0.4325 -0.6866 -1.9652
13441SOL     OW42639   2.020  10.336   5.805  0.1057 -0.1341 -0.2798
13441SOL    HW142640   2.030  10.292   5.889 -0.4738 -0.9393 -0.6179
13441SOL    HW242641   2.034  10.267   5.740  2.2185  0.8101 -0.8968
13442SOL     OW42642   6.671   4.490   4.268 -0.2223 -0.4481 -0.0073
13442SOL    HW142643   6.654   4.464   4.359  1.1720  0.8273  0.6668
13442SOL    HW242644   6.766   4.488   4.260 -0.3307 -0.8006 -1.5418
13443SOL     OW42645  10.127   0.944   0.288 -0.1494 -0.4002  0.3293
13443SOL    HW142646  10.066   0.932   0.216  1.7939 -0.6311 -1.3858
13443SOL    HW242647  10.095   0.886   0.357 -0.0396 -3.1378 -1.7490
13444SOL     OW42648   6.713  10.002   7.495 -0.8581 -0.5731  0.0025
13444SOL    HW142649   6.742   9.927   7.547  3.1426  0.2189 -0.7895
13444SOL    HW242650   6.793  10.038   7.457 -2.8311  2.9083 -1.3331
13445SOL     OW42651   9.168   7.027   9.094 -0.2783  0.3579 -0.4993
13445SOL    HW142652   9.151   6.980   9.176  1.8169  0.1172 -0.1338
13445SOL    HW242653   9.148   6.963   9.026  0.8704 -0.5344 -0.0498
13446SOL     OW42654   6.702   1.190   6.422  0.5427 -0.4392  0.3430
13446SOL    HW142655   6.790   1.175   6.457  0.2318 -3.7518  0.0539
13446SOL    HW242656   6.644   1.180   6.498  0.3121  0.0076  0.2283
13447SOL     OW42657   9.939   5.023   2.410 -0.0380 -0.0540  0.0493
13447SOL    HW142658   9.848   5.022   2.379  0.5292 -2.7388 -1.9219
13447SOL    HW242659   9.937   5.077   2.489 -3.4441 -0.5323  0.4384
13448SOL     OW42660   8.116   2.866   8.180  0.2761 -0.2827 -0.0461
13448SOL    HW142661   8.054   2.917   8.128  0.8352 -0.5079 -0.9477
13448SOL    HW242662   8.175   2.931   8.218  0.6468 -0.2115 -0.7392
13449SOL     OW42663   7.188   0.512   3.737 -0.0100  0.1681  0.1312
13449SOL    HW142664   7.114   0.452   3.725  0.6174 -0.6906  0.5199
13449SOL    HW242665   7.228   0.518   3.650 -0.0922  0.0476  0.0842
13450SOL     OW42666   9.338   1.663  10.197 -0.2156 -0.2483 -0.6056
13450SOL    HW142667   9.319   1.634  10.108 -1.6024  0.0612 -0.4226
13450SOL    HW242668   9.254   1.664  10.241  0.2567  0.9030  0.3365
13451SOL     OW42669   2.819   9.772   8.450 -0.3842  0.3946  0.1471
13451SOL    HW142670   2.845   9.797   8.361 -0.0763  1.6017  0.5590
13451SOL    HW242671   2.739   9.721   8.438 -1.1282  1.6882 -0.7548
13452SOL     OW42672   8.025   8.194   1.979  0.6127  0.0055 -0.0618
13452SOL    HW142673   7.948   8.204   2.036  0.1504  1.2539 -0.8668
13452SOL    HW242674   8.014   8.108   1.938 -1.0672  0.6953 -1.1607
13453SOL     OW42675   3.437   7.278   8.414 -0.8236  0.0159 -0.2836
13453SOL    HW142676   3.453   7.328   8.494  0.0963 -0.0830 -0.3967
13453SOL    HW242677   3.472   7.191   8.434 -1.0344 -0.1470 -0.6261
13454SOL     OW42678   2.756   7.216   0.102  0.1262  0.2498 -0.6557
13454SOL    HW142679   2.774   7.247   0.013  0.1285 -0.3817 -0.8817
13454SOL    HW242680   2.702   7.138   0.090 -0.8116  0.7916 -0.0593
13455SOL     OW42681   4.975   4.876   0.675 -0.0852  0.1296  0.1036
13455SOL    HW142682   4.988   4.788   0.640 -0.6983 -0.1308  0.5224
13455SOL    HW242683   4.915   4.865   0.749  0.4079  0.7988  0.6251
13456SOL     OW42684   3.306   5.120   8.234 -0.2796  0.2528  0.3811
13456SOL    HW142685   3.257   5.041   8.210  0.4083  0.2169 -0.9891
13456SOL    HW242686   3.357   5.141   8.156 -0.4823  2.0835  0.6959
13457SOL     OW42687   4.666   1.325   1.437 -0.1432  0.3104  0.3435
13457SOL    HW142688   4.642   1.375   1.359 -1.2071 -1.1206 -0.3016
13457SOL    HW242689   4.590   1.269   1.454  0.3591  0.0534  1.9833
13458SOL     OW42690   3.776   3.532   0.958  0.0485  0.0070  0.1657
13458SOL    HW142691   3.857   3.569   0.922 -0.5361  0.2175 -0.9899
13458SOL    HW242692   3.778   3.556   1.051  0.9794  0.6010  0.0082
13459SOL     OW42693   9.342  10.178   1.776  0.0891  0.1122 -0.9418
13459SOL    HW142694   9.277  10.120   1.816  0.0567  0.1538 -0.9338
13459SOL    HW242695   9.379  10.127   1.705 -0.6991  0.4602 -1.6153
13460SOL     OW42696   6.884   8.560   7.521  0.3691 -0.4450 -0.6723
13460SOL    HW142697   6.833   8.541   7.443  0.3198 -1.0724 -0.4884
13460SOL    HW242698   6.942   8.632   7.494 -1.0477  0.7492 -0.6921
13461SOL     OW42699   4.311   0.800   6.138  0.0000 -0.4125 -0.3342
13461SOL    HW142700   4.378   0.792   6.070 -0.5959 -0.9564 -0.8754
13461SOL    HW242701   4.230   0.774   6.094 -0.6333  0.6068  0.2073
13462SOL     OW42702   5.801   6.867   1.353 -0.1764  0.6672 -0.0400
13462SOL    HW142703   5.789   6.804   1.282  0.6908  0.2582  0.1564
13462SOL    HW242704   5.762   6.948   1.321 -2.1411 -0.1698  0.0403
13463SOL     OW42705   6.511   9.888   3.493  0.3591 -0.2874  0.3588
13463SOL    HW142706   6.428   9.935   3.492  0.0664 -0.8007 -0.5031
13463SOL    HW242707   6.564   9.934   3.558 -0.0639  0.9759 -0.1584
13464SOL     OW42708   5.870   9.216   9.341 -0.0296  0.4557  0.0688
13464SOL    HW142709   5.867   9.288   9.404  0.8048  0.5832 -0.0131
13464SOL    HW242710   5.802   9.237   9.277  0.2300  1.1995  0.0247
13465SOL     OW42711   4.562  10.213  10.596 -0.0530  0.3430 -0.0944
13465SOL    HW142712   4.518  10.297  10.605  0.1172  0.2919  1.4067
13465SOL    HW242713   4.501  10.149  10.633  0.3039 -0.0393 -0.1480
13466SOL     OW42714   8.202   2.713   1.247 -0.2953  0.0775 -0.4976
13466SOL    HW142715   8.213   2.750   1.160  1.8557  0.4544 -0.1152
13466SOL    HW242716   8.247   2.774   1.305  1.3818 -1.9186  0.4391
13467SOL     OW42717   3.025   8.323   6.655  0.1941 -0.2333  0.7522
13467SOL    HW142718   3.103   8.356   6.610  0.9709  0.0326  2.2122
13467SOL    HW242719   2.987   8.259   6.594 -0.0424  1.6196 -1.1542
13468SOL     OW42720   8.923   0.617   5.359  0.4838  0.6816 -0.4238
13468SOL    HW142721   8.830   0.599   5.350  0.3919  1.1380 -0.4120
13468SOL    HW242722   8.936   0.633   5.452  0.9436 -1.3474 -0.0938
13469SOL     OW42723   2.018   0.684   5.264 -0.2407  0.1866 -0.1462
13469SOL    HW142724   1.977   0.599   5.279  0.6277 -0.5739 -1.7387
13469SOL    HW242725   1.954   0.748   5.293  0.3954 -0.9373  4.4564
13470SOL     OW42726   4.043   5.210   1.995 -0.8217 -0.0822 -0.2292
13470SOL    HW142727   4.049   5.245   2.084  0.6404 -0.8832  0.0257
13470SOL    HW242728   4.104   5.264   1.944 -1.4400  0.1865 -0.7100
13471SOL     OW42729   9.015   1.059   0.182  0.5417 -0.0273  0.1957
13471SOL    HW142730   8.924   1.049   0.154  0.1616  1.6357  0.7081
13471SOL    HW242731   9.029   1.154   0.184  3.2565 -0.1665 -2.9393
13472SOL     OW42732   4.916   1.328   0.307  1.0755 -0.1964  0.2037
13472SOL    HW142733   4.963   1.254   0.345  2.3491  0.2568 -0.4464
13472SOL    HW242734   4.973   1.359   0.237  0.5352  1.3716  0.4357
13473SOL     OW42735   5.485   7.515   4.358 -0.1602  0.7417 -0.2084
13473SOL    HW142736   5.579   7.530   4.363 -0.2397  0.9970  0.6326
13473SOL    HW242737   5.477   7.429   4.317  0.4527  0.4656  0.2451
13474SOL     OW42738   1.459   1.743   0.401  0.1785  0.2468  0.2492
13474SOL    HW142739   1.465   1.838   0.409  0.5166  0.4353 -1.6797
13474SOL    HW242740   1.386   1.729   0.340 -1.7599 -0.9070  2.6291
13475SOL     OW42741   0.624   7.195   2.192 -0.3952  0.4384  0.0585
13475SOL    HW142742   0.563   7.126   2.166  0.2141  0.0659 -0.3899
13475SOL    HW242743   0.710   7.153   2.193  0.0624  1.3176 -0.7590
13476SOL     OW42744   3.302   5.691   6.676  0.3798  0.2458 -0.1113
13476SOL    HW142745   3.239   5.672   6.746 -0.6226  0.5174 -0.9179
13476SOL    HW242746   3.259   5.660   6.596  1.4847 -0.0020 -0.6220
13477SOL     OW42747   8.504   8.914   5.685  0.1152 -0.4133  0.2199
13477SOL    HW142748   8.472   8.898   5.774 -1.4767 -0.1288 -0.2692
13477SOL    HW242749   8.598   8.929   5.696  0.0532 -0.9714  1.7761
13478SOL     OW42750   8.381   9.358   3.744 -0.3368  0.2765  0.5797
13478SOL    HW142751   8.333   9.439   3.764 -0.5321 -0.0189  1.3121
13478SOL    HW242752   8.458   9.361   3.801  0.6327  0.8261 -0.6971
13479SOL     OW42753   9.794   6.855   6.340 -0.5501 -0.3521  0.4525
13479SOL    HW142754   9.838   6.774   6.365 -0.4564 -0.7806 -1.0040
13479SOL    HW242755   9.865   6.918   6.326 -0.5369 -0.3950  0.3220
13480SOL     OW42756   6.574   3.243   6.666  0.0994 -0.0015  0.4675
13480SOL    HW142757   6.524   3.224   6.586 -0.1595 -0.3819  0.7193
13480SOL    HW242758   6.632   3.168   6.676  0.4046  0.2271  0.4280
13481SOL     OW42759   7.694   7.651   0.879  0.0757  0.0628 -0.2693
13481SOL    HW142760   7.738   7.696   0.951  1.9779  1.3621 -2.1256
13481SOL    HW242761   7.601   7.657   0.900  0.5099  1.4136  1.4973
13482SOL     OW42762   8.498   6.917   0.611  0.0333 -0.1461 -0.2662
13482SOL    HW142763   8.579   6.968   0.603  1.9979 -3.1379 -0.9533
13482SOL    HW242764   8.495   6.862   0.533 -2.6391 -0.2808 -0.1810
13483SOL     OW42765   6.831   1.517   1.302 -0.4659  0.3436 -0.2874
13483SOL    HW142766   6.771   1.588   1.281 -2.2433 -0.5129  1.5352
13483SOL    HW242767   6.804   1.445   1.245 -1.1920 -0.0407  0.5291
13484SOL     OW42768   1.783   6.678   4.623  0.0906  0.0285 -0.0779
13484SOL    HW142769   1.767   6.679   4.529  0.9249 -1.9572 -0.3063
13484SOL    HW242770   1.707   6.631   4.659  1.2126 -1.9882 -0.1855
13485SOL     OW42771   1.859   6.401   9.577 -0.2054 -0.1986 -0.2212
13485SOL    HW142772   1.895   6.352   9.503  0.2162 -1.6757  0.9241
13485SOL    HW242773   1.926   6.396   9.645 -0.9328  0.4232  0.5707
13486SOL     OW42774   0.524   3.985   9.238  0.1775  0.4874  0.3534
13486SOL    HW142775   0.601   4.033   9.206  0.7709  0.1673  1.2550
13486SOL    HW242776   0.508   3.918   9.170  1.3866 -0.1588  0.6634
13487SOL     OW42777   1.546   5.508   9.278 -0.2035 -0.4913  0.5241
13487SOL    HW142778   1.469   5.563   9.293 -1.1195 -1.7875  0.8067
13487SOL    HW242779   1.576   5.485   9.366  1.7387  1.5832  0.4671
13488SOL     OW42780   3.638   6.322   5.798 -0.0005  0.1716  0.3211
13488SOL    HW142781   3.654   6.237   5.840  0.4400 -0.4309 -1.0204
13488SOL    HW242782   3.705   6.380   5.836  0.4399 -0.3760  0.4037
13489SOL     OW42783   0.092   2.647   2.363  0.3587 -0.0027  0.2149
13489SOL    HW142784   0.047   2.726   2.331 -1.4669 -1.4092 -0.8681
13489SOL    HW242785   0.080   2.649   2.458 -0.7508  0.3924  0.0748
13490SOL     OW42786   1.670   5.878   5.934 -0.6111 -0.3787 -0.7112
13490SOL    HW142787   1.751   5.827   5.946  0.1955  0.6933 -1.4475
13490SOL    HW242788   1.700   5.968   5.921 -2.0663  0.8070  2.7829
13491SOL     OW42789   7.149   3.151  10.450 -0.1677  0.3966 -0.0872
13491SOL    HW142790   7.077   3.191  10.401  0.2637  0.9734 -0.2636
13491SOL    HW242791   7.225   3.160  10.392  0.1447  0.2187  0.2889
13492SOL     OW42792   7.118   2.168   0.683  0.1955 -0.0330 -0.0316
13492SOL    HW142793   7.053   2.181   0.614  1.0898  2.5577 -0.5072
13492SOL    HW242794   7.128   2.254   0.723  3.8105 -0.1073 -0.4556
13493SOL     OW42795   9.650   2.494   9.198  0.8200 -0.2027  0.0571
13493SOL    HW142796   9.668   2.448   9.116 -0.7104 -0.8076  0.0328
13493SOL    HW242797   9.627   2.424   9.259 -0.0459  0.4067  0.4399
13494SOL     OW42798   7.850   2.899   4.546  0.1938 -0.4317  0.2541
13494SOL    HW142799   7.796   2.832   4.589 -1.4732  0.5251 -0.2987
13494SOL    HW242800   7.879   2.857   4.465 -1.9141 -0.0883 -0.7238
13495SOL     OW42801   9.270   5.792   1.845 -0.1532  0.3362  0.1358
13495SOL    HW142802   9.328   5.868   1.841  0.8789 -0.4292  0.1885
13495SOL    HW242803   9.317   5.729   1.899 -0.3220 -0.9140 -1.1462
13496SOL     OW42804   8.737   3.490   7.078  0.1391 -0.2201  0.2634
13496SOL    HW142805   8.716   3.560   7.016 -0.7173  0.1851  1.0031
13496SOL    HW242806   8.773   3.535   7.154  3.4998 -0.8422 -0.7874
13497SOL     OW42807   3.742   1.344   6.705 -0.1318 -0.3244 -0.0964
13497SOL    HW142808   3.668   1.293   6.738 -0.8476  0.7729  0.0895
13497SOL    HW242809   3.796   1.281   6.658 -2.5009 -0.7822 -2.4975
13498SOL     OW42810   3.263   2.400   7.328 -0.3243 -0.8675 -0.0276
13498SOL    HW142811   3.312   2.349   7.264  0.4828 -0.2699  0.0963
13498SOL    HW242812   3.176   2.360   7.330 -0.4660 -0.6948 -1.7266
13499SOL     OW42813   1.016   9.223   0.275  0.0345  0.3276  0.6296
13499SOL    HW142814   1.065   9.194   0.353 -0.2893 -2.1646 -0.0233
13499SOL    HW242815   0.936   9.171   0.276 -0.2231  0.6369 -1.0813
13500SOL     OW42816   9.129   6.413   9.215  0.3780 -0.2200  0.0742
13500SOL    HW142817   9.212   6.453   9.242 -0.6532  2.0495  0.1563
13500SOL    HW242818   9.119   6.336   9.271  1.7693  0.2484  1.0119
13501SOL     OW42819   9.114   3.008   1.539 -0.3860 -0.2350  0.0858
13501SOL    HW142820   9.121   3.038   1.630 -0.8322  0.0572  0.0294
13501SOL    HW242821   9.164   3.073   1.489 -2.3718  1.2008 -0.1851
13502SOL     OW42822   6.256   0.935   2.965  0.2634  0.4674 -0.2257
13502SOL    HW142823   6.216   0.965   2.883 -3.0796  0.6044  1.3139
13502SOL    HW242824   6.209   0.982   3.033  1.7901 -0.9014  1.8873
13503SOL     OW42825   3.345   3.711   5.873 -0.1378 -0.0606 -0.3894
13503SOL    HW142826   3.338   3.616   5.884  0.5734 -0.3209 -1.8761
13503SOL    HW242827   3.367   3.722   5.780  0.7312  1.5098 -0.0211
13504SOL     OW42828   4.696   2.125   8.128  0.1579 -0.7363 -0.4292
13504SOL    HW142829   4.787   2.135   8.100  0.1443 -2.1624 -1.0811
13504SOL    HW242830   4.649   2.099   8.049 -1.1527  1.5258 -0.4665
13505SOL     OW42831   8.339   2.931   7.492 -0.1208 -0.5172  0.8175
13505SOL    HW142832   8.245   2.949   7.500 -0.1698 -0.8135  0.9249
13505SOL    HW242833   8.345   2.836   7.488  0.0904 -0.4723 -0.3193
13506SOL     OW42834   6.785   6.831   1.668 -0.0147 -0.4627  0.7849
13506SOL    HW142835   6.702   6.877   1.667  1.2117  1.9030  0.4191
13506SOL    HW242836   6.799   6.805   1.576 -1.0067 -2.2860  1.0927
13507SOL     OW42837   3.875   1.568   8.653 -0.0622  0.5266 -0.8654
13507SOL    HW142838   3.879   1.560   8.558  0.7375  0.3140 -0.8218
13507SOL    HW242839   3.967   1.568   8.681 -0.2940 -0.8948  0.0267
13508SOL     OW42840   5.464   4.160   8.120 -0.4295 -0.0594  0.0871
13508SOL    HW142841   5.552   4.153   8.157 -0.6421 -0.0127  0.6113
13508SOL    HW242842   5.412   4.203   8.188 -0.8026  0.1372 -0.3143
13509SOL     OW42843   1.317  10.260   4.696 -0.0912 -0.1112  0.4188
13509SOL    HW142844   1.263  10.256   4.774 -0.9937 -0.5138 -0.2103
13509SOL    HW242845   1.355  10.173   4.688  0.5378  0.1237  0.7707
13510SOL     OW42846   7.913   3.653   2.672  0.1762  0.4889  0.5303
13510SOL    HW142847   7.988   3.708   2.693  1.8236 -1.1241 -0.7385
13510SOL    HW242848   7.838   3.699   2.709  1.8656  1.7668  2.6105
13511SOL     OW42849   5.069   0.008   4.883  0.7242  0.0662 -0.0838
13511SOL    HW142850   4.987  -0.013   4.926 -0.3657  0.7017 -1.7602
13511SOL    HW242851   5.117  -0.076   4.881  0.1709 -0.2879  0.9632
13512SOL     OW42852   4.109   6.034   3.832  0.4708  0.5651 -0.0311
13512SOL    HW142853   4.149   6.121   3.839 -1.1901  1.3598 -0.0061
13512SOL    HW242854   4.056   6.025   3.911  0.6463 -0.4962 -0.0203
13513SOL     OW42855   0.456   9.615   5.081  0.4634 -0.1146  0.0321
13513SOL    HW142856   0.488   9.553   5.015 -1.8267 -0.2121 -1.0957
13513SOL    HW242857   0.426   9.691   5.030 -0.3880  0.2552  1.0480
13514SOL     OW42858   5.626   4.445   8.670 -0.0876  0.2007  0.1464
13514SOL    HW142859   5.611   4.512   8.602 -1.0216 -0.5828 -0.4364
13514SOL    HW242860   5.540   4.432   8.710  0.4812  0.7845  1.6510
13515SOL     OW42861  10.125   2.828   3.543 -0.3002 -0.5629 -0.2216
13515SOL    HW142862  10.091   2.786   3.622 -1.7555 -0.1998 -0.6237
13515SOL    HW242863  10.049   2.833   3.484  0.0068  1.8559 -0.5083
13516SOL     OW42864   7.133   9.873   2.146  0.1363  0.5526  0.5156
13516SOL    HW142865   7.096   9.949   2.101 -1.9892 -0.7088  0.0346
13516SOL    HW242866   7.224   9.869   2.116 -0.1855  1.9222 -0.7290
13517SOL     OW42867   8.898   4.131   6.064  0.1480  0.4401 -0.5359
13517SOL    HW142868   8.836   4.195   6.029  1.2041  2.5734  1.2417
13517SOL    HW242869   8.862   4.105   6.148  1.1791  0.9997  0.0960
13518SOL     OW42870   8.609   6.173   5.152 -0.2332  0.1181  0.5874
13518SOL    HW142871   8.638   6.259   5.121  1.6614 -0.8083 -0.3664
13518SOL    HW242872   8.682   6.139   5.202  0.9925 -2.7228 -2.7372
13519SOL     OW42873   2.867   5.973   0.055 -0.2564 -0.4581 -0.3960
13519SOL    HW142874   2.914   6.054   0.076 -0.0466  0.0115 -2.4895
13519SOL    HW242875   2.778   5.988   0.084 -0.4662  0.9608 -1.6467
13520SOL     OW42876   2.925   1.946   2.975 -0.1973  0.5138  0.0193
13520SOL    HW142877   3.005   1.959   2.923  0.1702 -0.0585  0.4229
13520SOL    HW242878   2.872   1.885   2.922  0.0489  0.1593  0.1762
13521SOL     OW42879   5.536   1.845   7.259  0.0825  0.9833  0.4215
13521SOL    HW142880   5.468   1.832   7.325 -0.2581  0.4339 -0.0217
13521SOL    HW242881   5.616   1.812   7.300 -0.1087  0.7359  0.6023
13522SOL     OW42882   7.728  10.193   1.027  0.1846  0.1197  0.7466
13522SOL    HW142883   7.792  10.153   1.086 -0.2055  0.5709  1.4860
13522SOL    HW242884   7.751  10.286   1.027  0.0695  0.1473  0.3288
13523SOL     OW42885   4.575   3.141   8.196  0.0314 -0.2778 -0.3296
13523SOL    HW142886   4.651   3.130   8.139 -0.9207  0.3810 -1.7698
13523SOL    HW242887   4.565   3.056   8.239  1.4430 -0.4359 -0.2466
13524SOL     OW42888   3.490   0.552   7.305  0.4619 -0.2704 -0.3826
13524SOL    HW142889   3.563   0.563   7.366  0.2889 -1.4974  0.0768
13524SOL    HW242890   3.415   0.592   7.350  0.5317 -0.3618 -0.1827
13525SOL     OW42891   6.267   9.604   8.222 -0.3761 -0.1994  0.7457
13525SOL    HW142892   6.181   9.580   8.256 -1.1354  0.3448 -0.6978
13525SOL    HW242893   6.270   9.699   8.229  0.3073 -0.2440  1.1940
13526SOL     OW42894   7.595   6.103   0.876 -0.6925 -0.0087 -0.2050
13526SOL    HW142895   7.520   6.082   0.932 -0.9699 -1.4073 -1.0509
13526SOL    HW242896   7.592   6.198   0.867 -2.7138 -0.0695 -0.6609
13527SOL     OW42897   2.671   0.498   6.041 -0.1144 -0.4029 -0.4343
13527SOL    HW142898   2.657   0.566   6.107  0.5379 -0.7123  0.0242
13527SOL    HW242899   2.594   0.442   6.047  0.9884 -1.8072  1.7203
13528SOL     OW42900   4.431   1.347   0.641  0.2672 -0.0991  0.1584
13528SOL    HW142901   4.411   1.266   0.593  0.4018 -0.8160  1.2817
13528SOL    HW242902   4.374   1.413   0.602  1.4785 -0.2502 -2.0936
13529SOL     OW42903   2.213  10.536   4.394  0.2512  0.1679  0.0968
13529SOL    HW142904   2.259  10.460   4.359  1.1582  0.6254  0.2806
13529SOL    HW242905   2.145  10.555   4.328  0.9274  0.0650 -0.6499
13530SOL     OW42906   0.141   6.102   2.631  0.0920 -0.5991  0.2579
13530SOL    HW142907   0.156   6.016   2.594 -2.1573 -0.9947  0.1322
13530SOL    HW242908   0.181   6.098   2.718  1.5649 -1.1242 -0.4069
13531SOL     OW42909   9.255   7.708   5.302  0.0274 -0.4190 -0.1802
13531SOL    HW142910   9.304   7.655   5.364  0.3767  0.7746  0.6075
13531SOL    HW242911   9.177   7.736   5.350 -0.7217 -1.1343 -0.9556
13532SOL     OW42912   7.370   3.417   9.535  0.5389 -0.0216  0.0076
13532SOL    HW142913   7.284   3.379   9.557  0.7030 -1.1901 -1.2845
13532SOL    HW242914   7.356   3.511   9.543 -0.3581 -0.2415  1.5802
13533SOL     OW42915   5.583   0.617   1.828 -0.1683  0.1781  0.2732
13533SOL    HW142916   5.518   0.674   1.787 -1.5776 -1.8702 -0.5134
13533SOL    HW242917   5.656   0.616   1.766 -0.6783  0.1218 -0.3414
13534SOL     OW42918   8.685   5.947   8.061  0.4122  0.7754  0.3484
13534SOL    HW142919   8.751   5.976   8.124  0.2205  1.0004  0.4468
13534SOL    HW242920   8.722   5.868   8.022  1.0918  1.3518 -0.1813
13535SOL     OW42921   2.157   0.415   4.741  0.3608  0.3015  0.0266
13535SOL    HW142922   2.246   0.392   4.768  0.6940  1.8881  0.4273
13535SOL    HW242923   2.165   0.505   4.708 -0.9121  0.0927 -0.9201
13536SOL     OW42924   3.822   4.158   0.230 -0.0710 -0.1053  0.4470
13536SOL    HW142925   3.824   4.193   0.319 -1.3007  1.9365 -0.2821
13536SOL    HW242926   3.823   4.235   0.173  0.0938 -1.3449 -1.3106
13537SOL     OW42927   5.229   9.104   9.386 -0.3838 -0.9673  0.0520
13537SOL    HW142928   5.209   9.098   9.293 -3.7502 -0.3111  0.6099
13537SOL    HW242929   5.147   9.079   9.430  0.9843 -0.9339  2.8347
13538SOL     OW42930   1.115   7.643   3.588  0.3896 -0.3486 -0.2109
13538SOL    HW142931   1.172   7.702   3.638  1.0476 -0.2801 -1.0207
13538SOL    HW242932   1.171   7.610   3.517 -1.0779  1.1710 -2.1724
13539SOL     OW42933   8.561   6.894   9.723 -0.2300 -0.7562 -0.0176
13539SOL    HW142934   8.497   6.964   9.708 -0.4100 -1.0308 -0.5645
13539SOL    HW242935   8.615   6.926   9.795  0.2485  0.3472 -0.8335
13540SOL     OW42936   0.465   9.195   7.450  0.0952  0.2548  0.3874
13540SOL    HW142937   0.539   9.252   7.467 -1.3303  1.9986  1.0257
13540SOL    HW242938   0.427   9.179   7.536  1.0048 -2.5437  0.3726
13541SOL     OW42939   0.316   3.096  10.040  0.5003  0.3953 -0.0918
13541SOL    HW142940   0.269   3.018  10.071  0.0576  0.6336 -0.1544
13541SOL    HW242941   0.399   3.062  10.007  0.0453 -0.1439 -0.7197
13542SOL     OW42942   9.572   8.744   3.799 -0.5286  0.0779 -0.0424
13542SOL    HW142943   9.667   8.736   3.790 -0.5710 -1.2964  0.5170
13542SOL    HW242944   9.553   8.832   3.768  0.9193  0.3565 -0.2279
13543SOL     OW42945   1.840   8.600   5.911 -0.0556  0.4214 -0.1176
13543SOL    HW142946   1.878   8.535   5.970 -0.0187 -1.5986 -2.2458
13543SOL    HW242947   1.808   8.669   5.970 -0.1280 -1.4971  2.2738
13544SOL     OW42948   8.161  10.261   1.314 -0.2588  0.7007  0.1768
13544SOL    HW142949   8.206  10.247   1.397  1.5841  1.8688 -0.5688
13544SOL    HW242950   8.158  10.356   1.304  0.3431  0.5653 -1.4909
13545SOL     OW42951   0.728   5.420   1.567  0.2847 -0.1015 -0.3765
13545SOL    HW142952   0.783   5.498   1.570  1.5557 -0.9818  0.4432
13545SOL    HW242953   0.652   5.442   1.621  1.0617  0.2673  0.5977
13546SOL     OW42954   7.105  10.428   1.180 -0.1083  0.3286 -0.0034
13546SOL    HW142955   7.142  10.483   1.112 -0.7118  1.8376  0.8351
13546SOL    HW242956   7.171  10.426   1.249 -0.9997  2.0475  0.9853
13547SOL     OW42957   2.038   4.091   5.455 -0.3473  0.3352 -0.2607
13547SOL    HW142958   2.064   4.162   5.514  0.9277 -0.2929 -0.0368
13547SOL    HW242959   2.111   4.083   5.394 -1.4938  0.7454 -1.7503
13548SOL     OW42960   5.211   2.580   4.517  0.2081 -0.0829 -0.3817
13548SOL    HW142961   5.197   2.674   4.527 -0.7881 -0.2824  0.2752
13548SOL    HW242962   5.306   2.569   4.521  0.2816  0.7731  0.7849
13549SOL     OW42963   7.158   4.596   8.189 -0.2667  0.1805  0.0285
13549SOL    HW142964   7.085   4.567   8.136 -0.7195 -1.2831  1.3749
13549SOL    HW242965   7.200   4.515   8.219  0.5307  0.9577  1.1141
13550SOL     OW42966   1.603   3.125   7.641  0.2921 -0.0782  0.9166
13550SOL    HW142967   1.561   3.120   7.726  1.0448  1.1122  1.3792
13550SOL    HW242968   1.647   3.210   7.641  0.0111  0.1085 -0.7927
13551SOL     OW42969   8.549   2.640   7.994  0.1988 -0.4484 -0.5581
13551SOL    HW142970   8.583   2.585   7.923  1.3278 -0.1475 -0.2759
13551SOL    HW242971   8.466   2.600   8.018 -0.9006  0.1902 -2.9533
13552SOL     OW42972   2.919   1.998   1.809  0.3815 -0.4364 -0.1056
13552SOL    HW142973   3.013   1.984   1.816  0.2753 -1.2286 -0.1263
13552SOL    HW242974   2.895   2.041   1.891  0.2664 -3.2279  1.4583
13553SOL     OW42975   4.625   0.933   9.097 -0.4604  0.0122  0.4449
13553SOL    HW142976   4.532   0.956   9.092 -0.2398  1.1168  1.0536
13553SOL    HW242977   4.625   0.844   9.132 -1.2737  0.3962  1.4887
13554SOL     OW42978   7.210   5.840   1.669  0.0749 -0.4880  0.4834
13554SOL    HW142979   7.230   5.921   1.622  0.8448 -0.2814  1.1333
13554SOL    HW242980   7.118   5.848   1.694  0.6361  1.1500  2.3202
13555SOL     OW42981   8.599   6.940   7.132  0.1904  0.0154 -0.3766
13555SOL    HW142982   8.643   6.952   7.216  1.4295 -1.7957 -0.7191
13555SOL    HW242983   8.604   7.026   7.090  0.7437  0.6043  0.8505
13556SOL     OW42984   5.025   7.807   4.553  0.9779 -0.4743 -0.7015
13556SOL    HW142985   4.964   7.755   4.605  1.1455  1.3049  1.4234
13556SOL    HW242986   5.109   7.800   4.599  1.1176  1.2180 -0.6360
13557SOL     OW42987  10.556   1.248   2.297 -0.4194 -0.7222  0.3320
13557SOL    HW142988  10.566   1.158   2.328 -1.0215 -0.8588  0.1383
13557SOL    HW242989  10.562   1.301   2.377  0.2245 -0.9050  0.4136
13558SOL     OW42990   4.385   7.672   3.184 -0.4013  0.7360 -0.1042
13558SOL    HW142991   4.450   7.742   3.192  1.1237 -0.6221  0.0658
13558SOL    HW242992   4.416   7.604   3.243 -0.2747 -1.1790 -2.2364
13559SOL     OW42993   1.567   0.601   6.305 -0.1275 -0.1357 -0.5041
13559SOL    HW142994   1.490   0.656   6.317 -0.5138 -0.7536 -0.1674
13559SOL    HW242995   1.629   0.631   6.372 -0.1723  0.1798 -0.6033
13560SOL     OW42996   0.386   9.746   1.509  0.2521 -0.4568 -0.3189
13560SOL    HW142997   0.312   9.788   1.466 -0.6639 -1.2031  0.4674
13560SOL    HW242998   0.350   9.664   1.543  1.2650 -0.5031  0.6980
13561SOL     OW42999   8.815   2.936   9.091  0.0601  0.4270  0.3230
13561SOL    HW143000   8.836   2.847   9.121 -0.5771  0.3155  0.4503
13561SOL    HW243001   8.785   2.981   9.169  1.1949  1.0252  0.4378
13562SOL     OW43002  10.191   5.422   8.695 -0.6959  0.3999 -0.1705
13562SOL    HW143003  10.157   5.485   8.759  0.3883  0.9455 -0.1100
13562SOL    HW243004  10.231   5.353   8.748  3.0718  2.3986 -0.1331
13563SOL     OW43005   1.446   9.137   3.761  0.8813  0.1219  0.4750
13563SOL    HW143006   1.455   9.052   3.718  1.3387 -0.3071  1.3999
13563SOL    HW243007   1.362   9.171   3.729  0.8924 -0.4831 -0.2236
13564SOL     OW43008   3.688  10.536   8.614  0.0395  0.1493 -0.2691
13564SOL    HW143009   3.679  10.552   8.708  2.0515 -0.8645  0.1597
13564SOL    HW243010   3.602  10.506   8.586 -0.8199  1.2460  1.0689
13565SOL     OW43011   6.042   4.067  10.211  0.2521  0.5213  0.3812
13565SOL    HW143012   5.994   4.134  10.163 -1.5900 -0.0268  1.3730
13565SOL    HW243013   6.022   3.986  10.165  2.9977  0.6263 -1.2137
13566SOL     OW43014   5.207   3.109   8.790 -0.2808  0.2511 -0.6535
13566SOL    HW143015   5.166   3.125   8.875  0.2867 -0.8256 -0.1491
13566SOL    HW243016   5.291   3.068   8.811  0.2233  0.6976 -1.7175
13567SOL     OW43017   6.815   3.329   8.315 -0.0800 -1.0004 -0.0496
13567SOL    HW143018   6.768   3.246   8.324  1.5167 -2.3877 -3.1770
13567SOL    HW243019   6.789   3.362   8.230 -0.9058  1.9846  1.2369
13568SOL     OW43020   6.542   8.706   5.319 -0.1931 -0.3677  0.0868
13568SOL    HW143021   6.452   8.703   5.353 -0.2046 -1.7654 -0.0022
13568SOL    HW243022   6.556   8.798   5.297 -0.8491  0.2602  2.0662
13569SOL     OW43023  10.502   5.100   3.446 -0.0514 -0.0133  0.1461
13569SOL    HW143024  10.526   5.036   3.513 -2.0225 -1.6484 -0.5957
13569SOL    HW243025  10.557   5.176   3.464  1.1528 -1.2723  2.1380
13570SOL     OW43026   1.293   9.563   5.152  0.8964 -0.1380  0.0659
13570SOL    HW143027   1.207   9.521   5.152  1.1605 -0.7046  1.0038
13570SOL    HW243028   1.354   9.494   5.178  1.6429  0.2606 -0.5796
13571SOL     OW43029   9.870   2.091   6.069 -0.8022 -0.6196  0.5517
13571SOL    HW143030   9.815   2.016   6.090 -1.4758  0.4412  2.8422
13571SOL    HW243031   9.953   2.074   6.113 -0.2354 -0.9106 -0.5822
13572SOL     OW43032   4.699   7.386   2.368  0.3921 -0.3039 -0.1319
13572SOL    HW143033   4.670   7.309   2.415 -1.0252 -0.4743 -1.2074
13572SOL    HW243034   4.713   7.356   2.278 -1.3746  0.8729 -0.8687
13573SOL     OW43035   4.511   8.791   8.123  0.4307  0.5127 -0.1102
13573SOL    HW143036   4.454   8.856   8.081 -0.2996 -0.2422 -0.3095
13573SOL    HW243037   4.585   8.781   8.063  0.7458  1.4299  0.1061
13574SOL     OW43038   9.227   4.417   0.455  0.1790 -0.2674 -0.1090
13574SOL    HW143039   9.259   4.378   0.374  1.6063 -0.7455  0.6569
13574SOL    HW243040   9.214   4.343   0.514 -1.5414  0.0060 -0.0953
13575SOL     OW43041   0.745   8.936  10.045  0.3285 -0.4384  0.7233
13575SOL    HW143042   0.741   8.894   9.960 -1.9507  0.4231  0.3514
13575SOL    HW243043   0.838   8.958  10.057  0.9981 -2.2956 -0.6228
13576SOL     OW43044   5.728   7.063   2.911  0.3753  0.1073  0.2313
13576SOL    HW143045   5.725   7.128   2.982  0.3349 -0.8490  1.1429
13576SOL    HW243046   5.704   7.111   2.833 -0.5249  1.0132  1.0338
13577SOL     OW43047   7.649   0.442   3.495 -0.1750 -0.1246 -0.2488
13577SOL    HW143048   7.718   0.481   3.442  1.2479 -1.6226  0.3917
13577SOL    HW243049   7.584   0.411   3.432  0.5920 -0.2236 -1.0005
13578SOL     OW43050  10.063   7.225   7.861 -0.5258 -0.0079 -0.3667
13578SOL    HW143051  10.100   7.294   7.917 -0.7112 -0.4522  0.3207
13578SOL    HW243052   9.979   7.205   7.901 -0.4007 -0.7408 -0.4634
13579SOL     OW43053   7.144   5.040   7.176 -0.4323 -0.4068  0.7376
13579SOL    HW143054   7.067   5.081   7.135  0.7643 -0.0660 -1.2954
13579SOL    HW243055   7.193   5.003   7.103  2.2358  0.9035  1.7427
13580SOL     OW43056   8.605   6.124   3.796 -0.3409 -0.7147  0.0418
13580SOL    HW143057   8.626   6.172   3.715  1.5888 -1.2298  0.1798
13580SOL    HW243058   8.517   6.153   3.819 -0.4963  0.2870 -1.6422
13581SOL     OW43059   0.172   2.381   5.622  0.4070  0.0079 -0.1679
13581SOL    HW143060   0.155   2.313   5.557  0.5419 -0.4069  0.2281
13581SOL    HW243061   0.173   2.335   5.706 -0.1585  0.6028  0.1747
13582SOL     OW43062   6.204   7.842   4.763  0.3698 -0.0994  0.5271
13582SOL    HW143063   6.165   7.760   4.732  2.9861 -1.3361  0.1665
13582SOL    HW243064   6.178   7.908   4.699 -0.8382 -0.8844  0.1833
13583SOL     OW43065   3.727   4.087   8.274  0.4738  0.3508 -0.0396
13583SOL    HW143066   3.632   4.090   8.264  0.5275  0.2265 -0.5984
13583SOL    HW243067   3.760   4.159   8.220  0.6400  1.1021  1.0259
13584SOL     OW43068   6.755   0.440   0.525 -0.0901  0.0523 -0.0587
13584SOL    HW143069   6.741   0.511   0.587 -1.0179 -0.9485  0.9322
13584SOL    HW243070   6.811   0.377   0.573  1.7632  0.6282 -1.3506
13585SOL     OW43071   9.807   6.321   1.496  0.5195 -0.0207  0.6460
13585SOL    HW143072   9.883   6.335   1.439 -0.3926 -1.0576 -0.8811
13585SOL    HW243073   9.755   6.401   1.487  0.9535  0.3038  0.9631
13586SOL     OW43074   6.707   6.935   4.670  0.2367 -0.2503  0.3043
13586SOL    HW143075   6.698   6.913   4.762 -0.2002  0.7880  0.5267
13586SOL    HW243076   6.624   6.978   4.647  1.6362  2.7829  0.4061
13587SOL     OW43077   1.776   2.112   5.509  0.5940  0.3207 -0.6217
13587SOL    HW143078   1.820   2.089   5.591  2.3282  0.3406 -1.5088
13587SOL    HW243079   1.782   2.207   5.505 -1.8333  0.5802  0.4569
13588SOL     OW43080   5.791   1.292   5.908 -0.5365 -1.2443  0.1291
13588SOL    HW143081   5.876   1.269   5.946 -0.0757 -1.6916 -1.1157
13588SOL    HW243082   5.808   1.299   5.814 -1.1774  1.8640  0.1589
13589SOL     OW43083   5.039   4.857   1.487 -0.0906  0.0003 -0.9544
13589SOL    HW143084   5.037   4.951   1.467 -0.0890 -0.2231 -2.0633
13589SOL    HW243085   5.071   4.852   1.577  1.2412  0.9939 -1.3407
13590SOL     OW43086   1.289   3.578   0.347  0.4399  0.2497  0.2042
13590SOL    HW143087   1.373   3.535   0.362 -0.1403  0.0239  3.5469
13590SOL    HW243088   1.303   3.668   0.376 -0.6454 -0.0150  1.6580
13591SOL     OW43089   1.026   8.643   8.686  0.3370  0.2263 -0.0750
13591SOL    HW143090   1.076   8.586   8.628 -0.1243 -0.0598 -0.2004
13591SOL    HW243091   1.016   8.725   8.637  1.5061  0.6372  0.3420
13592SOL     OW43092   6.873  10.480   1.300  0.4395 -0.3463  0.1496
13592SOL    HW143093   6.865  10.396   1.345  0.3186 -0.8023 -0.6990
13592SOL    HW243094   6.957  10.474   1.254  0.2757 -0.1434 -0.1791
13593SOL     OW43095   8.667   4.879   3.247 -0.0652 -0.3216  0.4066
13593SOL    HW143096   8.643   4.833   3.167 -0.3061  0.5642 -0.0395
13593SOL    HW243097   8.736   4.940   3.220 -0.1608 -0.0060  0.8727
13594SOL     OW43098   2.714   4.550   6.574 -0.7919  0.6518  0.5055
13594SOL    HW143099   2.738   4.633   6.615 -0.3236 -0.0187  1.6360
13594SOL    HW243100   2.623   4.561   6.548 -0.8197  1.4190  0.9159
13595SOL     OW43101   2.946   0.710   4.441  0.1972 -0.2547  0.4059
13595SOL    HW143102   2.972   0.798   4.466 -0.3455 -0.1882  0.7582
13595SOL    HW243103   2.885   0.683   4.510 -1.4777 -0.0159 -0.9300
13596SOL     OW43104   5.756   4.876   4.435  0.3262 -0.5908  0.4907
13596SOL    HW143105   5.837   4.848   4.392  0.3820  0.5037 -0.1504
13596SOL    HW243106   5.771   4.968   4.457 -0.3683 -0.6589  1.2914
13597SOL     OW43107   3.042   3.184   8.857  0.1607 -0.2945  0.4012
13597SOL    HW143108   3.118   3.242   8.861 -1.0562  1.5111 -0.9485
13597SOL    HW243109   3.004   3.187   8.945  0.4239  0.5652  0.4945
13598SOL     OW43110   0.542   5.038  10.102 -0.3491 -0.3477  0.3137
13598SOL    HW143111   0.598   5.106  10.066 -2.1032  0.9513 -0.1004
13598SOL    HW243112   0.487   5.010  10.028 -0.7045 -1.0972  0.8448
13599SOL     OW43113   5.100   0.410   3.267 -0.3234 -0.4718  0.8176
13599SOL    HW143114   5.171   0.385   3.208 -1.2935  0.8505 -1.0196
13599SOL    HW243115   5.020   0.386   3.219 -1.1457  0.6828  1.5797
13600SOL     OW43116   9.128   1.840   3.994 -0.4835 -0.1775  0.3230
13600SOL    HW143117   9.034   1.818   3.994 -0.8984  1.4248  1.3910
13600SOL    HW243118   9.139   1.895   4.071  1.4921 -0.8537  0.5618
13601SOL     OW43119   4.780   8.440   8.024 -0.2034  0.0478 -0.4982
13601SOL    HW143120   4.866   8.410   7.998  0.0507  0.2360  0.1004
13601SOL    HW243121   4.760   8.389   8.103 -0.8157 -0.2911 -0.8658
13602SOL     OW43122   1.949   4.755   5.073  0.3636  0.7386  0.7797
13602SOL    HW143123   1.940   4.823   5.139 -1.2373  1.9797 -0.6188
13602SOL    HW243124   1.905   4.791   4.996 -0.5086 -1.8634 -0.0438
13603SOL     OW43125   4.426   0.771   7.330  0.0212 -0.1427 -0.4505
13603SOL    HW143126   4.421   0.825   7.409  0.0360 -0.5492 -0.1662
13603SOL    HW243127   4.341   0.727   7.326  0.8367 -1.9491  0.6765
13604SOL     OW43128   7.730   1.615   4.233  0.3962  0.6200  0.4440
13604SOL    HW143129   7.766   1.562   4.304 -0.3948  1.8199  1.7918
13604SOL    HW243130   7.715   1.701   4.272 -2.0929  0.7219 -0.5662
13605SOL     OW43131   6.958   7.739   7.755  0.3709 -0.5209  0.0635
13605SOL    HW143132   6.937   7.793   7.678  0.4965 -1.0200 -0.3278
13605SOL    HW243133   7.012   7.796   7.810  1.2517 -0.5369 -0.7579
13606SOL     OW43134   4.380   5.675   2.338  0.5179 -0.4840 -0.3373
13606SOL    HW143135   4.319   5.602   2.331  0.2571 -0.2138 -0.8607
13606SOL    HW243136   4.333   5.742   2.386  1.2724 -1.2022  1.5307
13607SOL     OW43137  10.225  10.381   7.559  0.1304  0.5226 -0.0213
13607SOL    HW143138  10.249  10.445   7.625 -0.0340 -0.0955  0.6565
13607SOL    HW243139  10.309  10.348   7.526  0.2344  0.0041  0.7200
13608SOL     OW43140   7.171   9.849   2.695  0.0616  0.2844  0.7776
13608SOL    HW143141   7.135   9.877   2.611  2.1739 -0.7238 -0.5359
13608SOL    HW243142   7.261   9.824   2.676  0.5581 -0.1570  3.3263
13609SOL     OW43143   0.016   8.966   8.488 -0.0065  0.2637 -0.4160
13609SOL    HW143144   0.013   8.951   8.394 -2.0580  1.0850 -0.5409
13609SOL    HW243145   0.106   8.993   8.505  0.0777  1.4708 -2.3966
13610SOL     OW43146   9.779   7.187   9.179  0.5617  0.0666 -0.0816
13610SOL    HW143147   9.689   7.215   9.196 -0.1196 -1.3171 -1.2442
13610SOL    HW243148   9.832   7.265   9.196 -0.4020  0.0897  4.0382
13611SOL     OW43149   1.171   0.274   8.291 -0.0065 -0.2514 -0.5460
13611SOL    HW143150   1.209   0.358   8.317 -1.7757  0.8254 -1.2641
13611SOL    HW243151   1.165   0.279   8.196 -2.1968 -0.2044 -0.4562
13612SOL     OW43152   0.239   8.994  10.419 -0.1135  0.7715  0.8608
13612SOL    HW143153   0.247   8.941  10.339  0.5737  2.0632  0.0349
13612SOL    HW243154   0.163   8.957  10.464  0.3333 -0.9021  0.3357
13613SOL     OW43155   6.688   5.942   9.356  0.3737 -0.4445  0.0292
13613SOL    HW143156   6.777   5.921   9.385  0.7404  0.2555 -0.5438
13613SOL    HW243157   6.701   6.003   9.283 -0.5994  0.2260  0.4041
13614SOL     OW43158   2.188   5.737   0.994 -0.3070 -0.4563  0.2190
13614SOL    HW143159   2.205   5.830   0.980  0.2595 -0.3062  1.6733
13614SOL    HW243160   2.274   5.697   1.003 -0.5608 -0.9914  0.3337
13615SOL     OW43161   1.607   4.681   4.554  0.0726 -0.4718 -0.0278
13615SOL    HW143162   1.534   4.691   4.493 -0.3794 -0.2190  0.5438
13615SOL    HW243163   1.628   4.770   4.581 -0.4367 -0.6551  0.9995
13616SOL     OW43164   9.312  10.197   7.677 -0.3748 -0.0164 -0.5755
13616SOL    HW143165   9.338  10.274   7.627 -0.3883 -0.0968 -0.7081
13616SOL    HW243166   9.258  10.231   7.748  2.0510  0.4331  1.1648
13617SOL     OW43167   8.891   9.920   1.128 -0.4987  0.5437 -0.3983
13617SOL    HW143168   8.910   9.866   1.052 -2.5650  1.3095 -1.5519
13617SOL    HW243169   8.844   9.861   1.187  0.7055  0.0734  0.1329
13618SOL     OW43170   3.451   5.290   3.046  0.2993 -0.0987  0.2849
13618SOL    HW143171   3.476   5.355   2.981 -1.2585  0.8819  0.6228
13618SOL    HW243172   3.355   5.291   3.047  0.2600 -0.6345  2.0480
13619SOL     OW43173   8.883   5.815   6.662  0.1919 -0.6134 -0.1775
13619SOL    HW143174   8.916   5.894   6.705 -0.2747 -0.2289 -0.5295
13619SOL    HW243175   8.896   5.831   6.569 -1.0873 -0.4117 -0.3325
13620SOL     OW43176   7.440   7.018  10.448 -0.1428  0.5220  0.0747
13620SOL    HW143177   7.358   7.016  10.497 -1.1243 -0.5018 -1.5354
13620SOL    HW243178   7.471   7.109  10.456 -2.0977  1.2603 -0.3447
13621SOL     OW43179   7.080   3.306   0.931 -0.3940 -0.0700  0.1487
13621SOL    HW143180   7.089   3.240   0.862  2.5942  2.1642 -1.8453
13621SOL    HW243181   7.117   3.264   1.009 -0.8632 -1.5494 -0.3982
13622SOL     OW43182   3.920   5.469   8.520 -0.1421  0.4298 -0.4275
13622SOL    HW143183   3.995   5.442   8.573  0.7623 -0.1182 -1.9167
13622SOL    HW243184   3.848   5.477   8.583  0.1426 -2.9464  0.5801
13623SOL     OW43185   8.171   0.379   7.834 -0.0411 -0.0533  0.1845
13623SOL    HW143186   8.218   0.461   7.848  0.1177 -0.1728  0.3615
13623SOL    HW243187   8.132   0.388   7.747 -0.8838  0.6193  0.6265
13624SOL     OW43188   7.977   3.048   7.984  0.1104 -0.1510 -0.5352
13624SOL    HW143189   7.889   3.086   7.976  0.0706  0.0428  0.6666
13624SOL    HW243190   7.982   2.984   7.913 -2.0516 -2.1371  0.9368
13625SOL     OW43191   3.166   9.527   9.023 -0.3367  0.1514 -0.3203
13625SOL    HW143192   3.225   9.565   8.958  0.6629  3.1214  2.0920
13625SOL    HW243193   3.223   9.502   9.096 -1.5039 -2.3224 -0.1479
13626SOL     OW43194   0.163   5.264   3.741  0.0552 -0.1461  0.7419
13626SOL    HW143195   0.235   5.313   3.781  0.6362 -0.8045  0.5174
13626SOL    HW243196   0.204   5.214   3.670 -0.3543 -1.6264  1.5082
13627SOL     OW43197   7.124   6.864   5.273  0.1744  0.0941  0.1278
13627SOL    HW143198   7.037   6.825   5.288  0.1224  0.5572  1.1336
13627SOL    HW243199   7.132   6.930   5.341  0.5666  1.3468 -1.0922
13628SOL     OW43200  10.205   5.768   0.206 -0.4591  0.0944 -0.2337
13628SOL    HW143201  10.214   5.687   0.155  0.1424 -0.0918  0.1507
13628SOL    HW243202  10.242   5.836   0.150 -0.0565 -0.0644 -0.1645
13629SOL     OW43203   1.062   0.050   5.303 -0.1106 -0.9210 -0.1550
13629SOL    HW143204   1.088   0.113   5.236 -0.4624  0.6267  1.1061
13629SOL    HW243205   0.978   0.081   5.335  0.1326 -1.4984  1.1272
13630SOL     OW43206   3.203   6.648   1.127  0.5102  0.1822 -0.0118
13630SOL    HW143207   3.147   6.632   1.203 -0.5059 -1.2995 -1.0192
13630SOL    HW243208   3.239   6.562   1.105  0.0175  0.3982 -1.7807
13631SOL     OW43209   1.207   0.454  10.229  0.0910 -0.2565  0.8442
13631SOL    HW143210   1.275   0.389  10.216  1.1211  0.3461  2.8390
13631SOL    HW243211   1.246   0.536  10.199 -0.5254 -0.2096  0.1123
13632SOL     OW43212   2.200   8.253  10.055  0.4935  0.1780 -0.0607
13632SOL    HW143213   2.253   8.189  10.103 -0.3749 -0.5389 -0.0433
13632SOL    HW243214   2.163   8.204   9.982  0.1311  0.7657 -0.2772
13633SOL     OW43215   8.257   4.204   4.576 -0.2065  0.3666 -0.1442
13633SOL    HW143216   8.281   4.142   4.508 -0.0003 -0.0841  0.3346
13633SOL    HW243217   8.238   4.150   4.653  1.7605  0.9687  0.8292
13634SOL     OW43218  10.208   5.653   2.451  0.1409  0.3818  0.2452
13634SOL    HW143219  10.120   5.628   2.477  0.0079 -1.0311 -1.3521
13634SOL    HW243220  10.266   5.609   2.513 -0.2448  0.1031  0.4067
13635SOL     OW43221   3.303   5.989   3.168 -0.1778  0.3206  0.6851
13635SOL    HW143222   3.260   5.942   3.097 -1.6398  0.5168  1.3987
13635SOL    HW243223   3.231   6.032   3.215  0.3332 -2.0528  3.9582
13636SOL     OW43224   8.073   9.651   3.035 -0.2632  0.1943  0.0043
13636SOL    HW143225   8.165   9.650   3.060 -0.5239  0.3766  1.0135
13636SOL    HW243226   8.043   9.739   3.058 -1.2357 -0.5569  1.8142
13637SOL     OW43227   9.663   6.731   1.131 -0.2368 -0.8716  0.2605
13637SOL    HW143228   9.569   6.717   1.121 -0.5769 -0.6063  2.6124
13637SOL    HW243229   9.700   6.643   1.132 -0.6345 -1.0380  0.7047
13638SOL     OW43230   7.927   6.628   1.942 -0.0203 -0.0382 -0.1270
13638SOL    HW143231   7.872   6.636   2.019 -1.6489  0.1621 -1.2715
13638SOL    HW243232   7.901   6.701   1.886  1.7941  0.3792 -0.4926
13639SOL     OW43233   9.364   9.372   5.063  0.2284  0.2800  0.3301
13639SOL    HW143234   9.369   9.465   5.085  0.1124 -0.2561  2.9640
13639SOL    HW243235   9.392   9.367   4.972 -0.1504  2.9239 -0.0084
13640SOL     OW43236   0.625   2.616   1.378 -0.6757 -0.4248  0.1993
13640SOL    HW143237   0.643   2.538   1.326 -1.6657 -0.0451 -0.7472
13640SOL    HW243238   0.547   2.655   1.338 -1.0567  0.2664  1.5416
13641SOL     OW43239   2.393   4.200   1.823 -0.2559  0.0982  0.0357
13641SOL    HW143240   2.306   4.164   1.841 -0.7080  0.9648 -0.3189
13641SOL    HW243241   2.440   4.193   1.905 -1.4083  1.6206  0.8744
13642SOL     OW43242   5.539   6.341   4.744 -0.3062 -0.1353  0.1592
13642SOL    HW143243   5.533   6.247   4.729 -0.8160 -0.5353  2.5419
13642SOL    HW243244   5.617   6.368   4.694  0.4917 -2.0187  0.2987
13643SOL     OW43245   5.523   9.419   5.799  0.0204  0.6780  0.1597
13643SOL    HW143246   5.607   9.405   5.755  1.0621 -1.6518  2.5867
13643SOL    HW243247   5.463   9.357   5.758 -0.1065  1.2327 -0.5123
13644SOL     OW43248   1.473   7.813   9.980 -0.5878 -0.7869  0.0553
13644SOL    HW143249   1.550   7.832  10.033 -0.6841 -0.9747  0.2668
13644SOL    HW243250   1.488   7.859   9.897 -0.3275 -0.6866  0.1576
13645SOL     OW43251   3.471   1.971   6.847 -0.1138  0.0482  0.2680
13645SOL    HW143252   3.477   1.905   6.778 -1.1046  0.5012 -0.2868
13645SOL    HW243253   3.489   2.054   6.801 -1.2512  0.4054  0.4309
13646SOL     OW43254   9.055   2.188   0.416  0.6769 -0.2994  0.0796
13646SOL    HW143255   9.101   2.211   0.335  1.2119  1.8401  0.9190
13646SOL    HW243256   9.125   2.163   0.476  0.2723 -1.9901 -0.1175
13647SOL     OW43257   5.784   4.063   4.700  0.1438  0.4799 -0.1988
13647SOL    HW143258   5.767   4.106   4.616 -0.1469 -0.4294 -0.6241
13647SOL    HW243259   5.771   4.131   4.765  0.8775  1.3405 -0.9151
13648SOL     OW43260   4.012   3.139   8.867 -0.2716 -0.3052  0.1005
13648SOL    HW143261   4.056   3.159   8.949 -1.2046  1.1302  0.2728
13648SOL    HW243262   3.979   3.223   8.836  0.9702 -0.6072 -2.3111
13649SOL     OW43263   6.482   9.186   6.982  0.5389  0.4536  0.0694
13649SOL    HW143264   6.390   9.199   6.959  0.3561 -0.6110  0.1814
13649SOL    HW243265   6.522   9.152   6.903  1.1406  2.0960 -0.3883
13650SOL     OW43266   7.017   1.403   3.640  0.2168 -0.0923 -0.3148
13650SOL    HW143267   6.996   1.452   3.561 -0.0959  0.7407  0.2659
13650SOL    HW243268   7.091   1.348   3.615  1.1881  1.3526 -0.7554
13651SOL     OW43269   9.730   1.352   4.014 -1.1807  0.4206 -0.1409
13651SOL    HW143270   9.667   1.332   3.944 -2.0298  0.9729  0.4497
13651SOL    HW243271   9.677   1.357   4.093 -0.2176 -0.2537  0.5707
13652SOL     OW43272   3.462   2.575   6.711  0.2451 -0.3801  0.1193
13652SOL    HW143273   3.396   2.541   6.650  0.9716 -3.5254  0.8853
13652SOL    HW243274   3.514   2.636   6.659  0.2823 -2.2559 -2.2126
13653SOL     OW43275   9.077   4.000   4.484 -0.6115  0.2594  0.5273
13653SOL    HW143276   9.032   3.925   4.523 -0.9509  0.0862 -0.1781
13653SOL    HW243277   9.040   4.008   4.396  1.5196 -0.5829 -0.5279
13654SOL     OW43278  10.271   0.615   9.470 -0.0362  0.1774 -0.0568
13654SOL    HW143279  10.246   0.527   9.498  0.2806 -0.5113 -1.8395
13654SOL    HW243280  10.217   0.673   9.523  1.3287 -0.9598  2.7998
13655SOL     OW43281   0.168   4.043   2.782  0.2322  0.2256  0.5391
13655SOL    HW143282   0.173   4.000   2.697  2.1553  1.9565 -0.3303
13655SOL    HW243283   0.080   4.082   2.785  0.6520  1.4465 -1.3880
13656SOL     OW43284   7.544   1.304   7.765 -0.2894 -0.4261 -0.3811
13656SOL    HW143285   7.595   1.248   7.707  1.6642  1.0653 -0.1756
13656SOL    HW243286   7.570   1.278   7.853 -0.8367 -0.4954 -0.2330
13657SOL     OW43287   6.041   5.017   9.099  0.6056 -0.7721 -0.4041
13657SOL    HW143288   6.003   5.104   9.110  0.0672 -1.1127  0.5174
13657SOL    HW243289   6.108   5.029   9.032 -0.5497  0.0141 -1.4673
13658SOL     OW43290   9.554   8.791   3.198 -0.6774  0.1887 -0.0712
13658SOL    HW143291   9.589   8.738   3.270 -2.0579  0.6929  1.0218
13658SOL    HW243292   9.630   8.810   3.143  0.4830  0.0264  1.4053
13659SOL     OW43293   2.348   1.478   7.900  0.5371  0.1962  0.2986
13659SOL    HW143294   2.431   1.521   7.884  0.4450  0.5297  0.7073
13659SOL    HW243295   2.282   1.545   7.883  0.4163  0.3986  1.4856
13660SOL     OW43296   7.939   2.147   7.382 -0.4160 -0.5961 -0.0742
13660SOL    HW143297   7.993   2.122   7.307 -1.1909 -1.3640 -0.3971
13660SOL    HW243298   7.922   2.241   7.368  1.3737 -0.1530  0.4111
13661SOL     OW43299   3.177   2.714  10.201  0.1786 -0.1880  0.0253
13661SOL    HW143300   3.098   2.683  10.157 -0.0953  0.3945  0.1011
13661SOL    HW243301   3.242   2.720  10.131 -0.5994  1.9581 -0.5888
13662SOL     OW43302   8.030   7.958   9.493  0.0386 -0.0625  0.3090
13662SOL    HW143303   8.014   7.875   9.448  0.6894  0.1914 -0.4161
13662SOL    HW243304   8.083   7.934   9.569 -0.1750 -0.3671  0.3630
13663SOL     OW43305   1.261   7.715   4.318 -0.2040  0.9249  0.5762
13663SOL    HW143306   1.322   7.656   4.361 -1.7775 -0.7480  0.6302
13663SOL    HW243307   1.209   7.753   4.389 -2.1740 -1.1206  0.3204
13664SOL     OW43308   5.979   6.232   2.712 -0.1186  0.2431  0.0972
13664SOL    HW143309   5.889   6.262   2.725  0.2262  0.9635  0.9042
13664SOL    HW243310   6.023   6.305   2.669  0.0489 -0.1640 -0.4296
13665SOL     OW43311   2.325   3.477   1.231 -0.3235 -0.4543  0.1600
13665SOL    HW143312   2.293   3.562   1.259  0.0177  0.0695 -0.9790
13665SOL    HW243313   2.356   3.435   1.311  1.0862  1.1836  0.5176
13666SOL     OW43314   3.131   5.705   6.884 -0.5143  0.0066  0.2027
13666SOL    HW143315   3.189   5.645   6.931  0.6506  0.3919 -0.6830
13666SOL    HW243316   3.123   5.781   6.942  0.7806  0.4136 -0.1239
13667SOL     OW43317   5.717  10.107   8.831 -0.1140  0.8176  0.3152
13667SOL    HW143318   5.717  10.194   8.871 -1.9424  0.3948  1.3561
13667SOL    HW243319   5.790  10.061   8.872 -1.0217  0.8966  2.0955
13668SOL     OW43320   5.725   4.426   3.488 -0.1800 -0.0809  0.3093
13668SOL    HW143321   5.630   4.430   3.496 -0.4780  0.7450 -2.5792
13668SOL    HW243322   5.758   4.455   3.573 -2.5197  0.7584  0.9837
13669SOL     OW43323   9.514   1.381   1.592 -0.5096  0.1877 -0.4511
13669SOL    HW143324   9.585   1.396   1.529  0.3884  1.1387  0.7297
13669SOL    HW243325   9.476   1.468   1.607 -1.1002 -0.1192 -0.1337
13670SOL     OW43326   7.035   9.421   4.582  0.0690 -0.5518  0.2486
13670SOL    HW143327   6.955   9.473   4.575 -0.8355 -1.4502  2.7802
13670SOL    HW243328   7.008   9.342   4.629  1.9481 -2.1203 -1.1243
13671SOL     OW43329   9.386   2.082   5.633 -0.2686  0.2974 -0.1793
13671SOL    HW143330   9.418   2.141   5.564 -1.3447 -0.4268 -1.3447
13671SOL    HW243331   9.309   2.126   5.668 -0.4525  0.0902 -0.3178
13672SOL     OW43332   7.972   7.234   5.290  0.2423  0.0739  0.0730
13672SOL    HW143333   7.894   7.187   5.319 -1.0453 -1.2020 -4.5534
13672SOL    HW243334   7.938   7.310   5.242  1.8087 -0.1194 -1.4392
13673SOL     OW43335   3.910   7.277   8.511  0.2434  0.0539 -0.4227
13673SOL    HW143336   3.867   7.226   8.580  0.7430 -0.4047 -0.4412
13673SOL    HW243337   3.856   7.355   8.502  1.0548  0.9326  1.6274
13674SOL     OW43338   7.051   7.987   0.991 -0.6213  0.2493 -0.1852
13674SOL    HW143339   7.061   8.066   1.043 -0.1898  0.8186 -1.0995
13674SOL    HW243340   7.013   7.923   1.051 -0.9811  1.1465  0.5643
13675SOL     OW43341   2.170  10.508   6.810 -0.0831  0.4257 -0.5603
13675SOL    HW143342   2.151  10.536   6.900 -0.4511 -0.6308 -0.2980
13675SOL    HW243343   2.259  10.475   6.813  0.5661  2.0235 -0.9978
13676SOL     OW43344   3.369   6.870   1.876 -0.0601 -0.5980  0.4281
13676SOL    HW143345   3.323   6.827   1.948 -2.3791  0.6230 -0.2354
13676SOL    HW243346   3.355   6.812   1.801  0.5617 -0.8233  0.4799
13677SOL     OW43347   1.512   0.921   8.722  0.4102 -0.0775 -0.7823
13677SOL    HW143348   1.443   0.857   8.740  2.0620 -1.8051 -0.2441
13677SOL    HW243349   1.502   0.941   8.629  0.2821 -1.6751 -1.1438
13678SOL     OW43350   3.406   0.721   3.787  0.0105 -0.0110  0.1990
13678SOL    HW143351   3.387   0.810   3.816  0.4910  0.0495  0.3285
13678SOL    HW243352   3.497   0.705   3.813  0.3000 -0.1276 -0.8557
13679SOL     OW43353   8.174   5.427  10.305  0.2306 -0.0076 -0.1885
13679SOL    HW143354   8.255   5.381  10.281 -0.2320 -0.2340 -1.3762
13679SOL    HW243355   8.163   5.407  10.398  1.2869 -0.3681 -0.1177
13680SOL     OW43356   5.389   6.152   8.688 -0.4570 -0.0824  0.2420
13680SOL    HW143357   5.308   6.100   8.689 -0.4009 -0.2439 -1.2346
13680SOL    HW243358   5.452   6.097   8.643 -0.0253  0.7376 -0.1837
13681SOL     OW43359   8.016   1.092   1.227 -0.0396 -0.0790  0.6303
13681SOL    HW143360   7.994   1.011   1.182  0.7354 -0.0716  0.2261
13681SOL    HW243361   8.106   1.112   1.200 -0.1687  0.8407  0.8317
13682SOL     OW43362   9.429   7.702   1.782  0.8206  0.6936 -0.0268
13682SOL    HW143363   9.374   7.727   1.708  1.0812 -0.5784 -0.6692
13682SOL    HW243364   9.429   7.779   1.839 -0.8744  1.0325 -0.4449
13683SOL     OW43365   9.657   5.666   9.418  0.2874  0.0315 -0.4669
13683SOL    HW143366   9.702   5.718   9.351  0.8411 -1.2505 -1.1388
13683SOL    HW243367   9.572   5.646   9.379  0.9266 -1.4236 -1.1895
13684SOL     OW43368  10.194   9.000   3.681 -0.0340  0.2748  0.2194
13684SOL    HW143369  10.201   9.083   3.634  0.9213  0.3571  0.4869
13684SOL    HW243370  10.100   8.981   3.684 -0.1275  0.3823 -1.5055
13685SOL     OW43371   0.580   6.028   7.530 -0.0861  0.2092  0.3196
13685SOL    HW143372   0.660   6.024   7.478  2.2829  0.7430  3.5609
13685SOL    HW243373   0.517   5.973   7.483  2.6509 -1.4590 -1.6727
13686SOL     OW43374   6.444   5.420   0.975  0.0725 -0.0011  0.0726
13686SOL    HW143375   6.442   5.495   1.035  0.0787 -1.0325  1.4353
13686SOL    HW243376   6.353   5.411   0.945 -0.1194  0.0068  0.6345
13687SOL     OW43377   4.673   0.379   3.874  0.0944 -0.0233  0.7243
13687SOL    HW143378   4.662   0.284   3.864  1.1153 -0.0973  0.0432
13687SOL    HW243379   4.767   0.390   3.888 -0.2851  0.7364  3.1060
13688SOL     OW43380  10.558   8.322   7.718  0.1798 -0.4699 -0.2109
13688SOL    HW143381  10.653   8.322   7.735  0.1939  2.3039  0.2017
13688SOL    HW243382  10.521   8.370   7.793 -1.5106 -1.1054 -0.6023
13689SOL     OW43383   2.030   3.711   0.232  0.2646 -0.1513  0.0418
13689SOL    HW143384   2.093   3.766   0.186  0.7340 -1.4655 -0.9453
13689SOL    HW243385   2.084   3.647   0.279 -0.3099 -0.6648  0.0167
13690SOL     OW43386   1.041  10.562   1.849 -0.4133  0.2465 -0.9618
13690SOL    HW143387   1.035  10.585   1.756 -0.4570  0.0788 -1.0018
13690SOL    HW243388   1.133  10.538   1.862 -0.6785 -1.0398 -1.2822
13691SOL     OW43389   5.842   8.757   7.618 -0.0738 -0.6662  0.0340
13691SOL    HW143390   5.753   8.764   7.582 -0.0878  0.2768  0.2488
13691SOL    HW243391   5.832   8.704   7.697 -0.3038 -1.3110 -0.4182
13692SOL     OW43392   0.577   4.978   2.214 -0.4053  0.2139 -0.0206
13692SOL    HW143393   0.565   4.956   2.121 -1.2077 -0.6049  0.2582
13692SOL    HW243394   0.665   4.948   2.235 -0.4528 -0.1824 -0.3723
13693SOL     OW43395   9.121   6.943   5.637 -0.0384  0.0079 -0.3076
13693SOL    HW143396   9.133   6.858   5.679  1.4611  1.2070  1.9563
13693SOL    HW243397   9.164   6.935   5.552 -2.1266 -2.1856 -1.2588
13694SOL     OW43398   5.552   2.094   5.838 -0.1716  0.1807 -0.0967
13694SOL    HW143399   5.477   2.057   5.884  0.3204  0.0650  0.6275
13694SOL    HW243400   5.572   2.032   5.768  0.9752 -1.2383  1.4243
13695SOL     OW43401   9.877   7.273   7.588 -0.5454 -0.4492 -0.3653
13695SOL    HW143402   9.851   7.349   7.535  0.2551 -0.8175 -1.3013
13695SOL    HW243403   9.961   7.246   7.553 -1.6835 -2.9894 -1.3787
13696SOL     OW43404   6.670   0.186   7.667  0.5084  0.1620 -0.6518
13696SOL    HW143405   6.713   0.228   7.592 -0.8845 -1.3406 -2.3900
13696SOL    HW243406   6.734   0.192   7.738  2.3276  0.7130 -2.2535
13697SOL     OW43407   8.498   0.877   5.132 -0.4161  0.0984 -0.3788
13697SOL    HW143408   8.477   0.852   5.042  1.5943  0.6872 -1.0761
13697SOL    HW243409   8.429   0.838   5.185 -2.4882  0.9195 -2.2931
13698SOL     OW43410   3.395   1.000   3.873  0.3057 -0.3291  0.3516
13698SOL    HW143411   3.454   0.969   3.942  0.8080  0.0719  0.1142
13698SOL    HW243412   3.393   1.095   3.884  2.0682 -0.0069 -1.4485
13699SOL     OW43413   6.543   3.889   1.448  0.5772  0.4517 -0.3444
13699SOL    HW143414   6.533   3.903   1.354  1.0903  1.8225 -0.2225
13699SOL    HW243415   6.600   3.813   1.455  0.1850  0.0771 -1.1324
13700SOL     OW43416   8.792   7.752   3.050 -0.5132  0.0976 -0.4317
13700SOL    HW143417   8.742   7.730   2.972  0.5559 -1.8445 -0.6230
13700SOL    HW243418   8.871   7.796   3.017 -0.4871  0.0888 -0.3814
13701SOL     OW43419   4.837   1.918   5.067  0.6505 -0.0731  0.2308
13701SOL    HW143420   4.897   1.871   5.009 -0.7203 -0.2376 -1.1210
13701SOL    HW243421   4.797   1.985   5.012 -1.6238 -1.0409  0.5762
13702SOL     OW43422   1.877   2.052   5.819  0.2920  0.2074  0.0279
13702SOL    HW143423   1.852   1.984   5.881  1.1504 -0.6789 -0.5593
13702SOL    HW243424   1.972   2.059   5.828  0.4278  0.0647 -1.1696
13703SOL     OW43425   6.555   8.090   6.846  0.1596  0.2826  0.3800
13703SOL    HW143426   6.582   8.111   6.756 -0.7542 -0.8514 -0.1865
13703SOL    HW243427   6.621   8.132   6.901  1.0077  0.5985 -0.8323
13704SOL     OW43428   3.571   3.648   1.364  0.5222 -0.1350 -0.0430
13704SOL    HW143429   3.546   3.741   1.360 -0.5156 -0.4598 -2.0135
13704SOL    HW243430   3.527   3.616   1.443  0.1627  0.8419  0.1721
13705SOL     OW43431   2.720   7.770   3.422  0.0198  0.0103  0.6286
13705SOL    HW143432   2.717   7.793   3.515 -1.0125 -1.6648  1.0420
13705SOL    HW243433   2.630   7.779   3.392  0.1151 -0.7154  0.1120
13706SOL     OW43434   0.266   1.425   5.760  0.1574  0.1005 -0.2055
13706SOL    HW143435   0.223   1.363   5.701  0.0904  0.3982 -0.4739
13706SOL    HW243436   0.207   1.430   5.836  0.5659 -0.7735  0.1833
13707SOL     OW43437   8.252   6.375   9.177 -0.1781 -0.6722  0.3424
13707SOL    HW143438   8.226   6.287   9.149  0.1244 -0.5873 -0.2108
13707SOL    HW243439   8.336   6.363   9.220  0.5688 -0.4762 -0.9990
13708SOL     OW43440  10.548   7.176   8.509 -0.2312 -0.3826 -0.3972
13708SOL    HW143441  10.610   7.219   8.450 -0.4091 -0.8841 -0.9582
13708SOL    HW243442  10.545   7.233   8.586  0.9833 -0.3996 -0.3216
13709SOL     OW43443   9.397   8.759   2.114  0.0193 -0.0828 -0.0472
13709SOL    HW143444   9.465   8.707   2.071  0.5407  0.9456 -0.4963
13709SOL    HW243445   9.355   8.808   2.042 -1.7715 -1.3126  0.0965
13710SOL     OW43446  10.556   3.965   2.139  0.1115 -0.3265 -0.4378
13710SOL    HW143447  10.603   3.930   2.215 -0.2674  0.3904  0.1463
13710SOL    HW243448  10.516   3.888   2.097  0.0975 -0.7036  0.2517
13711SOL     OW43449   8.962   4.502   2.903 -0.1378  0.0868 -0.0760
13711SOL    HW143450   8.978   4.427   2.845 -1.3814 -0.4953  0.3006
13711SOL    HW243451   8.977   4.467   2.991 -0.7264  0.2800  0.1002
13712SOL     OW43452   7.357   9.840   5.735 -0.7621 -0.0450 -0.4053
13712SOL    HW143453   7.363   9.752   5.700  0.1014 -0.8076  1.5220
13712SOL    HW243454   7.444   9.878   5.721 -0.3837 -0.3883  0.9339
13713SOL     OW43455   8.326   9.021   4.846 -0.5649  0.1727  0.7978
13713SOL    HW143456   8.419   9.008   4.861 -0.2686  0.0911 -0.9885
13713SOL    HW243457   8.299   9.079   4.918  1.3957  2.2322  0.0112
13714SOL     OW43458   8.549   7.559   7.474  0.0405 -0.0023 -0.3691
13714SOL    HW143459   8.556   7.654   7.469  2.5759 -0.1003  0.2220
13714SOL    HW243460   8.615   7.533   7.539 -0.3249 -2.1909 -0.7978
13715SOL     OW43461   6.721  10.282   4.062  0.0450  0.6747  0.3245
13715SOL    HW143462   6.714  10.199   4.013 -1.0164 -0.3025  2.0329
13715SOL    HW243463   6.682  10.347   4.003 -1.3937 -0.4927 -0.0882
13716SOL     OW43464   5.001   9.234   4.725  0.1297  0.2181  0.4154
13716SOL    HW143465   5.070   9.266   4.668 -1.2120  2.8917  0.1861
13716SOL    HW243466   4.919   9.258   4.682 -0.9505 -0.4853  1.9580
13717SOL     OW43467   4.939   7.040   1.878  0.1098  0.5356 -0.3283
13717SOL    HW143468   4.989   7.022   1.957  2.0290 -0.0325 -1.6095
13717SOL    HW243469   4.938   7.135   1.870  1.3373  0.5411 -0.4889
13718SOL     OW43470   8.884   1.347   1.872 -0.1096  0.1097 -0.0780
13718SOL    HW143471   8.966   1.331   1.826 -0.0152  0.6731 -0.1139
13718SOL    HW243472   8.833   1.267   1.859  0.4222 -0.2320 -0.0748
13719SOL     OW43473   7.605   2.290  10.120 -0.3511 -0.2721  0.0698
13719SOL    HW143474   7.571   2.263  10.205  0.4401 -0.3003  0.3869
13719SOL    HW243475   7.562   2.374  10.104  0.5964  0.4706  1.2069
13720SOL     OW43476   1.607   4.237   7.965 -0.1430 -0.2878  0.5057
13720SOL    HW143477   1.512   4.245   7.960  0.0562  1.9593 -0.8278
13720SOL    HW243478   1.628   4.161   7.910 -1.0863 -0.1566 -0.0514
13721SOL     OW43479   8.853   7.159   7.041 -0.1314  0.0893 -0.3286
13721SOL    HW143480   8.841   7.141   7.134  0.5709  0.0065 -0.2465
13721SOL    HW243481   8.846   7.254   7.034  0.5263  0.1642 -0.0701
13722SOL     OW43482   8.309   2.391   5.963  1.1050  0.3310  0.7269
13722SOL    HW143483   8.270   2.348   6.039  0.1820  0.2277  0.2146
13722SOL    HW243484   8.313   2.484   5.987  0.4530  0.3565  0.7688
13723SOL     OW43485   3.976   7.969   1.782 -0.1651 -0.0476 -0.5398
13723SOL    HW143486   4.034   8.033   1.824 -2.0801  0.9324  0.7717
13723SOL    HW243487   4.012   7.884   1.806 -0.2097  0.5203  1.7332
13724SOL     OW43488   0.743   2.618   6.143 -0.0157  0.1951 -0.0845
13724SOL    HW143489   0.701   2.695   6.104 -1.9070 -1.1126 -0.7367
13724SOL    HW243490   0.671   2.568   6.181  1.0844 -1.6416 -0.3223
13725SOL     OW43491  10.480   4.219   1.502 -0.7898  0.1066  0.5824
13725SOL    HW143492  10.565   4.211   1.460 -0.9682  0.0373  0.2271
13725SOL    HW243493  10.475   4.310   1.530 -1.0845  0.4289 -0.4634
13726SOL     OW43494   9.338   2.438   6.903 -0.5068  0.2986  0.1669
13726SOL    HW143495   9.272   2.393   6.850 -0.3181 -0.4609  0.5520
13726SOL    HW243496   9.343   2.386   6.983  0.5902  0.3050  0.1192
13727SOL     OW43497   7.690   8.090   6.075  0.6598 -0.2128  0.2544
13727SOL    HW143498   7.603   8.063   6.105  0.6897 -1.3960 -0.6731
13727SOL    HW243499   7.699   8.050   5.989  2.6385 -1.1873  0.8668
13728SOL     OW43500   4.955  10.449   8.687 -0.3197 -0.0696 -0.1855
13728SOL    HW143501   5.048  10.468   8.677 -0.1062 -0.7648  0.3709
13728SOL    HW243502   4.913  10.535   8.697  0.4186  0.1939  0.7863
13729SOL     OW43503   9.017  10.517   8.377 -0.3142  0.0149 -0.5194
13729SOL    HW143504   9.032  10.591   8.436  0.2380  0.0997 -0.7576
13729SOL    HW243505   8.931  10.534   8.339  0.0430  0.8411 -0.9946
13730SOL     OW43506   9.967   9.231   4.963  0.3985  0.2345  0.1546
13730SOL    HW143507   9.966   9.317   4.921 -0.2449  0.3450  0.3780
13730SOL    HW243508   9.972   9.168   4.891  0.9855  0.4557 -0.0043
13731SOL     OW43509   9.975   6.321   9.828 -0.4829 -0.7220  0.2735
13731SOL    HW143510   9.981   6.296   9.920  1.4538  0.3875  0.4976
13731SOL    HW243511   9.994   6.240   9.780  0.3440 -0.9181  0.9044
13732SOL     OW43512   4.277   5.528   9.398  0.6008  0.1436  0.6419
13732SOL    HW143513   4.321   5.449   9.428 -1.7526 -1.8333 -0.7284
13732SOL    HW243514   4.211   5.546   9.465 -0.7720 -0.8203 -0.3988
13733SOL     OW43515   2.381   7.510   7.566  0.7362 -0.3122 -0.1167
13733SOL    HW143516   2.448   7.493   7.632  0.7752  0.7755  0.1415
13733SOL    HW243517   2.388   7.436   7.505  2.3073 -0.1199 -0.2178
13734SOL     OW43518   4.470   0.216   2.671 -0.6818  0.1884 -0.7081
13734SOL    HW143519   4.416   0.283   2.631 -0.6108  0.3739 -0.4913
13734SOL    HW243520   4.442   0.134   2.629 -0.9360  0.3194 -0.7923
13735SOL     OW43521   1.222   3.892   4.030  0.4988  0.2665  0.3594
13735SOL    HW143522   1.300   3.926   4.074  0.3539  1.2406 -0.1146
13735SOL    HW243523   1.201   3.958   3.964  1.0734 -1.4002 -1.6251
13736SOL     OW43524   4.920   1.702   8.500  0.1307  0.2770 -0.1549
13736SOL    HW143525   5.015   1.711   8.508  0.1776 -0.6546  0.4523
13736SOL    HW243526   4.889   1.791   8.487  1.2109  0.4534 -1.8035
13737SOL     OW43527   4.243   8.763   8.694  0.0434 -0.2142  0.3529
13737SOL    HW143528   4.328   8.800   8.670 -0.6388 -0.1216 -2.1838
13737SOL    HW243529   4.183   8.838   8.696 -0.1117 -0.3423  1.6698
13738SOL     OW43530   4.762   5.229   4.175  0.2972 -0.0108 -0.1880
13738SOL    HW143531   4.771   5.257   4.084 -1.3321 -0.5324 -0.5433
13738SOL    HW243532   4.671   5.200   4.182  0.3911  0.0400  1.6182
13739SOL     OW43533   5.352   0.214   4.408  0.0285 -0.3716  0.1363
13739SOL    HW143534   5.442   0.238   4.385 -0.0809 -1.4769 -1.6348
13739SOL    HW243535   5.360   0.131   4.454 -0.1733 -1.7194 -2.1177
13740SOL     OW43536   1.849   2.750   6.214  0.3633  0.3046 -0.3148
13740SOL    HW143537   1.838   2.745   6.119  0.9744  0.1139 -0.3770
13740SOL    HW243538   1.822   2.664   6.245  0.7499  0.1618 -0.3741
13741SOL     OW43539   5.197   6.324   7.880 -0.2319  0.2057 -0.2332
13741SOL    HW143540   5.283   6.325   7.922 -0.8631 -0.9261  1.1563
13741SOL    HW243541   5.144   6.382   7.933 -0.6254  0.0225 -0.4216
13742SOL     OW43542   3.968   9.802   7.209  0.5144  0.4585  0.2300
13742SOL    HW143543   4.064   9.805   7.211  0.5499 -0.1625 -0.2491
13742SOL    HW243544   3.944   9.750   7.285  0.4864  1.7154  1.1087
13743SOL     OW43545   9.558   8.081   3.937  0.1855 -0.6168 -0.0686
13743SOL    HW143546   9.583   8.173   3.941 -0.5930 -0.4568  2.0942
13743SOL    HW243547   9.464   8.081   3.954 -0.0072 -1.7508 -1.0420
13744SOL     OW43548   1.239   4.452  10.030 -0.0888 -0.5943 -0.3576
13744SOL    HW143549   1.262   4.508  10.104 -0.9048 -0.3313 -0.2955
13744SOL    HW243550   1.323   4.428   9.991  0.3027  2.8979 -2.0551
13745SOL     OW43551   0.315   8.929   7.289  0.1898  0.4141 -0.5758
13745SOL    HW143552   0.405   8.939   7.319 -0.4608  0.2998  1.5704
13745SOL    HW243553   0.284   9.019   7.275  0.4811  0.4752 -0.8280
13746SOL     OW43554   4.186   9.558   6.789  0.1064  0.2035  0.6077
13746SOL    HW143555   4.091   9.572   6.793  0.0868  1.2013 -1.6547
13746SOL    HW243556   4.223   9.644   6.810  0.5164 -0.0786  1.0565
13747SOL     OW43557   8.986   8.086   9.320 -0.0799 -0.3425  0.3995
13747SOL    HW143558   8.952   8.170   9.352 -0.6295 -0.2772 -0.3258
13747SOL    HW243559   8.973   8.026   9.393 -0.5434 -0.0091  0.5990
13748SOL     OW43560   2.975   4.598   9.033  0.2253  0.1980  0.3168
13748SOL    HW143561   2.927   4.625   8.954  0.8663  0.8863  0.1545
13748SOL    HW243562   2.948   4.661   9.099 -0.2837 -0.3585  0.6551
13749SOL     OW43563   0.721   6.099   7.285  0.2713  0.3021  0.5997
13749SOL    HW143564   0.630   6.087   7.260  0.7803 -2.3243 -0.2942
13749SOL    HW243565   0.730   6.193   7.298 -2.6205  0.6118  1.0417
13750SOL     OW43566   1.020   5.464  10.415 -0.0007  0.1102 -0.0234
13750SOL    HW143567   0.953   5.449  10.481  0.9361  0.1147  0.9550
13750SOL    HW243568   1.017   5.559  10.399  0.3586  0.2454  0.6718
13751SOL     OW43569   9.572   6.988   0.043  0.5420  0.0349 -0.0163
13751SOL    HW143570   9.660   6.991   0.006  0.4842  0.9447 -0.0968
13751SOL    HW243571   9.528   7.066   0.008  0.0344  0.1486  0.8391
13752SOL     OW43572   6.634   3.599   7.174  0.0797 -0.6505  0.1895
13752SOL    HW143573   6.670   3.528   7.123  0.4237  0.8136 -1.7123
13752SOL    HW243574   6.691   3.674   7.156 -0.5028  0.2430  1.7828
13753SOL     OW43575   1.071   6.613   7.467  0.5211  0.0878 -0.3210
13753SOL    HW143576   1.073   6.519   7.446 -1.7179  0.1614 -1.1880
13753SOL    HW243577   1.073   6.656   7.382 -3.0104  0.5862 -0.3321
13754SOL     OW43578   9.029  10.098   3.296 -0.2086 -0.4216  0.1846
13754SOL    HW143579   9.112  10.143   3.310 -0.7187  0.2957  0.9512
13754SOL    HW243580   9.040  10.055   3.211  0.6576  0.3040 -0.0887
13755SOL     OW43581   0.491   2.423   4.264  0.1071 -0.2696 -0.2611
13755SOL    HW143582   0.535   2.422   4.179 -0.5113  1.1501 -0.6302
13755SOL    HW243583   0.562   2.427   4.328  0.7151 -4.1233 -0.4971
13756SOL     OW43584   9.117   7.327   0.036 -0.5806 -0.3788 -0.3900
13756SOL    HW143585   9.104   7.277  -0.045  0.1106 -0.5599 -0.3890
13756SOL    HW243586   9.046   7.392   0.035  0.3334  0.6448 -1.9268
13757SOL     OW43587   3.951   0.334   7.646 -0.4571 -0.1451 -0.0189
13757SOL    HW143588   3.921   0.316   7.735 -1.3784 -1.6547 -0.5958
13757SOL    HW243589   3.875   0.318   7.592  0.5064 -0.8408 -1.2268
13758SOL     OW43590   2.420   3.072   1.880 -0.2322  0.0977  0.9069
13758SOL    HW143591   2.343   3.127   1.871  0.0646  0.2468 -1.2970
13758SOL    HW243592   2.406   3.001   1.817  1.4059  0.1210  0.4755
13759SOL     OW43593   4.518   1.573   5.078  0.1329 -0.7234 -0.4864
13759SOL    HW143594   4.594   1.609   5.032  0.2950  0.3745  0.5873
13759SOL    HW243595   4.444   1.625   5.046 -0.0087 -1.0508 -0.7015
13760SOL     OW43596   4.939   6.431   6.046 -0.2695 -0.0782 -0.0825
13760SOL    HW143597   4.960   6.366   5.978 -1.2375 -0.3331 -0.1495
13760SOL    HW243598   4.882   6.384   6.107 -0.2840  0.4708  0.3325
13761SOL     OW43599   3.245   5.283   2.136 -0.2751  0.4585  0.0526
13761SOL    HW143600   3.281   5.195   2.125  1.0689  0.7463  1.6407
13761SOL    HW243601   3.168   5.285   2.080  0.1336 -1.4522 -0.6494
13762SOL     OW43602   9.233   1.429   5.552 -0.2881 -0.2966  0.0976
13762SOL    HW143603   9.249   1.508   5.500 -0.1484  0.7780  1.6894
13762SOL    HW243604   9.258   1.454   5.642 -3.0752 -1.1670  1.2170
13763SOL     OW43605   4.668   3.964   2.890 -0.2031  0.0049  0.1382
13763SOL    HW143606   4.618   3.972   2.971 -1.3540  0.2305 -0.5659
13763SOL    HW243607   4.704   4.051   2.875  0.0135 -0.0376  0.3947
13764SOL     OW43608   1.177   7.132   2.360  0.1143 -0.3165  0.5717
13764SOL    HW143609   1.189   7.221   2.393 -1.1112  0.3709 -0.7344
13764SOL    HW243610   1.147   7.082   2.436 -1.7911  1.0173  0.7610
13765SOL     OW43611  10.300   6.295  10.296  0.4220 -0.1737 -0.5947
13765SOL    HW143612  10.319   6.268  10.206  0.6403  1.1116 -0.9542
13765SOL    HW243613  10.222   6.350  10.288  1.3381  1.2191 -0.2271
13766SOL     OW43614   5.402   4.836   6.737  0.1176  0.5602 -0.3970
13766SOL    HW143615   5.496   4.857   6.731  0.2461  0.0984 -0.0481
13766SOL    HW243616   5.381   4.796   6.653  0.0018  1.5565 -0.8529
13767SOL     OW43617   2.697   5.256   1.361 -0.7572 -0.3106 -0.5020
13767SOL    HW143618   2.750   5.282   1.436 -1.5600 -1.1045  0.3711
13767SOL    HW243619   2.736   5.173   1.333 -1.7656 -1.1316  0.4282
13768SOL     OW43620   6.960   7.587   4.572  0.3216 -0.3292 -0.3345
13768SOL    HW143621   7.021   7.624   4.636 -1.3344  1.4424  0.2889
13768SOL    HW243622   6.877   7.632   4.588 -0.6999 -1.3627 -2.3441
13769SOL     OW43623   2.974   2.508   6.263 -0.8143  0.0634 -0.6017
13769SOL    HW143624   3.035   2.484   6.332 -2.7503  0.5574  1.3897
13769SOL    HW243625   3.029   2.541   6.192  1.2127  0.1244  0.9279
13770SOL     OW43626   1.069   6.309   4.115  0.0289  0.4514 -0.2064
13770SOL    HW143627   1.162   6.293   4.129  0.1829 -0.0300 -1.6006
13770SOL    HW243628   1.065   6.395   4.074 -0.2722  1.0789  1.0849
13771SOL     OW43629   0.087   5.377   0.147  0.3258  0.3306 -0.2568
13771SOL    HW143630   0.056   5.466   0.162 -0.9313 -0.1030 -0.1662
13771SOL    HW243631   0.162   5.368   0.206 -0.3872  0.8867  0.7693
13772SOL     OW43632   9.315  10.165   2.614  0.5240  0.2239  0.9658
13772SOL    HW143633   9.363  10.218   2.678 -0.9774  1.0593  1.4540
13772SOL    HW243634   9.223  10.173   2.641 -0.0658  0.0051 -0.8808
13773SOL     OW43635   8.464   7.092   5.254 -0.0782 -0.4142  0.2433
13773SOL    HW143636   8.447   7.184   5.274  2.1566 -0.3164  2.0670
13773SOL    HW243637   8.384   7.046   5.281 -1.4174  0.9875 -1.1715
13774SOL     OW43638   9.351   8.779   5.436  0.4332  0.3821 -0.3129
13774SOL    HW143639   9.267   8.733   5.426  1.3242 -1.0073 -1.8249
13774SOL    HW243640   9.379   8.758   5.525  0.7734 -2.0275 -0.9166
13775SOL     OW43641   1.172   5.512   9.482 -0.2710  0.3048 -0.1508
13775SOL    HW143642   1.202   5.546   9.398 -2.2497 -1.4694 -1.6692
13775SOL    HW243643   1.222   5.430   9.494  0.1481  0.6484  0.5339
13776SOL     OW43644   0.221   9.961   1.672 -0.0871  0.4018 -0.1204
13776SOL    HW143645   0.165  10.010   1.611 -0.8112 -0.5674 -0.2625
13776SOL    HW243646   0.202   9.869   1.652 -0.2763  0.0693  1.5131
13777SOL     OW43647   7.036   2.912   5.298  0.2074  0.3837 -0.5091
13777SOL    HW143648   7.089   2.834   5.282 -1.4774 -0.9239 -0.0376
13777SOL    HW243649   7.010   2.942   5.211 -0.2303 -0.3859 -0.6498
13778SOL     OW43650   8.467   0.868  10.421 -0.0647 -0.1412  0.3361
13778SOL    HW143651   8.462   0.839  10.512  0.4453 -2.3942 -0.2841
13778SOL    HW243652   8.395   0.822  10.378 -0.4543  1.0921 -0.3773
13779SOL     OW43653   0.053   3.478   4.941 -0.5437 -0.0351 -0.2708
13779SOL    HW143654   0.124   3.449   4.884  1.5983  0.4832  1.9900
13779SOL    HW243655   0.058   3.574   4.937 -1.3873  0.0115 -0.3761
13780SOL     OW43656   4.430   8.268   8.492  0.5412 -0.0089  0.2854
13780SOL    HW143657   4.465   8.351   8.525  0.0902  0.3172 -0.0401
13780SOL    HW243658   4.444   8.206   8.564  0.4333  0.4661  0.7252
13781SOL     OW43659   7.466   4.346   5.343 -0.5590 -0.6362 -0.6443
13781SOL    HW143660   7.371   4.354   5.353 -0.5382  0.0141 -0.8868
13781SOL    HW243661   7.483   4.252   5.345 -1.1385 -0.7324  0.0337
13782SOL     OW43662   9.668   4.138   3.107  0.2636  0.4182 -0.3238
13782SOL    HW143663   9.729   4.197   3.152  1.2855 -0.3701 -0.6438
13782SOL    HW243664   9.700   4.050   3.128  1.0500  0.0187 -2.9458
13783SOL     OW43665   0.766   8.427   0.229  0.2505  0.3324 -0.2372
13783SOL    HW143666   0.694   8.367   0.248 -0.5208  0.4625 -2.4487
13783SOL    HW243667   0.724   8.510   0.207  1.2209  1.1652  0.9528
13784SOL     OW43668   0.471   6.800  10.252  0.8220 -0.0249 -0.0935
13784SOL    HW143669   0.485   6.893  10.271 -0.5573  0.1792  0.0327
13784SOL    HW243670   0.488   6.791  10.158 -0.9492  0.7780 -0.5242
13785SOL     OW43671   1.923   8.787   2.897 -0.1640 -0.0472  0.0253
13785SOL    HW143672   1.895   8.722   2.833 -0.4189 -0.4408  0.5265
13785SOL    HW243673   1.925   8.869   2.849 -4.2780  0.4872  0.3799
13786SOL     OW43674   2.098   8.435   8.889  0.2273  0.0377 -0.2454
13786SOL    HW143675   2.163   8.428   8.818 -0.0445  0.4562 -0.5430
13786SOL    HW243676   2.028   8.376   8.862  1.5118 -2.3664  1.2712
13787SOL     OW43677   5.196   9.485   5.219 -0.3087 -0.2347  0.0520
13787SOL    HW143678   5.229   9.402   5.184  2.0219  0.4264  0.5226
13787SOL    HW243679   5.177   9.537   5.141 -1.7728 -1.1295 -0.2501
13788SOL     OW43680  10.447   9.547   1.203 -0.8081  0.5379 -0.2228
13788SOL    HW143681  10.372   9.543   1.144 -0.9079  2.5241 -0.2975
13788SOL    HW243682  10.521   9.572   1.148 -0.3967  0.0809  0.1060
13789SOL     OW43683   7.362   7.286  10.301  0.8607  0.0084 -0.3469
13789SOL    HW143684   7.387   7.264  10.391  0.3784  1.3245  0.1411
13789SOL    HW243685   7.268   7.271  10.298  0.7504  0.6480 -0.3894
13790SOL     OW43686  10.137  10.438   8.980 -0.1688 -0.3512 -0.4043
13790SOL    HW143687  10.172  10.462   8.895 -1.8862  1.4159 -0.6973
13790SOL    HW243688  10.203  10.380   9.019  1.6946  0.6284 -1.9737
13791SOL     OW43689   3.458   7.317   5.633 -0.3545 -0.4679  0.1015
13791SOL    HW143690   3.399   7.389   5.612 -0.6336 -0.3969  1.1071
13791SOL    HW243691   3.459   7.313   5.728  0.1587 -1.3855  0.0717
13792SOL     OW43692   1.594   0.665   9.609 -0.0677  0.3087 -0.4141
13792SOL    HW143693   1.580   0.759   9.603 -0.3242  0.4056  1.2889
13792SOL    HW243694   1.680   0.655   9.650  1.0971 -0.2605 -2.7772
13793SOL     OW43695   6.881   2.734   2.660 -0.0538 -0.2040 -0.5543
13793SOL    HW143696   6.928   2.760   2.739 -0.2307 -0.9802 -0.1813
13793SOL    HW243697   6.884   2.638   2.661 -1.5002 -0.2737 -0.5987
13794SOL     OW43698   7.143   3.221   4.466  0.1770  0.1075  0.0879
13794SOL    HW143699   7.104   3.134   4.465  0.6576 -0.1115 -0.3544
13794SOL    HW243700   7.121   3.259   4.381  2.3731 -0.6999 -0.9041
13795SOL     OW43701  10.223   8.838   3.305 -0.4069  0.3611 -0.3783
13795SOL    HW143702  10.187   8.849   3.217 -1.4648 -0.7306 -0.1120
13795SOL    HW243703  10.317   8.827   3.292 -0.2615  2.2584 -1.1828
13796SOL     OW43704   2.081   6.728   9.362 -0.0013  0.2405  0.5942
13796SOL    HW143705   2.038   6.779   9.293 -1.4443 -1.6462  0.0355
13796SOL    HW243706   2.166   6.706   9.326 -0.4543 -0.0938 -0.2820
13797SOL     OW43707   7.043   5.688   5.100 -0.1389 -0.2083  0.1745
13797SOL    HW143708   7.048   5.630   5.024  0.1531 -1.9435  1.4549
13797SOL    HW243709   6.951   5.682   5.128 -0.3230  0.6783 -0.2089
13798SOL     OW43710   5.330   8.974   5.798  0.1653  0.1859  0.0534
13798SOL    HW143711   5.314   9.057   5.753  0.3445 -0.3624 -1.0378
13798SOL    HW243712   5.247   8.926   5.790  0.9552 -0.9336 -1.9131
13799SOL     OW43713   1.846   0.979   9.298  0.6673  0.3982 -0.8960
13799SOL    HW143714   1.808   1.038   9.233  0.7398 -1.4110 -2.6788
13799SOL    HW243715   1.770   0.943   9.344  0.4207 -0.2068 -1.7405
13800SOL     OW43716   7.484   2.668   5.809  0.5604  0.6576 -0.0477
13800SOL    HW143717   7.475   2.600   5.875  0.7924 -1.4453 -2.0294
13800SOL    HW243718   7.553   2.725   5.842  0.3586 -0.0625  1.7024
13801SOL     OW43719   1.795   2.230   6.737 -0.0490  0.7832  0.0447
13801SOL    HW143720   1.873   2.185   6.769 -0.6856  1.8112  3.4296
13801SOL    HW243721   1.739   2.159   6.703  0.9993 -0.3652  0.6346
13802SOL     OW43722   6.895   1.966   9.352  0.6157 -0.1308  0.5615
13802SOL    HW143723   6.850   1.905   9.409  0.9020 -0.7663  0.1145
13802SOL    HW243724   6.829   1.993   9.287  0.6480 -0.4090  0.4136
13803SOL     OW43725   8.685   8.702   9.076  0.2347  0.0732 -0.2579
13803SOL    HW143726   8.761   8.702   9.018  1.5229 -0.3907  1.3630
13803SOL    HW243727   8.672   8.794   9.099 -0.2122  0.2468 -1.1310
13804SOL     OW43728   9.026   8.375   2.098 -0.1565 -0.0803 -0.1350
13804SOL    HW143729   8.957   8.363   2.033  1.0348  0.1016 -1.4756
13804SOL    HW243730   9.100   8.412   2.049  1.0497 -0.6756  1.1520
13805SOL     OW43731  10.153   5.592   6.145 -0.1401 -0.3039  0.2559
13805SOL    HW143732  10.130   5.524   6.082  0.4900 -0.8109  0.5635
13805SOL    HW243733  10.247   5.603   6.135 -0.3356  1.1205 -0.3686
13806SOL     OW43734   6.281   5.184   3.744 -0.5451  0.5517 -0.1312
13806SOL    HW143735   6.285   5.195   3.649 -2.6333  0.5871 -0.2637
13806SOL    HW243736   6.239   5.099   3.756  1.5366 -0.4090  0.8219
13807SOL     OW43737   0.145   5.083   3.219  0.2472  0.3132  0.3306
13807SOL    HW143738   0.132   4.988   3.229 -1.3076  0.6003  1.4622
13807SOL    HW243739   0.072   5.111   3.163  1.6355  0.6459 -1.4013
13808SOL     OW43740   4.012   6.551   8.713  0.4495  0.4256 -0.1853
13808SOL    HW143741   4.061   6.629   8.740 -0.3780  0.2950  1.8504
13808SOL    HW243742   3.946   6.584   8.652 -0.0254  1.3892  0.8088
13809SOL     OW43743   8.768   0.123   3.076  0.9529 -0.4328 -0.5146
13809SOL    HW143744   8.741   0.072   3.152  0.7742  0.5844  0.1215
13809SOL    HW243745   8.732   0.076   3.001 -2.2146  0.5820  0.2427
13810SOL     OW43746   7.903   9.037   0.854  0.5105  0.4942  0.3498
13810SOL    HW143747   7.894   8.955   0.901 -0.5888  0.7370  0.5946
13810SOL    HW243748   7.813   9.064   0.834  0.8592  1.5029  0.0427
13811SOL     OW43749   4.117   4.325   8.272  0.1106 -0.1206  0.1928
13811SOL    HW143750   4.069   4.304   8.192 -1.3392  0.2781  0.9214
13811SOL    HW243751   4.106   4.420   8.282  0.2042 -0.1771  0.9042
13812SOL     OW43752   8.098   5.570   6.177 -0.3249 -1.0388  0.1932
13812SOL    HW143753   8.132   5.481   6.164 -1.2685 -1.4107  0.2179
13812SOL    HW243754   8.026   5.577   6.115  0.3295  0.0505 -0.4730
13813SOL     OW43755   0.697   3.399   1.006  0.3259  0.3229 -0.5154
13813SOL    HW143756   0.635   3.401   0.933  0.4473 -0.7052 -0.6554
13813SOL    HW243757   0.744   3.317   0.996  0.8263  0.4907  0.3319
13814SOL     OW43758   4.816   6.789   3.978 -0.2299  0.9693 -0.6424
13814SOL    HW143759   4.829   6.848   4.052 -2.2936 -0.6518  1.1760
13814SOL    HW243760   4.725   6.803   3.952  0.1114  0.6410 -2.1195
13815SOL     OW43761   1.372   7.255   0.435 -0.2781  0.2265  0.1762
13815SOL    HW143762   1.446   7.261   0.375  0.1890 -2.0295  0.4251
13815SOL    HW243763   1.326   7.338   0.425  0.3354  0.3355 -2.5865
13816SOL     OW43764   4.967   7.200   7.771 -0.0811  0.3307  0.3698
13816SOL    HW143765   4.956   7.142   7.695  2.1418  2.3243 -1.6522
13816SOL    HW243766   4.930   7.284   7.742 -1.5121  0.5180  2.5185
13817SOL     OW43767   7.304   8.121  10.092 -0.5267 -0.0517 -0.6772
13817SOL    HW143768   7.351   8.039  10.078 -2.6410 -1.3186 -0.8715
13817SOL    HW243769   7.286   8.123  10.186 -2.6410 -1.1680 -0.9887
13818SOL     OW43770   9.413   7.631  10.324 -0.5400 -0.3599 -0.4164
13818SOL    HW143771   9.388   7.561  10.385 -1.0719 -1.0781 -1.4277
13818SOL    HW243772   9.369   7.608  10.242  0.4654  0.3831 -1.1857
13819SOL     OW43773   0.141   1.290   9.440 -0.2856  0.0321  1.1138
13819SOL    HW143774   0.047   1.275   9.426 -0.4161  0.4390  1.5375
13819SOL    HW243775   0.154   1.382   9.418 -0.0203  0.0258  1.2388
13820SOL     OW43776   6.044  10.213   2.388  0.2050  0.2844  0.3726
13820SOL    HW143777   6.042  10.176   2.476 -0.1054 -0.0825  0.2147
13820SOL    HW243778   6.122  10.174   2.348 -0.6638 -1.0182 -0.1323
13821SOL     OW43779   1.472   7.728   7.458  0.4121  0.3996 -0.0555
13821SOL    HW143780   1.377   7.738   7.451  0.1857 -1.8730 -1.2878
13821SOL    HW243781   1.508   7.786   7.392  0.0624  2.5937  1.5573
13822SOL     OW43782   9.883   7.116   2.467  0.5089  0.6154  0.1696
13822SOL    HW143783   9.865   7.029   2.431  0.2687  1.1693 -1.1128
13822SOL    HW243784   9.834   7.176   2.411  1.5079  1.6651  0.3730
13823SOL     OW43785   5.503   7.345   8.141 -0.2656 -0.0104 -0.5981
13823SOL    HW143786   5.509   7.356   8.046 -2.0990 -0.3142 -0.7863
13823SOL    HW243787   5.448   7.268   8.153 -1.0818  0.7360  0.7022
13824SOL     OW43788   9.007   0.863   6.047  0.8815  0.1029 -0.4297
13824SOL    HW143789   8.918   0.859   6.011  1.9135 -1.2509 -3.0591
13824SOL    HW243790   9.006   0.940   6.104 -1.9308  0.1734 -0.4325
13825SOL     OW43791   1.250  10.232   1.162 -0.1921  0.0307  0.0250
13825SOL    HW143792   1.304  10.307   1.188  0.6235 -0.6201  0.2607
13825SOL    HW243793   1.215  10.256   1.076 -0.1611  0.7882  0.2183
13826SOL     OW43794   0.625   7.443   2.909  0.0650  0.4719  0.1499
13826SOL    HW143795   0.559   7.393   2.861  1.7347  0.2199 -2.0583
13826SOL    HW243796   0.578   7.518   2.945 -1.2776  0.7957 -2.1319
13827SOL     OW43797   5.991   6.962   0.761  0.2829 -0.0318  1.0940
13827SOL    HW143798   6.057   6.930   0.823  0.6102  0.8801  1.2461
13827SOL    HW243799   6.034   6.957   0.675  0.6680  0.7973  1.2216
13828SOL     OW43800   3.279   4.158   6.704 -0.1808  0.5780 -0.0975
13828SOL    HW143801   3.195   4.167   6.750  0.5769  2.6869  1.0068
13828SOL    HW243802   3.304   4.067   6.719 -2.7132 -0.4096 -1.3230
13829SOL     OW43803   8.357   6.845  10.066 -0.0613 -0.3336  0.4544
13829SOL    HW143804   8.349   6.869   9.974  1.0424 -1.0237  0.1597
13829SOL    HW243805   8.277   6.797  10.086 -0.4772  0.1394 -0.0318
13830SOL     OW43806   9.724   0.140   5.434  0.3901 -0.2489  0.4446
13830SOL    HW143807   9.682   0.220   5.403 -0.7431 -0.8018  0.5263
13830SOL    HW243808   9.752   0.162   5.523  1.7402  0.6383 -0.1655
13831SOL     OW43809   6.273   6.037   9.351 -0.2524 -0.4539 -0.0402
13831SOL    HW143810   6.193   5.987   9.366 -0.7341  0.5529  0.9732
13831SOL    HW243811   6.336   6.002   9.414 -0.8459  0.7059  1.2569
13832SOL     OW43812   2.936   8.494   1.475 -0.3362 -0.0986  0.0860
13832SOL    HW143813   2.976   8.572   1.438  2.3095 -0.4475  1.9191
13832SOL    HW243814   2.843   8.515   1.482  0.1349  2.4491 -0.4736
13833SOL     OW43815   4.848   0.614   7.951 -0.7267 -0.3842 -0.3472
13833SOL    HW143816   4.814   0.586   7.866 -0.8065 -2.0443  0.1867
13833SOL    HW243817   4.932   0.570   7.958 -0.5239  0.0870  0.2626
13834SOL     OW43818   9.327   8.240   7.728 -0.3296 -0.1993  0.2153
13834SOL    HW143819   9.267   8.233   7.654  1.4113  1.9190 -1.5171
13834SOL    HW243820   9.409   8.203   7.696  0.8484  1.9840  0.5649
13835SOL     OW43821   2.490   6.566   0.431  0.5657 -0.0984  0.0701
13835SOL    HW143822   2.402   6.602   0.419  0.8653  1.1038  1.2310
13835SOL    HW243823   2.490   6.486   0.380 -0.6072  0.8174 -1.4660
13836SOL     OW43824   6.235   6.423   9.708 -0.3241 -0.2623  0.2265
13836SOL    HW143825   6.257   6.334   9.736  1.4370 -0.3906 -1.3414
13836SOL    HW243826   6.241   6.475   9.788  2.3536 -0.9596  0.6074
13837SOL     OW43827   8.214   5.504   1.341 -0.3362 -0.2014 -0.5862
13837SOL    HW143828   8.137   5.558   1.327 -0.5919 -0.9688 -2.3110
13837SOL    HW243829   8.285   5.551   1.296  0.0413  0.0678  0.2619
13838SOL     OW43830   9.259  10.107   0.036  0.2286  0.6288  0.0521
13838SOL    HW143831   9.299  10.035  -0.013 -0.0887  0.7303 -0.3587
13838SOL    HW243832   9.204  10.152  -0.028 -1.2525 -0.0408  0.8042
13839SOL     OW43833   7.899   7.878   4.829  0.1197  0.2724  1.0536
13839SOL    HW143834   7.946   7.953   4.865  0.0072  0.0335  1.6992
13839SOL    HW243835   7.900   7.812   4.898  1.1712 -0.7554  0.0937
13840SOL     OW43836   5.906   1.641   7.581 -0.4704 -0.1974 -0.2631
13840SOL    HW143837   5.974   1.619   7.518 -0.6958 -0.3177 -0.4665
13840SOL    HW243838   5.914   1.574   7.650  0.3507  0.4539  0.2838
13841SOL     OW43839   7.190   3.737   9.015  0.1046  0.2078  0.4353
13841SOL    HW143840   7.135   3.666   8.981  0.5898 -0.1458  0.3784
13841SOL    HW243841   7.130   3.811   9.024 -0.1548  0.1478 -0.6643
13842SOL     OW43842   9.084   7.231   8.006  0.2980  0.1126  0.5725
13842SOL    HW143843   9.174   7.200   7.996  0.9095  2.2225 -1.6918
13842SOL    HW243844   9.049   7.231   7.917 -0.9646  1.9280  1.0031
13843SOL     OW43845  10.236   3.925   6.172 -0.2228  0.3191  0.0584
13843SOL    HW143846  10.232   3.832   6.149 -0.6961  0.4654 -0.4824
13843SOL    HW243847  10.158   3.940   6.225 -2.6775  1.3201 -3.4465
13844SOL     OW43848   3.835   4.389   6.537  0.2425 -0.3123  0.2181
13844SOL    HW143849   3.873   4.360   6.454 -1.1676  2.9982 -1.7875
13844SOL    HW243850   3.740   4.389   6.521 -0.0563  0.4205  1.8134
13845SOL     OW43851   6.099   6.366   5.257 -0.4532  0.7791 -0.0508
13845SOL    HW143852   6.171   6.321   5.214  0.4322  1.3331  0.8189
13845SOL    HW243853   6.111   6.346   5.350 -1.8961  0.2090  0.0355
13846SOL     OW43854   1.868   0.704   6.445 -0.3536 -0.1164 -0.1986
13846SOL    HW143855   1.949   0.750   6.463 -0.4075  0.5301 -1.4949
13846SOL    HW243856   1.809   0.771   6.411 -2.2068 -0.1052  2.6715
13847SOL     OW43857   6.078   1.499   7.417 -0.0739  0.2598 -0.3890
13847SOL    HW143858   6.060   1.545   7.335  1.8427 -0.2477 -1.1568
13847SOL    HW243859   6.085   1.407   7.392 -2.4770 -0.3444  0.8980
13848SOL     OW43860   3.495   3.570   6.089  0.2962 -0.6719 -0.4820
13848SOL    HW143861   3.473   3.560   6.182  1.2512 -0.2707 -0.2005
13848SOL    HW243862   3.432   3.514   6.044 -0.6289 -0.3367  0.3579
13849SOL     OW43863   6.754   3.596   1.149  0.6899 -0.1515 -0.0450
13849SOL    HW143864   6.671   3.590   1.196  1.0237  0.6651  0.6828
13849SOL    HW243865   6.756   3.518   1.094 -0.9816  0.2823 -0.7959
13850SOL     OW43866   5.885   8.659   9.029  0.0349 -0.4492  0.2386
13850SOL    HW143867   5.857   8.733   8.975  0.0842 -0.4631  0.1934
13850SOL    HW243868   5.880   8.584   8.971 -0.4776 -0.5579  0.4220
13851SOL     OW43869   8.227   9.268  10.216  0.0285  0.7180  0.0505
13851SOL    HW143870   8.269   9.244  10.299 -1.4399 -1.0805  0.3260
13851SOL    HW243871   8.196   9.358  10.230  0.5020  0.7281  1.1602
13852SOL     OW43872   4.724  10.290   8.495 -0.2208  0.4116 -0.1887
13852SOL    HW143873   4.634  10.320   8.508 -0.3524 -0.2999  0.6292
13852SOL    HW243874   4.767  10.308   8.578 -0.1614 -1.1188  0.1424
13853SOL     OW43875   9.906   4.861   7.935  0.1222 -0.3465 -0.6728
13853SOL    HW143876   9.901   4.907   8.019 -0.2649  0.3888 -1.0845
13853SOL    HW243877   9.885   4.770   7.956  2.5416 -0.7360  0.4387
13854SOL     OW43878   0.882   1.833   5.688  0.4814 -0.1881  0.0304
13854SOL    HW143879   0.951   1.894   5.661  1.4877 -0.7027  1.3077
13854SOL    HW243880   0.808   1.889   5.710  0.6747  0.4195 -0.8105
13855SOL     OW43881   5.112   2.755  10.284 -0.1760 -0.1802  0.1385
13855SOL    HW143882   5.166   2.687  10.243 -0.0485 -0.5677  0.9256
13855SOL    HW243883   5.175   2.821  10.314 -0.4167  1.3271 -2.3857
13856SOL     OW43884   3.826   6.308   4.922  0.2435 -0.3276 -0.4113
13856SOL    HW143885   3.753   6.248   4.906  0.3143 -0.4948 -0.1107
13856SOL    HW243886   3.797   6.391   4.883  0.1475 -0.5534 -0.8385
13857SOL     OW43887   9.472   5.837   7.842 -0.0626  0.4424 -0.0850
13857SOL    HW143888   9.384   5.843   7.879 -0.5387  0.7187 -1.2191
13857SOL    HW243889   9.470   5.758   7.788  0.5893  0.0934  0.3858
13858SOL     OW43890   2.897   6.530   3.879  0.5091  0.1229 -0.2093
13858SOL    HW143891   2.830   6.596   3.898 -0.2561 -0.3113 -1.3737
13858SOL    HW243892   2.890   6.468   3.951 -2.9967 -2.0020 -2.1282
13859SOL     OW43893   1.388   3.067   0.666 -0.2409  0.4313 -0.5101
13859SOL    HW143894   1.471   3.114   0.661 -1.1993  2.0539 -3.5063
13859SOL    HW243895   1.324   3.134   0.691 -0.7720 -0.7729  1.6687
13860SOL     OW43896   9.395   0.960   9.622  0.4384  0.4667 -0.3448
13860SOL    HW143897   9.475   0.927   9.582  0.0138  0.1881 -0.9794
13860SOL    HW243898   9.366   1.030   9.563 -0.6585 -0.5214 -1.0145
13861SOL     OW43899   3.208   7.631  10.329  0.5071  0.0863  0.1785
13861SOL    HW143900   3.256   7.712  10.318  1.0788  0.1296  2.4846
13861SOL    HW243901   3.264   7.576  10.385 -1.5270 -0.3099  1.9869
13862SOL     OW43902   7.917   6.009   0.981  0.0998  0.4201 -0.1021
13862SOL    HW143903   7.884   6.095   0.955  3.2235  1.3513 -1.4839
13862SOL    HW243904   7.866   5.947   0.929  0.3190  1.7308 -1.9846
13863SOL     OW43905   1.950   6.738   5.547 -0.1620 -0.3833 -0.6113
13863SOL    HW143906   2.034   6.707   5.580 -0.2045 -0.7183 -0.8110
13863SOL    HW243907   1.885   6.685   5.593 -0.2995  0.3451  0.0509
13864SOL     OW43908   7.350   0.004   8.449  0.5433  0.3598  0.4412
13864SOL    HW143909   7.402   0.032   8.373  1.2952 -2.2029 -0.0643
13864SOL    HW243910   7.413  -0.003   8.520  0.6646 -1.2733  0.2121
13865SOL     OW43911   1.128   0.721   8.157  0.4782  0.4068 -0.3457
13865SOL    HW143912   1.130   0.782   8.231 -2.3913  0.3532 -0.1117
13865SOL    HW243913   1.153   0.637   8.194 -4.4419 -0.4930  1.7229
13866SOL     OW43914   5.059   1.120   7.636  0.1088 -0.3292 -0.3386
13866SOL    HW143915   5.048   1.025   7.630  0.4764 -0.4274  0.4652
13866SOL    HW243916   5.004   1.146   7.710  0.7521 -0.0476  0.0517
13867SOL     OW43917   7.138   7.232   7.403 -0.4502 -0.2293 -0.3303
13867SOL    HW143918   7.102   7.193   7.323 -0.7999 -0.1447 -0.2173
13867SOL    HW243919   7.229   7.203   7.405  0.1801  1.4427 -1.8566
13868SOL     OW43920   1.257  10.585   0.291 -0.0658 -0.3294  0.3153
13868SOL    HW143921   1.310  10.665   0.283  0.2100 -0.6217 -1.0141
13868SOL    HW243922   1.261  10.563   0.384  3.8065 -1.4355  0.0623
13869SOL     OW43923  10.196   5.557   0.800  0.1402  0.1802  0.1073
13869SOL    HW143924  10.119   5.613   0.808  1.5291  2.0355  1.5734
13869SOL    HW243925  10.196   5.504   0.879  0.2582  0.0339  0.0108
13870SOL     OW43926   8.795   8.393   4.501  0.1012 -0.3846 -0.1094
13870SOL    HW143927   8.772   8.481   4.530 -0.5862 -1.0196  1.3847
13870SOL    HW243928   8.800   8.399   4.405  0.4388  1.3410 -0.0097
13871SOL     OW43929   0.501   3.287   2.300  0.3065 -0.2894  0.7652
13871SOL    HW143930   0.560   3.256   2.369  0.8636 -0.0012  0.4244
13871SOL    HW243931   0.476   3.208   2.253  2.9790 -0.1610 -1.1014
13872SOL     OW43932  10.274   7.976   7.236  0.2090 -0.5287 -0.0052
13872SOL    HW143933  10.240   8.029   7.308 -2.1325  0.8075 -1.9361
13872SOL    HW243934  10.364   8.006   7.224  0.0385  0.5250  1.1873
13873SOL     OW43935  10.498  10.088   1.867  0.1150  0.1496  0.1722
13873SOL    HW143936  10.576  10.036   1.889 -1.2436 -3.0675 -1.8734
13873SOL    HW243937  10.426  10.041   1.908 -1.0117  1.5410 -0.1588
13874SOL     OW43938   0.118   0.340   9.409  0.0013 -0.0708  0.6688
13874SOL    HW143939   0.092   0.411   9.468 -0.8698 -0.2413  0.5153
13874SOL    HW243940   0.059   0.350   9.333 -1.8154 -2.3594  1.6687
13875SOL     OW43941   1.998   8.232   2.408 -0.2118  0.3980 -0.3227
13875SOL    HW143942   2.021   8.280   2.488 -1.7180  0.6190 -0.0058
13875SOL    HW243943   2.031   8.287   2.337  0.7363  0.4225  0.1166
13876SOL     OW43944   2.349   1.819   5.212  0.4379 -0.5315  0.1762
13876SOL    HW143945   2.401   1.886   5.258 -0.3621 -0.6697  1.3008
13876SOL    HW243946   2.390   1.736   5.235  0.0588 -0.5985  0.6134
13877SOL     OW43947   9.908   7.669   1.032 -0.0468 -0.0909  0.3040
13877SOL    HW143948   9.902   7.705   0.943  1.2211 -1.7956 -0.5408
13877SOL    HW243949   9.989   7.706   1.068 -0.0370 -0.1651  0.3582
13878SOL     OW43950   4.507   6.683   5.257 -0.5752  0.5516  0.2104
13878SOL    HW143951   4.538   6.612   5.314  1.0029  0.5771 -0.5679
13878SOL    HW243952   4.519   6.762   5.309 -0.0279  0.4782  0.2072
13879SOL     OW43953   8.217   1.527   1.401  0.3980 -0.1616  0.5037
13879SOL    HW143954   8.231   1.541   1.307  1.2545  1.1503  0.7959
13879SOL    HW243955   8.152   1.457   1.405  0.6647 -0.5507 -1.0602
13880SOL     OW43956   4.029   1.175   3.208 -0.0101 -0.0969  0.2652
13880SOL    HW143957   4.001   1.258   3.248  0.6041  0.3616 -0.2404
13880SOL    HW243958   4.089   1.201   3.138  1.8386 -1.0594  1.4168
13881SOL     OW43959   6.377   1.305   2.642 -0.0558 -0.2933 -0.8552
13881SOL    HW143960   6.375   1.219   2.599 -0.3922 -0.8502  0.2415
13881SOL    HW243961   6.303   1.304   2.701  1.0802 -0.0248  0.6328
13882SOL     OW43962   4.221   3.504   0.961 -0.2216 -0.2737  0.1174
13882SOL    HW143963   4.223   3.510   1.056 -0.5842  1.5442  0.0453
13882SOL    HW243964   4.156   3.569   0.934  0.2899 -0.3486 -1.3960
13883SOL     OW43965   9.948   4.611   2.319  0.2489  0.2370  0.0380
13883SOL    HW143966  10.000   4.535   2.290 -0.8368 -0.9411  1.0659
13883SOL    HW243967   9.857   4.586   2.302 -0.1177  1.4275  0.1595
13884SOL     OW43968   6.009   9.779   9.242  0.9155 -0.0763  0.0743
13884SOL    HW143969   5.967   9.835   9.177  1.1249 -1.8626 -1.7021
13884SOL    HW243970   5.968   9.693   9.230  2.6865 -1.0538  0.6046
13885SOL     OW43971   0.696   2.652   6.973  0.1417  0.5494 -0.4995
13885SOL    HW143972   0.637   2.724   6.996  1.2420  1.0563  0.8520
13885SOL    HW243973   0.773   2.666   7.027  1.5161 -0.1222 -2.2005
13886SOL     OW43974   6.319   6.933   0.326 -0.3236 -0.3983 -0.2903
13886SOL    HW143975   6.384   6.972   0.267  0.6819 -3.2148 -1.2274
13886SOL    HW243976   6.235   6.968   0.295  0.5088  1.5855 -0.4866
13887SOL     OW43977   0.931   2.274   1.507 -0.0904 -0.0499 -0.1249
13887SOL    HW143978   0.880   2.232   1.576 -0.4404  0.2754 -0.1812
13887SOL    HW243979   0.931   2.211   1.435  0.3367 -0.4201  0.1918
13888SOL     OW43980  10.269   7.074   9.251 -0.8852 -0.0147 -0.2248
13888SOL    HW143981  10.294   6.991   9.291  0.1773  0.7504  0.7607
13888SOL    HW243982  10.341   7.095   9.192 -0.9107  0.4465 -0.0939
13889SOL     OW43983   0.533   3.120   5.092  0.8415  0.0762 -0.0559
13889SOL    HW143984   0.615   3.140   5.047  0.3692 -1.6609 -1.8349
13889SOL    HW243985   0.484   3.065   5.030 -1.3930  0.5014  1.2046
13890SOL     OW43986   5.800   2.392   3.654 -0.2004  0.1916  0.1012
13890SOL    HW143987   5.858   2.466   3.672  0.2642  0.1717 -1.2040
13890SOL    HW243988   5.756   2.415   3.572 -2.2191  0.2997  1.1720
13891SOL     OW43989   2.429   3.084   0.704  0.6122  0.5128 -0.1937
13891SOL    HW143990   2.341   3.049   0.722 -0.0181  2.5095  0.9287
13891SOL    HW243991   2.414   3.154   0.640  1.3911  0.8155 -0.0552
13892SOL     OW43992   0.527   7.125   7.777  0.2774  0.3347  0.3175
13892SOL    HW143993   0.544   7.169   7.860  1.0272 -2.4502  1.7499
13892SOL    HW243994   0.437   7.096   7.784  0.1588  0.5903 -0.1168
13893SOL     OW43995   1.361   9.123   2.739  0.2956 -0.7544  0.4811
13893SOL    HW143996   1.379   9.105   2.832  1.5795 -3.8152 -0.2427
13893SOL    HW243997   1.444   9.158   2.706  0.7160 -2.1377 -0.0057
13894SOL     OW43998   5.737  10.019   1.765 -0.2217 -0.0945  0.3181
13894SOL    HW143999   5.825  10.024   1.728  0.7071 -0.6460  2.3140
13894SOL    HW244000   5.702  10.107   1.755  1.3803  0.7039  1.3109
13895SOL     OW44001   0.305   0.116   3.344 -0.2699  0.2702 -0.8161
13895SOL    HW144002   0.253   0.151   3.417 -0.3258  0.2914 -0.8665
13895SOL    HW244003   0.281   0.024   3.340  0.4155  0.0458 -0.2117
13896SOL     OW44004   8.282   1.814   4.096  0.0448  0.5770 -0.0532
13896SOL    HW144005   8.344   1.767   4.039 -0.2768  1.5632 -1.2556
13896SOL    HW244006   8.230   1.744   4.136  0.4559 -0.1618 -0.7592
13897SOL     OW44007   2.125   0.056   3.442  0.1699  0.4577  0.0051
13897SOL    HW144008   2.083   0.115   3.505  0.8827 -0.4634  1.3917
13897SOL    HW244009   2.196   0.015   3.492  0.0284 -1.1612 -1.0760
13898SOL     OW44010   3.025  10.345   5.889  0.4506 -0.6465  0.0081
13898SOL    HW144011   3.028  10.370   5.981  1.8379  0.0477 -0.1842
13898SOL    HW244012   2.944  10.296   5.879 -0.5461  0.6704  1.2394
13899SOL     OW44013   3.185   7.742   7.442 -0.1361  0.2520 -0.5636
13899SOL    HW144014   3.235   7.671   7.482 -0.3608 -0.0270 -0.7695
13899SOL    HW244015   3.102   7.743   7.489  0.4372  1.3845  0.4630
13900SOL     OW44016   1.434  10.268   0.786  0.1684 -0.8012  0.1770
13900SOL    HW144017   1.509  10.325   0.802  1.6233 -2.2845 -0.9829
13900SOL    HW244018   1.468  10.180   0.798 -1.1584 -1.5529 -1.2161
13901SOL     OW44019   2.311   7.874  10.055 -0.6144 -0.0563  0.2047
13901SOL    HW144020   2.279   7.875   9.965 -0.6327  0.2315  0.2147
13901SOL    HW244021   2.364   7.953  10.063 -0.5473 -0.1213  0.4241
13902SOL     OW44022  10.550   4.259   5.365 -0.0426 -0.1447  0.1485
13902SOL    HW144023  10.475   4.200   5.355 -0.6210  0.9534 -3.8454
13902SOL    HW244024  10.626   4.206   5.339  0.0180 -0.2289  0.4981
13903SOL     OW44025   8.922   3.396   0.973  0.0684  0.2113 -0.1074
13903SOL    HW144026   8.919   3.332   0.901 -0.1125  0.9065 -0.7298
13903SOL    HW244027   8.915   3.481   0.930  0.8292  0.6861  0.6676
13904SOL     OW44028  10.512   6.878   9.308 -0.1531 -0.0776 -0.2244
13904SOL    HW144029  10.555   6.956   9.272  1.8101 -1.0075 -0.0308
13904SOL    HW244030  10.532   6.808   9.246 -0.6638 -0.7306  0.3285
13905SOL     OW44031   6.771   5.536   0.979 -0.2482  0.2114 -0.1478
13905SOL    HW144032   6.746   5.557   1.069 -1.4919  0.3619 -0.5122
13905SOL    HW244033   6.690   5.506   0.938 -0.1706  2.0930 -1.8038
13906SOL     OW44034   3.051   0.793   1.041 -0.3576  0.3488 -0.0111
13906SOL    HW144035   2.963   0.811   1.010 -1.6360 -2.5432  1.5626
13906SOL    HW244036   3.058   0.842   1.124 -1.2588 -0.8931  0.8313
13907SOL     OW44037   7.007   2.456   1.054  0.3788  0.2681 -0.0933
13907SOL    HW144038   6.998   2.538   1.102  0.3544  0.0336  0.2995
13907SOL    HW244039   6.934   2.402   1.083  0.1613  0.2535 -0.6498
13908SOL     OW44040   3.641   6.620   4.350  0.4370  0.3563  0.1707
13908SOL    HW144041   3.689   6.697   4.321  4.1464 -1.7441  0.0867
13908SOL    HW244042   3.616   6.576   4.269  0.8637  0.0828  0.1825
13909SOL     OW44043   2.972   3.477  10.081  0.1362  0.1839  0.7483
13909SOL    HW144044   2.895   3.421  10.087 -0.3467  0.7533  0.1160
13909SOL    HW244045   3.031   3.445  10.149  0.1447 -1.4873 -0.0005
13910SOL     OW44046   0.354   8.041   8.689 -0.7416 -0.6033  0.1332
13910SOL    HW144047   0.267   8.012   8.717 -0.7581  0.0570  0.7914
13910SOL    HW244048   0.415   7.993   8.745 -0.7442  0.0746  0.7307
13911SOL     OW44049   9.376   1.593   5.807  0.7926  0.1471 -0.2738
13911SOL    HW144050   9.395   1.675   5.763  0.1484  0.3131 -0.2522
13911SOL    HW244051   9.454   1.540   5.794  0.8766  0.4478 -1.0221
13912SOL     OW44052   6.319   3.267   5.915  0.3462  0.1141  0.5980
13912SOL    HW144053   6.402   3.306   5.888 -0.1082  0.7982  0.1544
13912SOL    HW244054   6.278   3.333   5.971 -0.5283  0.3875 -0.3326
13913SOL     OW44055   5.665   5.418   8.953  0.5697 -0.3692 -0.1547
13913SOL    HW144056   5.576   5.433   8.921  1.3568 -0.3772 -2.6103
13913SOL    HW244057   5.678   5.323   8.944  1.3349 -0.1699 -1.4471
13914SOL     OW44058   9.178   2.461   4.244  0.1219 -0.5802 -0.2917
13914SOL    HW144059   9.118   2.461   4.170  2.0158  0.0649 -1.9104
13914SOL    HW244060   9.127   2.425   4.317 -2.8672  1.9063 -0.9708
13915SOL     OW44061   2.488   5.671   4.062  0.2251  0.2387 -0.1286
13915SOL    HW144062   2.504   5.764   4.048 -0.5007  0.4657  0.4823
13915SOL    HW244063   2.545   5.627   3.999 -0.6769  1.1371 -1.6344
13916SOL     OW44064   9.907   5.952   3.680 -0.1657  0.3930  0.4217
13916SOL    HW144065   9.818   5.974   3.653 -0.1669 -0.8442 -0.7409
13916SOL    HW244066   9.946   6.035   3.708 -0.7920  1.4884 -1.7226
13917SOL     OW44067   5.609  10.597   2.143  0.0402 -0.6461  0.2123
13917SOL    HW144068   5.531  10.581   2.090 -0.5056 -2.0639  1.4106
13917SOL    HW244069   5.618  10.520   2.198  2.4245 -0.6234 -0.0270
13918SOL     OW44070   4.909   6.500  10.308 -0.4386 -0.3112 -0.4457
13918SOL    HW144071   4.844   6.474  10.373 -0.2966  0.5397  0.0524
13918SOL    HW244072   4.976   6.547  10.359 -1.3022  2.1480 -1.4231
13919SOL     OW44073   6.125   1.703   0.758 -0.2196  0.1736  0.0991
13919SOL    HW144074   6.039   1.705   0.716  0.0671 -0.4422 -0.5393
13919SOL    HW244075   6.132   1.615   0.795  0.7021 -0.3014 -1.1061
13920SOL     OW44076   1.059   9.388   7.335 -0.2051  0.3905  0.0860
13920SOL    HW144077   0.975   9.405   7.292 -0.2250  0.4211  0.1368
13920SOL    HW244078   1.040   9.320   7.399  0.1393 -0.7994 -1.0160
13921SOL     OW44079   3.213   7.371   6.292 -0.4592 -0.0818  0.3310
13921SOL    HW144080   3.162   7.319   6.354 -2.2563  1.4815  0.2473
13921SOL    HW244081   3.249   7.442   6.344  1.9903 -1.3316  0.4459
13922SOL     OW44082   7.348   5.292   1.252 -0.0293 -0.0367  0.0464
13922SOL    HW144083   7.260   5.265   1.224  0.4324 -1.0748 -0.4370
13922SOL    HW244084   7.405   5.219   1.227  1.3312  1.5189 -1.6476
13923SOL     OW44085  10.088   6.829   4.654 -0.0589  0.3007  0.5043
13923SOL    HW144086  10.108   6.748   4.606  1.2955  1.9968 -1.9763
13923SOL    HW244087   9.993   6.839   4.646  0.2379  1.3772 -3.5398
13924SOL     OW44088   4.249   0.378   4.970  0.0112  0.3244  0.1778
13924SOL    HW144089   4.317   0.321   5.005  0.0276  0.4169  0.2986
13924SOL    HW244090   4.289   0.465   4.968  0.0790  0.2857 -0.2682
13925SOL     OW44091   7.879   3.559   0.586  0.2555  0.2226  0.6479
13925SOL    HW144092   7.790   3.552   0.552  0.4057 -1.7342  0.5435
13925SOL    HW244093   7.934   3.522   0.517  1.0251  0.3042  1.1991
13926SOL     OW44094   4.462   4.918   6.960 -0.1763 -0.5772 -0.1302
13926SOL    HW144095   4.452   4.871   6.877  0.6312 -0.0522 -0.5382
13926SOL    HW244096   4.413   4.866   7.023 -0.2182 -1.3624 -0.7942
13927SOL     OW44097   8.958   5.918   7.230  0.3663 -0.3186 -0.3982
13927SOL    HW144098   9.031   5.862   7.203 -0.2590 -0.1213 -2.7247
13927SOL    HW244099   8.951   5.904   7.324  2.0038 -2.0132 -0.4609
13928SOL     OW44100   4.225   9.308   5.889  0.4944  0.3525  0.4625
13928SOL    HW144101   4.215   9.332   5.797  0.4988  1.7638  0.7992
13928SOL    HW244102   4.158   9.360   5.934  2.9259  2.7266  1.6710
13929SOL     OW44103   3.607   8.663   6.329  0.0808  0.0642  0.2284
13929SOL    HW144104   3.605   8.575   6.291 -0.7033 -0.0158  0.4496
13929SOL    HW244105   3.671   8.711   6.275  1.2163 -0.8867  0.6847
13930SOL     OW44106   5.443   8.193   5.783 -0.2151  0.1970  0.5821
13930SOL    HW144107   5.358   8.202   5.826 -1.0177  2.7272 -1.2843
13930SOL    HW244108   5.426   8.136   5.708  0.5831 -1.9893  1.9440
13931SOL     OW44109   5.404   2.787   5.013  0.2452  0.2244 -0.8392
13931SOL    HW144110   5.494   2.812   5.033 -0.3084  1.2415  0.5489
13931SOL    HW244111   5.362   2.869   4.987 -1.1329  0.4960  1.9068
13932SOL     OW44112   3.146   9.025   5.547 -0.0457  0.1463  0.1183
13932SOL    HW144113   3.187   9.050   5.630 -0.1601 -1.1044  0.5701
13932SOL    HW244114   3.065   9.076   5.545  0.4079  0.8874  0.3234
13933SOL     OW44115   1.690   6.136   3.540 -0.4352 -0.1364  0.6328
13933SOL    HW144116   1.775   6.112   3.503 -0.6379  1.1166 -0.7628
13933SOL    HW244117   1.707   6.215   3.591 -0.7492  0.1156  0.3536
13934SOL     OW44118   1.152   1.097   6.814  0.7941 -0.8465 -0.4981
13934SOL    HW144119   1.060   1.090   6.841  0.4788 -0.0931 -1.2938
13934SOL    HW244120   1.199   1.038   6.873  0.4442  1.9313  2.8798
13935SOL     OW44121   8.144   5.331   6.579 -0.3242 -0.0089 -0.1721
13935SOL    HW144122   8.174   5.422   6.568  1.5600 -0.6395 -0.6666
13935SOL    HW244123   8.100   5.310   6.497  0.7454 -0.0585 -0.7509
13936SOL     OW44124   0.501   3.151   3.614 -0.1981 -0.5425 -0.4384
13936SOL    HW144125   0.572   3.152   3.550  0.2694  2.0213  0.0120
13936SOL    HW244126   0.428   3.195   3.570  0.0827  1.1179  0.6484
13937SOL     OW44127   8.463   5.732   3.874  0.3051 -0.0710  0.4021
13937SOL    HW144128   8.446   5.809   3.929 -1.1403  0.0993 -0.2609
13937SOL    HW244129   8.377   5.701   3.847  0.8318 -2.1869  0.9598
13938SOL     OW44130   8.751   0.796   1.417 -0.0016  0.2234 -0.4275
13938SOL    HW144131   8.797   0.845   1.349 -0.4013 -0.0843 -0.9187
13938SOL    HW244132   8.673   0.848   1.435 -0.1369  0.0617 -0.5438
13939SOL     OW44133   1.132   6.581   3.442 -0.1824  0.5764  0.7295
13939SOL    HW144134   1.047   6.560   3.402  0.9365 -0.0113 -1.4482
13939SOL    HW244135   1.119   6.667   3.480 -2.2432 -0.2042  1.9716
13940SOL     OW44136   6.802   3.842   4.344  0.6293  0.4533 -0.1172
13940SOL    HW144137   6.895   3.826   4.332  0.5009  0.5976 -1.4271
13940SOL    HW244138   6.796   3.936   4.363  0.6478  0.7533 -1.5063
13941SOL     OW44139   2.990   0.090   3.330  0.1995  0.6526  0.2052
13941SOL    HW144140   3.070   0.094   3.382  1.6034 -2.7703 -1.3843
13941SOL    HW244141   3.019   0.074   3.241 -2.2060  4.3193 -1.4671
13942SOL     OW44142   4.669  10.164   3.643 -0.6605 -0.0190 -0.2175
13942SOL    HW144143   4.734  10.150   3.575 -0.8903 -1.4866 -0.1616
13942SOL    HW244144   4.643  10.076   3.671  0.4465  0.4619  2.7629
13943SOL     OW44145  10.468   5.044   7.652  0.6157 -0.6492  0.2300
13943SOL    HW144146  10.516   5.060   7.734 -0.7245  0.3842  0.8517
13943SOL    HW244147  10.407   5.117   7.646  0.6801 -0.7049 -1.7209
13944SOL     OW44148   5.078   9.820   6.468  0.1750 -0.0382 -0.1958
13944SOL    HW144149   5.043   9.738   6.433  0.1324  0.4840 -1.4329
13944SOL    HW244150   5.129   9.794   6.544  0.2318 -1.2227 -0.6245
13945SOL     OW44151   8.651   7.000   3.386 -0.2967  0.3239 -0.3512
13945SOL    HW144152   8.639   7.087   3.424 -0.4511  0.9853 -1.8518
13945SOL    HW244153   8.721   7.011   3.322  0.0903 -0.8087 -0.1563
13946SOL     OW44154   3.548   0.555   6.619  0.0602  0.1960 -0.0392
13946SOL    HW144155   3.493   0.632   6.609  0.1963  0.2664 -0.2439
13946SOL    HW244156   3.519   0.494   6.551 -1.0115 -0.5162  1.0053
13947SOL     OW44157   5.871   1.016   5.765  0.1422  0.3256  0.1148
13947SOL    HW144158   5.800   1.075   5.741 -0.7328 -1.3976 -1.8261
13947SOL    HW244159   5.867   1.011   5.861 -2.5903  0.0408  0.0651
13948SOL     OW44160   4.382  10.547   0.023  0.0181 -0.2017 -0.3428
13948SOL    HW144161   4.415  10.531   0.112 -0.5863 -0.2759 -0.1277
13948SOL    HW244162   4.293  10.513   0.024  0.2103 -0.7536 -1.1602
13949SOL     OW44163   5.255   5.217   8.855  0.0462 -0.3632 -0.5919
13949SOL    HW144164   5.211   5.293   8.816 -0.8713 -0.6679 -0.1825
13949SOL    HW244165   5.335   5.206   8.804 -0.0985  0.5303 -1.0195
13950SOL     OW44166   7.525   1.587   7.744 -0.2927  0.3692 -0.4629
13950SOL    HW144167   7.538   1.492   7.741 -0.3688  0.3780 -1.3742
13950SOL    HW244168   7.497   1.610   7.655 -0.6212  1.1964 -0.1501
13951SOL     OW44169   8.180   3.551   9.031 -0.1947  0.0548  0.3903
13951SOL    HW144170   8.255   3.568   9.089 -0.0894  0.6708  0.0805
13951SOL    HW244171   8.140   3.472   9.067  1.5916 -1.3079 -0.4288
13952SOL     OW44172   5.529  10.591   4.602  0.2504 -0.2831 -0.1782
13952SOL    HW144173   5.554  10.533   4.674 -1.8917  0.9026  1.6825
13952SOL    HW244174   5.551  10.679   4.633  0.0152  0.2005 -1.3177
13953SOL     OW44175   0.113   5.501  10.004 -0.0267  0.0689  0.0515
13953SOL    HW144176   0.092   5.415   9.968 -2.6393  0.9018 -0.6054
13953SOL    HW244177   0.202   5.491  10.038 -0.7168 -3.3314  1.3409
13954SOL     OW44178   0.029   3.510   1.066 -0.1898  0.1043  0.5350
13954SOL    HW144179  -0.042   3.554   1.112  0.0830  0.5200  0.5657
13954SOL    HW244180  -0.002   3.501   0.976 -0.3282  0.1801  0.5751
13955SOL     OW44181   6.369   2.589   0.554 -0.2812  0.4256  0.2776
13955SOL    HW144182   6.367   2.652   0.482 -0.5045 -0.4694 -0.5382
13955SOL    HW244183   6.459   2.591   0.586 -0.7521  2.5617  1.5881
13956SOL     OW44184   6.401   8.663   3.435  0.1337 -0.6316 -0.8578
13956SOL    HW144185   6.448   8.720   3.374  0.7757  0.1531  0.3523
13956SOL    HW244186   6.436   8.684   3.521 -3.3948  1.0782  0.3693
13957SOL     OW44187   0.411   6.673   7.596 -0.5206 -0.3380  0.2102
13957SOL    HW144188   0.388   6.761   7.566 -1.0772 -0.2754  0.7920
13957SOL    HW244189   0.420   6.681   7.691  0.3475 -0.7169  0.1714
13958SOL     OW44190  10.322   5.793   7.687  0.1485 -0.4095  0.5227
13958SOL    HW144191  10.320   5.699   7.671  0.3774 -0.8077  2.5111
13958SOL    HW244192  10.405   5.822   7.648  1.9247 -1.7573  2.9991
13959SOL     OW44193   8.535  10.206   7.662 -0.0762  0.5586  0.2223
13959SOL    HW144194   8.506  10.170   7.579  0.6334 -0.3927  0.3615
13959SOL    HW244195   8.457  10.247   7.700 -0.4335  0.8713 -0.8344
13960SOL     OW44196   3.174   4.569   3.105 -0.3501 -0.5061 -0.3046
13960SOL    HW144197   3.227   4.619   3.043 -3.0722 -0.8104 -3.1427
13960SOL    HW244198   3.102   4.628   3.127  0.1582 -0.7009  2.0573
13961SOL     OW44199   3.565   5.527   7.470  0.1637  0.5433  0.6928
13961SOL    HW144200   3.532   5.614   7.451 -0.6234  0.4130  1.3955
13961SOL    HW244201   3.504   5.492   7.536 -0.1657 -0.9309 -0.3326
13962SOL     OW44202   4.274   9.034   9.064  0.1863 -0.1278 -0.1319
13962SOL    HW144203   4.335   9.081   9.121 -3.5936  2.0842  2.4638
13962SOL    HW244204   4.249   9.099   8.998 -2.0428  0.3479  1.0857
13963SOL     OW44205  10.393   6.566   9.336 -0.3442 -0.4298 -0.5087
13963SOL    HW144206  10.456   6.541   9.269  0.0723  1.4006 -0.8560
13963SOL    HW244207  10.442   6.562   9.418 -0.1528 -0.3277 -0.6171
13964SOL     OW44208   3.882   8.201   7.541 -0.1861 -0.0629  0.1809
13964SOL    HW144209   3.885   8.178   7.634 -1.2934  1.2149  0.5522
13964SOL    HW244210   3.791   8.188   7.515 -0.2343  1.1470 -0.3068
13965SOL     OW44211   4.462   6.983   4.555 -0.5219  0.6546  0.0306
13965SOL    HW144212   4.471   7.078   4.552 -0.5215  0.6730  0.4997
13965SOL    HW244213   4.534   6.950   4.501  0.9980  0.8641  1.8285
13966SOL     OW44214   9.633   2.252   2.902 -0.0056 -0.2488  0.3044
13966SOL    HW144215   9.606   2.232   2.991 -0.2214  0.3064  0.3686
13966SOL    HW244216   9.611   2.173   2.852  0.2316 -0.6066  0.7628
13967SOL     OW44217   1.081   2.110  10.492  0.6801  0.0419 -0.0195
13967SOL    HW144218   1.101   2.063  10.410  1.7685 -1.3761  1.0026
13967SOL    HW244219   1.125   2.195  10.482 -1.1154  0.8341 -1.8100
13968SOL     OW44220   7.701   7.619   1.857 -0.2276 -0.4300  0.4606
13968SOL    HW144221   7.692   7.528   1.887 -0.6498 -0.9385 -1.0847
13968SOL    HW244222   7.783   7.618   1.806 -0.1948  0.0792  0.5060
13969SOL     OW44223   2.499   4.118   1.570 -0.1776 -0.1459 -0.4789
13969SOL    HW144224   2.441   4.166   1.510 -0.7184 -2.3227 -1.8003
13969SOL    HW244225   2.462   4.134   1.657 -0.0120  2.1969 -0.7529
13970SOL     OW44226   4.269   8.504   5.311  0.1381  0.5349  0.4898
13970SOL    HW144227   4.330   8.576   5.294  2.6389 -1.2005  1.5420
13970SOL    HW244228   4.230   8.485   5.225  1.3059  1.5447 -0.2970
13971SOL     OW44229   7.626   1.454   3.679  0.3162  0.3588 -0.4901
13971SOL    HW144230   7.561   1.467   3.609  0.6204  0.1298 -0.8186
13971SOL    HW244231   7.699   1.510   3.654 -0.1572  1.4303  0.4264
13972SOL     OW44232   1.578   0.959   1.499 -0.2964 -0.6346  0.0073
13972SOL    HW144233   1.505   0.938   1.441 -0.3780 -2.1539  0.6194
13972SOL    HW244234   1.641   0.889   1.484  1.1801  0.7685 -0.6765
13973SOL     OW44235   0.392   5.020   7.033  0.1199  0.7111 -0.2945
13973SOL    HW144236   0.337   4.942   7.041 -0.5282  1.2162  0.2891
13973SOL    HW244237   0.482   4.988   7.044 -0.1204  0.0095 -0.3650
13974SOL     OW44238   6.647   0.049   8.551  0.0051 -0.0189 -0.3251
13974SOL    HW144239   6.594   0.128   8.539  0.7919  0.4304 -0.9483
13974SOL    HW244240   6.730   0.081   8.586 -0.5441 -0.8457  1.8530
13975SOL     OW44241   6.612   9.218   6.014  0.1464  0.5504  0.0763
13975SOL    HW144242   6.586   9.238   5.924  1.5885  1.7698 -0.0952
13975SOL    HW244243   6.595   9.299   6.062  1.6683  0.7198  0.3713
13976SOL     OW44244   3.929   6.863   0.120  0.1357 -0.2907 -0.5213
13976SOL    HW144245   3.909   6.814   0.200  3.7268  2.3528  2.3605
13976SOL    HW244246   4.004   6.818   0.082  1.5154  1.0556  0.4554
13977SOL     OW44247   5.990   5.283   3.231 -0.5314  0.1512 -0.5156
13977SOL    HW144248   5.922   5.339   3.193 -0.6159  2.2914  2.4631
13977SOL    HW244249   6.072   5.326   3.208 -0.4791  0.3143 -0.0391
13978SOL     OW44250   5.686  10.328   5.887  0.2411  0.5625  0.3644
13978SOL    HW144251   5.778  10.306   5.877  0.0466 -0.4054  0.5982
13978SOL    HW244252   5.675  10.411   5.839  0.9267 -0.0403 -0.8665
13979SOL     OW44253   6.953   4.058   1.849  0.3368 -0.0292  0.4693
13979SOL    HW144254   6.881   4.076   1.909  0.0872 -0.7701  0.4014
13979SOL    HW244255   6.911   4.046   1.764  0.4439 -1.3132  0.5871
13980SOL     OW44256   5.125   5.669   5.889 -0.3732 -0.9225  0.3502
13980SOL    HW144257   5.206   5.661   5.839 -0.3229  2.0428 -0.2834
13980SOL    HW244258   5.154   5.678   5.980  0.1954  1.2597  0.0145
13981SOL     OW44259   6.487   4.131   0.957  0.2162  0.1487 -0.9809
13981SOL    HW144260   6.439   4.177   0.888 -0.1942  0.7008 -0.3327
13981SOL    HW244261   6.516   4.200   1.017  0.4926 -0.3359 -0.5472
13982SOL     OW44262   0.810   8.215   1.171  0.5178  0.3363  0.2939
13982SOL    HW144263   0.730   8.165   1.156  0.6420  0.5091 -1.1323
13982SOL    HW244264   0.870   8.153   1.212 -0.9393  0.7341  3.2485
13983SOL     OW44265   1.856   9.906   4.914 -0.1934  0.4227 -0.5757
13983SOL    HW144266   1.765   9.900   4.942  0.3976 -1.0628  1.2275
13983SOL    HW244267   1.894   9.974   4.969  0.3253 -0.6338  0.4219
13984SOL     OW44268   0.739   1.775   7.415  0.4315 -0.5114  0.0700
13984SOL    HW144269   0.655   1.759   7.373 -1.1644  0.8085  2.4824
13984SOL    HW244270   0.803   1.771   7.344 -1.7395 -0.7286 -2.0089
13985SOL     OW44271   3.633   6.958   7.153 -0.4226 -0.0781  0.0864
13985SOL    HW144272   3.637   7.032   7.213  0.0720 -1.7905  2.2894
13985SOL    HW244273   3.589   6.889   7.203 -0.1154 -1.5552 -1.5839
13986SOL     OW44274   5.423   3.343   0.886 -0.1783 -1.1308 -0.0062
13986SOL    HW144275   5.478   3.314   0.813  0.3304 -0.9623  0.3003
13986SOL    HW244276   5.485   3.360   0.957 -0.6659 -1.2869  0.4632
13987SOL     OW44277   6.813   8.083   4.077 -0.7946  0.5023  0.3139
13987SOL    HW144278   6.834   8.173   4.101 -0.2231  0.7180 -0.9083
13987SOL    HW244279   6.728   8.066   4.117 -0.6345  1.3802  1.0494
13988SOL     OW44280   3.909   9.631  10.276 -0.1207 -0.4788 -0.1093
13988SOL    HW144281   3.841   9.678  10.228 -0.4694  0.0304  0.8555
13988SOL    HW244282   3.862   9.584  10.344  0.5795  1.0636  1.5297
13989SOL     OW44283   1.229   8.465   1.332  0.0097  0.2439 -0.5402
13989SOL    HW144284   1.162   8.415   1.285  0.3418 -0.4456 -0.2967
13989SOL    HW244285   1.222   8.436   1.423  0.6331  0.1620 -0.5112
13990SOL     OW44286   6.285   9.811   2.859 -0.1261  0.5834  0.1244
13990SOL    HW144287   6.279   9.715   2.863 -0.6365  0.5735 -0.5360
13990SOL    HW244288   6.207   9.842   2.905  0.3612  0.6979  0.8787
13991SOL     OW44289   6.744   7.071   6.575 -0.2030 -0.1921 -0.1826
13991SOL    HW144290   6.725   7.143   6.635  0.4368 -0.8257  0.8104
13991SOL    HW244291   6.661   7.054   6.532 -1.4133 -1.3835  2.3944
13992SOL     OW44292   9.722   2.586   6.850 -0.4787  0.1600 -0.0849
13992SOL    HW144293   9.795   2.640   6.878 -0.7136  1.8168 -2.3802
13992SOL    HW244294   9.746   2.497   6.876  2.6845  0.5284 -1.3690
13993SOL     OW44295   3.400   5.928   7.170 -0.4645 -0.2385  0.2448
13993SOL    HW144296   3.462   5.986   7.125 -0.2239  0.5169  1.4917
13993SOL    HW244297   3.452   5.853   7.199 -0.3828 -0.1912  0.2194
13994SOL     OW44298   1.609   3.626   9.813  0.0433 -0.4345  0.1449
13994SOL    HW144299   1.604   3.534   9.838  0.4454 -0.5756 -0.2798
13994SOL    HW244300   1.530   3.642   9.762  0.0596 -0.5883  0.0712
13995SOL     OW44301   9.521   1.553   3.053  0.2530 -0.1253 -0.7981
13995SOL    HW144302   9.571   1.577   2.975  0.7523 -0.1135 -0.4828
13995SOL    HW244303   9.546   1.618   3.119  0.2129 -0.4179 -0.4870
13996SOL     OW44304   4.844   5.704   1.452 -0.3977  0.9989 -0.0746
13996SOL    HW144305   4.760   5.658   1.442 -0.7578  1.6801 -0.2158
13996SOL    HW244306   4.843   5.735   1.543  0.6058 -0.7330  0.5788
13997SOL     OW44307   7.710   6.741   5.892  0.3723  0.2726  0.2916
13997SOL    HW144308   7.640   6.685   5.857 -0.2191  2.0830 -1.6288
13997SOL    HW244309   7.777   6.742   5.824  0.8698  1.0263  0.7768
13998SOL     OW44310   2.344   7.568   3.797 -0.6168 -0.0080 -0.6475
13998SOL    HW144311   2.392   7.531   3.871  0.6825 -0.0058 -1.4643
13998SOL    HW244312   2.253   7.571   3.827 -0.3673 -1.4655  0.3833
13999SOL     OW44313   7.772   3.088   0.903 -0.9312  1.1463  0.3457
13999SOL    HW144314   7.773   3.183   0.916 -0.0846  1.2796 -0.5560
13999SOL    HW244315   7.842   3.056   0.960 -2.0960  0.8902  1.6823
14000SOL     OW44316   0.896   4.840   5.063  0.4556  0.3716  0.0312
14000SOL    HW144317   0.914   4.747   5.052  0.3322  0.4912 -1.3493
14000SOL    HW244318   0.801   4.847   5.058  0.4354  0.5341  0.5613
14001SOL     OW44319   4.980   6.813   1.359 -0.5924 -0.0462 -0.3248
14001SOL    HW144320   5.036   6.807   1.436 -1.2064  0.3020  0.1533
14001SOL    HW244321   5.038   6.790   1.286 -0.6271 -2.9980  0.4745
14002SOL     OW44322   5.889   2.907   2.324 -0.4229 -0.2393 -0.8459
14002SOL    HW144323   5.920   2.963   2.395 -1.8138 -0.4155 -0.0581
14002SOL    HW244324   5.903   2.959   2.244 -0.0541  0.4927 -0.3154
14003SOL     OW44325   2.922   9.447   9.596  0.0228  0.3217  0.2986
14003SOL    HW144326   2.861   9.421   9.527  0.4587  0.3290 -0.0919
14003SOL    HW244327   2.931   9.541   9.586  1.5509  0.0894 -0.8644
14004SOL     OW44328   0.879   3.432   5.222 -0.3586 -1.0310 -0.2135
14004SOL    HW144329   0.863   3.513   5.174  0.6666  1.4186  3.2081
14004SOL    HW244330   0.792   3.402   5.249 -0.6233  0.3133  0.4930
14005SOL     OW44331   7.658   8.280   2.296 -0.5009 -0.3852  0.2322
14005SOL    HW144332   7.645   8.373   2.315  0.6271 -0.5464  2.0703
14005SOL    HW244333   7.648   8.273   2.201 -1.9777  1.3569  0.2077
14006SOL     OW44334   7.820   7.821   7.977  0.3541  0.5349 -0.7878
14006SOL    HW144335   7.859   7.909   7.974  0.5225  0.4788 -0.3035
14006SOL    HW244336   7.798   7.808   8.069 -1.6032  0.9091 -1.1573
14007SOL     OW44337   7.752   8.509   5.167  0.0983  0.1602 -0.5643
14007SOL    HW144338   7.747   8.413   5.165  2.9054 -0.0790 -1.5158
14007SOL    HW244339   7.803   8.529   5.245 -1.3353  1.0056  0.1982
14008SOL     OW44340   1.619   8.752   3.131 -0.4945  0.0461  0.2741
14008SOL    HW144341   1.644   8.756   3.039  1.5695  2.6816  0.8290
14008SOL    HW244342   1.690   8.703   3.172 -1.0026 -0.4315  0.5913
14009SOL     OW44343   0.493   3.575   7.602  0.0456  0.5799  0.1731
14009SOL    HW144344   0.558   3.632   7.561 -0.5849  0.4293 -1.0788
14009SOL    HW244345   0.466   3.515   7.532 -1.7496  0.9059  0.5457
14010SOL     OW44346   5.229   6.381   8.610  0.1820  0.4541 -0.0582
14010SOL    HW144347   5.253   6.288   8.617  1.2292  0.5744 -1.4694
14010SOL    HW244348   5.287   6.415   8.542  0.0225  2.2295  0.6466
14011SOL     OW44349   1.359   5.069   3.647  0.1563 -0.4264 -0.0712
14011SOL    HW144350   1.319   5.102   3.727 -1.2096  0.1290 -0.9514
14011SOL    HW244351   1.308   5.108   3.576  1.6491 -0.4836 -1.2399
14012SOL     OW44352   9.158   7.821   2.677 -0.3775 -0.3686 -0.1485
14012SOL    HW144353   9.068   7.824   2.711 -0.0892  1.1638  0.5564
14012SOL    HW244354   9.167   7.904   2.630  0.5543 -0.6911 -0.5451
14013SOL     OW44355   3.077   2.467   2.454  0.3115  0.2791 -0.2058
14013SOL    HW144356   2.994   2.462   2.406 -0.5461  0.6163  1.1891
14013SOL    HW244357   3.136   2.409   2.406 -1.1328 -1.0695 -0.4420
14014SOL     OW44358   1.301   0.614   2.781 -0.2356 -0.8447  0.0644
14014SOL    HW144359   1.271   0.646   2.695 -0.5255 -1.1341  0.0577
14014SOL    HW244360   1.377   0.668   2.801 -0.9652  0.1504  0.2452
14015SOL     OW44361   8.969   0.877   0.779 -0.6884 -0.2807 -0.2077
14015SOL    HW144362   8.877   0.878   0.803 -0.4153 -0.5646  0.9010
14015SOL    HW244363   9.014   0.913   0.856  0.3260 -2.3355  0.2101
14016SOL     OW44364   3.413   0.967   7.758 -0.8391 -0.4462  0.2715
14016SOL    HW144365   3.456   0.885   7.781 -1.5026 -1.0790 -0.6638
14016SOL    HW244366   3.484   1.025   7.733 -0.5178 -1.7821 -2.2125
14017SOL     OW44367   1.728   7.583   2.338  0.2943 -0.1801 -0.2213
14017SOL    HW144368   1.661   7.642   2.371  0.6989 -0.1027  0.4806
14017SOL    HW244369   1.725   7.508   2.397  3.4230  1.4627  2.3408
14018SOL     OW44370   6.390   9.802   2.356 -0.0722 -0.3136  0.1482
14018SOL    HW144371   6.406   9.765   2.270  1.9844 -1.6526  1.0214
14018SOL    HW244372   6.414   9.733   2.418 -2.2917  0.3023  1.8245
14019SOL     OW44373   8.790  10.269   1.521  0.0003 -0.3263 -0.1559
14019SOL    HW144374   8.829  10.181   1.514  1.0204  0.0381  0.5834
14019SOL    HW244375   8.811  10.311   1.438 -1.4138 -1.1211 -0.9367
14020SOL     OW44376   7.439   2.722   9.785  0.6407  0.1501 -0.4847
14020SOL    HW144377   7.453   2.633   9.816  1.8104  0.2963 -0.5468
14020SOL    HW244378   7.471   2.778   9.855  0.1273  0.5300 -0.5425
14021SOL     OW44379   3.282   2.209   6.279 -0.0344 -0.3025  0.2146
14021SOL    HW144380   3.364   2.258   6.277 -0.2056 -0.0185 -0.9020
14021SOL    HW244381   3.309   2.117   6.283  0.4829 -0.3900 -2.7835
14022SOL     OW44382   3.446   5.828   9.426 -0.4472  0.0232  0.0930
14022SOL    HW144383   3.399   5.907   9.400 -2.6136 -1.1266  0.3327
14022SOL    HW244384   3.396   5.793   9.500  1.8768 -0.2921  1.6297
14023SOL     OW44385   2.853   9.911   3.048 -0.2113 -0.9037  0.0989
14023SOL    HW144386   2.792   9.841   3.025 -2.2356  0.8059 -0.0443
14023SOL    HW244387   2.825   9.986   2.996  0.0727  0.8295  2.2903
14024SOL     OW44388   8.455   5.633   3.268  0.0465  0.1691  0.1251
14024SOL    HW144389   8.393   5.687   3.317  3.1908  3.3865  0.9596
14024SOL    HW244390   8.475   5.686   3.190  1.5886 -0.8297 -0.1946
14025SOL     OW44391   2.149   6.737   0.929  0.1857  0.2696  0.3506
14025SOL    HW144392   2.068   6.782   0.905 -0.7597 -1.7778 -0.5412
14025SOL    HW244393   2.126   6.685   1.005  0.3995 -0.9301 -0.3723
14026SOL     OW44394   8.969   3.886   8.535  0.1213  0.2220  0.0685
14026SOL    HW144395   8.985   3.808   8.481 -0.4189 -0.2631  0.5955
14026SOL    HW244396   9.051   3.935   8.532 -0.1469  0.6374 -1.8785
14027SOL     OW44397   3.291   1.701   0.399  0.0854 -0.3337 -0.1447
14027SOL    HW144398   3.358   1.762   0.429 -2.7879  3.6896 -1.0184
14027SOL    HW244399   3.239   1.681   0.478  0.6783 -1.2616  0.0276
14028SOL     OW44400   9.051   1.535   1.551  0.0016 -0.2279  0.8360
14028SOL    HW144401   9.033   1.548   1.458  0.6830  0.0707  0.7373
14028SOL    HW244402   9.020   1.614   1.594  0.4994  0.0214  0.7440
14029SOL     OW44403   8.277   2.734   3.735 -0.6899  0.0280 -0.0489
14029SOL    HW144404   8.202   2.734   3.794 -0.3190  0.3570  0.4321
14029SOL    HW244405   8.305   2.825   3.731  0.0815 -0.1821  0.2945
14030SOL     OW44406   3.875   1.411   5.407 -0.0499 -0.5800  0.1804
14030SOL    HW144407   3.852   1.492   5.452  1.0171 -0.4721  0.5610
14030SOL    HW244408   3.809   1.348   5.434 -0.7827  0.1090  0.0237
14031SOL     OW44409   1.534   9.526   4.162 -0.2091  0.2656 -0.0488
14031SOL    HW144410   1.464   9.514   4.227 -0.0195  0.2810  0.1610
14031SOL    HW244411   1.545   9.620   4.156 -2.4510  0.4808 -2.5071
14032SOL     OW44412   0.106   2.481   0.726 -0.0123 -0.2624  0.1463
14032SOL    HW144413   0.060   2.510   0.647 -2.2275  0.9428  1.7506
14032SOL    HW244414   0.062   2.399   0.750 -0.3195  0.1156  0.8845
14033SOL     OW44415   0.288   6.464   0.041  0.6891 -0.3714  0.5033
14033SOL    HW144416   0.274   6.547  -0.005 -0.9609 -0.5500  0.5930
14033SOL    HW244417   0.374   6.434   0.014  0.7887  0.7672 -0.4893
14034SOL     OW44418  10.210   8.549  10.377  0.6232  0.8542 -0.0114
14034SOL    HW144419  10.249   8.552  10.465  2.9873  0.6392 -0.9770
14034SOL    HW244420  10.217   8.638  10.344  0.2013  0.8287 -0.1752
14035SOL     OW44421   9.799   8.540   3.056  0.1915  0.6812  0.2199
14035SOL    HW144422   9.869   8.516   3.118 -0.2404  0.9051  0.8028
14035SOL    HW244423   9.793   8.635   3.063 -1.2546  0.5464  1.3880
14036SOL     OW44424   7.509   5.202   1.942 -0.7076 -0.4454 -0.1115
14036SOL    HW144425   7.443   5.212   1.873  0.9069 -0.3259 -1.7352
14036SOL    HW244426   7.574   5.142   1.905  0.9058  0.6832  0.7338
14037SOL     OW44427   4.767   1.968   8.800  0.2503  0.3860 -0.3625
14037SOL    HW144428   4.845   2.004   8.843  0.4445  0.2870 -0.6277
14037SOL    HW244429   4.693   2.007   8.847  0.4602  0.2272  0.0984
14038SOL     OW44430   0.518   0.668   8.218 -0.2804 -0.0254 -0.6824
14038SOL    HW144431   0.501   0.740   8.157 -0.5100  0.4555 -0.0584
14038SOL    HW244432   0.431   0.635   8.241 -0.2254  0.1999 -0.1385
14039SOL     OW44433   4.848   4.339  10.411  0.1570 -0.2284 -0.3091
14039SOL    HW144434   4.808   4.366  10.329 -0.5334 -2.0643 -0.6270
14039SOL    HW244435   4.877   4.421  10.452  1.2373  0.6887 -2.7069
14040SOL     OW44436   3.604   5.581   4.294 -0.0316  0.5224 -0.3066
14040SOL    HW144437   3.614   5.674   4.312 -0.5258  0.6760 -0.7713
14040SOL    HW244438   3.621   5.572   4.200 -3.1928  0.7039 -1.0101
14041SOL     OW44439   3.069   7.407   0.063  0.0500  0.2944  0.0623
14041SOL    HW144440   3.155   7.370   0.041 -0.4979 -1.0949  0.1313
14041SOL    HW244441   3.041   7.357   0.139  0.2091  2.3946  1.5799
14042SOL     OW44442   5.001   5.387   3.028 -0.4128 -0.1762  0.4315
14042SOL    HW144443   5.089   5.399   3.064 -0.8722 -0.1243  1.5666
14042SOL    HW244444   5.001   5.439   2.947  0.1460  0.9985  1.1582
14043SOL     OW44445   7.895   3.689   5.326 -0.5236 -0.0880 -0.4598
14043SOL    HW144446   7.862   3.719   5.241 -2.0377  0.5306  0.3110
14043SOL    HW244447   7.932   3.768   5.366 -0.2831 -0.2729 -0.3131
14044SOL     OW44448   2.750   8.416   1.719  0.5911 -0.4686  0.2540
14044SOL    HW144449   2.793   8.500   1.736  0.9735 -0.6222  0.0645
14044SOL    HW244450   2.683   8.436   1.653  1.1877 -0.4450 -0.3568
14045SOL     OW44451   7.066   7.665   1.483 -0.7215  0.5960 -0.6474
14045SOL    HW144452   7.089   7.653   1.391  0.4955  1.0047 -0.4087
14045SOL    HW244453   6.996   7.730   1.482 -1.3906 -0.1006 -1.3345
14046SOL     OW44454  10.207   6.498   9.881 -0.1194 -0.4468 -0.2418
14046SOL    HW144455  10.159   6.434   9.828 -2.0509  0.9069 -0.2143
14046SOL    HW244456  10.170   6.489   9.969  2.1603 -1.7703  0.6563
14047SOL     OW44457   6.611   2.962  10.275 -0.3165  0.1957 -0.1372
14047SOL    HW144458   6.575   3.045  10.243 -0.1070  0.6883  0.8638
14047SOL    HW244459   6.536   2.904  10.280 -0.7493  0.8103  0.6534
14048SOL     OW44460   4.012   2.735   8.585  0.2099  0.3157  0.4425
14048SOL    HW144461   3.985   2.827   8.582  0.6191  0.4383  0.3881
14048SOL    HW244462   4.100   2.735   8.546  0.2613 -0.0804  0.5567
14049SOL     OW44463   2.777   9.925   1.476  0.2188  0.2520 -0.7793
14049SOL    HW144464   2.847   9.959   1.421  1.4879 -0.9408  0.0389
14049SOL    HW244465   2.814   9.924   1.565  0.4069 -3.4357 -0.7715
14050SOL     OW44466   8.012   3.221   1.997 -0.4041 -0.0085 -0.4181
14050SOL    HW144467   7.984   3.249   2.084 -0.5832 -0.6445 -0.2644
14050SOL    HW244468   8.080   3.283   1.972 -1.1257  0.8463 -0.2910
14051SOL     OW44469   5.580  10.468   7.035 -0.6855  0.1100 -0.9896
14051SOL    HW144470   5.554  10.559   7.051 -0.8308 -0.1231  0.1850
14051SOL    HW244471   5.580  10.428   7.122 -0.7760 -1.0588 -1.5186
14052SOL     OW44472   3.989   6.778   3.170  0.1390  0.1896  0.0235
14052SOL    HW144473   3.955   6.690   3.186  0.3631 -0.0502 -0.7512
14052SOL    HW244474   4.006   6.780   3.076  0.6162  0.8929  0.1170
14053SOL     OW44475   6.427   4.126   5.292  0.6358 -0.0388 -0.0022
14053SOL    HW144476   6.497   4.162   5.237 -1.2505  0.8533 -1.9676
14053SOL    HW244477   6.366   4.198   5.303 -0.3566 -0.9973  1.0356
14054SOL     OW44478   5.013   0.536   3.652 -0.1553 -0.3218 -0.2710
14054SOL    HW144479   5.108   0.540   3.647 -0.2334  0.5762 -1.8334
14054SOL    HW244480   4.983   0.589   3.577 -1.8682 -1.5421 -0.5037
14055SOL     OW44481   7.429   0.120   5.501 -0.3819 -0.3143 -0.1709
14055SOL    HW144482   7.376   0.059   5.552 -0.7902 -0.9401 -1.3261
14055SOL    HW244483   7.515   0.118   5.543 -1.0917  0.2903  1.3838
14056SOL     OW44484   2.325   8.502   1.615  0.6203 -0.3972 -0.5248
14056SOL    HW144485   2.416   8.490   1.588  0.2784  1.4496 -2.8163
14056SOL    HW244486   2.284   8.546   1.542 -1.4684  1.3662  1.5505
14057SOL     OW44487   1.598   2.525   2.048 -0.0270 -0.5280 -0.0076
14057SOL    HW144488   1.649   2.473   1.985  0.2759 -0.0126 -0.1974
14057SOL    HW244489   1.518   2.475   2.062 -0.2347 -0.5037 -1.0375
14058SOL     OW44490   1.574   6.176   8.764 -0.3566 -0.4414  0.2394
14058SOL    HW144491   1.532   6.094   8.737 -0.3573 -0.2111 -0.4799
14058SOL    HW244492   1.667   6.163   8.743 -0.5345  0.1981 -1.0639
14059SOL     OW44493   2.878   1.210   2.127  0.3767  0.1509  0.2837
14059SOL    HW144494   2.810   1.177   2.069 -0.2740  0.6441  0.7607
14059SOL    HW244495   2.959   1.175   2.090 -0.2017 -1.2181  0.2378
14060SOL     OW44496   8.477   3.122   3.007 -0.6638  0.4246 -0.1590
14060SOL    HW144497   8.536   3.059   3.049  0.4849  0.6455 -1.3764
14060SOL    HW244498   8.391   3.104   3.046  0.6139  1.9406  3.8148
14061SOL     OW44499   2.195   6.800   5.114 -0.1330  0.1871 -0.0550
14061SOL    HW144500   2.243   6.796   5.196  0.1211  0.5489 -0.1833
14061SOL    HW244501   2.197   6.710   5.080 -1.0145 -0.1575  0.7721
14062SOL     OW44502   8.464   0.340   2.594 -0.3111 -0.2761  0.3919
14062SOL    HW144503   8.382   0.380   2.564 -1.0351  0.0865  2.6838
14062SOL    HW244504   8.510   0.411   2.638  0.2177 -0.9981  1.0322
14063SOL     OW44505   9.994   6.790   6.094 -0.1056 -0.3164  0.2632
14063SOL    HW144506   9.935   6.830   6.031  0.0401 -1.2437 -0.4797
14063SOL    HW244507  10.009   6.858   6.160 -2.0875 -0.1034  0.5385
14064SOL     OW44508   6.058   3.504   3.877  0.3910  0.0601  0.4069
14064SOL    HW144509   5.984   3.457   3.916  1.3380 -1.0119  1.0018
14064SOL    HW244510   6.073   3.459   3.794  0.6495 -0.0258  0.4991
14065SOL     OW44511   2.490   5.050   3.598 -0.1272 -0.2230  0.1122
14065SOL    HW144512   2.555   5.095   3.653  0.2364  0.2228 -0.6560
14065SOL    HW244513   2.448   4.987   3.656 -0.3622  0.8358  1.1238
14066SOL     OW44514   8.796  10.478  10.311  0.7437  0.3075 -0.0399
14066SOL    HW144515   8.730  10.453  10.375  0.1177  2.1838  0.1236
14066SOL    HW244516   8.843  10.397  10.291  1.0199 -0.3089  2.8143
14067SOL     OW44517   7.181   4.810   8.388 -0.1751  0.7795 -0.0220
14067SOL    HW144518   7.153   4.750   8.319  2.0336  1.0614 -1.2444
14067SOL    HW244519   7.237   4.756   8.445  0.6376  1.3076 -0.3060
14068SOL     OW44520   8.996   9.320   7.912 -0.0025 -0.0963  0.6238
14068SOL    HW144521   8.997   9.243   7.970 -0.0014 -0.1007  0.6176
14068SOL    HW244522   8.973   9.393   7.969  2.1729  0.2858  1.1034
14069SOL     OW44523  10.069   9.709   1.702  0.4696  0.4273  0.2505
14069SOL    HW144524  10.013   9.634   1.681 -0.8269  0.9260  1.7781
14069SOL    HW244525  10.008   9.779   1.723  1.6673  1.1242  1.4952
14070SOL     OW44526   3.294   0.291   8.349  0.3902 -0.0836 -0.3306
14070SOL    HW144527   3.209   0.317   8.383  0.9669  0.8535  0.4567
14070SOL    HW244528   3.276   0.254   8.263 -0.8035  0.1193 -0.1767
14071SOL     OW44529   8.277   6.584   7.929 -0.1562  0.0768 -0.0852
14071SOL    HW144530   8.257   6.665   7.975  0.4704  0.3013 -0.2059
14071SOL    HW244531   8.360   6.554   7.966  0.2759  0.1755 -0.9436
14072SOL     OW44532   2.980   3.380   9.667 -0.1869  0.0512  0.0921
14072SOL    HW144533   2.942   3.319   9.731  0.3003 -1.5431 -1.0628
14072SOL    HW244534   2.922   3.375   9.591  1.3485 -1.1748 -1.0772
14073SOL     OW44535   6.588   2.233  10.003 -0.2327  0.3521 -0.0946
14073SOL    HW144536   6.677   2.243   9.969  0.0638 -1.0853  0.2019
14073SOL    HW244537   6.595   2.258  10.096  0.3415 -1.7209  0.4583
14074SOL     OW44538   2.351   7.609   5.718 -0.3437  0.4048 -0.0323
14074SOL    HW144539   2.415   7.669   5.756 -0.1129  0.8513 -1.0900
14074SOL    HW244540   2.394   7.575   5.639 -1.7483  1.4553 -1.2976
14075SOL     OW44541   3.705   1.897   4.067  0.2418 -0.1396  0.2896
14075SOL    HW144542   3.763   1.841   4.014 -0.9767 -1.6592  0.4994
14075SOL    HW244543   3.694   1.976   4.015  1.9621 -0.0784 -0.0534
14076SOL     OW44544  10.201   9.445   9.795  0.0033  0.0539  0.0709
14076SOL    HW144545  10.145   9.465   9.871  0.1745  0.7456  0.0230
14076SOL    HW244546  10.176   9.356   9.770 -1.5914  0.6036 -0.3967
14077SOL     OW44547   1.529   8.243   9.248  0.3795 -0.2879  0.1925
14077SOL    HW144548   1.522   8.300   9.325  1.4343 -0.3649  0.3552
14077SOL    HW244549   1.442   8.247   9.207 -0.1620 -0.1675  1.3239
14078SOL     OW44550   5.939   7.017   2.561  0.4477 -0.1433  0.5520
14078SOL    HW144551   6.024   7.060   2.544  0.3476 -0.2278 -0.2332
14078SOL    HW244552   5.895   7.075   2.623  1.3853 -0.4945  1.5812
14079SOL     OW44553   1.904   3.342   4.572 -0.2743  0.1812 -0.5018
14079SOL    HW144554   1.814   3.374   4.562 -0.0808  1.1991  0.8217
14079SOL    HW244555   1.924   3.302   4.487 -0.9912  2.4461 -1.8219
14080SOL     OW44556   7.529   7.708   8.319  0.0334  0.3386  0.0849
14080SOL    HW144557   7.477   7.721   8.240 -1.6069  0.3917  1.1297
14080SOL    HW244558   7.483   7.758   8.387  1.1658 -0.0377  1.1646
14081SOL     OW44559   5.980   3.965   7.941 -0.2408 -0.2923  0.2363
14081SOL    HW144560   5.961   3.905   8.013  0.2739  0.1712  0.7696
14081SOL    HW244561   6.060   4.010   7.968  0.3696 -0.6215 -0.9562
14082SOL     OW44562   7.767   5.649   0.236  0.7271  0.1194 -0.4973
14082SOL    HW144563   7.784   5.648   0.330  2.0374 -0.1781 -0.7068
14082SOL    HW244564   7.842   5.697   0.199  0.5862 -0.3568 -1.4337
14083SOL     OW44565  10.169   4.226   1.325 -0.0924  0.2953  0.3468
14083SOL    HW144566  10.234   4.231   1.255 -1.9070  0.9052 -1.4272
14083SOL    HW244567  10.166   4.133   1.348  2.7092  0.4867  1.9080
14084SOL     OW44568   9.993   9.566   9.614  0.2390 -0.1690 -0.1823
14084SOL    HW144569  10.056   9.635   9.638 -1.5521  1.1723  0.9435
14084SOL    HW244570   9.928   9.568   9.684 -2.1284 -0.1136 -2.2568
14085SOL     OW44571   4.416   6.123   5.936  0.2431 -0.5322 -0.1918
14085SOL    HW144572   4.346   6.185   5.917 -0.9901 -1.2408  1.7860
14085SOL    HW244573   4.495   6.176   5.941 -0.5007  0.6051 -0.2619
14086SOL     OW44574   4.021   2.073   8.374  0.0542 -0.4038 -0.5263
14086SOL    HW144575   4.015   2.169   8.379 -1.8543 -0.4734 -0.7018
14086SOL    HW244576   4.114   2.055   8.372  0.5030  1.3744  1.0718
14087SOL     OW44577   0.573   0.915   9.006 -0.1652  0.4970  0.4581
14087SOL    HW144578   0.503   0.980   8.994  1.0026  1.5686 -0.8331
14087SOL    HW244579   0.612   0.905   8.920  0.1186 -1.4789  0.7733
14088SOL     OW44580   0.329   5.957   6.916 -0.3216  0.5222  0.3309
14088SOL    HW144581   0.317   5.873   6.871  1.1559 -1.1159  2.8046
14088SOL    HW244582   0.351   6.019   6.845 -2.9546 -0.7213 -1.7583
14089SOL     OW44583   1.780   6.065   1.224 -0.3088  0.4142  0.1085
14089SOL    HW144584   1.871   6.040   1.239 -0.6345 -0.8449  0.0942
14089SOL    HW244585   1.780   6.102   1.135  0.8410  3.9883  1.4020
14090SOL     OW44586   0.946   5.994   7.584 -0.1785 -0.2521  0.4971
14090SOL    HW144587   1.029   5.988   7.630 -0.1883  1.9482  0.8857
14090SOL    HW244588   0.956   5.935   7.509  2.4232  1.2618 -0.4519
14091SOL     OW44589   5.331   3.224   9.578  0.3404 -0.2334 -0.4565
14091SOL    HW144590   5.377   3.261   9.654  1.4999 -1.0465 -0.7420
14091SOL    HW244591   5.391   3.237   9.505 -0.6124  0.1984 -1.1850
14092SOL     OW44592   5.810   9.340   3.556  0.1680  0.6844 -0.3233
14092SOL    HW144593   5.856   9.277   3.502  2.0626  0.1319  1.7811
14092SOL    HW244594   5.879   9.397   3.592 -0.3435 -1.0838  4.1314
14093SOL     OW44595   7.519   3.501   8.382  0.0849 -0.4606  0.3270
14093SOL    HW144596   7.551   3.430   8.325  1.4587 -0.3075  0.8928
14093SOL    HW244597   7.431   3.471   8.408  0.4079 -1.6928  0.1011
14094SOL     OW44598   4.091  10.465   3.504 -0.3671  0.1039 -0.5543
14094SOL    HW144599   4.064  10.430   3.589 -1.4183 -1.3241 -1.4240
14094SOL    HW244600   4.164  10.410   3.477  0.0055  0.5922 -0.5621
14095SOL     OW44601   7.874   2.326   1.080 -0.1620 -0.1184 -0.7459
14095SOL    HW144602   7.813   2.400   1.078 -0.0728 -0.0504 -0.9835
14095SOL    HW244603   7.941   2.349   1.016  0.6380  0.2715  0.2129
14096SOL     OW44604   0.998   7.108   6.425  0.1035 -0.3319 -0.0538
14096SOL    HW144605   1.051   7.116   6.346 -0.7284 -0.8359 -0.6767
14096SOL    HW244606   0.953   7.192   6.432 -1.1692 -0.9015 -1.1208
14097SOL     OW44607   6.822   5.923   2.427 -0.4780  0.0709 -0.5196
14097SOL    HW144608   6.857   5.837   2.449 -1.7893  0.0260  1.6510
14097SOL    HW244609   6.727   5.910   2.420 -0.6096  1.1713 -1.1319
14098SOL     OW44610   5.701   2.877   0.554 -0.1073  0.5449 -0.3840
14098SOL    HW144611   5.615   2.871   0.595  0.0655 -0.3041 -0.1193
14098SOL    HW244612   5.757   2.821   0.608  0.3095  0.0483 -1.3038
14099SOL     OW44613   8.874   8.488   5.956  0.0649 -0.3603 -0.6256
14099SOL    HW144614   8.867   8.494   6.051 -0.5592 -0.4054 -0.6610
14099SOL    HW244615   8.790   8.523   5.924 -0.3157 -1.6369 -1.1079
14100SOL     OW44616  10.481   3.721   0.129 -0.3503 -0.4029  0.2455
14100SOL    HW144617  10.465   3.815   0.123  0.5281 -0.0965  2.0158
14100SOL    HW244618  10.567   3.708   0.090 -0.4178 -0.4544  0.1126
14101SOL     OW44619   9.554   7.556   5.170 -0.2105  0.1700  0.1169
14101SOL    HW144620   9.623   7.565   5.104  0.3738  3.1709  0.9836
14101SOL    HW244621   9.482   7.610   5.137  0.1031  1.7661  1.8219
14102SOL     OW44622   7.446   0.569   6.363 -0.0429  0.1452  0.0001
14102SOL    HW144623   7.357   0.595   6.337 -0.7484 -0.8307  1.3206
14102SOL    HW244624   7.455   0.479   6.333 -0.2911 -0.4631  1.6407
14103SOL     OW44625   5.785   9.441   2.655 -0.1052 -0.5206 -0.4787
14103SOL    HW144626   5.855   9.408   2.712 -0.1796 -0.8620 -0.5804
14103SOL    HW244627   5.748   9.515   2.703  0.7744  0.1019 -0.7317
14104SOL     OW44628   3.535   0.317   1.028 -0.2827  0.4651  0.4894
14104SOL    HW144629   3.507   0.293   1.116 -0.0394  0.7406  0.6410
14104SOL    HW244630   3.630   0.308   1.029 -0.4265 -2.3338 -0.5643
14105SOL     OW44631   8.662   0.098   8.011  0.3124 -0.0636 -0.4065
14105SOL    HW144632   8.709   0.040   7.952 -0.5066  0.0791 -1.2251
14105SOL    HW244633   8.718   0.175   8.019  0.5051 -0.1553 -0.8669
14106SOL     OW44634   8.804   2.359   8.327 -0.8059 -0.1811  0.2356
14106SOL    HW144635   8.767   2.448   8.325 -0.4200  0.0118  1.1967
14106SOL    HW244636   8.846   2.353   8.413 -0.0797 -0.9951 -0.1705
14107SOL     OW44637   1.717   8.458   1.333 -0.1913  0.1232 -0.6893
14107SOL    HW144638   1.778   8.386   1.353 -0.7704 -0.1048  0.3122
14107SOL    HW244639   1.765   8.537   1.356 -0.1743 -0.0434 -0.1309
14108SOL     OW44640   7.887   9.619   8.814 -0.3900 -0.7571  0.4751
14108SOL    HW144641   7.949   9.675   8.862  1.0340 -2.5786  0.8710
14108SOL    HW244642   7.802   9.638   8.855  0.4766 -0.8009  2.4362
14109SOL     OW44643  10.297  10.541   7.066  0.2455 -0.1885 -0.4651
14109SOL    HW144644  10.343  10.533   6.982 -0.4289  0.2478 -0.8902
14109SOL    HW244645  10.301  10.635   7.086  1.3075 -0.4282  0.5253
14110SOL     OW44646   8.208   9.032   5.461 -0.6562 -0.0437  0.4938
14110SOL    HW144647   8.293   8.991   5.452 -1.2734 -0.9982 -1.3804
14110SOL    HW244648   8.202   9.055   5.554  2.8883  2.9003  0.2149
14111SOL     OW44649   4.931   0.410   4.617 -0.4821  0.1393 -0.2884
14111SOL    HW144650   4.839   0.385   4.615 -0.2756 -0.6274 -1.2336
14111SOL    HW244651   4.960   0.405   4.526  0.4312  0.6137 -0.0419
14112SOL     OW44652   8.910   9.204   1.545  0.2855 -0.6496 -0.2814
14112SOL    HW144653   8.933   9.138   1.479 -0.3465 -2.3221  1.1009
14112SOL    HW244654   8.935   9.165   1.628 -1.1705  0.3698  0.6808
14113SOL     OW44655  10.191   9.966  10.529  0.5258  0.4018  0.4740
14113SOL    HW144656  10.165  10.042  10.477 -0.5468 -1.1745 -1.4319
14113SOL    HW244657  10.273   9.936  10.488  2.8932  2.3938  3.3326
14114SOL     OW44658   2.297   5.730   8.578  0.2180  0.2116 -0.2706
14114SOL    HW144659   2.378   5.776   8.598 -0.7923  3.5032 -2.8881
14114SOL    HW244660   2.228   5.793   8.595 -1.5054 -1.1793 -1.6717
14115SOL     OW44661   8.604   1.491   3.690  0.6026  0.3179  0.4783
14115SOL    HW144662   8.574   1.480   3.780 -1.1486 -0.5315 -0.1786
14115SOL    HW244663   8.639   1.405   3.666  0.0646  0.2241  0.0083
14116SOL     OW44664  10.252   5.951   3.605  0.2754  0.5228  0.5353
14116SOL    HW144665  10.229   5.858   3.600  0.5054  0.4552  0.7268
14116SOL    HW244666  10.230   5.985   3.518  1.1286  0.0738  0.1264
14117SOL     OW44667   8.276   1.027   3.035  0.1519 -0.0586 -0.1956
14117SOL    HW144668   8.369   1.005   3.038  0.0783 -0.4493 -0.7297
14117SOL    HW244669   8.266   1.080   2.956  0.0663  0.6845  0.3081
14118SOL     OW44670   0.612   1.922   4.094 -0.1861  0.2390 -0.1097
14118SOL    HW144671   0.597   1.849   4.154  2.2503  0.4468  0.8494
14118SOL    HW244672   0.600   1.884   4.006  0.1528 -1.0897  0.3978
14119SOL     OW44673   4.687   0.704   0.671  0.1472  0.6233 -0.0699
14119SOL    HW144674   4.662   0.613   0.651 -0.0372  1.1012 -2.2279
14119SOL    HW244675   4.668   0.714   0.764  1.3415 -1.9243  0.5408
14120SOL     OW44676   2.849   9.625   1.308  0.0592 -0.2986 -0.2552
14120SOL    HW144677   2.760   9.653   1.286  0.3713  0.5569 -0.4522
14120SOL    HW244678   2.903   9.703   1.296  0.9329 -0.9484 -0.6680
14121SOL     OW44679   0.473   0.985   3.307 -0.2831  0.0264  0.0762
14121SOL    HW144680   0.547   1.025   3.354 -0.0515 -0.3171  0.0045
14121SOL    HW244681   0.416   1.059   3.284 -0.5586  0.1767  1.1745
14122SOL     OW44682   9.468   7.872   9.253  0.6896  0.2587 -0.3176
14122SOL    HW144683   9.477   7.891   9.347 -1.2189  1.4153 -0.3164
14122SOL    HW244684   9.411   7.796   9.249  0.7565  0.2209 -0.5421
14123SOL     OW44685   3.701   6.139   8.186  0.3988 -0.1909  0.4917
14123SOL    HW144686   3.669   6.135   8.276 -0.6704 -0.0408  0.1286
14123SOL    HW244687   3.705   6.232   8.166 -0.0294 -0.2415  0.1576
14124SOL     OW44688   2.440   0.698   2.087  0.4858  0.3317 -0.5826
14124SOL    HW144689   2.453   0.716   1.993  0.9895  0.4347 -0.4964
14124SOL    HW244690   2.455   0.604   2.096 -0.6295  0.1212 -0.7785
14125SOL     OW44691  10.458   2.967   9.559  0.3258 -0.1574 -0.2625
14125SOL    HW144692  10.385   2.920   9.600 -0.5455 -0.2389 -1.8090
14125SOL    HW244693  10.418   3.045   9.522  1.3088  0.5303  0.0974
14126SOL     OW44694   3.891   8.975   2.236 -0.3638  0.3030 -0.3674
14126SOL    HW144695   3.905   8.968   2.331 -1.4177  0.5851 -0.1753
14126SOL    HW244696   3.841   9.056   2.225 -0.9436 -0.1384 -1.0765
14127SOL     OW44697   2.200   5.533   8.716 -0.6150  0.1443 -0.2419
14127SOL    HW144698   2.223   5.603   8.655  0.6783 -1.1681 -1.3365
14127SOL    HW244699   2.246   5.555   8.797  1.1520 -0.2420 -1.0962
14128SOL     OW44700   8.459   8.850   9.592 -0.7988  0.3667 -0.1257
14128SOL    HW144701   8.403   8.776   9.617  1.1052 -0.9580  0.3989
14128SOL    HW244702   8.547   8.823   9.616  0.3279  1.7181 -2.4488
14129SOL     OW44703   6.505   8.161   4.691 -0.2180  0.1534  0.1598
14129SOL    HW144704   6.515   8.140   4.784 -1.2340 -0.7233  0.0882
14129SOL    HW244705   6.571   8.109   4.647 -1.7114 -1.8349  0.1322
14130SOL     OW44706   0.797   5.674   0.328 -0.7776 -0.0956  0.2047
14130SOL    HW144707   0.874   5.720   0.363 -0.1220 -1.6537  0.8767
14130SOL    HW244708   0.744   5.655   0.406 -0.4439 -1.5265  0.1052
14131SOL     OW44709   2.941   0.574   6.738  0.1742 -0.0358  0.1636
14131SOL    HW144710   2.956   0.668   6.747 -0.3312 -0.0768  1.5418
14131SOL    HW244711   3.025   0.534   6.761  0.1013  0.0400  0.5667
14132SOL     OW44712   0.960   1.762   4.389 -0.0942 -0.2621  0.3574
14132SOL    HW144713   0.938   1.739   4.299 -0.6993 -2.1042  0.9381
14132SOL    HW244714   1.054   1.782   4.387 -0.2719  0.5160 -0.8133
14133SOL     OW44715   8.213   4.849   0.164 -0.0764 -0.0447  0.1417
14133SOL    HW144716   8.298   4.833   0.207  0.2796  0.4624 -0.3733
14133SOL    HW244717   8.167   4.765   0.173  1.6836 -1.4294 -2.3347
14134SOL     OW44718   4.240   1.763   0.343  0.7568 -0.6297  0.1873
14134SOL    HW144719   4.328   1.800   0.337 -0.4861  2.4683 -0.6973
14134SOL    HW244720   4.204   1.773   0.255 -0.7636 -1.1453  0.7177
14135SOL     OW44721   4.069   5.703   3.182  0.3534  0.3521  0.3465
14135SOL    HW144722   4.052   5.797   3.181  0.3711  0.4314 -3.0274
14135SOL    HW244723   4.149   5.692   3.131 -0.5839 -1.6018 -0.8221
14136SOL     OW44724   3.109   0.007   9.028  0.5150  0.8524  0.2682
14136SOL    HW144725   3.053   0.047   9.095  0.4888  1.1567  0.0626
14136SOL    HW244726   3.184   0.065   9.021 -0.1287  1.5653 -0.9482
14137SOL     OW44727   6.899   2.191   0.484 -0.1663  0.3214  0.2920
14137SOL    HW144728   6.834   2.131   0.447  0.5027 -0.0750 -0.2667
14137SOL    HW244729   6.887   2.272   0.433 -0.6760  0.4854  0.6568
14138SOL     OW44730   3.167  10.463   2.727 -0.3571  0.1463  0.0927
14138SOL    HW144731   3.261  10.466   2.708 -0.4556 -1.3819 -0.8137
14138SOL    HW244732   3.158  10.511   2.809  1.4449 -1.0389  1.0548
14139SOL     OW44733   9.503   2.211  10.195  0.5177  0.3118  0.3821
14139SOL    HW144734   9.598   2.217  10.202  0.5516 -1.0526  1.7135
14139SOL    HW244735   9.485   2.117  10.193 -0.7948  0.5535 -0.0766
14140SOL     OW44736   8.562   9.629  10.062  0.8715 -0.6017 -0.0076
14140SOL    HW144737   8.635   9.687  10.084  0.3619 -0.0230  0.1971
14140SOL    HW244738   8.501   9.638  10.136  1.5293 -2.7056  0.8657
14141SOL     OW44739   1.889   9.926   0.954 -0.2884  0.4290  0.3049
14141SOL    HW144740   1.861   9.834   0.952 -0.7549  0.5791 -0.5214
14141SOL    HW244741   1.898   9.946   1.047  1.2819 -0.8905  0.4970
14142SOL     OW44742   4.224   8.553   8.050 -0.4625 -0.1820 -0.0876
14142SOL    HW144743   4.135   8.556   8.083 -0.3679 -2.1244  0.5055
14142SOL    HW244744   4.218   8.580   7.959 -1.3328  1.5281  0.4411
14143SOL     OW44745   1.411   6.507   0.807  0.1305  0.7635  0.5462
14143SOL    HW144746   1.385   6.581   0.753  0.6170  0.1400 -0.5874
14143SOL    HW244747   1.402   6.538   0.897 -1.6093  1.5322  0.1488
14144SOL     OW44748  10.377   5.284   8.923 -0.1758  0.0255  0.8355
14144SOL    HW144749  10.314   5.218   8.953 -0.9644 -0.7786 -2.2313
14144SOL    HW244750  10.428   5.239   8.856 -0.3808  2.3638 -1.0055
14145SOL     OW44751   7.721   0.301   7.252  0.6796 -0.2663  0.2807
14145SOL    HW144752   7.702   0.309   7.346 -0.5874  1.3213 -0.0662
14145SOL    HW244753   7.731   0.392   7.222 -1.1561 -0.6002 -1.5353
14146SOL     OW44754   8.027   6.629   8.129  0.5184 -0.3802 -0.5471
14146SOL    HW144755   8.078   6.576   8.190 -0.5912  0.1151  0.8896
14146SOL    HW244756   8.086   6.699   8.103  0.3551  0.7633  1.8681
14147SOL     OW44757   4.583   9.862   7.995 -0.0903  0.5416 -0.4703
14147SOL    HW144758   4.548   9.951   7.998 -0.6844  0.3117  2.0540
14147SOL    HW244759   4.671   9.869   8.032 -0.3548  0.0527  0.2954
14148SOL     OW44760   8.452   5.156   1.872  0.2119  0.1287  0.1900
14148SOL    HW144761   8.472   5.094   1.941  0.5541  0.2141  0.1697
14148SOL    HW244762   8.477   5.241   1.908  1.2126  0.0807 -0.3484
14149SOL     OW44763  10.168   6.456   3.823 -0.2753  0.5584  0.2013
14149SOL    HW144764  10.249   6.498   3.796 -0.2892  0.1960 -0.4200
14149SOL    HW244765  10.144   6.499   3.905  1.1060 -0.0573  0.9585
14150SOL     OW44766   9.180   5.526   9.015  0.3008 -0.4180 -0.1536
14150SOL    HW144767   9.269   5.537   8.983  0.1699  0.7420 -0.1457
14150SOL    HW244768   9.125   5.558   8.944 -0.0782 -0.2710  0.2011
14151SOL     OW44769   5.961   3.618   4.661  0.0533  0.0762 -0.1127
14151SOL    HW144770   5.953   3.527   4.630  0.5691 -0.2983  0.8070
14151SOL    HW244771   6.052   3.641   4.643  0.2821 -0.0501  0.8309
14152SOL     OW44772   4.457   6.554   7.393 -0.4596  0.1819 -0.0527
14152SOL    HW144773   4.476   6.464   7.367 -1.1576  0.5733 -2.1424
14152SOL    HW244774   4.363   6.565   7.375 -0.4482  1.2460  0.4515
14153SOL     OW44775   7.677   4.292   8.085  0.2928 -0.0819 -0.0845
14153SOL    HW144776   7.737   4.326   8.151 -1.7416  3.4164  0.2594
14153SOL    HW244777   7.722   4.307   8.002  0.6191  0.8697  0.2522
14154SOL     OW44778   2.447   8.351   7.278 -0.0633 -0.2164  0.8178
14154SOL    HW144779   2.480   8.265   7.253 -0.6106 -0.3888  0.6655
14154SOL    HW244780   2.516   8.390   7.332  0.7481 -0.2219 -0.1905
14155SOL     OW44781   9.358   9.558   8.386  0.7800  0.0108 -0.0131
14155SOL    HW144782   9.272   9.519   8.368  0.8024 -0.9999  1.7821
14155SOL    HW244783   9.401   9.563   8.301 -1.0684  0.5874 -0.9545
14156SOL     OW44784   4.070   5.560   2.582 -0.5919 -0.1205  0.0670
14156SOL    HW144785   4.111   5.644   2.565 -0.0496 -0.5967 -1.0630
14156SOL    HW244786   4.017   5.575   2.660 -0.1627  1.1431  0.1414
14157SOL     OW44787   8.000   1.441   5.919  0.0070 -0.0787  0.7322
14157SOL    HW144788   7.908   1.469   5.918  0.7502  2.6456 -0.1442
14157SOL    HW244789   8.026   1.449   6.010 -0.5906 -0.7280  0.9632
14158SOL     OW44790   3.375   5.410   3.791  0.4294 -0.8862 -0.3559
14158SOL    HW144791   3.391   5.408   3.696  1.3508  1.5591 -0.3309
14158SOL    HW244792   3.282   5.391   3.800  0.2049 -0.5898 -1.8087
14159SOL     OW44793   8.170   2.990   2.436  0.3698 -0.1278 -0.1954
14159SOL    HW144794   8.229   3.052   2.480  1.2606 -1.1124  0.0368
14159SOL    HW244795   8.195   2.905   2.471 -0.2399 -0.7220 -1.1702
14160SOL     OW44796   1.153   7.725   0.362  0.5433 -0.3486 -0.3847
14160SOL    HW144797   1.189   7.636   0.356 -0.2157 -0.6001 -1.2998
14160SOL    HW244798   1.081   7.727   0.300  0.5625  0.9272 -0.4000
14161SOL     OW44799   1.295   8.311   8.740 -0.4580 -0.3237  0.2842
14161SOL    HW144800   1.236   8.360   8.683  1.0896 -0.1981 -1.3087
14161SOL    HW244801   1.371   8.369   8.752  0.3056 -1.3244  0.4451
14162SOL     OW44802   4.403   0.256   6.237  0.2887  0.4670 -0.2748
14162SOL    HW144803   4.415   0.333   6.293  1.9580  1.0256 -1.3173
14162SOL    HW244804   4.315   0.266   6.201 -0.6497  0.3305  1.8320
14163SOL     OW44805   9.111   4.070   4.806 -0.1793  0.6235  0.2024
14163SOL    HW144806   9.093   4.125   4.730  0.6070  0.4245 -0.1357
14163SOL    HW244807   9.130   3.984   4.769  0.3418  0.5592  0.6148
14164SOL     OW44808   6.210   3.007   0.126  0.6913  0.0998  0.0453
14164SOL    HW144809   6.195   2.978   0.216  2.4507 -0.0166  0.3401
14164SOL    HW244810   6.188   2.931   0.072  0.6623 -0.1924  0.4639
14165SOL     OW44811   4.187  10.410   5.321 -0.5536 -0.3339 -0.4201
14165SOL    HW144812   4.259  10.429   5.380 -0.5894  0.9340 -0.7656
14165SOL    HW244813   4.223  10.346   5.259  1.1148  2.0351 -2.0921
14166SOL     OW44814   4.276   5.454   6.961  0.1645  0.8592 -0.6222
14166SOL    HW144815   4.306   5.363   6.967  0.0909  0.9453  2.1294
14166SOL    HW244816   4.183   5.451   6.982  0.0120  1.5366 -1.1374
14167SOL     OW44817   0.227   6.968   7.769 -0.2768  0.0762  0.0843
14167SOL    HW144818   0.231   6.888   7.821  0.0450 -0.1998 -0.3576
14167SOL    HW244819   0.140   7.003   7.786 -0.5217 -0.5124  0.0677
14168SOL     OW44820   9.087   2.583   6.355 -0.8777 -0.3482 -0.5579
14168SOL    HW144821   9.045   2.629   6.427 -0.3003 -0.1453 -0.3416
14168SOL    HW244822   9.133   2.651   6.306  1.9263 -0.8962  1.1015
14169SOL     OW44823   5.335   4.096   1.567 -0.5903  0.0587 -0.6580
14169SOL    HW144824   5.426   4.114   1.591 -0.6560 -1.1943  0.6693
14169SOL    HW244825   5.290   4.179   1.580 -0.4041 -0.2234  2.7341
14170SOL     OW44826   3.927   9.571   1.771  0.1897 -0.0393 -0.1994
14170SOL    HW144827   3.879   9.653   1.762  0.3016  0.1368  0.7639
14170SOL    HW244828   3.941   9.560   1.865  2.6597  0.2894 -0.4516
14171SOL     OW44829  10.168   7.421   8.308 -0.1454  0.5344 -0.0133
14171SOL    HW144830  10.233   7.451   8.371  0.9818  1.1956 -1.4225
14171SOL    HW244831  10.145   7.499   8.258  0.3812 -0.2835 -1.6059
14172SOL     OW44832   0.763   3.126   5.718 -1.0423 -0.1957 -0.3164
14172SOL    HW144833   0.770   3.104   5.810  0.1357  0.0963 -0.3269
14172SOL    HW244834   0.677   3.093   5.692 -0.7173 -1.7363  0.4853
14173SOL     OW44835   3.063   1.863   5.969 -0.5048 -0.2590 -0.0986
14173SOL    HW144836   3.153   1.886   5.948 -0.3049  1.1111  1.8800
14173SOL    HW244837   3.069   1.813   6.050 -1.4871 -0.8656 -0.3796
14174SOL     OW44838  10.139   5.772   5.005  0.0101 -0.3471  0.6309
14174SOL    HW144839  10.159   5.832   5.077 -0.3047 -0.7403  1.0539
14174SOL    HW244840  10.044   5.767   5.003  0.0369 -0.9407  0.6959
14175SOL     OW44841   4.920   1.643   4.341 -0.2231 -0.1984 -0.0708
14175SOL    HW144842   4.961   1.568   4.299 -1.6120 -0.6548 -0.6588
14175SOL    HW244843   4.992   1.687   4.387  0.6847 -1.6612 -0.0256
14176SOL     OW44844   0.687   3.000   1.176 -0.8030 -0.4133  0.0910
14176SOL    HW144845   0.653   2.919   1.137 -0.0206  0.0247 -1.6039
14176SOL    HW244846   0.756   2.970   1.235 -0.8276 -1.0187 -0.1714
14177SOL     OW44847  10.190   2.287   8.594 -0.0330 -0.3536 -0.2895
14177SOL    HW144848  10.220   2.276   8.504  1.7162  0.8018  0.1084
14177SOL    HW244849  10.249   2.231   8.645  0.5860  0.8515  0.3600
14178SOL     OW44850   9.591   4.848   9.537 -0.3580  0.6564 -0.1131
14178SOL    HW144851   9.627   4.936   9.546  0.2679  0.3719  0.2162
14178SOL    HW244852   9.563   4.824   9.625  1.6244 -0.3699  0.2954
14179SOL     OW44853   4.598   5.403   4.998 -0.5118 -0.2528  0.0133
14179SOL    HW144854   4.664   5.459   5.038  0.0405 -1.0298  0.2294
14179SOL    HW244855   4.648   5.333   4.956 -1.0981  0.3146 -1.6961
14180SOL     OW44856  10.568   4.392   8.509 -0.4900  0.0362  0.0081
14180SOL    HW144857  10.526   4.338   8.576 -0.3373  0.4417  0.4365
14180SOL    HW244858  10.662   4.384   8.527 -0.5061  2.0475  1.3807
14181SOL     OW44859   4.969   1.792   5.297 -0.1695 -0.4228 -0.2072
14181SOL    HW144860   4.893   1.736   5.311 -1.6808  1.7825  0.9885
14181SOL    HW244861   4.946   1.845   5.221  0.9571 -0.9301 -0.9256
14182SOL     OW44862   3.667   7.512   1.403  0.4262 -0.0984  0.1534
14182SOL    HW144863   3.693   7.421   1.412  1.6518  0.2633  0.4249
14182SOL    HW244864   3.637   7.519   1.312  1.2069 -0.5523 -0.1427
14183SOL     OW44865  10.249   7.529   9.682 -0.0729 -0.5955  0.2797
14183SOL    HW144866  10.311   7.602   9.675 -0.8438  0.1130  0.5766
14183SOL    HW244867  10.298   7.460   9.727  0.9573 -0.6097 -0.8062
14184SOL     OW44868  10.156   9.456   4.939  0.1023  0.1661  0.1503
14184SOL    HW144869  10.217   9.396   4.896  0.6033  1.0951 -0.4750
14184SOL    HW244870  10.213   9.512   4.992 -0.0625  1.7460 -1.2794
14185SOL     OW44871   2.045   4.598   0.666  0.6687 -0.2431  0.0336
14185SOL    HW144872   2.072   4.689   0.650 -0.0769 -0.1134 -0.5436
14185SOL    HW244873   2.061   4.553   0.584  0.1719 -0.4199  0.0303
14186SOL     OW44874   2.514   7.243  10.163  0.0279 -0.4043 -0.2525
14186SOL    HW144875   2.501   7.258  10.257 -0.3174 -0.5399 -0.2795
14186SOL    HW244876   2.483   7.323  10.121  0.4449 -0.2295 -0.2360
14187SOL     OW44877   2.504   8.968   0.972 -0.0413  0.5348  0.0556
14187SOL    HW144878   2.575   8.910   0.943 -0.3533  0.6787 -1.0332
14187SOL    HW244879   2.475   8.930   1.055  0.9537  0.1674  0.2564
14188SOL     OW44880   2.848   8.112   0.463 -0.0631  0.2714  0.2483
14188SOL    HW144881   2.854   8.097   0.369 -2.7174 -0.8850  0.1809
14188SOL    HW244882   2.841   8.025   0.501  1.1344  0.7111  1.5832
14189SOL     OW44883   8.373   5.938   6.211  0.3722  0.4423  0.7790
14189SOL    HW144884   8.359   5.988   6.291  1.3143  0.5348  0.9005
14189SOL    HW244885   8.288   5.937   6.168 -0.1076  0.5307  1.6988
14190SOL     OW44886   9.682   6.276   5.905  0.2291 -0.3293 -0.0121
14190SOL    HW144887   9.753   6.307   5.961 -0.0457  0.8884 -0.2927
14190SOL    HW244888   9.609   6.261   5.965  0.1848  0.1713  0.0631
14191SOL     OW44889   1.442   3.505  10.499 -0.3537  0.6786  0.0735
14191SOL    HW144890   1.496   3.583  10.489 -1.4394  1.3796 -0.4116
14191SOL    HW244891   1.484   3.456  10.570 -0.3562  2.2928  1.2402
14192SOL     OW44892   7.934   0.445   9.277  0.1267 -0.8117  0.0709
14192SOL    HW144893   7.925   0.529   9.230 -3.3338 -0.0193  1.8452
14192SOL    HW244894   7.978   0.469   9.359 -0.0475 -0.9209  0.1936
14193SOL     OW44895   8.185   4.758   1.844 -0.1443  0.3232  0.3681
14193SOL    HW144896   8.223   4.823   1.784  0.8525 -0.3752  0.2147
14193SOL    HW244897   8.261   4.711   1.880 -0.8496 -1.1655  0.0056
14194SOL     OW44898   7.706   3.384   6.719  1.2221 -0.3964  0.0843
14194SOL    HW144899   7.758   3.410   6.795  1.0188  1.4425 -0.3597
14194SOL    HW244900   7.771   3.365   6.651  1.3691 -0.8675  0.3501
14195SOL     OW44901   2.746   4.679   2.610  0.2066  0.4354 -0.6877
14195SOL    HW144902   2.673   4.740   2.613  0.2116  0.4665 -1.1417
14195SOL    HW244903   2.732   4.621   2.685  0.2516  1.0428 -0.2010
14196SOL     OW44904   9.605   8.869   6.548  0.5490 -0.4352  0.1626
14196SOL    HW144905   9.610   8.964   6.557 -1.0951 -0.2475 -0.5745
14196SOL    HW244906   9.695   8.839   6.560  0.9672  1.1259  1.2322
14197SOL     OW44907   8.051   4.241   1.486  0.5502  0.0557 -0.6237
14197SOL    HW144908   8.072   4.213   1.397  0.4851  0.7003 -0.8490
14197SOL    HW244909   8.128   4.291   1.514 -0.2175  1.5577 -1.0756
14198SOL     OW44910   4.781   5.255   3.384  0.3476  0.5648 -0.4325
14198SOL    HW144911   4.801   5.346   3.408  1.0448 -0.1713  2.0392
14198SOL    HW244912   4.693   5.241   3.417  0.4752  0.1454 -0.2758
14199SOL     OW44913  10.121   1.777   6.846  0.1321 -0.3820 -0.0102
14199SOL    HW144914  10.043   1.812   6.888  0.3879  1.9938 -1.3048
14199SOL    HW244915  10.135   1.692   6.888 -2.2706 -0.2439  1.2835
14200SOL     OW44916  10.151   4.988   7.839  0.5895 -0.3903 -0.4466
14200SOL    HW144917  10.070   4.954   7.876  1.1359 -0.9135  0.2909
14200SOL    HW244918  10.220   4.935   7.879  1.3868  0.8881 -0.0759
14201SOL     OW44919   3.351   4.725   6.946  0.0997 -0.2994  0.5344
14201SOL    HW144920   3.346   4.723   7.042 -0.9362 -1.5481  0.4905
14201SOL    HW244921   3.437   4.687   6.926  0.0932 -0.5560  0.9717
14202SOL     OW44922   8.233   1.183  10.378 -0.3437 -0.1778  1.1055
14202SOL    HW144923   8.247   1.156  10.469 -1.2912 -1.1949  0.9692
14202SOL    HW244924   8.156   1.133  10.350 -0.1136  0.1849 -0.2285
14203SOL     OW44925  10.417   1.846   0.556  0.2935 -0.0786 -0.0059
14203SOL    HW144926  10.481   1.893   0.503  0.7098 -0.8270 -0.1829
14203SOL    HW244927  10.439   1.869   0.646  1.3629 -0.9763 -0.0133
14204SOL     OW44928   5.066   8.904   4.946  0.0865 -0.2853  0.4172
14204SOL    HW144929   4.993   8.966   4.936  0.0112 -0.7237 -2.5570
14204SOL    HW244930   5.132   8.954   4.994 -0.5746  1.6127 -0.5160
14205SOL     OW44931   5.860   2.686   3.476  0.1882  0.1883  0.4764
14205SOL    HW144932   5.885   2.672   3.567 -0.2368 -0.8030  0.4531
14205SOL    HW244933   5.917   2.757   3.446  2.6667 -1.6375  0.5688
14206SOL     OW44934   4.762   1.096   7.503 -0.0710 -0.3574 -0.1457
14206SOL    HW144935   4.786   1.032   7.435  1.7490 -0.8820  0.9005
14206SOL    HW244936   4.777   1.050   7.585  2.1169  1.5888  0.6809
14207SOL     OW44937   9.133   6.680   4.601  0.1621 -0.1796  0.1091
14207SOL    HW144938   9.052   6.684   4.652 -0.6055 -0.0431 -1.0804
14207SOL    HW244939   9.137   6.589   4.570 -1.2951  0.5559 -2.5197
14208SOL     OW44940   8.884   3.203   6.032  0.0371  0.2325  0.4485
14208SOL    HW144941   8.854   3.292   6.054 -1.2318 -0.4424  1.5806
14208SOL    HW244942   8.964   3.193   6.083  0.4120  0.8693  0.0001
14209SOL     OW44943   9.873   0.993   0.486 -0.1622  0.1681  0.0381
14209SOL    HW144944   9.832   1.047   0.418  0.2879  1.9832  1.1352
14209SOL    HW244945   9.810   0.993   0.558 -0.4086 -1.3107 -0.1415
14210SOL     OW44946   6.005   2.876   3.356  0.2796 -0.2759  0.8473
14210SOL    HW144947   6.052   2.945   3.402  2.9905 -1.3258 -0.1471
14210SOL    HW244948   6.046   2.871   3.270 -2.6152 -0.4250 -0.6617
14211SOL     OW44949   3.612   6.451   3.044 -0.4580 -0.2622  0.2129
14211SOL    HW144950   3.541   6.407   3.091  0.5818 -0.6121  1.5150
14211SOL    HW244951   3.569   6.521   2.995 -1.6798 -0.3631  1.0981
14212SOL     OW44952   9.054   7.282   6.664 -0.0097  0.1470  0.8034
14212SOL    HW144953   9.005   7.233   6.730 -0.5832 -1.3698 -0.6923
14212SOL    HW244954   8.991   7.344   6.628 -0.2920 -0.4844  0.2099
14213SOL     OW44955   8.971   5.339   3.234  0.0096  0.3834 -0.4750
14213SOL    HW144956   8.921   5.271   3.278  0.4908  0.5807  0.3920
14213SOL    HW244957   8.906   5.390   3.186 -0.4081 -0.4058 -0.7703
14214SOL     OW44958   2.491   9.294   6.976 -0.4220 -0.3897 -0.3716
14214SOL    HW144959   2.485   9.354   6.902  0.1429  0.7688  0.4984
14214SOL    HW244960   2.416   9.315   7.031  0.1846  0.0480  0.3064
14215SOL     OW44961   2.852   0.014   2.921 -0.6317 -0.2368  0.4583
14215SOL    HW144962   2.831   0.080   2.987 -0.0054  0.9220 -0.4886
14215SOL    HW244963   2.946  -0.001   2.931 -0.4556  0.2425 -0.4338
14216SOL     OW44964   3.135   3.781   4.449 -0.1722  0.1204  0.3617
14216SOL    HW144965   3.039   3.790   4.445 -0.1636  0.0667 -0.0198
14216SOL    HW244966   3.166   3.868   4.476 -0.2935  0.3096 -0.0921
14217SOL     OW44967   6.630   9.265   4.305 -0.1342 -0.4287  0.3177
14217SOL    HW144968   6.590   9.209   4.239 -2.1930  1.8630 -0.5027
14217SOL    HW244969   6.581   9.347   4.301  4.0776  2.3915 -0.1393
14218SOL     OW44970   6.509   1.762   0.635 -0.0190  0.1639 -0.0069
14218SOL    HW144971   6.543   1.674   0.645 -0.2611  0.3514  3.6806
14218SOL    HW244972   6.585   1.819   0.644 -0.3674  0.3875  1.9155
14219SOL     OW44973   9.768   8.565   1.713 -0.2837  0.0832 -0.2353
14219SOL    HW144974   9.810   8.644   1.679 -0.8152  1.2466  1.6138
14219SOL    HW244975   9.833   8.527   1.772 -0.9909  0.7200  1.0050
14220SOL     OW44976   8.907  10.169   4.597 -0.2391 -0.5612  0.2485
14220SOL    HW144977   8.811  10.164   4.595 -0.2752 -0.4076 -2.3239
14220SOL    HW244978   8.927  10.252   4.552  1.0871 -1.7439 -1.4778
14221SOL     OW44979   3.001   4.059   8.645  0.1463 -0.3395  0.6738
14221SOL    HW144980   2.945   4.115   8.590  1.3773  0.2614 -0.0270
14221SOL    HW244981   2.975   3.970   8.623  0.5847 -0.1126 -0.9003
14222SOL     OW44982   4.939   0.190  10.352  0.6566 -0.1078  0.3178
14222SOL    HW144983   4.924   0.244  10.430  0.0073  0.4234 -0.1597
14222SOL    HW244984   4.884   0.113  10.366  0.1888  0.1950  0.1919
14223SOL     OW44985   0.951   2.632   7.677 -1.2429 -0.0227 -0.0326
14223SOL    HW144986   0.953   2.632   7.772  1.5199  1.5878  0.0087
14223SOL    HW244987   0.941   2.539   7.653  0.0083 -0.6993  1.8522
14224SOL     OW44988   5.619   3.601   9.734  0.0551  0.1050  0.1257
14224SOL    HW144989   5.535   3.646   9.740 -0.3399 -0.4782 -0.8429
14224SOL    HW244990   5.669   3.634   9.809 -0.8083  0.9140  0.3670
14225SOL     OW44991   7.828   4.660   6.520  0.6821 -0.2475 -0.2318
14225SOL    HW144992   7.908   4.702   6.490  1.0384 -1.3725 -0.9351
14225SOL    HW244993   7.849   4.567   6.521 -0.3400 -0.4868  0.4596
14226SOL     OW44994  10.528  10.553   5.935 -0.0566 -0.1365 -0.7467
14226SOL    HW144995  10.538  10.646   5.913  0.4266 -0.3458 -1.4623
14226SOL    HW244996  10.434  10.539   5.941 -0.1162  0.8373  1.3562
14227SOL     OW44997   4.733   1.963   3.706  0.0276 -0.6242 -0.5756
14227SOL    HW144998   4.685   1.957   3.623  0.6205  0.3997 -1.0139
14227SOL    HW244999   4.766   2.053   3.708  0.5061 -0.8093  0.5097
14228SOL     OW45000   7.206   2.150   4.339 -0.1050  0.2613 -0.3891
14228SOL    HW145001   7.135   2.087   4.350 -0.8381  0.7785 -1.9292
14228SOL    HW245002   7.181   2.202   4.263  1.4320  1.1365 -0.3413
14229SOL     OW45003  10.477   6.087   8.280  0.2131 -0.0617  0.3569
14229SOL    HW145004  10.449   6.028   8.350  0.1290 -0.2956  0.1241
14229SOL    HW245005  10.405   6.087   8.217 -0.6061  1.7069  1.2181
14230SOL     OW45006   3.741   5.502   5.162 -0.6475  0.0336  0.4903
14230SOL    HW145007   3.751   5.551   5.080 -0.8723 -1.9945 -0.8383
14230SOL    HW245008   3.827   5.464   5.178 -0.8835 -0.4618  0.5922
14231SOL     OW45009   9.898   0.405  10.357  0.2332 -0.0024  0.8189
14231SOL    HW145010   9.890   0.470  10.287 -0.2875  0.2612  1.1225
14231SOL    HW245011   9.812   0.402  10.398  0.6637  0.2095  1.7749
14232SOL     OW45012   0.811   8.003   7.726  0.5020  0.9716  0.1878
14232SOL    HW145013   0.804   7.974   7.635  1.8023  1.6629 -0.1512
14232SOL    HW245014   0.733   7.967   7.769  0.5045 -0.3940 -0.9022
14233SOL     OW45015   2.467   2.192  10.432 -0.2507  0.0527 -0.2792
14233SOL    HW145016   2.402   2.226  10.371  0.9593  0.5747 -1.3218
14233SOL    HW245017   2.498   2.111  10.392  0.1592  0.1080 -0.0804
14234SOL     OW45018   1.185   3.507   9.669  0.1748  0.0111  0.2473
14234SOL    HW145019   1.173   3.505   9.574  0.1012  1.7936  0.1725
14234SOL    HW245020   1.249   3.577   9.683 -0.0098 -0.0609  1.5299
14235SOL     OW45021   9.239   2.619   5.982  0.4305 -0.4361 -0.1293
14235SOL    HW145022   9.144   2.614   5.992  0.2293 -1.3476 -2.0696
14235SOL    HW245023   9.269   2.663   6.062 -1.7261  1.0347 -0.0454
14236SOL     OW45024   6.000   0.041   7.362  0.1391 -0.4663  0.1191
14236SOL    HW145025   6.017   0.074   7.451 -1.6947 -0.2788  0.4364
14236SOL    HW245026   5.953  -0.041   7.376 -1.8366  0.4595 -0.6079
14237SOL     OW45027  10.198   1.925   3.019 -0.2586 -0.5638 -0.0510
14237SOL    HW145028  10.115   1.935   3.065 -1.0169 -1.6792 -1.1097
14237SOL    HW245029  10.194   1.989   2.947 -0.2781 -0.7544 -0.2188
14238SOL     OW45030   3.104   1.959   8.930  0.5094  0.5382 -0.7583
14238SOL    HW145031   3.044   1.886   8.917 -0.4750  1.4572 -1.6212
14238SOL    HW245032   3.111   1.969   9.025 -0.8514  0.5127 -0.6450
14239SOL     OW45033  10.316   8.857   7.576  0.1908 -0.9529 -0.7686
14239SOL    HW145034  10.350   8.888   7.660 -1.7600 -0.9708  0.0959
14239SOL    HW245035  10.280   8.770   7.595 -3.0068  0.2186 -0.7871
14240SOL     OW45036   8.786   7.599  10.202  0.2185  0.1068  0.1371
14240SOL    HW145037   8.817   7.689  10.215  0.9006 -0.2858  1.4731
14240SOL    HW245038   8.855   7.545  10.242 -2.2148 -0.8206  3.5065
14241SOL     OW45039   5.895   6.409   1.547  0.0109 -0.1104  1.2539
14241SOL    HW145040   5.815   6.462   1.541  0.3485  0.2655 -0.2103
14241SOL    HW245041   5.896   6.358   1.466  0.5391 -1.1808  1.9082
14242SOL     OW45042   2.103   8.783   5.301  0.3430 -0.1631 -0.7232
14242SOL    HW145043   2.012   8.771   5.275  0.3636 -1.0002 -0.4481
14242SOL    HW245044   2.120   8.713   5.364  0.4337  1.4956  1.2135
14243SOL     OW45045   9.601   5.039  10.360  0.5182 -0.2762  0.0400
14243SOL    HW145046   9.558   5.092  10.292  0.6785 -0.3217 -0.0972
14243SOL    HW245047   9.663   5.099  10.402 -1.3127  0.4902  1.8302
14244SOL     OW45048   8.089   8.564   7.966  0.0788  0.2409 -0.2935
14244SOL    HW145049   8.148   8.523   8.029  0.5801  1.5773  0.1521
14244SOL    HW245050   8.004   8.566   8.010  0.0700 -0.2340 -0.2879
14245SOL     OW45051   0.601  10.485   6.128  0.2281 -0.2396 -0.1149
14245SOL    HW145052   0.637  10.521   6.210 -0.6727  0.5985 -0.0741
14245SOL    HW245053   0.546  10.555   6.093 -1.5638 -1.5530 -0.0587
14246SOL     OW45054   2.873   8.671   1.797  0.0322 -0.0616 -0.1653
14246SOL    HW145055   2.821   8.747   1.773  0.2338 -0.0642 -0.6182
14246SOL    HW245056   2.963   8.703   1.801 -0.1426  0.3016  2.1227
14247SOL     OW45057   9.751   0.640   0.680 -0.1997 -0.1649  0.1517
14247SOL    HW145058   9.677   0.607   0.731 -1.1748 -0.1321 -1.1896
14247SOL    HW245059   9.758   0.580   0.606  0.2814  0.5826 -0.4212
14248SOL     OW45060   3.942   0.226   2.055  0.1595 -0.4424 -0.2908
14248SOL    HW145061   3.948   0.131   2.041 -0.9184 -0.4264 -0.9689
14248SOL    HW245062   3.871   0.237   2.118 -1.2199  0.0010 -1.8437
14249SOL     OW45063   2.338   7.537   3.340 -0.1388  0.0406  0.3154
14249SOL    HW145064   2.365   7.625   3.364 -2.7094  1.1302 -0.4662
14249SOL    HW245065   2.252   7.526   3.380 -0.2857 -1.7496 -0.3917
14250SOL     OW45066   6.983   9.889   8.433  0.2262  0.3477 -0.3054
14250SOL    HW145067   6.969   9.982   8.418 -0.2567  0.2607 -0.4362
14250SOL    HW245068   6.966   9.848   8.348  0.7040  0.1658 -0.3168
14251SOL     OW45069   0.406   7.684   4.434 -0.2098  0.9311  0.2202
14251SOL    HW145070   0.359   7.735   4.500 -1.3130  0.0304  0.1614
14251SOL    HW245071   0.487   7.658   4.477  0.2650  2.4684  0.3406
14252SOL     OW45072   0.453   7.178   6.448 -0.0055  0.2629  0.1013
14252SOL    HW145073   0.393   7.205   6.517 -2.8365 -2.6383 -0.9675
14252SOL    HW245074   0.447   7.248   6.383 -1.5079  0.5466  0.4967
14253SOL     OW45075   9.750   9.396   8.259 -0.3416  0.1486 -0.1866
14253SOL    HW145076   9.836   9.432   8.238 -0.5979  1.4201  0.7961
14253SOL    HW245077   9.745   9.316   8.208  1.5324 -0.1022 -0.0672
14254SOL     OW45078   2.431   8.934   4.265 -0.4255  0.4615  0.3860
14254SOL    HW145079   2.408   8.849   4.227  0.5970  0.7122 -0.8607
14254SOL    HW245080   2.359   8.953   4.326 -0.0974 -1.8435  1.6352
14255SOL     OW45081   0.662   9.093   0.032 -0.4670  0.6593  0.2201
14255SOL    HW145082   0.757   9.101   0.020 -0.5206 -0.5829 -1.3841
14255SOL    HW245083   0.631   9.183   0.038  0.7700  1.0956  0.5007
14256SOL     OW45084   6.725  10.324   9.355 -0.1419  1.0079 -0.0351
14256SOL    HW145085   6.792  10.384   9.387  0.3377  0.9648 -0.9205
14256SOL    HW245086   6.769  10.239   9.350 -0.2238  1.0006 -0.7219
14257SOL     OW45087   0.173   4.580   8.169  0.2981 -0.8236 -0.2285
14257SOL    HW145088   0.201   4.620   8.087  1.9470 -1.2043  0.1070
14257SOL    HW245089   0.241   4.604   8.232  0.2844 -2.4157  0.4557
14258SOL     OW45090   6.327   4.135   1.267  0.1865 -0.4013  0.1513
14258SOL    HW145091   6.409   4.175   1.240 -0.1573  2.2704  2.5212
14258SOL    HW245092   6.259   4.194   1.235 -0.5060 -0.2321  1.8006
14259SOL     OW45093   3.707   0.343   7.447 -0.1594  0.0045  0.1350
14259SOL    HW145094   3.626   0.332   7.398  0.2561  1.4701 -0.9418
14259SOL    HW245095   3.776   0.325   7.383  0.3747 -0.4164  0.8214
14260SOL     OW45096   2.577   7.141   1.903  0.1082  0.0137 -0.5007
14260SOL    HW145097   2.487   7.173   1.899  0.3654  0.9436  0.4640
14260SOL    HW245098   2.612   7.178   1.984  0.9648 -1.4162 -0.1762
14261SOL     OW45099   9.855   8.311   0.678 -0.3180 -0.5850  0.1178
14261SOL    HW145100   9.886   8.329   0.589  0.0143 -0.7665  0.1940
14261SOL    HW245101   9.781   8.252   0.666 -0.7721  0.0201 -0.0790
14262SOL     OW45102   6.148   0.134   2.343  0.2292 -0.1587  0.2749
14262SOL    HW145103   6.066   0.175   2.369  1.3130  1.8405  0.7176
14262SOL    HW245104   6.138   0.042   2.368 -1.4795  0.2513  1.2170
14263SOL     OW45105   6.783  10.094   1.260  0.4935 -0.5271 -0.7015
14263SOL    HW145106   6.824  10.013   1.291 -0.5312 -0.9964 -0.5120
14263SOL    HW245107   6.805  10.159   1.325 -2.8376 -1.8043  2.0189
14264SOL     OW45108   7.853   4.821   5.715 -0.2720  0.0775 -0.0867
14264SOL    HW145109   7.866   4.840   5.622  0.3234  0.1208 -0.0005
14264SOL    HW245110   7.762   4.793   5.722  0.0165 -1.1128 -0.8892
14265SOL     OW45111   9.162   0.491   3.759  0.2148 -0.1517 -0.1779
14265SOL    HW145112   9.235   0.510   3.700 -0.1043 -2.8151 -1.5599
14265SOL    HW245113   9.135   0.403   3.736 -1.1648 -0.5962  2.7327
14266SOL     OW45114   4.700   4.944   4.804  0.2610  0.0845  0.1217
14266SOL    HW145115   4.629   4.880   4.800  0.0083  0.4160 -1.2466
14266SOL    HW245116   4.762   4.914   4.737 -0.0850  1.5049 -0.8764
14267SOL     OW45117   3.656   7.842   8.074 -0.4382  0.3083 -0.2202
14267SOL    HW145118   3.644   7.932   8.044  0.7283  0.9111  0.9909
14267SOL    HW245119   3.751   7.831   8.077 -0.4323 -2.0984 -3.4643
14268SOL     OW45120   9.641   9.422   4.502  0.1732  0.0900  0.0322
14268SOL    HW145121   9.553   9.386   4.502 -0.1263  0.7777  1.1357
14268SOL    HW245122   9.685   9.377   4.430 -0.0556 -2.7713  1.5216
14269SOL     OW45123   3.207   8.536   5.791  0.7274  0.2445  0.2975
14269SOL    HW145124   3.146   8.581   5.733 -0.4169 -1.4757  0.0847
14269SOL    HW245125   3.165   8.452   5.809  3.3429 -1.3611 -0.4592
14270SOL     OW45126   8.759   9.544   6.099  0.6168 -0.0951 -0.2499
14270SOL    HW145127   8.754   9.574   6.190  2.1384  0.8952 -0.4593
14270SOL    HW245128   8.671   9.559   6.064  0.4642  1.0715  0.5935
14271SOL     OW45129   4.915   1.961   1.727 -0.2927  0.1375 -0.5349
14271SOL    HW145130   4.881   1.970   1.815 -0.1009  1.1367 -0.5526
14271SOL    HW245131   4.839   1.973   1.670 -0.4304 -0.5836 -0.5112
14272SOL     OW45132   3.680   2.483   6.815 -0.3360  0.7439 -0.0049
14272SOL    HW145133   3.665   2.400   6.860  1.0022  0.9957  0.9775
14272SOL    HW245134   3.593   2.518   6.799 -0.9980 -1.4482 -1.6476
14273SOL     OW45135   9.788   0.938   9.266  0.1323 -0.4065 -0.1250
14273SOL    HW145136   9.810   0.849   9.294  0.0873 -0.4682 -0.2815
14273SOL    HW245137   9.867   0.968   9.220 -0.2471 -0.7824 -1.0498
14274SOL     OW45138   3.198  10.577  10.484 -0.0770  0.1603  0.0573
14274SOL    HW145139   3.104  10.583  10.502  0.0656  2.4527  0.3853
14274SOL    HW245140   3.231  10.514  10.549 -1.2631 -0.0961  0.4390
14275SOL     OW45141   8.351   1.765   9.219 -0.2904 -0.5527 -0.5119
14275SOL    HW145142   8.290   1.815   9.165 -0.5728 -0.9173 -0.5383
14275SOL    HW245143   8.317   1.675   9.216 -0.2408 -0.6007  0.1764
14276SOL     OW45144   5.031   1.394   2.532 -0.4567 -0.3502  0.2573
14276SOL    HW145145   4.976   1.320   2.558  0.6908 -0.8863  1.2452
14276SOL    HW245146   5.062   1.372   2.444  1.3840 -1.9904  1.2550
14277SOL     OW45147  10.364   0.075   2.333 -0.3855 -0.4296  0.2620
14277SOL    HW145148  10.311   0.057   2.255 -1.2182  0.1445  0.6863
14277SOL    HW245149  10.401  -0.010   2.357 -1.2039 -0.8654  0.0160
14278SOL     OW45150   8.869   7.809   3.430 -0.3285 -0.1784 -0.2789
14278SOL    HW145151   8.937   7.825   3.496  2.1137 -2.2065 -2.0995
14278SOL    HW245152   8.896   7.862   3.355 -3.2848  2.4066  0.3013
14279SOL     OW45153   7.696   4.615  10.248 -0.2031 -0.3927  0.0180
14279SOL    HW145154   7.748   4.543  10.212 -1.2009 -0.8966 -0.4589
14279SOL    HW245155   7.616   4.573  10.280 -1.0263  0.5530 -0.7293
14280SOL     OW45156   8.036   3.079   3.731  0.4850 -0.0716 -0.5257
14280SOL    HW145157   8.123   3.061   3.764  0.2402 -0.7685 -0.2584
14280SOL    HW245158   7.993   3.127   3.802  1.1820  1.7831 -1.2925
14281SOL     OW45159   8.634   0.209   5.701  0.2446  0.3594 -0.1748
14281SOL    HW145160   8.613   0.149   5.629 -1.2094 -0.3691  0.8294
14281SOL    HW245161   8.599   0.167   5.779  0.5395  1.8147  0.7782
14282SOL     OW45162   2.740   6.276   1.371  0.1903  0.0199 -0.0102
14282SOL    HW145163   2.833   6.297   1.356  0.2839 -0.7054 -0.4793
14282SOL    HW245164   2.693   6.327   1.304  0.1590  1.1469  0.8419
14283SOL     OW45165   8.545   9.770   8.558  0.0450 -0.1847 -0.3143
14283SOL    HW145166   8.491   9.849   8.557 -0.2686 -0.3984 -0.5616
14283SOL    HW245167   8.532   9.731   8.471 -1.4108 -1.5800  0.4604
14284SOL     OW45168   2.635   1.291   8.957 -0.4967  0.1555  0.4231
14284SOL    HW145169   2.704   1.252   9.011 -0.2014  1.7807  1.3022
14284SOL    HW245170   2.610   1.222   8.896  0.5441 -1.1082  1.3616
14285SOL     OW45171   6.554   7.341   5.082  0.5224  0.4600 -0.1732
14285SOL    HW145172   6.603   7.332   5.164 -0.0078  0.4264  0.1405
14285SOL    HW245173   6.584   7.425   5.046  1.7720 -0.1588 -0.6337
14286SOL     OW45174   5.062   7.398   2.669  0.3511  0.5275  0.7909
14286SOL    HW145175   5.128   7.352   2.618 -1.4245 -2.1937  0.7560
14286SOL    HW245176   5.054   7.483   2.626  3.0156  0.5732  0.1850
14287SOL     OW45177   8.459   6.562   0.127 -0.5121 -0.0865  0.4001
14287SOL    HW145178   8.520   6.556   0.201  0.0983  2.6761  0.2576
14287SOL    HW245179   8.386   6.614   0.161 -0.6626  0.4172 -0.6563
14288SOL     OW45180   5.191   3.167   0.692 -0.2210 -0.3238  0.2428
14288SOL    HW145181   5.282   3.140   0.703 -0.1356  0.0778  0.5603
14288SOL    HW245182   5.195   3.263   0.684 -0.6456 -0.2693  0.6415
14289SOL     OW45183   1.146   2.301   8.959  0.1824  0.3954 -0.0105
14289SOL    HW145184   1.153   2.384   8.912  0.8383  2.0841  2.7898
14289SOL    HW245185   1.207   2.242   8.915  1.4879  2.1544 -0.6508
14290SOL     OW45186   0.176   7.855   1.633  0.0317  0.0417 -0.0332
14290SOL    HW145187   0.245   7.918   1.610 -1.0630  1.0026 -0.8203
14290SOL    HW245188   0.135   7.833   1.549 -0.4545 -0.7207  0.3958
14291SOL     OW45189   3.173   6.333   6.386  0.0899 -0.1617  0.2707
14291SOL    HW145190   3.182   6.315   6.479  1.3356 -2.2099 -0.1704
14291SOL    HW245191   3.235   6.273   6.344 -2.0554 -0.9713 -2.0005
14292SOL     OW45192   3.519   6.432   0.771 -0.0914 -0.5599  0.1749
14292SOL    HW145193   3.452   6.381   0.725 -1.9537  1.1848  0.8426
14292SOL    HW245194   3.518   6.517   0.728  2.0804 -0.6166 -0.0961
14293SOL     OW45195   8.388   1.944   9.485  0.0212 -0.1910  0.1263
14293SOL    HW145196   8.400   1.987   9.401  1.7921 -2.1359 -0.6934
14293SOL    HW245197   8.423   2.007   9.549 -0.6260  0.9825 -0.6411
14294SOL     OW45198   8.933   1.239   7.770  0.0170 -0.3430 -0.1940
14294SOL    HW145199   8.963   1.309   7.828  0.0869  0.0558 -0.7044
14294SOL    HW245200   8.962   1.158   7.812 -1.3861 -0.1728  1.2035
14295SOL     OW45201   2.855   2.612   0.228 -0.3966  0.1326 -0.0813
14295SOL    HW145202   2.915   2.683   0.251 -0.5931 -0.2874  1.9543
14295SOL    HW245203   2.788   2.653   0.174  0.5631  1.0420 -0.6172
14296SOL     OW45204   3.550   3.449  10.518 -0.6570  0.2727 -0.2614
14296SOL    HW145205   3.568   3.362  10.554 -0.8925 -0.6599 -2.2185
14296SOL    HW245206   3.621   3.504  10.550  1.3571 -1.4411 -1.5075
14297SOL     OW45207   3.689   7.761   3.396 -0.1226  0.1456  0.3568
14297SOL    HW145208   3.673   7.747   3.490  0.7585  0.6340  0.5911
14297SOL    HW245209   3.698   7.673   3.360  0.4370 -0.0246  0.8993
14298SOL     OW45210   4.116  10.456   8.506  0.2467 -0.1133  0.0724
14298SOL    HW145211   4.139  10.547   8.523 -1.7347  0.1255  2.1106
14298SOL    HW245212   4.054  10.460   8.433 -0.9003  0.3840  1.0375
14299SOL     OW45213   9.570   7.546   7.972  0.7757 -0.1338  0.3285
14299SOL    HW145214   9.568   7.523   7.879  0.1490 -0.2036  0.3528
14299SOL    HW245215   9.550   7.639   7.974  3.3978  0.5231  0.2252
14300SOL     OW45216   5.781   2.962   0.985  0.4563 -0.9218 -0.2775
14300SOL    HW145217   5.840   2.887   0.983  1.5367 -0.1203  0.5819
14300SOL    HW245218   5.782   2.991   1.076  0.8824  0.7713 -0.7931
14301SOL     OW45219   6.893   8.193   7.580  0.0137  0.0118  0.0284
14301SOL    HW145220   6.880   8.102   7.553  0.4668 -0.3076  0.8654
14301SOL    HW245221   6.846   8.201   7.662  1.7828 -0.0924  1.1005
14302SOL     OW45222   8.265   6.554   3.025 -0.1485 -0.0736  0.5439
14302SOL    HW145223   8.251   6.465   3.057  0.6627 -0.3286  0.2352
14302SOL    HW245224   8.234   6.553   2.935  0.1382 -0.1331  0.4440
14303SOL     OW45225   9.485   9.745   6.706 -0.3999 -0.1269 -0.0603
14303SOL    HW145226   9.464   9.653   6.718  0.5117 -0.2608  0.6290
14303SOL    HW245227   9.405   9.792   6.732 -0.4582 -0.6808  0.8022
14304SOL     OW45228   7.011   1.545  10.237 -0.2913 -0.1711  0.4374
14304SOL    HW145229   6.997   1.597  10.316 -0.9889 -1.4269  1.1712
14304SOL    HW245230   7.053   1.605  10.176 -1.2447  1.2916  1.1783
14305SOL     OW45231   9.647   3.032   6.110  0.1654 -0.4643  0.0113
14305SOL    HW145232   9.628   3.033   6.016 -1.8268 -0.2988  0.3750
14305SOL    HW245233   9.680   3.120   6.129 -0.9870  0.0620 -0.2821
14306SOL     OW45234   0.837   7.187  10.090  0.0928 -0.0062  0.0072
14306SOL    HW145235   0.848   7.165   9.997 -0.8536 -0.4034 -0.0227
14306SOL    HW245236   0.920   7.161  10.130 -0.2874 -1.9494 -0.3533
14307SOL     OW45237   3.535   8.849   8.774 -0.4006 -0.2582 -0.4792
14307SOL    HW145238   3.551   8.755   8.763  3.8035  0.1837  0.3670
14307SOL    HW245239   3.485   8.856   8.856  0.9888 -1.7344  0.5522
14308SOL     OW45240   4.577   5.738   9.710 -0.1747  0.0238  0.2164
14308SOL    HW145241   4.488   5.703   9.716  0.2794 -0.9184  2.6823
14308SOL    HW245242   4.621   5.681   9.647 -1.0782  0.0152 -0.4290
14309SOL     OW45243   0.176   9.427   2.987  0.2993 -0.1012  0.1588
14309SOL    HW145244   0.208   9.511   3.019  0.1062 -0.1918  0.6088
14309SOL    HW245245   0.187   9.431   2.892 -0.0383  0.5760  0.1408
14310SOL     OW45246   0.977   9.303   2.542 -0.1619  1.0517 -0.0227
14310SOL    HW145247   0.916   9.315   2.470  0.6026 -1.4319 -1.1865
14310SOL    HW245248   0.955   9.217   2.579  2.7414 -0.1432 -0.7461
14311SOL     OW45249   3.764   3.208   9.040  0.1316  0.1388 -0.0609
14311SOL    HW145250   3.695   3.254   9.087  0.2637 -1.2275  1.5699
14311SOL    HW245251   3.841   3.215   9.097  0.7992 -0.0787 -0.9024
14312SOL     OW45252   6.009   1.232   1.775  0.0119 -0.3628 -0.4263
14312SOL    HW145253   6.084   1.175   1.795 -0.6863 -1.7775 -1.6063
14312SOL    HW245254   6.006   1.295   1.847  1.6968 -0.9267  0.1822
14313SOL     OW45255   2.211   4.967   1.124  0.0898 -0.6872 -0.0386
14313SOL    HW145256   2.273   4.983   1.195 -0.9368  0.1096  0.7037
14313SOL    HW245257   2.125   4.975   1.165 -0.5784  1.7129 -1.7332
14314SOL     OW45258   8.261   1.803   0.127  0.2225 -0.2153 -0.3290
14314SOL    HW145259   8.218   1.753   0.057 -1.4319  3.0872 -1.9492
14314SOL    HW245260   8.189   1.828   0.185  1.2725 -1.0892  1.4034
14315SOL     OW45261   4.266   0.895   1.149  0.4215 -0.1554 -0.2639
14315SOL    HW145262   4.310   0.825   1.102 -0.7441 -0.1592 -1.4016
14315SOL    HW245263   4.278   0.972   1.094  1.0750  0.4006  0.6251
14316SOL     OW45264   6.466   7.331   3.569  0.0506  0.2667 -0.2156
14316SOL    HW145265   6.486   7.382   3.491  0.0455  4.2844  2.1195
14316SOL    HW245266   6.551   7.297   3.597  0.3982  0.6086 -0.8210
14317SOL     OW45267   0.655   5.615   0.839 -0.5207 -0.1719  0.6064
14317SOL    HW145268   0.613   5.694   0.873  1.1742  0.7925  0.5780
14317SOL    HW245269   0.746   5.623   0.867 -0.3607 -2.2476  0.7926
14318SOL     OW45270   7.656   8.613   7.666 -0.1871 -0.0689 -0.2539
14318SOL    HW145271   7.737   8.579   7.628 -0.0755 -0.0630 -0.0247
14318SOL    HW245272   7.594   8.615   7.593 -1.1657 -3.6648  0.2517
14319SOL     OW45273   0.462   1.468   7.948  0.0786  0.0987  0.2776
14319SOL    HW145274   0.462   1.447   8.041  0.3844 -3.0583 -0.3249
14319SOL    HW245275   0.384   1.425   7.913 -0.0339  1.2152 -0.9741
14320SOL     OW45276   3.791   9.598   9.492  0.7169  0.1312  0.6224
14320SOL    HW145277   3.808   9.674   9.436  2.0255  0.3466  1.2679
14320SOL    HW245278   3.741   9.634   9.565  0.1440  0.0994  0.2526
14321SOL     OW45279   0.278   2.543   9.116 -0.2279  0.4250 -0.0334
14321SOL    HW145280   0.279   2.518   9.208 -0.6088  1.1921  0.1828
14321SOL    HW245281   0.251   2.635   9.115  0.3520  0.6023 -0.8702
14322SOL     OW45282   2.814   8.317   4.829  0.1357  0.4982 -0.1373
14322SOL    HW145283   2.719   8.311   4.832  0.2215 -0.3831  1.6630
14322SOL    HW245284   2.832   8.411   4.823 -0.8401  0.7115  0.2034
14323SOL     OW45285  10.106  10.010  10.130 -0.0336  1.0454 -0.3059
14323SOL    HW145286  10.048   9.934  10.119  0.9735  0.3183 -0.7896
14323SOL    HW245287  10.193   9.972  10.136  0.4656  2.1680 -0.2731
14324SOL     OW45288   1.750   7.916   0.413  0.1689  0.0477 -0.2883
14324SOL    HW145289   1.809   7.871   0.473  0.4090 -0.2742 -0.7595
14324SOL    HW245290   1.745   8.005   0.447 -0.1507 -0.2751  0.5374
14325SOL     OW45291   1.097   7.818   9.063  0.0190  0.1281  0.1914
14325SOL    HW145292   1.111   7.733   9.022 -1.8167 -0.3470  0.4812
14325SOL    HW245293   1.065   7.797   9.151 -2.0015  1.0799 -0.2782
14326SOL     OW45294   4.316   7.443   1.228  0.2575  0.1570  0.6943
14326SOL    HW145295   4.227   7.464   1.200  0.7947  1.0451 -0.4145
14326SOL    HW245296   4.329   7.352   1.202 -0.4762 -0.1234  1.2856
14327SOL     OW45297  10.088   4.404   4.890 -0.2354 -0.6210  0.4726
14327SOL    HW145298  10.070   4.491   4.855 -0.4076 -0.3217  1.3026
14327SOL    HW245299  10.175   4.411   4.930 -1.1407 -0.2100  2.4772
14328SOL     OW45300   7.629   0.965   4.355  0.2982 -0.1395 -0.1779
14328SOL    HW145301   7.657   0.935   4.441 -1.4934 -0.7706  0.2169
14328SOL    HW245302   7.538   0.937   4.347 -0.0329  1.1754 -1.6981
14329SOL     OW45303   0.859   0.359   2.908 -0.4173 -0.0065  0.3092
14329SOL    HW145304   0.927   0.293   2.896 -0.6995 -0.0687 -1.1464
14329SOL    HW245305   0.907   0.442   2.909 -0.0917 -0.1843  1.8474
14330SOL     OW45306   5.714   1.708   1.465  0.1942 -0.0305  0.3010
14330SOL    HW145307   5.730   1.637   1.403  1.2243  0.1492  0.3347
14330SOL    HW245308   5.802   1.740   1.488 -0.0986 -0.7237  2.6267
14331SOL     OW45309   7.434   9.702   7.128  0.1603 -0.0206  0.4254
14331SOL    HW145310   7.395   9.676   7.212 -0.1912 -2.0284 -0.2890
14331SOL    HW245311   7.528   9.698   7.143  0.1013 -0.5321  0.7082
14332SOL     OW45312   3.875   8.154   7.797 -0.1870 -0.5817 -0.5063
14332SOL    HW145313   3.955   8.116   7.835  2.0531  1.3425 -2.9037
14332SOL    HW245314   3.839   8.208   7.867  1.3787 -0.4345  0.2277
14333SOL     OW45315   5.747   7.075   8.039  0.1920 -0.4668  0.5961
14333SOL    HW145316   5.815   7.076   7.971  1.1570  0.1206  1.5285
14333SOL    HW245317   5.672   7.118   7.999  0.5305 -0.6944 -0.3054
14334SOL     OW45318   4.478   2.405   0.603 -0.3299 -0.2793  0.0245
14334SOL    HW145319   4.539   2.473   0.632  1.0156 -1.1080 -0.7343
14334SOL    HW245320   4.533   2.327   0.591 -1.4549 -0.9254 -1.2039
14335SOL     OW45321   9.299   7.804   1.561  0.4400  0.4401  0.0235
14335SOL    HW145322   9.357   7.833   1.491 -0.4905 -3.1469 -2.5112
14335SOL    HW245323   9.235   7.748   1.518 -1.0966 -0.8550  3.5939
14336SOL     OW45324   4.515   5.499  10.003 -0.3130  0.6916 -0.1536
14336SOL    HW145325   4.533   5.418  10.051  0.9018  0.9332 -0.1639
14336SOL    HW245326   4.464   5.470   9.927  0.5608 -0.1483 -0.4423
14337SOL     OW45327   6.307  10.057   0.364 -0.3048 -0.1147  0.4361
14337SOL    HW145328   6.314  10.145   0.400 -0.1375 -0.8777  2.3739
14337SOL    HW245329   6.301  10.000   0.441  1.1608 -1.9318 -0.7125
14338SOL     OW45330   0.789   8.470   9.970  0.1335  0.3245  0.0523
14338SOL    HW145331   0.739   8.551   9.972 -1.2884 -0.5102  2.2307
14338SOL    HW245332   0.768   8.427  10.053  0.7006 -2.3539 -1.0945
14339SOL     OW45333  10.063  10.243   7.300 -0.1655  0.0884  0.1353
14339SOL    HW145334  10.072  10.175   7.367  0.5737 -0.4587 -0.4982
14339SOL    HW245335  10.053  10.324   7.350  0.5542 -0.2848  0.9274
14340SOL     OW45336   7.184   6.266   5.189 -0.2652  0.9786  0.2040
14340SOL    HW145337   7.271   6.233   5.167  0.3571  2.2543  0.6262
14340SOL    HW245338   7.126   6.226   5.124  0.5751 -0.1716  0.1385
14341SOL     OW45339   8.640   9.980   4.086 -0.0817  0.1559 -0.4534
14341SOL    HW145340   8.587  10.030   4.147 -1.7966 -0.1093 -1.6447
14341SOL    HW245341   8.721  10.030   4.077 -1.7365  2.8212 -1.6708
14342SOL     OW45342  10.345   5.972   0.066 -0.2354  0.2495  0.0639
14342SOL    HW145343  10.345   5.967  -0.030  0.7017  0.0008  0.0763
14342SOL    HW245344  10.265   6.021   0.086 -0.2297  0.6755 -0.8683
14343SOL     OW45345   6.237   5.963   8.064 -0.3293 -0.9322 -0.3135
14343SOL    HW145346   6.299   5.960   8.137 -0.5671 -0.9971 -0.1149
14343SOL    HW245347   6.200   5.874   8.061 -0.1377 -0.9993 -0.6679
14344SOL     OW45348   0.837   4.359   4.414  0.1060  0.3774 -0.2522
14344SOL    HW145349   0.877   4.387   4.497 -0.0509 -0.5067  0.1358
14344SOL    HW245350   0.878   4.275   4.395 -0.4461  0.1932 -0.6523
14345SOL     OW45351  10.028   3.821   5.214 -0.0399  0.2148  0.1183
14345SOL    HW145352  10.061   3.875   5.286  3.4457 -1.3657 -0.0632
14345SOL    HW245353  10.010   3.883   5.143  0.5079  1.4432  1.0230
14346SOL     OW45354   5.440   6.403   7.977 -0.1719  0.1233 -0.5064
14346SOL    HW145355   5.477   6.356   8.053 -1.9523  0.0035  0.3541
14346SOL    HW245356   5.500   6.475   7.962  0.4822 -0.1227  0.7356
14347SOL     OW45357   5.520   3.302   3.418 -0.2088 -0.1902 -0.2337
14347SOL    HW145358   5.490   3.322   3.329 -1.9160  0.0633  0.3627
14347SOL    HW245359   5.600   3.354   3.429 -1.7690  2.4407 -0.4952
14348SOL     OW45360   3.521   1.391   8.222 -0.4035 -0.3198  0.3925
14348SOL    HW145361   3.546   1.410   8.132  1.3487 -1.3186  0.6149
14348SOL    HW245362   3.470   1.311   8.216 -1.4700  0.3549  0.1811
14349SOL     OW45363   1.627   6.474   5.429 -0.0957 -0.0288  0.8642
14349SOL    HW145364   1.722   6.463   5.437  0.1578 -0.2312 -1.5460
14349SOL    HW245365   1.617   6.555   5.380 -1.1593 -0.1788  0.8146
14350SOL     OW45366   3.704   5.020   7.331  0.4707  0.3335 -0.0414
14350SOL    HW145367   3.735   4.934   7.305  0.3172 -0.1249  1.2134
14350SOL    HW245368   3.783   5.070   7.351  0.4984 -0.0830  0.9090
14351SOL     OW45369   3.254   3.390   7.870  0.6480 -0.1759  0.2911
14351SOL    HW145370   3.231   3.300   7.848  1.4917 -0.1835 -0.6786
14351SOL    HW245371   3.349   3.387   7.885  0.6344  0.4901  0.5375
14352SOL     OW45372   8.951   1.741   3.013  0.1330  0.0826  0.5727
14352SOL    HW145373   8.962   1.675   3.082  1.2850 -0.4658 -0.1004
14352SOL    HW245374   8.924   1.690   2.936  0.7885  0.4200  0.1133
14353SOL     OW45375  10.513   2.055   8.220  0.2154  0.0575  0.2262
14353SOL    HW145376  10.528   1.973   8.173 -1.3387  0.1365 -0.4883
14353SOL    HW245377  10.591   2.107   8.204  0.7779 -0.8951 -0.1846
14354SOL     OW45378  10.448  10.034   5.489 -0.2031  0.1428 -0.0686
14354SOL    HW145379  10.363  10.037   5.446 -1.2170  2.9820  1.7563
14354SOL    HW245380  10.443   9.958   5.547 -0.5399 -1.0951 -1.6855
14355SOL     OW45381   7.741   9.274   7.346 -0.6627  0.2307  0.2686
14355SOL    HW145382   7.804   9.224   7.295 -1.4993 -0.8609  0.2747
14355SOL    HW245383   7.675   9.301   7.282 -0.1652  1.4635  0.2390
14356SOL     OW45384   2.162   2.113   8.984  0.3044  0.3798  0.1912
14356SOL    HW145385   2.210   2.112   8.901  0.0826  1.0290  0.0425
14356SOL    HW245386   2.210   2.053   9.041 -0.4559 -1.3322 -0.8960
14357SOL     OW45387   7.443   7.702   0.984  0.0935 -0.1850 -0.2177
14357SOL    HW145388   7.383   7.755   0.932 -0.0383 -0.6466 -0.5433
14357SOL    HW245389   7.452   7.749   1.066 -0.1638  0.2462 -0.4332
14358SOL     OW45390   4.176   9.389   9.182  0.4779 -0.2023 -0.1375
14358SOL    HW145391   4.213   9.472   9.214 -1.2257  0.4432  0.3008
14358SOL    HW245392   4.104   9.416   9.124  0.2060 -1.3832 -0.3767
14359SOL     OW45393   0.450   1.131   4.180  0.0626 -0.0119 -0.2105
14359SOL    HW145394   0.431   1.038   4.168  1.5010 -0.3124 -0.3216
14359SOL    HW245395   0.524   1.133   4.241  2.1447  0.8653 -2.5767
14360SOL     OW45396   5.699   4.247   6.727  0.0231 -0.6338 -0.2168
14360SOL    HW145397   5.712   4.335   6.693  1.3730 -0.7698 -0.1148
14360SOL    HW245398   5.653   4.200   6.657 -2.6144  0.6595  0.5209
14361SOL     OW45399   7.063   5.112   4.742 -0.2850  0.1419  0.2163
14361SOL    HW145400   7.061   5.198   4.699  1.8144 -0.3102 -0.9007
14361SOL    HW245401   7.131   5.121   4.808 -2.2717  0.2687  2.4119
14362SOL     OW45402   0.221   7.069   9.584 -0.0322  0.6335 -0.1093
14362SOL    HW145403   0.167   7.146   9.566 -0.1432  0.6026  0.0958
14362SOL    HW245404   0.182   7.029   9.661  1.5056  1.8021  1.3569
14363SOL     OW45405   1.579   5.041   5.997 -0.2102  0.4618 -0.0966
14363SOL    HW145406   1.674   5.033   5.987 -0.2218 -0.0272  0.1323
14363SOL    HW245407   1.563   5.135   6.005  0.2393  0.5580 -0.2864
14364SOL     OW45408   9.488   7.750   7.186  0.6207  0.2453 -0.0397
14364SOL    HW145409   9.508   7.820   7.248 -0.7145 -0.1156  0.8520
14364SOL    HW245410   9.529   7.777   7.105  1.7346  1.1300  0.7882
14365SOL     OW45411   8.305   9.110  10.436 -0.3201  0.1397 -0.3246
14365SOL    HW145412   8.390   9.102  10.479 -0.7960  1.6094  0.9603
14365SOL    HW245413   8.284   9.021  10.409  1.7618 -0.2178 -0.9801
14366SOL     OW45414   0.322   5.972   9.422  0.4515  0.4094 -0.0894
14366SOL    HW145415   0.335   6.066   9.412 -0.7896  0.4800 -1.3923
14366SOL    HW245416   0.355   5.935   9.340 -0.5175 -0.1216 -0.2486
14367SOL     OW45417   2.347   5.017   3.956  0.4387  0.0018  0.1601
14367SOL    HW145418   2.415   5.066   4.003 -0.0428  0.2420  0.6157
14367SOL    HW245419   2.284   5.084   3.928  0.0643 -0.2914  0.2973
14368SOL     OW45420   0.117   6.924   4.580 -0.3922  0.4518  0.3876
14368SOL    HW145421   0.037   6.884   4.613 -0.9224  1.1472  0.0014
14368SOL    HW245422   0.086   6.989   4.516  0.5340 -0.0869 -0.6572
14369SOL     OW45423   9.030   7.471   5.700 -0.0014 -0.1892 -0.0740
14369SOL    HW145424   9.111   7.420   5.698  0.5505  0.6572  0.1828
14369SOL    HW245425   8.970   7.423   5.643  0.0204 -1.9013  1.2790
14370SOL     OW45426   6.594   6.455   0.074 -0.0073  0.0478 -0.0777
14370SOL    HW145427   6.637   6.538   0.092  0.4393 -0.2067  0.0354
14370SOL    HW245428   6.532   6.475   0.004 -0.3590  0.6137  0.3805
14371SOL     OW45429   4.908   7.537   1.465  0.6190 -0.2077 -0.3122
14371SOL    HW145430   4.814   7.530   1.450  0.5615 -0.9139  0.2959
14371SOL    HW245431   4.941   7.588   1.391 -0.2494  0.1062 -0.4903
14372SOL     OW45432   8.973   5.936   6.396  0.2930  0.0574  0.2516
14372SOL    HW145433   9.058   5.920   6.438  0.7786  1.1718 -0.2547
14372SOL    HW245434   8.981   5.893   6.310 -0.1045 -0.8320  0.6408
14373SOL     OW45435  10.597   9.062   6.622 -0.4212  0.2832  0.4194
14373SOL    HW145436  10.511   9.045   6.659 -1.3318  1.1155 -1.2153
14373SOL    HW245437  10.599   9.156   6.606 -0.6639 -0.1227 -2.8089
14374SOL     OW45438   3.512   5.233   7.143  0.1636  0.0317 -0.3699
14374SOL    HW145439   3.545   5.322   7.155  0.7606 -0.1687 -0.5185
14374SOL    HW245440   3.427   5.245   7.099 -0.5573  0.6135  1.1010
14375SOL     OW45441   7.187   4.611   6.960  0.8613  0.2676 -0.3185
14375SOL    HW145442   7.096   4.600   6.932  0.0059 -0.1239  2.3163
14375SOL    HW245443   7.228   4.527   6.940 -0.2450 -0.7115  1.3116
14376SOL     OW45444   2.505   7.285   3.683  0.0694 -0.2079 -0.2720
14376SOL    HW145445   2.573   7.218   3.687 -0.2075 -0.4842 -0.1290
14376SOL    HW245446   2.467   7.277   3.595 -0.4424 -0.7223 -0.0120
14377SOL     OW45447  10.179   1.000   3.768 -0.0166 -0.5048 -0.3097
14377SOL    HW145448  10.096   0.964   3.737  0.7779 -0.4746 -2.7364
14377SOL    HW245449  10.245   0.962   3.710  1.5279  0.4257  0.7539
14378SOL     OW45450   4.340  10.583   2.552  0.1639 -0.2575  0.2849
14378SOL    HW145451   4.248  10.566   2.533 -0.3868  1.8116  0.8701
14378SOL    HW245452   4.387  10.542   2.479 -1.3369  0.2529 -1.0154
14379SOL     OW45453   1.305   0.376   4.875 -1.1083  0.6577 -0.3413
14379SOL    HW145454   1.369   0.313   4.843 -1.1815  0.3244  0.1610
14379SOL    HW245455   1.327   0.458   4.830  0.1904  0.7589  0.4196
14380SOL     OW45456   6.500   6.183   3.632 -0.4118 -0.6769  0.0572
14380SOL    HW145457   6.591   6.194   3.659 -0.7920  1.5890  0.6324
14380SOL    HW245458   6.501   6.200   3.538 -0.4695  1.2427  0.3707
14381SOL     OW45459   9.446   4.932   0.661 -0.2277 -0.2427 -0.2494
14381SOL    HW145460   9.526   4.890   0.627  0.9212  0.8021  1.0538
14381SOL    HW245461   9.478   5.006   0.712 -2.1153  0.8991 -0.6397
14382SOL     OW45462   7.287   5.772   0.351  0.2453  0.2128 -0.8752
14382SOL    HW145463   7.263   5.684   0.319 -1.6780  0.2676  0.2409
14382SOL    HW245464   7.367   5.758   0.401  0.3737 -0.7753 -1.3211
14383SOL     OW45465  10.061  10.186   5.018  0.1954 -0.4258 -0.2813
14383SOL    HW145466   9.983  10.222   4.975 -0.2911  0.6250  1.4094
14383SOL    HW245467  10.126  10.255   5.012  0.4437 -0.6509 -0.1773
14384SOL     OW45468   9.523   6.362   3.789 -0.3477 -0.0407 -0.2707
14384SOL    HW145469   9.612   6.393   3.800  1.2102 -4.0407  0.0827
14384SOL    HW245470   9.502   6.317   3.871 -2.2470 -0.2064 -0.7860
14385SOL     OW45471   1.173  10.567   4.935 -0.1440  0.7222  0.6335
14385SOL    HW145472   1.155  10.628   4.864  1.7410  0.6078  0.0004
14385SOL    HW245473   1.247  10.606   4.982  0.0451 -0.2736  1.1989
14386SOL     OW45474   3.677   5.914   9.154 -0.4446  0.1590 -0.3069
14386SOL    HW145475   3.693   5.864   9.234 -1.9860  0.6633  0.3623
14386SOL    HW245476   3.628   5.991   9.183 -0.5440  0.6453 -1.6726
14387SOL     OW45477   3.407   4.290   8.104 -0.5405  0.2274  0.4309
14387SOL    HW145478   3.429   4.295   8.012  0.2013 -0.2935  0.5744
14387SOL    HW245479   3.371   4.202   8.116  0.1875 -0.0242  0.8091
14388SOL     OW45480   7.361   1.196   4.288  0.1718  0.5780 -0.6599
14388SOL    HW145481   7.400   1.263   4.232 -0.2675  0.1581 -1.4753
14388SOL    HW245482   7.386   1.113   4.247 -1.0294  0.2882 -0.8303
14389SOL     OW45483  10.520   0.264   1.098 -0.3582 -0.0915 -0.1195
14389SOL    HW145484  10.596   0.285   1.043 -0.7738  3.7738  0.5127
14389SOL    HW245485  10.446   0.266   1.038 -0.3683 -0.0047 -0.1045
14390SOL     OW45486   3.445   4.964   8.423  0.6636  0.8518 -0.2715
14390SOL    HW145487   3.453   5.017   8.344  1.2612 -1.0806 -1.5712
14390SOL    HW245488   3.351   4.958   8.439  0.1260 -2.2622 -3.4656
14391SOL     OW45489   2.255   8.508   9.363 -0.0420 -0.6045  0.2534
14391SOL    HW145490   2.238   8.447   9.292  0.0500 -0.3471  0.0085
14391SOL    HW245491   2.294   8.454   9.432 -0.1635 -0.8614  0.1229
14392SOL     OW45492   7.082   9.691   3.379 -0.1066  0.6038 -0.0702
14392SOL    HW145493   7.169   9.722   3.404 -0.1036 -0.7632  1.7812
14392SOL    HW245494   7.024   9.723   3.448 -0.4487 -1.4818  0.6840
14393SOL     OW45495   7.247   1.890   5.564 -0.1371  0.1153  0.4698
14393SOL    HW145496   7.317   1.851   5.616  0.1422 -0.7021 -0.4806
14393SOL    HW245497   7.192   1.936   5.627  0.7183 -0.0455  1.3487
14394SOL     OW45498   1.950   6.276   7.813  0.0893 -0.3410  0.2811
14394SOL    HW145499   2.025   6.317   7.856  1.1875 -1.6381 -0.3453
14394SOL    HW245500   1.915   6.215   7.878  0.2674 -0.5493  0.1817
14395SOL     OW45501   4.211   5.935   5.719  1.1909 -0.0835 -0.2936
14395SOL    HW145502   4.222   6.020   5.763  0.8122 -1.4659  2.6573
14395SOL    HW245503   4.117   5.919   5.721  1.3739 -1.1237  0.3102
14396SOL     OW45504   7.476   6.679   2.773  0.2858  0.4550  0.4792
14396SOL    HW145505   7.393   6.632   2.765  0.9161 -0.4507 -1.4832
14396SOL    HW245506   7.464   6.758   2.720  0.7922  0.1183 -0.1513
14397SOL     OW45507   1.583   3.497   6.125 -0.1697 -0.3630  0.2589
14397SOL    HW145508   1.560   3.511   6.217 -1.9686  1.8745 -0.4300
14397SOL    HW245509   1.665   3.546   6.113  0.9230 -1.9346  0.9573
14398SOL     OW45510   0.429   9.674  10.057  0.2870  0.2330 -0.3302
14398SOL    HW145511   0.388   9.716  10.133 -0.7214  0.1556 -0.8102
14398SOL    HW245512   0.360   9.619  10.020  1.4014 -1.4093 -0.0712
14399SOL     OW45513   2.021   9.733   9.536  0.3592  0.2585  0.0782
14399SOL    HW145514   1.997   9.694   9.621  0.1333 -0.7749 -0.4419
14399SOL    HW245515   2.064   9.815   9.559  2.8693 -1.2831  1.3575
14400SOL     OW45516   1.772   5.427   9.410 -0.2541  0.3274 -0.5213
14400SOL    HW145517   1.822   5.447   9.489 -0.8486 -1.4786  0.3911
14400SOL    HW245518   1.824   5.462   9.339  0.6012  1.4919  0.6316
14401SOL     OW45519   5.466   0.370   3.588  0.0185  0.2548  0.6762
14401SOL    HW145520   5.392   0.424   3.562 -1.1710 -0.6848  1.9166
14401SOL    HW245521   5.483   0.314   3.512 -0.2636  0.7845  0.2224
14402SOL     OW45522   5.668   9.344   9.224 -0.2812  0.0662 -0.5855
14402SOL    HW145523   5.665   9.331   9.129  0.9234 -1.3843 -0.4520
14402SOL    HW245524   5.611   9.276   9.260  1.5183 -1.2642 -0.1524
14403SOL     OW45525   9.385   7.745   1.231 -0.6173 -0.5926 -0.0592
14403SOL    HW145526   9.333   7.785   1.161  0.4178  0.1870 -0.3992
14403SOL    HW245527   9.437   7.677   1.187  1.6197  1.2998 -0.4921
14404SOL     OW45528   1.765   8.826   0.845  0.1741 -0.0215 -0.0777
14404SOL    HW145529   1.819   8.905   0.844 -1.0547  0.8616  0.5090
14404SOL    HW245530   1.708   8.835   0.768  0.6973 -0.8301 -0.5676
14405SOL     OW45531   4.263   1.534   0.501  0.7836  0.4042 -0.0521
14405SOL    HW145532   4.278   1.613   0.450  2.8688 -0.2854 -0.6499
14405SOL    HW245533   4.187   1.553   0.555  0.3635  2.2681 -1.2291
14406SOL     OW45534   9.948   4.090  10.200  0.2197 -1.0904  0.0796
14406SOL    HW145535  10.036   4.079  10.164  0.3446 -2.0996  0.6657
14406SOL    HW245536   9.902   4.009  10.179 -0.8936 -0.2149 -1.0407
14407SOL     OW45537   8.850   3.779   7.179  0.0784 -0.4871  0.2656
14407SOL    HW145538   8.802   3.735   7.250 -2.5528 -1.0428 -1.6874
14407SOL    HW245539   8.783   3.799   7.114  1.9065  2.4983 -0.9306
14408SOL     OW45540   1.009   8.096   1.352 -0.5368 -0.0795 -0.0796
14408SOL    HW145541   1.033   8.160   1.419 -1.9926  0.3862  0.0399
14408SOL    HW245542   1.060   8.018   1.373  0.2029  0.5813  0.6229
14409SOL     OW45543   2.939   1.609   7.058  0.0300  0.5124 -0.3916
14409SOL    HW145544   2.873   1.676   7.040 -0.5530  0.0057 -0.1761
14409SOL    HW245545   2.983   1.638   7.137 -0.5386  0.4110 -0.0342
14410SOL     OW45546   3.674   0.854   7.897  0.3560 -0.0560  0.0984
14410SOL    HW145547   3.669   0.935   7.947 -1.5269 -0.7411  1.1205
14410SOL    HW245548   3.675   0.785   7.963  0.2181 -0.9246 -0.7835
14411SOL     OW45549   6.056   2.552   3.189 -0.2927  0.3015  0.0894
14411SOL    HW145550   6.055   2.460   3.164  0.8986  0.2876  0.0059
14411SOL    HW245551   5.991   2.559   3.259 -0.9704 -0.4272 -0.4565
14412SOL     OW45552   4.277   7.087   8.118  0.0941 -0.6097 -0.0701
14412SOL    HW145553   4.364   7.126   8.121  0.0552 -0.5456  1.9717
14412SOL    HW245554   4.284   7.007   8.170 -1.1758 -0.2989  0.6229
14413SOL     OW45555   5.349   4.451   4.235  0.1768 -0.1034 -0.2732
14413SOL    HW145556   5.388   4.372   4.272  1.1283  0.0514 -0.9242
14413SOL    HW245557   5.346   4.513   4.308  1.6757  0.0716 -0.3402
14414SOL     OW45558  10.542   9.688   8.456 -0.0711 -0.2943 -0.0467
14414SOL    HW145559  10.542   9.756   8.522 -0.3629  1.2517 -1.5724
14414SOL    HW245560  10.598   9.722   8.386  0.4542 -1.9936 -0.5147
14415SOL     OW45561   1.149   9.998   9.995  0.2630 -0.2418 -0.4402
14415SOL    HW145562   1.094   9.922   9.975 -0.3068  0.1557 -0.3957
14415SOL    HW245563   1.088  10.062  10.031  0.9042 -0.1161  0.4408
14416SOL     OW45564   8.734   7.345   5.039  0.1597 -0.2598  0.4418
14416SOL    HW145565   8.797   7.339   4.968 -0.2040  0.1721  0.0777
14416SOL    HW245566   8.774   7.406   5.101  0.6270 -0.8923  0.7728
14417SOL     OW45567   6.499   5.511   3.319 -0.5982  0.3939  0.2076
14417SOL    HW145568   6.496   5.599   3.358  0.0450  0.3581  0.3621
14417SOL    HW245569   6.417   5.470   3.345 -1.0761  1.0862 -0.1943
14418SOL     OW45570   4.664   1.328   8.866  0.0406  0.4152 -0.0977
14418SOL    HW145571   4.673   1.273   8.944 -1.7481 -1.6410 -1.2266
14418SOL    HW245572   4.754   1.349   8.841  0.7603 -1.2450  0.9175
14419SOL     OW45573   5.784   2.864   2.876  0.4269  0.5592 -0.0236
14419SOL    HW145574   5.776   2.774   2.908 -0.9689  0.8560  0.5525
14419SOL    HW245575   5.768   2.857   2.782 -2.5883  0.4772  0.3879
14420SOL     OW45576   6.025   3.363   2.882 -0.0664 -0.3727  0.8281
14420SOL    HW145577   6.034   3.440   2.939 -0.0190 -1.1755  1.9417
14420SOL    HW245578   6.038   3.288   2.941  5.1161 -1.3061 -0.9809
14421SOL     OW45579   0.856   8.367   1.926 -0.3514 -0.7349 -0.4547
14421SOL    HW145580   0.901   8.424   1.989  2.9041 -1.1090 -2.2254
14421SOL    HW245581   0.766   8.401   1.923  0.2535  1.3749  1.8947
14422SOL     OW45582   7.277   4.953   9.479 -0.2306 -0.0868  0.2807
14422SOL    HW145583   7.195   4.926   9.520 -0.1522  0.9566  1.1626
14422SOL    HW245584   7.252   5.024   9.420 -0.0305 -0.0738  0.2100
14423SOL     OW45585   9.357   2.378   1.379  0.5391 -0.5297  0.7721
14423SOL    HW145586   9.390   2.336   1.300  0.3855  0.4670  0.1537
14423SOL    HW245587   9.368   2.313   1.448  0.9011 -1.3278 -0.0240
14424SOL     OW45588   0.291   3.948   4.537  0.3809 -0.0801 -0.1664
14424SOL    HW145589   0.241   3.867   4.535 -1.5602  1.0319  0.6115
14424SOL    HW245590   0.353   3.936   4.609 -1.1715 -0.2073  1.2204
14425SOL     OW45591   4.968  10.013   3.624  0.3141  0.4270 -0.2989
14425SOL    HW145592   4.982   9.918   3.619 -0.8497  0.2985 -1.6638
14425SOL    HW245593   4.996  10.045   3.539  1.9633  1.5310  0.6041
14426SOL     OW45594   6.035   3.286   8.901 -0.0683  0.1551 -0.0311
14426SOL    HW145595   5.967   3.334   8.855 -0.5938 -0.6457 -0.1033
14426SOL    HW245596   6.082   3.239   8.833  0.0064  0.0279  0.1072
14427SOL     OW45597   4.315   1.178   3.685 -0.2558 -0.0961  0.1269
14427SOL    HW145598   4.363   1.098   3.662  1.6744  1.8909 -3.9265
14427SOL    HW245599   4.383   1.243   3.703 -1.7114  1.1015  1.6741
14428SOL     OW45600   7.896   9.317   4.283 -0.0228  0.0571  0.5854
14428SOL    HW145601   7.880   9.255   4.355  0.8936  2.0340  2.6190
14428SOL    HW245602   7.833   9.387   4.297  0.0060  0.3521 -0.7149
14429SOL     OW45603   7.379   0.211   6.219 -0.2516 -0.2881 -0.3989
14429SOL    HW145604   7.290   0.186   6.195 -1.2609 -0.3510  3.0002
14429SOL    HW245605   7.389   0.182   6.309  2.4642  1.6522  0.0452
14430SOL     OW45606   7.399   0.244   7.455 -0.2464  0.2239  0.2889
14430SOL    HW145607   7.465   0.306   7.484  0.7202 -0.6033 -0.0680
14430SOL    HW245608   7.444   0.191   7.389 -1.4093 -0.0595 -0.3020
14431SOL     OW45609   0.201   4.397   5.276  0.6965 -0.2425 -0.1389
14431SOL    HW145610   0.214   4.480   5.321  0.6545  0.4256 -1.3284
14431SOL    HW245611   0.125   4.358   5.318 -0.1642  0.9937 -0.5274
14432SOL     OW45612   7.977   8.092   7.607  0.1611  0.1648 -0.9390
14432SOL    HW145613   8.004   8.017   7.553 -0.5528  0.1934 -1.3551
14432SOL    HW245614   8.015   8.075   7.693 -0.8940 -1.2490 -0.7012
14433SOL     OW45615   1.774   2.428   7.286  0.3058 -0.4304 -0.1898
14433SOL    HW145616   1.743   2.394   7.370  1.6433 -2.2776 -0.4007
14433SOL    HW245617   1.840   2.494   7.310 -1.2801  1.1041  0.1912
14434SOL     OW45618   4.875   8.738   7.402 -0.3410 -0.6745  0.0645
14434SOL    HW145619   4.902   8.756   7.311 -0.6252  0.6489  0.2251
14434SOL    HW245620   4.780   8.749   7.401 -0.2871 -0.1184  0.6279
14435SOL     OW45621   2.409   7.517   8.095  0.1125  0.2639  0.2193
14435SOL    HW145622   2.343   7.546   8.032  0.0134  4.0958  1.8433
14435SOL    HW245623   2.489   7.562   8.070  1.2531 -1.5519  0.3850
14436SOL     OW45624   8.001   7.054   2.923 -0.3754  0.4000 -0.6179
14436SOL    HW145625   8.006   7.092   3.011 -0.1107  1.9667 -1.2854
14436SOL    HW245626   8.092   7.030   2.903  0.0275  2.4400 -1.4508
14437SOL     OW45627   2.819   7.818   5.981  0.1516  0.2603  0.0271
14437SOL    HW145628   2.805   7.805   5.887  1.4297 -2.3305  0.1099
14437SOL    HW245629   2.914   7.817   5.992  0.0091 -0.8785  1.4898
14438SOL     OW45630   9.061   9.838   9.322 -0.3225  0.0179 -0.2204
14438SOL    HW145631   9.106   9.922   9.313 -1.9545  0.9816  0.1922
14438SOL    HW245632   9.049   9.807   9.232 -0.8561  0.8675 -0.4453
14439SOL     OW45633   8.085   5.841   6.112  0.6672 -0.1296 -0.8164
14439SOL    HW145634   8.158   5.856   6.052  0.7165 -1.8326 -1.2359
14439SOL    HW245635   8.102   5.756   6.151  1.3250  1.4025  2.6930
14440SOL     OW45636   8.846   7.451   7.056 -0.5145 -0.5901  0.8918
14440SOL    HW145637   8.933   7.475   7.024 -0.7441 -1.2267 -0.2340
14440SOL    HW245638   8.795   7.532   7.049 -1.0033 -1.0440 -1.9288
14441SOL     OW45639   5.973   0.459   0.489  0.3891  0.2107  0.4331
14441SOL    HW145640   5.916   0.431   0.418 -0.6302  1.0781  0.8915
14441SOL    HW245641   6.061   0.435   0.459 -0.2409 -1.6739 -0.0239
14442SOL     OW45642   5.763   0.367   0.310 -0.4961 -0.4773  0.3824
14442SOL    HW145643   5.733   0.390   0.399  0.1854 -0.9651  0.7502
14442SOL    HW245644   5.700   0.303   0.279 -0.5275 -0.5864  0.6690
14443SOL     OW45645   8.350   5.777   8.574  0.0979  0.2560 -0.1041
14443SOL    HW145646   8.433   5.818   8.598 -0.2970  0.3790  1.1417
14443SOL    HW245647   8.366   5.683   8.583  0.1547  0.2701 -0.0562
14444SOL     OW45648   1.841   7.697   5.777 -0.3248  0.1328 -0.1858
14444SOL    HW145649   1.813   7.773   5.726  1.2498  0.4578 -0.6342
14444SOL    HW245650   1.826   7.623   5.718 -1.2331  0.1624 -0.0027
14445SOL     OW45651   2.908   6.013  10.357  0.1981  0.2622  0.1808
14445SOL    HW145652   3.003   6.001  10.357 -0.0870 -2.4623 -0.3868
14445SOL    HW245653   2.883   6.009  10.450  0.5072 -0.2233  0.2441
14446SOL     OW45654   2.279   3.776   2.664 -0.5314 -0.0814  0.4821
14446SOL    HW145655   2.283   3.849   2.602  0.7153 -1.8113 -1.6549
14446SOL    HW245656   2.188   3.773   2.693 -1.8676 -0.6192 -3.2346
14447SOL     OW45657  10.439   3.768   0.655 -0.0688 -0.6998 -0.1537
14447SOL    HW145658  10.450   3.861   0.638  3.8891 -0.9395 -0.0095
14447SOL    HW245659  10.413   3.730   0.571  0.9145  0.2555 -0.9125
14448SOL     OW45660   1.426   3.190   1.783  0.2442 -0.1781 -0.4097
14448SOL    HW145661   1.481   3.114   1.800 -0.9783 -0.9922  0.0864
14448SOL    HW245662   1.348   3.154   1.741 -1.0217  0.5728  1.1852
14449SOL     OW45663   0.978   3.389   1.692  0.6657 -0.2186  0.1646
14449SOL    HW145664   0.891   3.352   1.674  0.2697  1.2620 -1.1525
14449SOL    HW245665   1.038   3.333   1.642  0.5237 -1.3646  1.2321
14450SOL     OW45666   2.044   0.222   3.630  0.6316 -0.1836  0.0517
14450SOL    HW145667   1.973   0.286   3.638  0.3817 -0.5272  0.6490
14450SOL    HW245668   2.031   0.163   3.704  1.4328 -0.3586  0.0601
14451SOL     OW45669   0.057   5.966   1.059  0.3215  0.1439  0.5719
14451SOL    HW145670   0.007   5.924   1.129 -0.0803 -0.2446  0.0647
14451SOL    HW245671   0.023   5.926   0.979 -1.1396  2.4469 -0.0572
14452SOL     OW45672   5.412   6.818   8.614 -0.2308 -0.1881 -0.3028
14452SOL    HW145673   5.454   6.871   8.546 -0.5830  0.4235 -0.0497
14452SOL    HW245674   5.348   6.765   8.566 -1.1641  0.9426 -0.3521
14453SOL     OW45675   0.959   6.173   1.126  0.5387  0.0018  0.2360
14453SOL    HW145676   0.919   6.232   1.190  0.4714  0.0234  0.1746
14453SOL    HW245677   0.884   6.131   1.082  0.4749  2.1392 -1.8787
14454SOL     OW45678   8.021   3.508   6.241 -0.2599  0.3984  0.3769
14454SOL    HW145679   7.950   3.566   6.271 -0.3017  0.9573 -0.7711
14454SOL    HW245680   8.009   3.502   6.147  0.5076 -0.4865  0.3257
14455SOL     OW45681   5.709   5.485   2.859 -0.2667 -0.4198  0.4558
14455SOL    HW145682   5.729   5.499   2.766 -0.2241  0.5980  0.6095
14455SOL    HW245683   5.652   5.408   2.860 -0.0512 -0.5944 -0.3952
14456SOL     OW45684   3.877   4.247   2.469  0.5055  0.4482 -0.2707
14456SOL    HW145685   3.887   4.175   2.407  0.3893 -0.5499  0.8464
14456SOL    HW245686   3.852   4.322   2.414  1.9019 -0.0137 -1.6086
14457SOL     OW45687   1.820  10.310   7.756 -0.2304 -0.4305 -0.2132
14457SOL    HW145688   1.870  10.230   7.775  0.2961 -0.1764 -0.4795
14457SOL    HW245689   1.860  10.377   7.811 -0.1444 -0.1818 -0.5707
14458SOL     OW45690   9.874   9.116   5.190 -0.0042 -0.7353  0.1577
14458SOL    HW145691   9.939   9.049   5.171  0.1993 -0.1901 -1.2538
14458SOL    HW245692   9.880   9.176   5.115  1.8536  2.4613  2.6069
14459SOL     OW45693   6.944   3.011   7.018 -0.1357 -0.4311 -0.5693
14459SOL    HW145694   6.998   3.076   6.973 -0.3038  1.1803  1.3778
14459SOL    HW245695   6.984   3.002   7.104 -1.1427 -1.6152 -0.2034
14460SOL     OW45696   5.038   4.367   6.559  0.4467 -0.1854 -0.1025
14460SOL    HW145697   5.001   4.304   6.497  0.3796  0.1437 -0.4001
14460SOL    HW245698   4.968   4.384   6.622  1.2025 -2.2214  1.4123
14461SOL     OW45699   5.832   5.277   2.575  0.1938 -0.6345  0.4621
14461SOL    HW145700   5.795   5.365   2.583 -2.1632 -1.4678 -0.3234
14461SOL    HW245701   5.886   5.266   2.653  1.5277  1.8969  0.0101
14462SOL     OW45702   0.026   0.557   4.510 -0.3231 -0.2038 -0.2052
14462SOL    HW145703   0.050   0.477   4.462  1.1277 -0.2747  0.5938
14462SOL    HW245704   0.065   0.628   4.460 -0.4327 -0.1047 -0.1522
14463SOL     OW45705   0.724   1.037   6.225  0.7678  0.3941 -0.3200
14463SOL    HW145706   0.704   0.972   6.157  2.1261  1.1902 -1.5222
14463SOL    HW245707   0.638   1.068   6.254  0.1393  1.1136 -2.7409
14464SOL     OW45708   5.616   8.394   1.985  0.2725  0.1768  0.1632
14464SOL    HW145709   5.700   8.431   1.959 -1.0399  3.2243 -0.1499
14464SOL    HW245710   5.553   8.429   1.922 -1.4751 -0.7258  1.3011
14465SOL     OW45711   5.132   0.254   0.946  0.5829  0.3330  0.3281
14465SOL    HW145712   5.213   0.204   0.955  0.3014 -0.1961 -0.0579
14465SOL    HW245713   5.135   0.291   0.858 -0.1185 -0.6442 -0.1280
14466SOL     OW45714   2.997   8.174   8.669 -0.5280  0.1789 -0.4272
14466SOL    HW145715   2.996   8.086   8.708 -1.5390  0.0210 -0.7749
14466SOL    HW245716   2.906   8.193   8.650 -0.2975  1.2284 -0.5660
14467SOL     OW45717   4.442   7.561   8.081 -0.1902 -0.5116  0.1914
14467SOL    HW145718   4.466   7.498   8.014  0.0438  0.4250 -0.6278
14467SOL    HW245719   4.431   7.509   8.161  1.0706 -1.4229 -0.2131
14468SOL     OW45720   8.749   5.832   1.066 -0.1728 -0.3389  0.1923
14468SOL    HW145721   8.781   5.877   1.144 -0.9931 -1.3383  1.1453
14468SOL    HW245722   8.739   5.741   1.093 -0.3547 -0.7384 -1.1280
14469SOL     OW45723   9.087   0.923   3.934  0.5130  0.1828  0.4244
14469SOL    HW145724   9.151   0.935   3.864 -1.0903  0.8276 -1.0105
14469SOL    HW245725   9.081   0.829   3.946 -0.9111 -0.1039 -2.0477
14470SOL     OW45726   3.056   1.093   5.115  0.1613 -0.1507 -0.1604
14470SOL    HW145727   3.068   1.161   5.181 -1.3696 -0.0940  0.1009
14470SOL    HW245728   3.042   1.141   5.033 -1.0406 -0.0983  0.0442
14471SOL     OW45729  10.384   6.621   2.007  0.2017 -0.1624  0.2637
14471SOL    HW145730  10.453   6.687   2.007 -0.2633  0.3279  0.1328
14471SOL    HW245731  10.327   6.646   1.935  0.4237 -1.1379 -0.2606
14472SOL     OW45732   1.540   3.388   9.956 -0.3588 -0.3224  0.4228
14472SOL    HW145733   1.477   3.365  10.024 -1.8733 -0.0844 -0.8205
14472SOL    HW245734   1.625   3.369   9.994 -1.2244 -1.6258  1.8226
14473SOL     OW45735   2.637   8.705   4.691  0.3443 -0.4175  0.5140
14473SOL    HW145736   2.575   8.715   4.763  0.3100  1.2650  0.2902
14473SOL    HW245737   2.633   8.788   4.644  3.0355 -0.0686  0.7303
14474SOL     OW45738   5.115   5.130   7.005 -0.1890 -0.0819  1.0670
14474SOL    HW145739   5.195   5.180   7.024  0.7112 -2.1157  3.0852
14474SOL    HW245740   5.131   5.093   6.918 -0.2505  1.8384  0.1827
14475SOL     OW45741   0.380   2.833   4.638  0.1219 -0.4218 -0.1063
14475SOL    HW145742   0.449   2.874   4.586  0.3254 -0.4579  0.1342
14475SOL    HW245743   0.395   2.739   4.628 -1.2735 -0.5092 -1.9312
14476SOL     OW45744   4.615   4.237   8.585 -0.1721 -0.3106  0.0148
14476SOL    HW145745   4.594   4.263   8.495 -0.1648 -0.1944  0.0461
14476SOL    HW245746   4.537   4.261   8.635 -0.0565 -0.0906  0.0912
14477SOL     OW45747   8.273   6.042   3.683  0.0491 -0.5834 -0.4150
14477SOL    HW145748   8.242   6.119   3.635 -0.5736  0.5565  1.7125
14477SOL    HW245749   8.327   5.994   3.619 -0.7039  0.8569 -2.2106
14478SOL     OW45750   0.005   1.363   5.110 -0.6223  0.2337 -0.3500
14478SOL    HW145751  -0.037   1.444   5.138 -0.4566  0.2781 -0.2249
14478SOL    HW245752  -0.010   1.302   5.183 -1.8426 -0.2445 -0.9730
14479SOL     OW45753   4.417   6.356   0.751 -0.1218 -0.0813  0.0193
14479SOL    HW145754   4.389   6.403   0.673 -3.0393  0.2468  1.1554
14479SOL    HW245755   4.412   6.264   0.728 -1.4619 -0.0023 -0.0721
14480SOL     OW45756   2.837   6.215   4.332  0.0185  0.7657 -0.3648
14480SOL    HW145757   2.915   6.170   4.300 -0.7703 -1.3365  0.4797
14480SOL    HW245758   2.834   6.196   4.425 -0.9013  1.7704 -0.1659
14481SOL     OW45759   5.424   9.436   7.725 -0.6862  0.2438  0.2823
14481SOL    HW145760   5.396   9.411   7.813 -3.2523 -1.5552 -0.9315
14481SOL    HW245761   5.497   9.496   7.739 -1.2877  0.3527  3.6241
14482SOL     OW45762   1.257   2.663   1.254  0.1819  0.2459  0.2599
14482SOL    HW145763   1.186   2.613   1.214 -1.1611 -0.0028  2.7493
14482SOL    HW245764   1.225   2.753   1.258 -0.1169  0.1073  1.5188
14483SOL     OW45765   5.983   3.953   1.224  0.1237  0.4047  0.1305
14483SOL    HW145766   5.974   4.003   1.305  0.5785 -0.9405  1.0490
14483SOL    HW245767   5.906   3.895   1.222  0.9982 -0.8041  0.5196
14484SOL     OW45768   2.643   9.423   0.796 -0.1720 -0.6688 -0.7152
14484SOL    HW145769   2.637   9.517   0.780  0.4276 -0.6703 -0.9671
14484SOL    HW245770   2.618   9.383   0.713 -0.3954 -0.7344 -0.6177
14485SOL     OW45771   6.631   1.632   3.258 -0.1371  0.1337  0.2624
14485SOL    HW145772   6.552   1.672   3.292 -0.8731 -0.6544 -0.4710
14485SOL    HW245773   6.640   1.550   3.307  0.9817  0.8257  1.2799
14486SOL     OW45774   6.917   1.227   0.275  0.0179 -0.0261  0.1285
14486SOL    HW145775   7.009   1.252   0.284  0.9140 -2.1206 -2.0973
14486SOL    HW245776   6.878   1.298   0.223  0.8995 -0.0881 -0.6440
14487SOL     OW45777   6.346   3.529   5.645  0.1480  0.3720 -0.5122
14487SOL    HW145778   6.297   3.610   5.631 -0.6757  0.0445  0.3249
14487SOL    HW245779   6.278   3.463   5.660  0.8332 -0.0386  0.9943
14488SOL     OW45780   8.122   7.264   1.878  1.1148 -0.5193 -0.0200
14488SOL    HW145781   8.167   7.290   1.959  1.1512 -0.5298 -0.0367
14488SOL    HW245782   8.168   7.312   1.809  0.1853  0.6041  0.1038
14489SOL     OW45783   6.366   8.312   6.044  0.0969 -0.4102 -0.4917
14489SOL    HW145784   6.400   8.397   6.073  1.1366 -0.3333 -1.8144
14489SOL    HW245785   6.381   8.312   5.949 -0.4259 -1.8402 -0.5959
14490SOL     OW45786   9.918   9.984   2.297  0.2890 -0.0558  0.4050
14490SOL    HW145787   9.836  10.033   2.300  0.3776  0.1324 -0.1352
14490SOL    HW245788   9.894   9.899   2.260  0.2694 -0.1462  0.6238
14491SOL     OW45789   0.970   7.380   6.998 -0.2129  0.7383  0.6634
14491SOL    HW145790   1.044   7.376   6.937  1.5858 -0.6377  2.7994
14491SOL    HW245791   0.929   7.294   6.992  1.3235 -0.2388  2.8474
14492SOL     OW45792   8.891   8.720   1.228 -0.5741  0.0830  0.3459
14492SOL    HW145793   8.905   8.627   1.246  1.9409  0.4500  0.5998
14492SOL    HW245794   8.966   8.764   1.268 -1.8769  2.2951  0.5526
14493SOL     OW45795   8.658   9.023  10.236 -0.1995 -0.1291  0.7111
14493SOL    HW145796   8.696   9.110  10.224 -0.8851  0.0800 -0.0688
14493SOL    HW245797   8.675   9.001  10.328  1.6660  0.0059  0.4350
14494SOL     OW45798   2.697   2.827   8.453 -0.0345 -0.3531 -0.4114
14494SOL    HW145799   2.709   2.922   8.442 -1.3640  0.3626  3.1703
14494SOL    HW245800   2.613   2.809   8.412 -1.0370  0.6072  1.1088
14495SOL     OW45801   0.154   5.209   9.225 -0.3357  0.1382 -0.6418
14495SOL    HW145802   0.122   5.257   9.301  2.8098 -0.6909  1.3787
14495SOL    HW245803   0.123   5.120   9.238  1.5141 -0.3624  0.5949
14496SOL     OW45804   7.966   2.589   1.320 -0.8601 -0.3465 -0.1641
14496SOL    HW145805   7.901   2.658   1.330  0.2797  0.4553  2.5580
14496SOL    HW245806   8.041   2.633   1.279 -0.0163  0.2022  1.8584
14497SOL     OW45807   0.735  10.550   8.108  0.2714  0.3238 -0.0087
14497SOL    HW145808   0.747  10.511   8.021  0.7321 -0.4327  0.3852
14497SOL    HW245809   0.710  10.476   8.164 -1.7889  1.0787  0.1548
14498SOL     OW45810   5.075   7.116   5.492  0.1395 -0.5052  0.4851
14498SOL    HW145811   5.035   7.074   5.416 -0.1582  0.7409 -0.0748
14498SOL    HW245812   5.089   7.045   5.554 -1.9715 -1.1501  0.2878
14499SOL     OW45813   4.768   2.564   6.850 -0.1164 -0.6723 -0.2231
14499SOL    HW145814   4.779   2.612   6.768  2.1693  0.4837  0.6698
14499SOL    HW245815   4.734   2.628   6.912  2.5238 -0.1925  0.8599
14500SOL     OW45816   9.272   0.924   3.733  0.1834  0.3705 -0.3181
14500SOL    HW145817   9.308   0.993   3.788 -0.4973 -0.6902  1.5878
14500SOL    HW245818   9.342   0.858   3.729  0.5950  0.8630 -1.5899
14501SOL     OW45819   3.165   8.598  10.108 -0.0152 -0.1599 -0.0456
14501SOL    HW145820   3.259   8.605  10.127 -0.3490  1.5805  1.0998
14501SOL    HW245821   3.153   8.652  10.030 -0.3489  1.0670  0.8460
14502SOL     OW45822   5.723   7.616   4.460 -0.3621  0.0100  0.0295
14502SOL    HW145823   5.714   7.596   4.553  1.1697  0.7214  0.3695
14502SOL    HW245824   5.796   7.562   4.431  1.5702  2.3702  0.1579
14503SOL     OW45825   1.755   6.445   6.491 -0.1944 -0.2787  0.4139
14503SOL    HW145826   1.848   6.432   6.507  0.2142  0.6780 -0.9279
14503SOL    HW245827   1.731   6.373   6.432 -0.3609 -0.6494  0.9324
14504SOL     OW45828   9.119   6.888   9.915  0.2211 -0.2408 -0.2794
14504SOL    HW145829   9.172   6.821   9.958 -0.7152 -1.0080 -0.2776
14504SOL    HW245830   9.083   6.940   9.986  1.4545  0.6855 -0.3044
14505SOL     OW45831   3.210   9.789   0.462 -0.3510 -0.4550 -0.1692
14505SOL    HW145832   3.196   9.846   0.387 -0.9890  0.8808  0.9255
14505SOL    HW245833   3.159   9.829   0.532  0.6615 -1.3668  1.1295
14506SOL     OW45834   5.284  10.239   8.941  0.2126 -0.2638  0.6111
14506SOL    HW145835   5.337  10.294   8.883 -1.8721  1.3370  0.1132
14506SOL    HW245836   5.341  10.221   9.016  1.6444  0.9103 -0.1529
14507SOL     OW45837   3.362   4.823   4.762  1.0850 -0.2632  0.2027
14507SOL    HW145838   3.285   4.814   4.706  0.8025  0.4541  0.4693
14507SOL    HW245839   3.423   4.756   4.729  0.2401 -1.0577  0.1985
14508SOL     OW45840   0.434   7.941   1.966 -0.1779  0.2679  0.6128
14508SOL    HW145841   0.341   7.959   1.981  0.0658  1.5132  0.8073
14508SOL    HW245842   0.448   7.963   1.874  0.0296  0.6418  0.7289
14509SOL     OW45843   3.956   8.880   8.007  0.6152  0.1050  0.9164
14509SOL    HW145844   3.877   8.931   7.990 -0.4654 -1.2515  1.7334
14509SOL    HW245845   3.998   8.926   8.080 -0.0593  0.1331  1.2935
14510SOL     OW45846  10.158   1.678   3.893  0.0690 -0.2419 -0.1415
14510SOL    HW145847  10.169   1.655   3.801  0.4889  2.0999 -0.7439
14510SOL    HW245848  10.092   1.617   3.925 -0.9870 -0.3420 -2.3119
14511SOL     OW45849  10.254   7.076   2.860  0.2545  0.2611  0.6407
14511SOL    HW145850  10.180   7.116   2.814 -0.1081 -0.1450  0.8658
14511SOL    HW245851  10.273   6.997   2.810  0.3375  0.2040  0.7617
14512SOL     OW45852   4.032   8.320  10.503 -0.1356 -0.1462 -0.0985
14512SOL    HW145853   3.983   8.291  10.581 -0.4180  0.6393  0.0267
14512SOL    HW245854   4.040   8.414  10.514  1.7672 -0.3019  0.0707
14513SOL     OW45855   1.243   2.246   1.306  0.5501 -0.0628 -0.2285
14513SOL    HW145856   1.208   2.163   1.340 -0.6365  0.4216 -0.2207
14513SOL    HW245857   1.213   2.312   1.368  0.1482  0.5625 -1.0740
14514SOL     OW45858   1.775   9.133   2.097  0.4974 -0.2124  0.6608
14514SOL    HW145859   1.807   9.144   2.187 -0.1230  2.4419  0.6265
14514SOL    HW245860   1.785   9.219   2.057 -1.9758 -0.5489 -0.9064
14515SOL     OW45861   2.014   6.075   5.181  0.0840  0.1214  0.2075
14515SOL    HW145862   1.930   6.108   5.212  0.8199  0.6950  1.7141
14515SOL    HW245863   1.997   6.044   5.093 -1.9036 -0.5776  0.7855
14516SOL     OW45864   7.901   1.181   3.326  0.7080  0.2902 -0.3419
14516SOL    HW145865   7.965   1.149   3.262  1.6164 -0.6675  0.9755
14516SOL    HW245866   7.828   1.119   3.320  1.0119 -0.1018 -0.1364
14517SOL     OW45867   6.521  10.366   2.047 -0.0566  0.1789  0.3293
14517SOL    HW145868   6.615  10.376   2.040 -0.0550 -0.3613 -0.6521
14517SOL    HW245869   6.494  10.431   2.112  1.1320 -0.4873  1.5458
14518SOL     OW45870   0.087   3.946   1.545 -0.3276  0.0002  0.2448
14518SOL    HW145871   0.083   4.023   1.487  1.1236 -0.5621 -0.6564
14518SOL    HW245872   0.180   3.939   1.569 -0.7535 -0.3097  1.9643
14519SOL     OW45873   4.727   1.698   7.283  0.2556 -0.0880 -0.3517
14519SOL    HW145874   4.787   1.748   7.229  1.6907 -1.2507  0.1180
14519SOL    HW245875   4.714   1.616   7.237 -0.3082 -0.1953 -0.0247
14520SOL     OW45876   4.177   2.594   4.229 -0.2917  0.4096 -0.0642
14520SOL    HW145877   4.169   2.690   4.232  1.5978  0.6091 -0.5514
14520SOL    HW245878   4.098   2.563   4.274 -0.7907  2.1846  0.3925
14521SOL     OW45879   1.592   1.469   3.422 -0.7282  0.0648 -0.1274
14521SOL    HW145880   1.519   1.467   3.483 -0.6980  2.5203  0.0634
14521SOL    HW245881   1.595   1.558   3.389 -0.7699 -1.1245 -3.8280
14522SOL     OW45882   3.679   9.035   8.617 -0.3871  0.1324 -0.3187
14522SOL    HW145883   3.624   8.992   8.682  0.0197  0.3138  0.1509
14522SOL    HW245884   3.617   9.075   8.556 -0.7660 -0.8567 -0.5965
14523SOL     OW45885   2.656   3.360   7.488 -0.3576  0.5834  0.2895
14523SOL    HW145886   2.651   3.265   7.484 -2.0409  0.6721 -1.2684
14523SOL    HW245887   2.749   3.379   7.499 -0.0412 -1.2369  1.0104
14524SOL     OW45888   9.982   6.297   6.865  0.2059 -0.1061 -0.3775
14524SOL    HW145889   9.972   6.235   6.793 -0.5673 -1.0756  0.5424
14524SOL    HW245890  10.000   6.243   6.942 -1.4249  0.7215  0.6372
14525SOL     OW45891  10.471   2.802   9.235  0.3624 -0.5732 -0.0178
14525SOL    HW145892  10.419   2.858   9.292 -1.7916 -1.4909 -0.9553
14525SOL    HW245893  10.407   2.766   9.173  2.3198 -0.9949 -1.8832
14526SOL     OW45894   9.655   4.605   7.336  0.3955  0.2220  0.0994
14526SOL    HW145895   9.649   4.681   7.394 -1.8398 -0.9548  1.5673
14526SOL    HW245896   9.737   4.564   7.360  0.4109  0.8000  1.1206
14527SOL     OW45897   9.444   8.693   7.064 -0.1060  0.4597  0.1899
14527SOL    HW145898   9.435   8.598   7.057 -3.7541  0.6627 -0.0777
14527SOL    HW245899   9.447   8.723   6.973 -1.5671  0.6669  0.1798
14528SOL     OW45900   9.396   2.766   6.473 -0.0900  0.1777  0.3930
14528SOL    HW145901   9.455   2.819   6.527 -0.8703  1.6375 -0.1329
14528SOL    HW245902   9.348   2.712   6.536 -0.2023  1.0580  1.0811
14529SOL     OW45903   5.702   3.172   7.625 -0.1123  0.4549  0.1649
14529SOL    HW145904   5.694   3.263   7.599  1.3119  0.0919 -1.6876
14529SOL    HW245905   5.734   3.126   7.547  0.9984 -1.3088  1.5697
14530SOL     OW45906   1.984   8.805   2.477  0.5007  0.2844  0.6856
14530SOL    HW145907   2.060   8.748   2.465 -1.5237 -2.6357  0.5588
14530SOL    HW245908   1.987   8.830   2.570  1.6402  0.2958  0.6584
14531SOL     OW45909   7.711   1.196   9.019 -0.7195  0.0258 -0.1262
14531SOL    HW145910   7.757   1.142   9.084  2.5977  2.3188 -0.3485
14531SOL    HW245911   7.670   1.132   8.961  2.4883 -2.3686 -0.0781
14532SOL     OW45912   7.287   6.731   5.635 -0.2181 -0.2650  0.3925
14532SOL    HW145913   7.192   6.722   5.622 -0.4995 -0.4374  2.2948
14532SOL    HW245914   7.325   6.707   5.550 -1.9418  2.4802 -1.3201
14533SOL     OW45915  10.455   1.047   3.595  0.3418 -0.4129 -0.1026
14533SOL    HW145916  10.529   1.034   3.535  1.0963  2.2325  0.1004
14533SOL    HW245917  10.473   0.990   3.669  0.6074 -1.9849 -1.3086
14534SOL     OW45918   3.727   7.260   1.350  0.4433 -0.1257 -0.8310
14534SOL    HW145919   3.770   7.233   1.432  0.6562  1.1207 -0.5132
14534SOL    HW245920   3.763   7.201   1.284  1.1525 -0.3949 -0.2178
14535SOL     OW45921   9.156   6.270   9.661 -0.8268 -0.1472  0.3424
14535SOL    HW145922   9.189   6.180   9.661 -1.7296 -0.5394 -2.0591
14535SOL    HW245923   9.226   6.321   9.701  0.9132 -1.5489 -0.7671
14536SOL     OW45924   3.835   2.381   9.329  0.6123 -0.1608  0.4303
14536SOL    HW145925   3.773   2.310   9.346  1.3711 -0.8233  0.4982
14536SOL    HW245926   3.781   2.460   9.325 -0.4385 -0.9045 -1.1197
14537SOL     OW45927   2.443   0.415   4.782 -0.1973  0.0834 -0.7174
14537SOL    HW145928   2.503   0.399   4.709  0.0000 -1.6303 -0.2290
14537SOL    HW245929   2.424   0.328   4.816 -0.5308  0.8271  1.0898
14538SOL     OW45930   3.458  10.406   4.835 -0.4491  0.7377  0.1158
14538SOL    HW145931   3.551  10.418   4.815 -0.1903 -1.1498  0.0162
14538SOL    HW245932   3.447  10.311   4.841 -2.3028  0.9457  0.4988
14539SOL     OW45933   2.525   6.358   6.002  0.2781  0.6812  0.4900
14539SOL    HW145934   2.479   6.284   5.962  0.6451 -0.1180  1.4771
14539SOL    HW245935   2.618   6.338   5.987  0.4689 -0.0260  2.2897
14540SOL     OW45936   5.279   2.505   8.452 -0.2184 -0.0761  0.0665
14540SOL    HW145937   5.300   2.591   8.415 -0.7142 -1.3262 -3.5391
14540SOL    HW245938   5.184   2.507   8.466 -0.0778  0.2894  1.0170
14541SOL     OW45939   6.823   4.551   5.239  0.1286  0.4965  0.2267
14541SOL    HW145940   6.849   4.643   5.238  0.5665  0.3758 -0.4271
14541SOL    HW245941   6.729   4.552   5.224  0.2127  0.8187 -0.3022
14542SOL     OW45942  10.407   0.838   4.717  0.3583 -0.2732 -0.3954
14542SOL    HW145943  10.499   0.864   4.709 -0.1164  1.5944 -0.1972
14542SOL    HW245944  10.358   0.920   4.713 -1.1913 -1.0136  1.4337
14543SOL     OW45945   4.832   3.852   8.063 -0.4098  0.1149  0.6581
14543SOL    HW145946   4.844   3.784   8.129  0.6984  0.6166  0.9883
14543SOL    HW245947   4.858   3.933   8.106  0.5376  0.4264 -0.4330
14544SOL     OW45948   4.999   1.308   1.909 -0.1182 -0.1805 -0.3524
14544SOL    HW145949   4.993   1.377   1.975  0.8706 -0.8841  0.5202
14544SOL    HW245950   4.933   1.330   1.844 -0.7103  0.8658  0.5789
14545SOL     OW45951   0.997   7.473  10.020 -0.0386 -0.0090  0.1488
14545SOL    HW145952   0.996   7.539   9.950 -1.9431 -0.6725 -0.5157
14545SOL    HW245953   1.002   7.389   9.973  2.8399 -0.4233  0.9898
14546SOL     OW45954   4.424  10.217   0.681  0.0597 -0.1800 -0.7225
14546SOL    HW145955   4.501  10.243   0.632 -0.5237  0.6673 -1.2200
14546SOL    HW245956   4.450  10.136   0.726  1.1023 -0.1102 -1.1708
14547SOL     OW45957   1.922   0.287   4.758  0.1685  0.0848 -0.4389
14547SOL    HW145958   2.008   0.329   4.747  1.2796 -2.1310 -0.6717
14547SOL    HW245959   1.871   0.320   4.684 -0.4574  4.0870  1.4671
14548SOL     OW45960   9.292   5.558   2.723 -0.7463  0.1241 -0.0154
14548SOL    HW145961   9.258   5.645   2.746  0.2134  0.4248  0.3125
14548SOL    HW245962   9.372   5.576   2.674  0.1109 -0.5710  1.0842
14549SOL     OW45963   0.317   9.048   0.744 -0.1945 -0.0479 -0.2492
14549SOL    HW145964   0.304   8.953   0.744  2.0434 -0.4028 -0.4083
14549SOL    HW245965   0.362   9.066   0.662 -0.8738  1.2112 -0.3612
14550SOL     OW45966   3.873   2.735   4.015  0.4876  0.1473 -0.6384
14550SOL    HW145967   3.856   2.813   4.067  1.4062  1.3779 -2.0980
14550SOL    HW245968   3.869   2.663   4.078 -0.6092  1.3225  0.7040
14551SOL     OW45969   9.564   9.622  10.334  0.1191  0.0297  0.7264
14551SOL    HW145970   9.486   9.568  10.320 -0.1175  0.7607 -1.0888
14551SOL    HW245971   9.630   9.583  10.277  0.2183  1.0896  0.0952
14552SOL     OW45972   7.460   9.949   3.583 -0.3731  0.0468  0.1007
14552SOL    HW145973   7.555   9.959   3.581 -0.1449 -1.8444 -0.2835
14552SOL    HW245974   7.444   9.886   3.654 -1.1721 -0.8870 -0.8726
14553SOL     OW45975   7.910  10.028   1.731 -0.1647  0.3064  0.3635
14553SOL    HW145976   7.853  10.082   1.786  1.3092 -0.0182  2.2720
14553SOL    HW245977   7.997  10.065   1.742  0.5384 -1.1790  0.0454
14554SOL     OW45978   2.375   0.393   1.793 -0.5253 -0.1288  0.2274
14554SOL    HW145979   2.281   0.378   1.806 -1.2774  2.5462 -1.3637
14554SOL    HW245980   2.382   0.417   1.701  1.9481 -1.4825  0.0005
14555SOL     OW45981   4.435   7.534   7.452  0.0622  0.6653  0.1754
14555SOL    HW145982   4.449   7.464   7.516  1.0870 -0.2031 -0.9536
14555SOL    HW245983   4.408   7.489   7.372  0.8645  1.5398 -0.6101
14556SOL     OW45984   6.479   9.598   3.285 -0.1524 -0.5306 -0.6960
14556SOL    HW145985   6.471   9.575   3.378  1.0964 -1.9146 -0.9046
14556SOL    HW245986   6.447   9.689   3.280  0.5534 -0.1386  1.2151
14557SOL     OW45987   7.401   3.871   2.802 -0.6368  0.0506 -0.1298
14557SOL    HW145988   7.482   3.825   2.824 -0.5571 -0.3105 -1.1400
14557SOL    HW245989   7.346   3.862   2.880 -0.0547 -0.4849  0.2221
14558SOL     OW45990   4.564   8.877   9.414 -0.3093  0.5624  0.2545
14558SOL    HW145991   4.562   8.972   9.402  1.2415  0.3950 -1.9568
14558SOL    HW245992   4.647   8.861   9.458 -0.6369  0.2107  0.7582
14559SOL     OW45993   7.191  10.154   0.846  0.1671  0.5248 -0.4113
14559SOL    HW145994   7.125  10.167   0.915  1.5379 -0.0278  1.0727
14559SOL    HW245995   7.262  10.214   0.869  1.7019 -1.3773  0.1325
14560SOL     OW45996   4.158  10.479   5.729  0.0780 -0.1212  0.3258
14560SOL    HW145997   4.065  10.494   5.742 -0.1116 -1.2799  0.4001
14560SOL    HW245998   4.200  10.515   5.807 -0.4369 -0.8272  0.9391
14561SOL     OW45999   6.149   9.076   1.047 -0.4343  0.4549 -0.4895
14561SOL    HW146000   6.141   9.056   1.140 -0.6630  0.5069 -0.4976
14561SOL    HW246001   6.162   8.990   1.005 -0.6377  0.4014 -0.4421
14562SOL     OW46002   9.668   4.094   2.308  0.0456 -0.5626  0.0201
14562SOL    HW146003   9.667   4.040   2.229  0.2832  1.1395 -1.1758
14562SOL    HW246004   9.605   4.051   2.367  1.3194 -2.9866 -0.2703
14563SOL     OW46005   6.089   1.638   3.680 -0.4282 -0.4224 -0.0366
14563SOL    HW146006   6.139   1.711   3.716 -1.9973  0.4448  0.4477
14563SOL    HW246007   6.063   1.587   3.757 -1.9714  0.2617 -0.0644
14564SOL     OW46008   1.036   8.342   2.609  0.3720  0.0695  0.3638
14564SOL    HW146009   1.002   8.431   2.603  0.0543  0.0204  1.2812
14564SOL    HW246010   1.028   8.319   2.702 -0.3041 -1.2060  0.0194
14565SOL     OW46011   3.241   6.865  10.320 -0.3463 -0.1927 -0.0625
14565SOL    HW146012   3.187   6.943  10.314 -0.0477 -0.0155 -0.5092
14565SOL    HW246013   3.323   6.889  10.276 -0.5411 -0.9924 -0.9072
14566SOL     OW46014   1.879   1.718   8.712 -0.5004 -0.7678  0.4358
14566SOL    HW146015   1.803   1.774   8.727  0.3392  0.3884  0.5212
14566SOL    HW246016   1.848   1.630   8.729 -1.8721 -0.3361  0.2722
14567SOL     OW46017   9.571   9.429   8.808 -0.4539  0.0239  0.6348
14567SOL    HW146018   9.547   9.427   8.715  0.2420  1.6777  0.3703
14567SOL    HW246019   9.488   9.437   8.855 -0.7049  1.5416 -0.0101
14568SOL     OW46020   0.039   7.248   4.652  0.3218 -0.2609 -0.4248
14568SOL    HW146021   0.049   7.335   4.690 -0.7086  0.0131 -0.7525
14568SOL    HW246022   0.071   7.188   4.719 -0.4965  0.2724  0.4669
14569SOL     OW46023   3.808   7.220   0.517 -0.4075  0.4685 -0.1387
14569SOL    HW146024   3.793   7.126   0.505 -0.6991  0.6142 -0.9404
14569SOL    HW246025   3.773   7.239   0.604 -0.0368 -0.2264  0.1702
14570SOL     OW46026  10.040   7.794   9.505 -0.3596  0.1425  0.2292
14570SOL    HW146027   9.977   7.858   9.471 -0.3178 -0.5748 -1.2907
14570SOL    HW246028   9.999   7.759   9.584 -2.1071 -0.6159 -0.9502
14571SOL     OW46029   1.705   1.777   0.896 -0.0261 -0.9807 -0.7487
14571SOL    HW146030   1.692   1.723   0.974 -0.0344 -0.0967 -0.1277
14571SOL    HW246031   1.694   1.867   0.926  0.0303 -0.6171 -1.7600
14572SOL     OW46032   0.186   4.023   4.998  0.2475  0.0002 -0.2250
14572SOL    HW146033   0.208   4.097   5.054  1.9621 -1.0595  0.5986
14572SOL    HW246034   0.177   4.060   4.911  0.3454  1.2766  0.2912
14573SOL     OW46035   5.200   0.087   6.797  0.5688 -0.2888 -0.4146
14573SOL    HW146036   5.113   0.120   6.818  0.2107 -0.8763 -0.9324
14573SOL    HW246037   5.216   0.018   6.862  1.1051  0.5396  0.3509
14574SOL     OW46038   2.557   1.482   2.161  0.0023  0.8880 -0.5033
14574SOL    HW146039   2.572   1.539   2.086 -2.5618  0.9875 -1.0455
14574SOL    HW246040   2.531   1.398   2.122 -0.0033  0.5150  0.2813
14575SOL     OW46041   6.184   4.291   3.594 -0.2158 -0.2478  0.0859
14575SOL    HW146042   6.156   4.203   3.567  0.5740 -0.6206  0.4617
14575SOL    HW246043   6.254   4.276   3.657  0.3629  0.6631 -0.3112
14576SOL     OW46044   4.844   8.900  10.334 -0.3781 -0.2556  0.6348
14576SOL    HW146045   4.816   8.990  10.350 -2.3583 -0.6722 -0.1878
14576SOL    HW246046   4.845   8.891  10.238  2.2604 -0.4282  0.6065
14577SOL     OW46047   8.781   7.083   4.658  0.0200  0.0869 -0.5348
14577SOL    HW146048   8.846   7.140   4.699  0.3810  0.2633 -1.3345
14577SOL    HW246049   8.708   7.082   4.719  0.6771  0.0678  0.2730
14578SOL     OW46050   1.777   9.870   2.695 -0.7346 -0.3065 -0.1691
14578SOL    HW146051   1.802   9.827   2.614  0.5527  0.4061 -0.1865
14578SOL    HW246052   1.682   9.862   2.699 -0.9726  0.7508 -2.3915
14579SOL     OW46053   5.542   1.479   9.721  0.9615  0.4135  0.3439
14579SOL    HW146054   5.510   1.514   9.638  0.7581 -2.2012 -0.7926
14579SOL    HW246055   5.631   1.512   9.729  0.5772  1.6631 -0.2836
14580SOL     OW46056   4.272   6.133   4.091  0.8113 -0.5335 -0.1378
14580SOL    HW146057   4.346   6.148   4.031  1.4003 -0.0612  0.6929
14580SOL    HW246058   4.241   6.046   4.068  0.3682  0.0174 -1.8290
14581SOL     OW46059   4.392   2.464   1.890 -0.0493 -0.0813  0.4765
14581SOL    HW146060   4.386   2.396   1.822 -0.5936  0.2394  0.1997
14581SOL    HW246061   4.349   2.425   1.966  2.4720 -1.3123  1.3818
14582SOL     OW46062   0.482   8.333   4.643 -0.7094 -0.4796 -0.3693
14582SOL    HW146063   0.517   8.252   4.606 -0.6216 -0.2681 -0.7654
14582SOL    HW246064   0.418   8.305   4.707  0.6935 -0.9010  0.9070
14583SOL     OW46065   0.561   3.011   9.379 -0.5987 -0.3912 -0.0448
14583SOL    HW146066   0.509   2.939   9.414  0.3476 -0.8088  0.5463
14583SOL    HW246067   0.647   2.999   9.418 -0.0970  0.3700 -0.8899
14584SOL     OW46068   1.847   0.644   8.108 -0.4834  0.4519 -0.1155
14584SOL    HW146069   1.765   0.680   8.073  0.8225  1.9544 -1.8111
14584SOL    HW246070   1.877   0.584   8.040  0.7393  1.3355 -0.3868
14585SOL     OW46071   0.570   2.579   5.154 -0.4520 -0.2343  0.2233
14585SOL    HW146072   0.568   2.673   5.132  0.5349 -0.4901 -1.1133
14585SOL    HW246073   0.478   2.554   5.162 -0.7346  0.7522  0.1502
14586SOL     OW46074   8.943   9.137   1.936 -0.4620 -0.2902 -0.2539
14586SOL    HW146075   8.906   9.125   2.023 -1.7009  0.4507 -0.6394
14586SOL    HW246076   8.873   9.180   1.886  0.7599  0.7141 -1.1883
14587SOL     OW46077   7.676   8.828   3.365  0.4446 -0.2803  0.0219
14587SOL    HW146078   7.670   8.889   3.438 -0.7103  0.5353 -0.7131
14587SOL    HW246079   7.597   8.775   3.371 -0.1037  0.3532 -1.0679
14588SOL     OW46080   9.921   5.309   1.721 -0.8696  0.0923 -0.7459
14588SOL    HW146081   9.989   5.302   1.653  0.2584 -1.2764  0.4550
14588SOL    HW246082   9.951   5.252   1.791 -2.3397  0.9423  0.6524
14589SOL     OW46083   5.244   8.048   0.586 -0.4107  0.4012 -0.3029
14589SOL    HW146084   5.254   7.957   0.557 -1.1738  0.0611  0.4679
14589SOL    HW246085   5.315   8.095   0.542  0.3163 -0.6631 -0.3051
14590SOL     OW46086   7.625   4.233   7.602  0.3432 -0.4162 -0.4369
14590SOL    HW146087   7.609   4.304   7.540  0.1450 -1.1106 -1.2090
14590SOL    HW246088   7.559   4.244   7.670 -0.8439 -0.8802 -1.4764
14591SOL     OW46089   7.953   9.470   0.347 -0.0777 -0.3732 -0.1849
14591SOL    HW146090   7.892   9.396   0.351  0.2084 -0.5879  0.3413
14591SOL    HW246091   8.009   9.452   0.272  1.4293 -1.8535  1.2066
14592SOL     OW46092   6.435   2.722   4.345 -0.2389  0.2344  0.0861
14592SOL    HW146093   6.473   2.646   4.301 -2.2845 -1.2171  0.6570
14592SOL    HW246094   6.440   2.792   4.280 -0.9641 -1.1877 -1.5930
14593SOL     OW46095   9.608   0.349  10.033 -0.6399  0.0076 -0.3035
14593SOL    HW146096   9.515   0.351  10.054 -0.9747 -1.4126 -1.4432
14593SOL    HW246097   9.620   0.267   9.984  1.5322 -0.7029  1.2402
14594SOL     OW46098   4.099   9.203   1.871  0.0024  0.0685 -0.5187
14594SOL    HW146099   4.047   9.236   1.945 -0.2386  0.7508 -0.9845
14594SOL    HW246100   4.034   9.169   1.809  0.1586  0.1550 -0.7319
14595SOL     OW46101   5.268  10.179   0.472 -0.2344 -0.2106  0.1286
14595SOL    HW146102   5.237  10.257   0.520  0.8275  0.2973  0.0246
14595SOL    HW246103   5.290  10.117   0.541 -0.5045 -0.1887  0.2364
14596SOL     OW46104   8.481  10.011   0.557 -1.4321 -0.4098  0.0223
14596SOL    HW146105   8.546  10.036   0.624 -0.4113  0.0473 -1.1038
14596SOL    HW246106   8.492   9.916   0.549  0.1549 -0.1547 -1.1868
14597SOL     OW46107   3.257  10.249   8.976 -0.1080 -0.3109  0.1122
14597SOL    HW146108   3.299  10.280   8.895 -0.6017  0.8679  0.2933
14597SOL    HW246109   3.184  10.196   8.945 -1.1117  1.2300 -0.2591
14598SOL     OW46110   4.672   2.816   3.839 -0.4497  0.3392 -0.0746
14598SOL    HW146111   4.637   2.730   3.813  1.7602 -0.6413 -0.0041
14598SOL    HW246112   4.732   2.839   3.769  2.0329 -0.1267  1.7738
14599SOL     OW46113   2.629   1.175   2.352 -0.4094  0.0947 -0.0501
14599SOL    HW146114   2.692   1.231   2.306 -1.1109  1.0982  0.1756
14599SOL    HW246115   2.635   1.091   2.307  0.4941  0.4121 -0.5616
14600SOL     OW46116   1.159   1.259   7.764  0.0699 -0.0249 -0.1502
14600SOL    HW146117   1.208   1.217   7.835 -0.6500  0.4121  0.6206
14600SOL    HW246118   1.179   1.206   7.687  0.2147 -1.0068  0.5384
14601SOL     OW46119   4.819   9.941   5.213 -0.0524 -0.8224  0.7075
14601SOL    HW146120   4.780  10.007   5.155  0.9520 -0.7165  0.1182
14601SOL    HW246121   4.750   9.875   5.224 -0.3013 -0.8238 -0.5974
14602SOL     OW46122   1.452   2.659   0.934  0.1379  0.3164 -0.1607
14602SOL    HW146123   1.479   2.694   0.849 -0.8293  0.6020 -0.3548
14602SOL    HW246124   1.395   2.726   0.971  0.5514  0.1940  0.7201
14603SOL     OW46125   0.495   4.850   8.773  0.0500 -0.0315 -0.6723
14603SOL    HW146126   0.439   4.918   8.737  0.4223  0.8147  0.3073
14603SOL    HW246127   0.564   4.897   8.820  0.7364 -1.0704 -0.5907
14604SOL     OW46128   6.855   1.597   9.644  0.7179 -0.2942  0.1336
14604SOL    HW146129   6.835   1.681   9.603  0.8937 -0.6093 -0.6263
14604SOL    HW246130   6.847   1.534   9.573  0.1396 -0.9864  0.7991
14605SOL     OW46131   7.633   3.595   1.866 -0.4908  0.5139 -0.3119
14605SOL    HW146132   7.692   3.655   1.820  0.0018 -1.0098 -1.7594
14605SOL    HW246133   7.551   3.600   1.817 -0.7665  0.7522  0.1732
14606SOL     OW46134   9.358   9.354   3.133  0.3524 -0.2311 -0.1916
14606SOL    HW146135   9.427   9.297   3.101 -0.7620 -0.2435 -2.7780
14606SOL    HW246136   9.319   9.392   3.054 -0.5286  2.2362  1.3246
14607SOL     OW46137   9.860   2.805   7.242 -0.0116  0.0861 -0.1017
14607SOL    HW146138   9.872   2.900   7.247  1.1680 -0.1190  1.3035
14607SOL    HW246139   9.877   2.784   7.150  0.4293  1.1320 -0.2718
14608SOL     OW46140   8.554   1.749   9.466 -0.4668 -0.0808  0.1407
14608SOL    HW146141   8.532   1.666   9.423  1.2409 -1.9696  2.6324
14608SOL    HW246142   8.471   1.796   9.472 -1.6898 -2.0476 -0.4504
14609SOL     OW46143   5.328   5.845   3.345  0.0920  0.3056 -0.4672
14609SOL    HW146144   5.251   5.900   3.329 -0.2615  0.0012  0.1705
14609SOL    HW246145   5.317   5.812   3.434 -0.2366 -1.6642 -1.1831
14610SOL     OW46146   9.514   6.250   5.412  0.2849  0.3149  0.2613
14610SOL    HW146147   9.520   6.346   5.419 -1.4607  0.3734  2.2278
14610SOL    HW246148   9.487   6.222   5.500  0.8406 -2.0150 -0.2454
14611SOL     OW46149   0.304   3.943   3.203  0.2668  0.2948 -0.2262
14611SOL    HW146150   0.243   3.936   3.130 -0.4920 -1.2359  0.5077
14611SOL    HW246151   0.363   4.015   3.179 -1.4590  1.4410 -1.2117
14612SOL     OW46152   3.362   2.675   1.235  0.4600  0.3033  0.3170
14612SOL    HW146153   3.318   2.661   1.319 -0.9820 -0.0086 -0.4509
14612SOL    HW246154   3.412   2.595   1.220 -0.0441 -0.0430  0.4529
14613SOL     OW46155   5.881   4.910   7.036 -0.1233  0.1825 -0.2835
14613SOL    HW146156   5.832   4.828   7.033  1.1258 -0.6221  0.5062
14613SOL    HW246157   5.861   4.953   6.953 -2.0826 -0.1432 -0.0351
14614SOL     OW46158   9.815   1.744   9.426 -0.5543  0.1975  0.6540
14614SOL    HW146159   9.726   1.713   9.408  0.0745 -1.3585  0.0573
14614SOL    HW246160   9.814   1.767   9.519 -1.1533 -1.3956  1.0758
14615SOL     OW46161   5.858   6.316   2.258  0.4619 -1.1272  0.1521
14615SOL    HW146162   5.789   6.371   2.219 -1.4833 -2.0121  2.1241
14615SOL    HW246163   5.926   6.379   2.283  0.2381 -0.1650 -1.4742
14616SOL     OW46164   3.094   1.344   6.548 -0.1274 -0.0725 -0.1755
14616SOL    HW146165   3.074   1.360   6.641  1.0772  0.1044  0.0729
14616SOL    HW246166   3.179   1.386   6.535 -1.0038  1.3134 -1.7770
14617SOL     OW46167   0.917   7.432   1.890  0.9746  0.3501  0.3518
14617SOL    HW146168   0.947   7.523   1.895 -0.1960  0.7595  0.3903
14617SOL    HW246169   0.988   7.385   1.847  0.9185  1.6167 -1.2221
14618SOL     OW46170  10.414   3.698   2.658  0.0207 -0.3035 -0.2704
14618SOL    HW146171  10.386   3.639   2.588  0.9189 -0.2805 -0.6566
14618SOL    HW246172  10.414   3.785   2.618  1.0515 -0.3555 -0.4152
14619SOL     OW46173   0.153   0.391   0.962 -0.6614 -0.4810  0.2788
14619SOL    HW146174   0.121   0.462   0.907  0.3851  0.2682  0.6130
14619SOL    HW246175   0.175   0.433   1.045  1.7143 -0.8253 -0.1052
14620SOL     OW46176  10.242   3.470   1.289  0.6176  0.2149 -0.6512
14620SOL    HW146177  10.188   3.520   1.228  0.6650  0.3568 -0.5780
14620SOL    HW246178  10.330   3.506   1.277  0.4720  0.8485  0.1284
14621SOL     OW46179   0.936   4.717  10.326  0.0492  0.4095 -0.5927
14621SOL    HW146180   0.867   4.685  10.384 -0.7238 -0.1230 -1.7540
14621SOL    HW246181   1.012   4.663  10.347  0.0908  0.9064  0.6032
14622SOL     OW46182   3.630   7.120   4.326 -0.5132 -0.1862  0.0899
14622SOL    HW146183   3.638   7.052   4.392 -0.5265  0.3313  0.6264
14622SOL    HW246184   3.616   7.072   4.244  2.8236 -0.9902 -0.1356
14623SOL     OW46185   0.568   4.348  10.555 -0.1591  0.4225  0.5604
14623SOL    HW146186   0.472   4.345  10.548 -0.1283  1.0269 -0.3724
14623SOL    HW246187   0.594   4.257  10.566 -0.7350 -0.0138 -1.2636
14624SOL     OW46188   9.878   2.390   5.336 -0.2019 -0.6603  0.3118
14624SOL    HW146189   9.962   2.344   5.335 -0.0799 -0.4519 -0.8352
14624SOL    HW246190   9.828   2.348   5.405  1.1243 -0.2725  1.5653
14625SOL     OW46191   2.531   7.815   5.591 -0.2668 -0.1375 -0.2705
14625SOL    HW146192   2.456   7.790   5.537  1.1450 -0.6013 -2.1019
14625SOL    HW246193   2.546   7.907   5.569 -0.0689 -0.1482 -0.1794
14626SOL     OW46194   9.698   5.779   4.761  0.1926 -0.2946  0.0060
14626SOL    HW146195   9.668   5.796   4.671 -1.0179 -1.0341  0.2486
14626SOL    HW246196   9.788   5.747   4.750  0.2826  0.2192 -0.8871
14627SOL     OW46197   6.138  10.320   7.211 -0.0802 -0.0777  0.2821
14627SOL    HW146198   6.048  10.304   7.238 -0.4483  0.8004 -0.4029
14627SOL    HW246199   6.168  10.236   7.175 -0.6265 -0.3591  0.4768
14628SOL     OW46200   1.460   4.475   2.288 -0.1515 -0.6687 -0.1856
14628SOL    HW146201   1.387   4.478   2.226  0.5626  0.3292 -1.0138
14628SOL    HW246202   1.449   4.552   2.343  0.5069 -0.2730 -0.5982
14629SOL     OW46203   5.878   3.649   1.661  0.0764  0.6334 -0.6043
14629SOL    HW146204   5.913   3.599   1.735  0.5437  2.6387  0.6167
14629SOL    HW246205   5.954   3.692   1.623 -0.2426  0.0458 -1.9378
14630SOL     OW46206   7.493   2.533   2.162 -0.0893  1.0448 -0.4179
14630SOL    HW146207   7.490   2.622   2.129 -0.5007  0.9274 -0.7014
14630SOL    HW246208   7.567   2.493   2.116  0.3212  1.3373 -0.0267
14631SOL     OW46209   2.124   2.077   8.606 -0.4291  0.2036 -0.2144
14631SOL    HW146210   2.193   2.129   8.648 -0.9874  2.2336 -1.6644
14631SOL    HW246211   2.098   2.014   8.673  0.2523  1.8480  1.6951
14632SOL     OW46212   7.749   4.612   3.270  0.0598  0.0153  0.4478
14632SOL    HW146213   7.657   4.635   3.260 -0.2812 -1.8776 -1.4397
14632SOL    HW246214   7.747   4.524   3.310  1.0726  0.1234  0.7702
14633SOL     OW46215  10.537   1.930   2.788 -0.5212  0.9648  0.0286
14633SOL    HW146216  10.538   1.950   2.882  1.7227  1.8570 -0.1363
14633SOL    HW246217  10.566   1.839   2.782 -0.7295  0.8862  0.1910
14634SOL     OW46218   4.188   5.362   4.803  1.1469 -0.1588  0.0021
14634SOL    HW146219   4.143   5.440   4.771 -0.9426 -0.8395  1.0786
14634SOL    HW246220   4.161   5.355   4.894  0.4259 -2.6415 -0.3198
14635SOL     OW46221   7.823   4.812   5.977  0.8575  0.2180 -0.2083
14635SOL    HW146222   7.874   4.732   5.994  1.3121  0.2551 -1.2835
14635SOL    HW246223   7.856   4.843   5.892 -0.6427  0.5025 -0.7141
14636SOL     OW46224   6.523   3.508   0.199 -0.7768  0.3888  0.1880
14636SOL    HW146225   6.433   3.516   0.169 -0.7830  1.2771  0.4292
14636SOL    HW246226   6.553   3.598   0.211  0.0378  0.0979  0.4213
14637SOL     OW46227   1.582   2.955   4.495 -0.1421 -0.3872  0.1909
14637SOL    HW146228   1.578   3.029   4.435  2.2313  1.7008  2.3289
14637SOL    HW246229   1.510   2.969   4.557 -1.7943 -1.8457 -1.2808
14638SOL     OW46230   6.899   7.396   8.048 -0.7872 -0.0214  0.1130
14638SOL    HW146231   6.827   7.368   7.992  1.0583  0.8365 -2.9521
14638SOL    HW246232   6.957   7.444   7.989  1.8198  0.1683  2.6286
14639SOL     OW46233   1.264   7.425   9.057  0.2664  0.0093  0.0625
14639SOL    HW146234   1.262   7.345   9.004  0.0683 -1.4955  2.2059
14639SOL    HW246235   1.173   7.452   9.063  0.1098 -0.6214  0.7243
14640SOL     OW46236   7.047   4.599   8.887 -0.3496 -0.2022 -0.8637
14640SOL    HW146237   7.079   4.545   8.959  2.1020  1.8358 -0.3023
14640SOL    HW246238   7.020   4.681   8.928 -0.2088  0.4956 -2.1165
14641SOL     OW46239   4.078   9.131   3.397 -0.5425 -0.4823  0.4810
14641SOL    HW146240   4.069   9.224   3.417 -0.1250  0.2199 -2.2010
14641SOL    HW246241   4.135   9.128   3.320 -0.7170 -2.9472  0.3628
14642SOL     OW46242   3.444   1.232   8.559  0.3999 -0.1101 -0.0600
14642SOL    HW146243   3.531   1.265   8.537 -0.6044  1.8054 -1.4516
14642SOL    HW246244   3.445   1.223   8.654  2.5158 -1.4636 -0.1327
14643SOL     OW46245   1.736   9.317   5.199 -0.0542  0.2213 -0.5054
14643SOL    HW146246   1.694   9.231   5.189 -0.7503  0.5470 -0.4110
14643SOL    HW246247   1.799   9.321   5.126  0.4828 -0.6472 -0.1045
14644SOL     OW46248   4.213   9.966   1.680 -0.0554  0.0267  0.0244
14644SOL    HW146249   4.296   9.929   1.709 -0.7107 -2.3556 -0.8834
14644SOL    HW246250   4.237  10.043   1.629  1.7030 -1.2590 -1.1713
14645SOL     OW46251   0.944   3.069   7.988 -0.2502 -0.0953  0.7553
14645SOL    HW146252   0.917   3.100   7.901  0.0355 -2.8017 -0.4028
14645SOL    HW246253   0.888   2.993   8.005  1.4776 -1.2417  1.6856
14646SOL     OW46254   1.030   5.700   2.963 -0.3485  0.1402  0.4997
14646SOL    HW146255   0.952   5.748   2.936 -0.6000 -0.2847  0.4534
14646SOL    HW246256   1.082   5.691   2.883 -0.6255 -0.2588  0.3639
14647SOL     OW46257  10.422   1.997   0.097 -0.0534  0.4634  0.3630
14647SOL    HW146258  10.509   2.037   0.088  0.8347 -1.5864 -0.6805
14647SOL    HW246259  10.426   1.918   0.044 -2.8178  0.6519 -0.2897
14648SOL     OW46260   5.671   3.676   7.956  0.1233 -0.3815 -0.0420
14648SOL    HW146261   5.617   3.600   7.931  0.0108 -1.1388  2.3042
14648SOL    HW246262   5.609   3.740   7.988  0.3276  0.2958 -0.9548
14649SOL     OW46263   7.143   4.264   9.421 -0.0521  0.0662 -0.2463
14649SOL    HW146264   7.118   4.343   9.373  1.2706  0.1760 -0.7834
14649SOL    HW246265   7.096   4.271   9.505  0.2595  1.5618 -0.1676
14650SOL     OW46266   8.528   0.655   2.019 -0.2559 -0.0315 -0.1748
14650SOL    HW146267   8.454   0.596   2.028  1.2596 -1.9367  0.4494
14650SOL    HW246268   8.577   0.620   1.944  1.0289 -0.0321  0.6292
14651SOL     OW46269   8.676   9.938   6.826 -0.1726  0.0466 -0.1855
14651SOL    HW146270   8.706  10.029   6.828  1.8448 -0.5585  1.8964
14651SOL    HW246271   8.635   9.925   6.911  0.1843 -1.1639 -0.1810
14652SOL     OW46272   0.085   1.505   4.620  0.1297 -0.5450  0.8019
14652SOL    HW146273   0.159   1.491   4.679  1.5868  2.0413 -0.2430
14652SOL    HW246274   0.025   1.560   4.671  0.3260 -0.1878  0.6490
14653SOL     OW46275   1.323   6.721   7.298 -0.2690 -0.4354 -0.6928
14653SOL    HW146276   1.343   6.675   7.217  1.2379  1.2729 -1.3415
14653SOL    HW246277   1.253   6.782   7.275 -0.3278 -0.4391 -0.5275
14654SOL     OW46278  10.124   1.411   6.419 -0.0302 -0.0993 -0.0202
14654SOL    HW146279  10.219   1.426   6.417  0.1303 -0.4676  1.9664
14654SOL    HW246280  10.088   1.474   6.357  1.4105  1.2818  0.4705
14655SOL     OW46281   9.139   6.987   6.415 -0.0181  0.7519 -0.1656
14655SOL    HW146282   9.136   7.059   6.352 -1.7571  0.4811 -0.4505
14655SOL    HW246283   9.060   6.936   6.397 -0.4653  0.5334  2.0450
14656SOL     OW46284   0.232   1.570   5.249 -0.3903  0.0493 -0.8295
14656SOL    HW146285   0.153   1.598   5.294  0.0698 -0.7984  0.5741
14656SOL    HW246286   0.264   1.496   5.300  1.9544  1.0977 -0.6531
14657SOL     OW46287   9.538   8.712  10.211  0.8424 -0.1043 -0.1769
14657SOL    HW146288   9.554   8.689  10.119 -1.1495 -0.5216 -0.4727
14657SOL    HW246289   9.443   8.727  10.215  0.3052 -3.1705  2.4221
14658SOL     OW46290   8.677   5.898   9.747  0.1265  0.1676  0.2953
14658SOL    HW146291   8.640   5.986   9.736 -0.8985 -0.4033 -1.0483
14658SOL    HW246292   8.762   5.902   9.703  0.0879  0.4958  0.2495
14659SOL     OW46293   2.200   1.474   9.150  0.1349 -0.4656 -0.3071
14659SOL    HW146294   2.218   1.540   9.083 -1.1575  1.3973  1.0368
14659SOL    HW246295   2.284   1.432   9.166  0.9603  0.6643 -1.4426
14660SOL     OW46296   8.408   8.296   8.530 -0.2091  0.2991 -0.3944
14660SOL    HW146297   8.399   8.223   8.468  1.3907 -0.1080 -0.1898
14660SOL    HW246298   8.497   8.328   8.516 -0.3006  1.0981  0.7516
14661SOL     OW46299   5.349   4.733   2.616 -0.2912  0.2344  0.1426
14661SOL    HW146300   5.314   4.796   2.553  0.6563  1.2214  0.5729
14661SOL    HW246301   5.281   4.666   2.623 -0.2161 -0.1699 -2.2785
14662SOL     OW46302   1.432   9.520   8.121  0.5675  0.2368 -0.2412
14662SOL    HW146303   1.493   9.449   8.138  1.6071  0.4636 -2.6830
14662SOL    HW246304   1.468   9.565   8.045 -2.2329  0.8826 -1.2909
14663SOL     OW46305   4.089   2.584   3.748  0.2986 -0.1846 -0.0086
14663SOL    HW146306   4.151   2.643   3.790 -0.7238  2.0603 -1.4779
14663SOL    HW246307   4.143   2.527   3.693  1.1808  0.7728 -0.1505
14664SOL     OW46308   5.805   1.405   3.244 -0.0739 -0.3795  0.2268
14664SOL    HW146309   5.897   1.405   3.220  0.3712 -1.7034  1.7594
14664SOL    HW246310   5.778   1.496   3.235  1.0645 -0.1488 -1.3061
14665SOL     OW46311   1.615   6.654   6.765  0.1189  0.3189  0.0597
14665SOL    HW146312   1.639   6.591   6.697 -0.8130 -3.7740  3.0713
14665SOL    HW246313   1.532   6.690   6.736 -0.4384 -1.5851 -0.8686
14666SOL     OW46314   0.406   6.592   3.872  0.5003 -0.7542 -0.0310
14666SOL    HW146315   0.332   6.555   3.824 -1.0828  1.0093  0.9162
14666SOL    HW246316   0.471   6.611   3.804  0.7408 -3.6019 -0.7271
14667SOL     OW46317   6.197   3.315   1.440 -0.0396 -0.2163 -0.0784
14667SOL    HW146318   6.233   3.400   1.414  0.5808 -0.3870  0.1897
14667SOL    HW246319   6.199   3.317   1.536 -0.4256 -0.3626 -0.0683
14668SOL     OW46320   1.934   7.198   9.631  0.1660 -0.8139 -0.1685
14668SOL    HW146321   1.981   7.125   9.673 -0.5269 -1.5497 -0.6407
14668SOL    HW246322   1.891   7.244   9.703  0.1443 -1.2170  0.0809
14669SOL     OW46323   3.942   1.341   1.646  0.5167  0.2160 -0.2804
14669SOL    HW146324   3.907   1.416   1.693  0.6334 -0.7865  1.5008
14669SOL    HW246325   3.897   1.265   1.684  1.3415 -0.7181 -1.0947
14670SOL     OW46326  10.322   2.494   0.953  0.2026 -0.4486 -0.1319
14670SOL    HW146327  10.333   2.467   1.044  0.9827 -2.7072 -0.8399
14670SOL    HW246328  10.260   2.567   0.957  1.5917  0.7129  2.3464
14671SOL     OW46329   0.268   2.083   3.481  0.4752  0.1579 -0.5141
14671SOL    HW146330   0.248   2.176   3.472 -0.1657  0.0109 -0.6443
14671SOL    HW246331   0.259   2.048   3.392 -0.5671 -0.2697 -0.2565
14672SOL     OW46332   4.570   5.824   0.146 -0.5804  0.5066  0.3847
14672SOL    HW146333   4.656   5.804   0.107  0.9768  4.0901  1.5303
14672SOL    HW246334   4.507   5.790   0.082  1.6175 -1.9892 -0.6761
14673SOL     OW46335   0.194   6.534   2.140 -0.0106  0.3273 -0.4283
14673SOL    HW146336   0.129   6.488   2.087  0.5475 -0.6980 -0.2549
14673SOL    HW246337   0.276   6.489   2.122  0.1620 -0.2297  1.4598
14674SOL     OW46338   0.789   2.113   4.653 -0.4586  0.5823 -0.0932
14674SOL    HW146339   0.761   2.185   4.709 -0.5607  0.7039 -0.2998
14674SOL    HW246340   0.820   2.046   4.714 -0.9263  0.5617  0.1252
14675SOL     OW46341   4.849   6.691   0.772 -0.2117  0.8767  0.4059
14675SOL    HW146342   4.823   6.721   0.684 -1.3685 -0.0632  0.3992
14675SOL    HW246343   4.918   6.627   0.756  1.5357  2.6558  0.3667
14676SOL     OW46344   7.746   0.776   6.962 -0.2021 -0.4707 -0.3273
14676SOL    HW146345   7.724   0.862   7.000  0.5551 -0.5507  0.3180
14676SOL    HW246346   7.817   0.794   6.901  0.4801 -0.7297  0.3695
14677SOL     OW46347   5.704   0.947   0.579 -0.1504 -0.0528 -0.0497
14677SOL    HW146348   5.795   0.970   0.563 -0.2637  1.7822  1.6050
14677SOL    HW246349   5.666   1.024   0.621 -2.4165 -0.8496 -0.4585
14678SOL     OW46350   3.793   6.392   7.004  0.1079  0.1739 -0.1732
14678SOL    HW146351   3.874   6.424   6.965  0.7554 -1.5249 -0.3129
14678SOL    HW246352   3.782   6.445   7.083  0.6088  1.3449 -0.8659
14679SOL     OW46353   3.978   2.557   4.414 -0.1786  0.2951  0.0557
14679SOL    HW146354   3.966   2.619   4.485  1.2666 -1.5919  2.0818
14679SOL    HW246355   3.890   2.524   4.395 -0.4965  0.2291  1.5703
14680SOL     OW46356   4.141   3.298   2.879  0.6014  0.3899  0.6330
14680SOL    HW146357   4.180   3.271   2.961  2.5949  0.2970 -0.2963
14680SOL    HW246358   4.066   3.240   2.868  2.5221 -2.2502  0.5652
14681SOL     OW46359   0.546   9.190   1.117 -0.5890 -0.0773 -0.4119
14681SOL    HW146360   0.466   9.227   1.154 -0.7087 -1.0917  0.3924
14681SOL    HW246361   0.579   9.131   1.185 -0.0297 -0.8933 -1.3566
14682SOL     OW46362   4.941   1.406   4.192  0.4792 -0.5064 -0.0999
14682SOL    HW146363   4.966   1.317   4.167 -1.6471 -2.0395  2.6035
14682SOL    HW246364   4.845   1.402   4.200  0.4419  1.6337  1.4124
14683SOL     OW46365   9.692   9.910   6.790  0.3293 -0.1995 -0.5273
14683SOL    HW146366   9.683   9.974   6.720  1.3920 -0.4835 -0.9495
14683SOL    HW246367   9.619   9.849   6.776  0.0967  0.1658 -0.9337
14684SOL     OW46368   1.917   8.563   0.763  0.3587  0.2029  0.4353
14684SOL    HW146369   1.861   8.633   0.795 -0.5199  0.0501 -0.6755
14684SOL    HW246370   1.982   8.606   0.709  0.6166  0.2773  0.8039
14685SOL     OW46371   7.578   5.862   3.327 -0.6114 -0.3330 -0.5567
14685SOL    HW146372   7.591   5.943   3.377 -1.5291 -1.5281  1.8102
14685SOL    HW246373   7.519   5.887   3.256  0.7590  1.4692 -1.1033
14686SOL     OW46374   5.060   1.213   4.038  0.0619 -0.1504  0.1454
14686SOL    HW146375   5.156   1.215   4.036  0.2050 -0.0490  3.2110
14686SOL    HW246376   5.038   1.123   4.012  0.9349 -0.1258 -0.7666
14687SOL     OW46377   4.371   1.901   1.239 -0.3818 -0.4270 -0.3184
14687SOL    HW146378   4.444   1.844   1.265  1.7495  2.2719  0.1665
14687SOL    HW246379   4.390   1.925   1.149 -1.6717 -1.0162 -0.7715
14688SOL     OW46380   3.587   3.548   7.776 -0.1822 -0.4447 -0.3249
14688SOL    HW146381   3.666   3.589   7.811 -0.4242  0.4745 -0.8231
14688SOL    HW246382   3.607   3.455   7.775  0.2450 -0.3967  1.1880
14689SOL     OW46383   6.236   7.208   4.374  0.3495  0.2556  0.1575
14689SOL    HW146384   6.325   7.243   4.370 -0.4517  2.7801  1.9815
14689SOL    HW246385   6.226   7.176   4.464 -0.6351  0.1010  0.0083
14690SOL     OW46386   5.353   9.620   9.588  0.0098  0.6376 -0.0627
14690SOL    HW146387   5.385   9.586   9.504  1.6388  0.7690  0.4589
14690SOL    HW246388   5.333   9.712   9.572 -0.6868  0.4023 -0.5519
14691SOL     OW46389   5.949   1.040   1.104 -0.0179 -0.2080 -0.0038
14691SOL    HW146390   6.042   1.059   1.098  0.0760 -0.4977  0.4826
14691SOL    HW246391   5.933   0.976   1.035  0.1211 -0.0699 -0.1624
14692SOL     OW46392   9.382   3.925   2.839  0.2695 -0.2734 -0.8814
14692SOL    HW146393   9.425   3.895   2.919  1.0732  0.8892 -0.8458
14692SOL    HW246394   9.423   3.874   2.769  0.7792 -0.1079 -0.7124
14693SOL     OW46395   2.613   0.132   0.788 -0.1967  0.0136 -0.3202
14693SOL    HW146396   2.585   0.223   0.778 -1.3822  0.4249  4.3880
14693SOL    HW246397   2.537   0.081   0.760 -1.4951  0.7785  1.5364
14694SOL     OW46398   3.380   7.202   4.341  0.1418 -0.5384  0.3667
14694SOL    HW146399   3.323   7.134   4.378 -0.7232 -0.8416 -1.4233
14694SOL    HW246400   3.468   7.164   4.346 -0.2426 -1.5129  0.0708
14695SOL     OW46401   5.976   9.804   5.339  0.3833 -0.3323  0.4350
14695SOL    HW146402   6.018   9.869   5.283 -1.6178  0.2126 -0.5205
14695SOL    HW246403   5.989   9.721   5.294 -0.9642  0.0643 -0.7239
14696SOL     OW46404   5.925   4.543   3.047 -0.2606 -0.1731 -0.2212
14696SOL    HW146405   5.952   4.513   2.961 -0.4790  2.0524 -1.1470
14696SOL    HW246406   5.998   4.596   3.078 -0.4061 -0.5122  0.7409
14697SOL     OW46407   3.697   3.702   3.947  0.2905  0.2651  0.0786
14697SOL    HW146408   3.780   3.748   3.935 -0.2645  2.0068  2.1672
14697SOL    HW246409   3.722   3.612   3.971  1.8195  1.4062  3.4514
14698SOL     OW46410   6.283   5.586  10.307 -0.2720  0.7008  0.4083
14698SOL    HW146411   6.291   5.564  10.400 -0.5101  1.0220  0.5067
14698SOL    HW246412   6.365   5.555  10.268  0.4526  1.8234  0.9757
14699SOL     OW46413  10.106   3.702   2.941  0.1443  0.2127 -0.0142
14699SOL    HW146414  10.181   3.645   2.955 -0.6521 -0.9882 -0.5169
14699SOL    HW246415  10.070   3.717   3.028  0.4957  0.1291  0.1445
14700SOL     OW46416   8.639   9.425   4.771 -0.4221 -0.2663  0.0259
14700SOL    HW146417   8.612   9.367   4.700 -1.0015  0.4137 -0.3259
14700SOL    HW246418   8.562   9.429   4.829 -0.0198 -0.6694  0.5981
14701SOL     OW46419   7.219  10.543   4.718  0.3229  0.2162 -0.3465
14701SOL    HW146420   7.273  10.620   4.699 -0.5833  1.4186  1.6442
14701SOL    HW246421   7.134  10.565   4.679  0.5000 -0.5426 -1.2081
14702SOL     OW46422   6.371   4.138   6.072  0.1761 -0.1677 -0.6128
14702SOL    HW146423   6.318   4.151   6.151 -2.0377 -1.1289 -1.8303
14702SOL    HW246424   6.351   4.214   6.018 -0.9745 -1.1144 -1.5709
14703SOL     OW46425   8.136   0.100   3.600 -0.1912 -0.5437  0.5939
14703SOL    HW146426   8.216   0.048   3.606 -0.7014 -1.2598  1.7487
14703SOL    HW246427   8.104   0.104   3.691 -1.8966 -0.9977  0.0475
14704SOL     OW46428   4.519   2.663   0.030  0.6107 -0.2584  0.2422
14704SOL    HW146429   4.450   2.599   0.010  1.0852 -0.7753  0.2488
14704SOL    HW246430   4.499   2.692   0.119 -0.1271  0.2819 -0.0849
14705SOL     OW46431   2.198   1.771   8.353 -0.2687 -0.3022 -0.4206
14705SOL    HW146432   2.222   1.829   8.281 -1.0327  0.5416 -0.0145
14705SOL    HW246433   2.104   1.759   8.344 -0.0442 -2.0312 -0.8753
14706SOL     OW46434   8.273   3.534   6.392 -0.1370 -0.4432 -0.3834
14706SOL    HW146435   8.271   3.493   6.479 -1.8555  3.4197  1.6556
14706SOL    HW246436   8.190   3.508   6.351 -0.4219 -0.3894  0.1503
14707SOL     OW46437   3.718   1.247   0.434 -0.2461 -0.1037 -0.6581
14707SOL    HW146438   3.802   1.244   0.386  0.7422 -0.9741  1.0334
14707SOL    HW246439   3.712   1.337   0.466  0.1441 -0.0951 -0.6054
14708SOL     OW46440   6.950   2.305  10.436  0.3053 -1.0156 -0.1193
14708SOL    HW146441   7.032   2.308  10.485 -0.2191  0.4109  0.7116
14708SOL    HW246442   6.930   2.211  10.430  1.6448 -1.3447  0.2487
14709SOL     OW46443   5.908   8.712   7.124  0.4160 -0.7679  0.5440
14709SOL    HW146444   5.827   8.679   7.162  0.1021 -0.1638  0.4036
14709SOL    HW246445   5.958   8.744   7.198 -0.5299  1.1383  0.3994
14710SOL     OW46446   6.230   9.866   8.605  0.7670 -0.1640  0.5611
14710SOL    HW146447   6.192   9.866   8.517  2.0607  0.6508 -0.0411
14710SOL    HW246448   6.203   9.951   8.642  0.2010 -0.5181  0.9693
14711SOL     OW46449   7.890   3.672   0.049 -0.3739  0.0567 -0.1233
14711SOL    HW146450   7.839   3.647  -0.028  0.4974  0.6968 -0.9371
14711SOL    HW246451   7.895   3.592   0.102 -0.8002 -0.4518 -0.8404
14712SOL     OW46452   4.046   0.064   3.754  0.0670  0.0490 -0.1550
14712SOL    HW146453   3.977  -0.002   3.743  1.8241 -1.7414 -0.9254
14712SOL    HW246454   4.052   0.105   3.667  1.3562 -1.2654 -0.7212
14713SOL     OW46455   8.834   7.464   4.055 -0.4394  0.3086  0.6544
14713SOL    HW146456   8.759   7.493   4.106 -0.8947 -0.4439  0.4184
14713SOL    HW246457   8.890   7.418   4.118 -0.2389  0.7296  0.7939
14714SOL     OW46458   0.393  10.051   2.513 -0.5466  0.8081  0.5053
14714SOL    HW146459   0.346  10.020   2.435 -0.4252  0.4620  0.5682
14714SOL    HW246460   0.410   9.972   2.564 -1.1307  1.1102  1.1691
14715SOL     OW46461   4.551   5.658   0.436 -0.0805  0.3628  0.4303
14715SOL    HW146462   4.571   5.685   0.346 -1.9082  0.5445  0.0313
14715SOL    HW246463   4.534   5.740   0.483 -1.0269  0.1822  0.4235
14716SOL     OW46464   4.999   7.743   1.304 -0.1293 -0.4193  0.4145
14716SOL    HW146465   5.013   7.808   1.372 -0.9866  0.6220 -0.3775
14716SOL    HW246466   4.928   7.778   1.250 -0.3460 -1.8160 -0.2719
14717SOL     OW46467   7.986   2.156   0.234 -0.0969 -0.1607 -0.3934
14717SOL    HW146468   7.957   2.227   0.291 -0.6660  0.5858 -1.5681
14717SOL    HW246469   8.037   2.199   0.166  0.6318 -1.0423 -0.4273
14718SOL     OW46470   8.050   0.185   2.780  0.1688 -0.6320  0.1908
14718SOL    HW146471   7.997   0.209   2.856  1.1644 -0.0873  0.7341
14718SOL    HW246472   8.016   0.239   2.709  0.7794  0.6689  0.8332
14719SOL     OW46473   6.898   9.061   3.576  0.1498 -0.5649  0.1169
14719SOL    HW146474   6.961   9.087   3.508 -0.7914 -0.2813 -0.6599
14719SOL    HW246475   6.824   9.121   3.564 -0.7464 -1.6088  0.2977
14720SOL     OW46476   5.464   0.326   1.551  0.1680 -0.6947 -0.5708
14720SOL    HW146477   5.520   0.380   1.495  0.3623 -0.9355 -0.6052
14720SOL    HW246478   5.503   0.334   1.638 -1.6069  1.8310  0.1221
14721SOL     OW46479   3.723   6.800   5.014  0.1486  0.2762  0.1430
14721SOL    HW146480   3.794   6.833   5.070  0.6970 -0.2998 -0.1985
14721SOL    HW246481   3.644   6.815   5.065  0.8076 -2.5524  2.2814
14722SOL     OW46482   7.375   4.485   5.878 -0.3584 -0.1271  0.0079
14722SOL    HW146483   7.347   4.479   5.786  1.2638 -1.3738 -0.4481
14722SOL    HW246484   7.406   4.397   5.900  3.4662  1.1010  0.3068
14723SOL     OW46485   6.781   0.549   2.184 -0.5355  0.0879 -0.8116
14723SOL    HW146486   6.769   0.642   2.170  1.5009  0.4450 -0.5835
14723SOL    HW246487   6.869   0.531   2.150  0.2154 -1.1823  1.5678
14724SOL     OW46488   3.466   5.046   4.492 -0.5072  0.3366  0.0827
14724SOL    HW146489   3.372   5.063   4.486 -0.7200 -0.0323  1.8462
14724SOL    HW246490   3.472   4.951   4.504  0.1875  0.1878 -1.2519
14725SOL     OW46491   1.209   4.543   3.666 -0.2402 -0.0753 -0.0400
14725SOL    HW146492   1.258   4.624   3.655 -0.9523  0.1654 -1.5224
14725SOL    HW246493   1.142   4.544   3.598 -1.0046 -1.3721  0.6359
14726SOL     OW46494  10.361   0.013   9.397  0.4240  0.1137  0.0571
14726SOL    HW146495  10.440  -0.013   9.444  0.3672  0.1796  0.1900
14726SOL    HW246496  10.393   0.044   9.313  0.4554 -0.8179 -0.2875
14727SOL     OW46497   2.242   8.996   9.622  0.3306 -0.3835 -0.4749
14727SOL    HW146498   2.315   9.018   9.565  1.0706 -0.9095  0.2492
14727SOL    HW246499   2.234   8.901   9.615 -0.4623 -0.3078 -0.7479
14728SOL     OW46500   3.163   3.315   7.538  0.1610 -0.4321  0.3361
14728SOL    HW146501   3.210   3.392   7.506 -0.0467 -1.1108 -1.7703
14728SOL    HW246502   3.230   3.247   7.545  0.0471 -0.5342  0.4361
14729SOL     OW46503   9.654   3.910   8.777 -0.3141  0.3508  0.3026
14729SOL    HW146504   9.607   3.879   8.855 -0.7469 -0.0015 -0.1001
14729SOL    HW246505   9.746   3.909   8.804 -0.6321  4.5231  2.3675
14730SOL     OW46506   1.994   4.518   6.806  0.9300 -0.0271  0.4493
14730SOL    HW146507   1.917   4.517   6.864  1.4381  0.0574  1.1375
14730SOL    HW246508   1.973   4.455   6.737  0.1607  0.1392  0.5179
14731SOL     OW46509   4.691   9.643   2.278  0.4476 -0.0834  0.0751
14731SOL    HW146510   4.755   9.676   2.341 -0.8694  0.8505  0.9747
14731SOL    HW246511   4.614   9.698   2.290  0.2400  0.3443 -2.6123
14732SOL     OW46512   3.463   2.398   9.494  0.3877  0.1478  0.4302
14732SOL    HW146513   3.470   2.427   9.585  0.7471  0.3961  0.3276
14732SOL    HW246514   3.527   2.452   9.447  1.2788 -0.9842  0.2839
14733SOL     OW46515   2.118   8.897   0.598  0.8682 -0.1973  0.2404
14733SOL    HW146516   2.140   8.807   0.623 -1.2712 -0.9318 -0.2764
14733SOL    HW246517   2.071   8.888   0.515  2.1971  1.6022 -0.7959
14734SOL     OW46518   7.134   4.466   6.653  0.1128 -0.0184 -0.4427
14734SOL    HW146519   7.114   4.557   6.631  0.2990 -0.1987 -1.4180
14734SOL    HW246520   7.229   4.459   6.641  0.3646  0.0881  1.3081
14735SOL     OW46521   1.757   0.703   4.635  0.2845  0.4325  0.4916
14735SOL    HW146522   1.787   0.700   4.726 -0.7461 -0.3581  0.8280
14735SOL    HW246523   1.743   0.611   4.611  0.8821  0.6079 -0.5892
14736SOL     OW46524   9.375   3.494   2.947  0.0004 -0.3820 -0.1342
14736SOL    HW146525   9.291   3.482   2.904 -0.1048  1.0729 -0.3736
14736SOL    HW246526   9.355   3.535   3.031  0.5067  0.7750 -0.5542
14737SOL     OW46527   5.646   8.071   6.410 -0.4499 -0.1455  0.3315
14737SOL    HW146528   5.564   8.082   6.458  0.2096  1.9958  1.0567
14737SOL    HW246529   5.665   8.157   6.374  0.7448 -0.9528 -1.1152
14738SOL     OW46530   1.872   3.673   9.460  0.1799 -0.4228 -0.1620
14738SOL    HW146531   1.860   3.700   9.551 -0.1255  0.3664 -0.4302
14738SOL    HW246532   1.967   3.670   9.449  0.2347  0.7841 -0.1807
14739SOL     OW46533   3.259   6.575   4.923  0.6563  0.1076 -0.0807
14739SOL    HW146534   3.254   6.615   4.836 -0.6219  1.2134  0.4594
14739SOL    HW246535   3.244   6.648   4.983  0.8664 -0.7620  1.0495
14740SOL     OW46536   6.555   6.881   6.978 -0.5550 -0.5408  0.2370
14740SOL    HW146537   6.561   6.831   6.896  2.0672 -1.8249  1.1051
14740SOL    HW246538   6.546   6.972   6.950 -0.2756 -1.0061 -1.4696
14741SOL     OW46539   1.204   7.672   9.677 -0.0181  0.0280 -0.0886
14741SOL    HW146540   1.277   7.664   9.738  0.4834 -0.5527 -0.7441
14741SOL    HW246541   1.245   7.666   9.590 -0.7569  0.4535 -0.4772
14742SOL     OW46542   2.796   9.217   6.769 -0.1501 -0.1583  0.6144
14742SOL    HW146543   2.721   9.216   6.709  0.9672 -0.5455 -0.8371
14742SOL    HW246544   2.757   9.220   6.856 -1.8570 -0.8218 -0.0848
14743SOL     OW46545   7.042   2.022   5.396 -0.2884 -0.3336  0.5278
14743SOL    HW146546   7.109   1.954   5.404  0.5612  0.1387 -1.8586
14743SOL    HW246547   6.966   1.987   5.442 -0.1361 -3.2762 -1.2719
14744SOL     OW46548   8.428   9.624  10.292  0.0467  0.1775 -0.1171
14744SOL    HW146549   8.351   9.579  10.328  0.4384 -0.2539  0.1849
14744SOL    HW246550   8.415   9.716  10.319 -0.7551  0.2630 -0.7444
14745SOL     OW46551   5.265   0.430   1.909 -0.5173 -0.0936  0.4305
14745SOL    HW146552   5.313   0.501   1.867  0.3605 -1.4263 -0.8971
14745SOL    HW246553   5.290   0.435   2.001  0.9662  0.2202  0.0377
14746SOL     OW46554   5.050   4.425   8.078  0.4839 -0.3480 -0.2913
14746SOL    HW146555   4.957   4.406   8.062  0.0331 -0.4174  1.9653
14746SOL    HW246556   5.066   4.506   8.030 -0.7714 -0.3023 -0.6821
14747SOL     OW46557   8.289   7.001   2.060 -0.2961  0.3269 -0.0055
14747SOL    HW146558   8.225   6.931   2.043  0.1651 -0.0906 -0.0682
14747SOL    HW246559   8.242   7.063   2.115 -1.1607  0.6758 -1.1097
14748SOL     OW46560   1.852   8.026   7.052 -0.2936 -0.1765  0.0054
14748SOL    HW146561   1.926   8.059   7.103  0.3700  0.2397 -1.2031
14748SOL    HW246562   1.805   8.105   7.025  0.4360 -0.2654 -1.6074
14749SOL     OW46563   3.979   7.009   4.407 -0.4125 -0.0856 -0.0799
14749SOL    HW146564   4.066   6.974   4.385  0.3098  0.8497  1.1950
14749SOL    HW246565   3.918   6.951   4.361  0.8268 -1.7317  0.2630
14750SOL     OW46566   5.210   4.290  10.121  0.6049  0.4363  0.2501
14750SOL    HW146567   5.150   4.236  10.070 -0.9192  2.5010 -0.2716
14750SOL    HW246568   5.200   4.260  10.211 -0.2028 -0.1688 -0.0335
14751SOL     OW46569   7.134   1.713   1.593 -0.7495  0.5537  0.1828
14751SOL    HW146570   7.145   1.678   1.505 -0.7658  0.1769  0.3289
14751SOL    HW246571   7.214   1.763   1.610 -1.3550  1.8587 -0.6014
14752SOL     OW46572   0.880   6.631   5.830 -0.0242 -0.9327  0.9650
14752SOL    HW146573   0.903   6.599   5.917 -0.7046  0.2254  1.5795
14752SOL    HW246574   0.906   6.723   5.830 -0.1698 -0.8780 -0.0117
14753SOL     OW46575   4.236   6.552   0.904 -0.6324 -0.1953  0.1547
14753SOL    HW146576   4.331   6.549   0.887 -0.4371 -0.0886  1.1517
14753SOL    HW246577   4.228   6.612   0.979 -1.5259  0.0740 -0.1483
14754SOL     OW46578   2.909   2.046   8.304 -0.0565  0.1860  0.2765
14754SOL    HW146579   2.940   1.983   8.239  0.8668  0.5238  0.3729
14754SOL    HW246580   2.817   2.024   8.317  0.1837 -0.9736  0.1174
14755SOL     OW46581   5.346   8.152   0.106 -0.1461 -0.3906 -0.2684
14755SOL    HW146582   5.425   8.173   0.057  0.7875  1.3085  1.8112
14755SOL    HW246583   5.278   8.206   0.065  0.6890  1.2657  0.4041
14756SOL     OW46584   6.243   7.132   3.793 -0.4059  0.2096 -0.0814
14756SOL    HW146585   6.272   7.070   3.860 -1.5361  0.6317  0.8372
14756SOL    HW246586   6.313   7.197   3.788  0.1708 -0.4023 -0.0880
14757SOL     OW46587   8.255   6.498   7.380 -0.1623  0.2204 -0.2506
14757SOL    HW146588   8.192   6.570   7.380  0.5614  0.9111  1.2645
14757SOL    HW246589   8.226   6.440   7.310 -1.7521  1.1341 -0.3952
14758SOL     OW46590   6.714   6.362   5.768 -0.3075 -0.9096  0.3534
14758SOL    HW146591   6.650   6.370   5.838  1.5054 -0.3248  2.0297
14758SOL    HW246592   6.797   6.390   5.807  0.9417 -1.3166 -1.8058
14759SOL     OW46593   4.323   7.426   0.730 -0.0851  0.5699  0.2015
14759SOL    HW146594   4.266   7.502   0.743  1.2863  1.5032  1.0052
14759SOL    HW246595   4.337   7.423   0.635  0.0558  1.4986  0.1824
14760SOL     OW46596   4.629   3.114   9.044  0.1839 -0.0838  0.3650
14760SOL    HW146597   4.656   3.045   8.982 -0.1228 -1.8742  2.1356
14760SOL    HW246598   4.603   3.067   9.123 -0.5487  2.0674  1.4845
14761SOL     OW46599   2.322   9.730   4.154  0.6802  0.0232  0.2281
14761SOL    HW146600   2.275   9.648   4.141  1.3101 -0.3786  0.4092
14761SOL    HW246601   2.399   9.723   4.098  1.7803 -0.3885  1.7041
14762SOL     OW46602   6.021   7.249   2.074  0.4361  0.0951 -0.4302
14762SOL    HW146603   6.070   7.303   2.012 -0.2259  1.7541  0.4184
14762SOL    HW246604   6.031   7.294   2.158 -0.4749 -0.9007  0.2373
14763SOL     OW46605   5.457   7.854   4.928 -0.3621  0.1168  0.1657
14763SOL    HW146606   5.415   7.936   4.953  2.1744  1.1379  1.3357
14763SOL    HW246607   5.481   7.813   5.011  1.3826 -0.1560 -0.4337
14764SOL     OW46608   5.811   1.337   6.849  0.6858 -0.0747 -0.1612
14764SOL    HW146609   5.721   1.365   6.833  1.3778  2.0159 -0.8146
14764SOL    HW246610   5.835   1.287   6.771  0.4706  0.4363 -0.5633
14765SOL     OW46611   6.387   6.946   2.976  0.6095 -0.3904 -0.2795
14765SOL    HW146612   6.371   6.958   3.070 -0.4791 -0.2897 -0.4583
14765SOL    HW246613   6.460   7.004   2.956  2.0180 -1.7181  0.8421
14766SOL     OW46614   4.592   7.715   3.871 -0.0343 -0.6061  0.0056
14766SOL    HW146615   4.517   7.774   3.862  1.1167  0.8735 -0.2620
14766SOL    HW246616   4.638   7.747   3.949  1.0097 -0.6661 -0.5593
14767SOL     OW46617   2.137   0.719   6.313  0.0351  0.3159 -0.0304
14767SOL    HW146618   2.194   0.657   6.359 -1.8882 -0.9911  0.6736
14767SOL    HW246619   2.168   0.805   6.341  0.5603 -0.3945  1.7173
14768SOL     OW46620   2.541   4.006   4.093  0.3849 -0.1664  0.0474
14768SOL    HW146621   2.461   4.055   4.106 -0.5698 -1.1541 -1.6673
14768SOL    HW246622   2.518   3.939   4.028  2.7804  0.0329 -1.1267
14769SOL     OW46623  10.518   8.913   9.867  0.2467 -0.1047 -0.4476
14769SOL    HW146624  10.554   8.825   9.878 -0.2661 -0.3154 -0.4501
14769SOL    HW246625  10.589   8.971   9.894 -0.0600 -0.5595  1.4508
14770SOL     OW46626   1.400   9.553   4.381 -0.0399 -0.3107 -1.0115
14770SOL    HW146627   1.443   9.620   4.434  0.9760 -0.1559 -2.0017
14770SOL    HW246628   1.308   9.557   4.407 -0.0048  1.4998 -1.0940
14771SOL     OW46629   5.383   0.336   6.474 -0.3144  0.2110  0.4433
14771SOL    HW146630   5.346   0.279   6.406 -2.4337  1.6608  0.2821
14771SOL    HW246631   5.476   0.314   6.475 -0.5322 -1.1570 -1.6408
14772SOL     OW46632   8.027   7.134   4.117 -0.1015 -0.2382 -0.5576
14772SOL    HW146633   7.935   7.108   4.104 -0.4667  0.4805  0.4075
14772SOL    HW246634   8.054   7.085   4.194  0.3598 -0.5180 -0.8971
14773SOL     OW46635   9.822   0.491   9.570 -0.0404 -0.0280 -0.1838
14773SOL    HW146636   9.747   0.470   9.625  1.1421 -1.7127  0.8955
14773SOL    HW246637   9.849   0.406   9.533  2.2553  0.2326  0.7433
14774SOL     OW46638   6.737   3.511   4.988  0.9602  1.0747 -0.4250
14774SOL    HW146639   6.790   3.586   5.016  0.7850  0.8192  0.6271
14774SOL    HW246640   6.650   3.547   4.973  1.0563  1.2150 -0.6507
14775SOL     OW46641   1.063   7.448   8.155 -0.1663  0.4082  0.4635
14775SOL    HW146642   1.062   7.392   8.077  2.2579  1.3032 -0.3223
14775SOL    HW246643   1.122   7.404   8.216 -2.0272 -0.2703  1.8337
14776SOL     OW46644   9.493   9.507   7.560  0.0948 -1.1981 -0.0686
14776SOL    HW146645   9.499   9.467   7.473  1.5468  0.3747 -0.7638
14776SOL    HW246646   9.458   9.594   7.544 -0.2769 -1.1321  1.0251
14777SOL     OW46647   3.005   4.551   8.369  0.0675 -0.0287  0.1954
14777SOL    HW146648   3.070   4.620   8.358  0.1655  0.7919  4.3213
14777SOL    HW246649   3.055   4.470   8.359  1.1285  0.5713  0.4051
14778SOL     OW46650   3.259   7.089   9.252 -0.0819  0.4583 -0.3495
14778SOL    HW146651   3.237   7.180   9.230 -1.3914  0.3118  0.2366
14778SOL    HW246652   3.311   7.058   9.179 -0.8083  1.2601 -1.2293
14779SOL     OW46653   7.357   9.161   1.556  0.1127  0.1367  0.4855
14779SOL    HW146654   7.423   9.202   1.612  0.1682 -0.5443  0.9310
14779SOL    HW246655   7.324   9.087   1.608 -0.6003  0.1368  0.0440
14780SOL     OW46656  10.195   1.296   1.802  0.0655 -0.2059 -0.0356
14780SOL    HW146657  10.181   1.202   1.815 -0.0347  0.0595  2.1861
14780SOL    HW246658  10.288   1.309   1.818  0.2708 -0.0256 -1.2675
14781SOL     OW46659   9.725   9.362   4.840  0.3167  0.2383 -0.0835
14781SOL    HW146660   9.700   9.274   4.866  1.1231  0.5633  2.0007
14781SOL    HW246661   9.642   9.406   4.820 -0.1228 -0.8360 -0.7181
14782SOL     OW46662   2.493   5.798   1.781 -0.0947 -0.0468 -0.3977
14782SOL    HW146663   2.421   5.771   1.838 -0.2565 -1.2564 -1.1479
14782SOL    HW246664   2.452   5.808   1.695  0.5406 -0.2806 -0.7304
14783SOL     OW46665   2.923   2.403   7.875 -0.1983 -0.5193  0.3971
14783SOL    HW146666   2.885   2.328   7.829 -3.5939  1.3339 -0.1518
14783SOL    HW246667   2.896   2.392   7.966 -0.8311  0.0552  0.2898
14784SOL     OW46668  10.514   8.599   7.463  0.0803  0.4186  0.4606
14784SOL    HW146669  10.578   8.645   7.409 -0.5388 -0.3352 -0.9841
14784SOL    HW246670  10.432   8.646   7.448 -0.1270  0.1097  0.6115
14785SOL     OW46671   7.903   6.329   1.087  0.0732  0.3731 -0.0217
14785SOL    HW146672   7.870   6.418   1.080  0.4386  0.4341 -1.1717
14785SOL    HW246673   7.957   6.317   1.009  1.2201 -0.3646  0.8553
14786SOL     OW46674   6.215   4.192   6.298 -0.2989  0.6825  0.1249
14786SOL    HW146675   6.226   4.135   6.374  0.5977  0.7538  0.0605
14786SOL    HW246676   6.120   4.203   6.290 -0.6271 -2.1374 -0.8837
14787SOL     OW46677   9.265   9.771   7.805 -0.1939  0.7806 -0.4732
14787SOL    HW146678   9.252   9.680   7.777  0.4740  1.3408 -2.9024
14787SOL    HW246679   9.183   9.794   7.849 -0.0454 -1.2304  1.0017
14788SOL     OW46680   6.997   9.351   0.063  0.3143  0.1120  0.0219
14788SOL    HW146681   6.910   9.390   0.055  0.3757  0.3055  0.2586
14788SOL    HW246682   7.052   9.401   0.004  0.3368  0.2131  0.1283
14789SOL     OW46683   3.162   8.426   1.241  0.3497 -0.3866 -0.1185
14789SOL    HW146684   3.189   8.352   1.295 -2.0124 -2.5134 -1.6253
14789SOL    HW246685   3.084   8.461   1.285  0.7345  0.4528 -0.0765
14790SOL     OW46686   7.572   7.405   2.234 -0.5732 -0.1702  0.1507
14790SOL    HW146687   7.491   7.454   2.218  0.2412  0.9858 -0.5120
14790SOL    HW246688   7.610   7.448   2.311 -0.2806 -0.3181  0.0866
14791SOL     OW46689   1.130   3.950   6.802  0.4198  0.2350 -0.0962
14791SOL    HW146690   1.169   3.865   6.782 -1.1171 -0.2934 -1.0654
14791SOL    HW246691   1.158   4.007   6.730 -0.8030 -0.2402 -0.9878
14792SOL     OW46692   1.405   1.413   7.268  0.5118 -0.4747  0.3843
14792SOL    HW146693   1.480   1.465   7.297  1.3160 -0.6984 -1.1960
14792SOL    HW246694   1.334   1.440   7.326  0.7613  2.7111 -0.6101
14793SOL     OW46695   0.089   2.065   1.275 -0.4660  0.3479  0.6052
14793SOL    HW146696   0.045   2.034   1.354 -1.6994 -0.8672 -0.5204
14793SOL    HW246697   0.139   1.989   1.244 -0.4256  0.6482 -0.0856
14794SOL     OW46698   6.622   9.125   3.840 -0.0126  0.0713 -0.3066
14794SOL    HW146699   6.669   9.047   3.809 -1.2168 -0.6236 -0.4433
14794SOL    HW246700   6.544   9.090   3.884  0.4749  1.1217  1.5106
14795SOL     OW46701   8.580   3.345   5.014  0.1425  0.1042 -0.5023
14795SOL    HW146702   8.671   3.374   5.017  0.8186 -1.8680  2.0808
14795SOL    HW246703   8.548   3.358   5.104 -2.2661  1.0309 -1.4124
14796SOL     OW46704   6.249   1.711   6.930 -0.1288 -0.0942  0.1057
14796SOL    HW146705   6.229   1.744   7.018 -0.1651  0.1498  0.0044
14796SOL    HW246706   6.343   1.691   6.933 -0.0119  0.4342  0.0309
14797SOL     OW46707   1.710  10.288   8.103  0.0043  0.2602  0.1252
14797SOL    HW146708   1.708  10.328   8.190 -0.6119  1.9264 -0.6126
14797SOL    HW246709   1.749  10.355   8.047 -0.8850 -0.2480 -1.1400
14798SOL     OW46710   0.315   2.052   6.979 -0.5983 -0.1892 -0.2890
14798SOL    HW146711   0.395   2.047   6.927  0.0985 -1.1053  0.8239
14798SOL    HW246712   0.257   1.986   6.940  0.2195 -1.4396  0.5456
14799SOL     OW46713   5.284   0.930   5.391 -0.0118  0.1095 -0.5055
14799SOL    HW146714   5.310   0.849   5.347  0.1071 -0.2066  0.1399
14799SOL    HW246715   5.366   0.970   5.419 -0.1358 -0.1936  0.3048
14800SOL     OW46716   2.323   7.747   1.422 -0.6728 -0.9559  0.1928
14800SOL    HW146717   2.312   7.766   1.515 -1.2063 -3.1788  0.6367
14800SOL    HW246718   2.408   7.703   1.417 -0.3631 -0.2933 -0.4784
14801SOL     OW46719   4.526   0.445   6.390 -0.8375 -0.1585 -0.3477
14801SOL    HW146720   4.537   0.533   6.427  0.1017 -0.9642  1.3965
14801SOL    HW246721   4.610   0.402   6.405 -1.0054 -1.1139 -1.9308
14802SOL     OW46722   7.795  10.275   0.547  0.9377 -0.6225  0.2997
14802SOL    HW146723   7.742  10.251   0.623  0.9800 -1.1151  0.1759
14802SOL    HW246724   7.885  10.272   0.579  0.9590 -0.8893  0.2138
14803SOL     OW46725   2.212   2.582   8.208 -0.3284  0.4322  0.0550
14803SOL    HW146726   2.148   2.630   8.261 -1.1878 -2.1742  1.5588
14803SOL    HW246727   2.187   2.601   8.118 -0.5742  2.7629  0.5409
14804SOL     OW46728   7.693   9.109   5.484 -0.0236  0.3120  0.2408
14804SOL    HW146729   7.789   9.116   5.478 -0.0459  0.1821 -0.2474
14804SOL    HW246730   7.678   9.071   5.571  0.4296 -1.0776 -0.2600
14805SOL     OW46731   4.981   1.401   1.081  0.5973  0.4729 -0.3962
14805SOL    HW146732   4.975   1.496   1.089  0.1738  0.3058  2.6174
14805SOL    HW246733   4.896   1.369   1.113  1.6902 -0.9345  1.3019
14806SOL     OW46734   2.320   9.419   6.145  0.0046 -0.1737  0.6242
14806SOL    HW146735   2.310   9.324   6.146 -0.4560 -0.1220  0.8407
14806SOL    HW246736   2.236   9.453   6.116  0.5303  0.1316 -0.5880
14807SOL     OW46737   1.371   3.684   8.040  0.4130 -0.0651 -0.6627
14807SOL    HW146738   1.466   3.689   8.044  0.5184  2.6780 -2.9008
14807SOL    HW246739   1.353   3.621   7.970  0.6193  0.0148 -0.7873
14808SOL     OW46740   2.755   5.973   7.356  0.3440  0.1762  0.0684
14808SOL    HW146741   2.696   5.993   7.429  0.3338  1.2075 -0.1999
14808SOL    HW246742   2.828   6.033   7.367  1.1807 -0.8379  0.1805
14809SOL     OW46743   0.231   8.772   5.238  0.4037  0.6433 -0.1811
14809SOL    HW146744   0.239   8.720   5.158  1.0199  1.2719 -0.5438
14809SOL    HW246745   0.248   8.711   5.309  2.0084  0.5180 -0.6315
14810SOL     OW46746   1.681   6.756   9.341 -0.6188  0.2174  0.3149
14810SOL    HW146747   1.758   6.786   9.390 -0.6818  0.9175 -0.0013
14810SOL    HW246748   1.607   6.802   9.383 -0.7619  0.2238  0.0564
14811SOL     OW46749   2.619   4.625  10.240 -0.7273  0.0947  0.1877
14811SOL    HW146750   2.686   4.688  10.214  0.1551 -0.0007  2.0732
14811SOL    HW246751   2.626   4.554  10.176  0.1186  0.6594 -0.3660
14812SOL     OW46752  10.268   3.922   8.584  0.3458 -0.2899  0.1311
14812SOL    HW146753  10.180   3.892   8.564  0.7777 -0.7741 -1.1685
14812SOL    HW246754  10.322   3.843   8.579  0.9216  0.0721  0.4977
14813SOL     OW46755   9.994   6.274   7.421 -0.1104  0.6710  0.7714
14813SOL    HW146756  10.003   6.354   7.370  0.6655  0.1373  0.0581
14813SOL    HW246757   9.901   6.251   7.413 -0.2032  1.1461  0.4555
14814SOL     OW46758  10.140   7.332   4.432  0.3563 -0.1894 -0.6238
14814SOL    HW146759  10.208   7.287   4.381  1.1702  0.7713 -0.4255
14814SOL    HW246760  10.113   7.405   4.377  0.4007  0.1729 -0.1751
14815SOL     OW46761   5.660   3.146   2.292 -0.1155 -1.0785  0.1599
14815SOL    HW146762   5.694   3.058   2.276 -0.3629 -0.8045 -2.1927
14815SOL    HW246763   5.611   3.138   2.374 -0.7056 -3.3017 -0.3461
14816SOL     OW46764   8.664   1.904   0.290  0.0197  0.5412 -0.2171
14816SOL    HW146765   8.748   1.858   0.279  0.4503  0.9396  1.1667
14816SOL    HW246766   8.598   1.836   0.275  0.6418 -0.5284  1.4653
14817SOL     OW46767   1.860   6.969   1.478 -0.1554  0.2344 -0.4185
14817SOL    HW146768   1.767   6.952   1.467 -0.7812  2.9677 -0.0698
14817SOL    HW246769   1.866   7.018   1.560  1.5291  0.6325 -0.7409
14818SOL     OW46770   1.825   1.782   7.825 -0.1871  0.0720  0.4150
14818SOL    HW146771   1.880   1.735   7.888 -0.5090 -0.6936  0.1315
14818SOL    HW246772   1.815   1.869   7.863  0.7036  0.0291  0.7780
14819SOL     OW46773   5.734   1.424   3.926  0.2390 -0.2792  0.5763
14819SOL    HW146774   5.649   1.468   3.933  0.1900 -0.3713  0.5723
14819SOL    HW246775   5.759   1.406   4.017  1.7679  2.5856  0.8217
14820SOL     OW46776   2.209   6.780   3.241  0.2948 -0.1429  0.3888
14820SOL    HW146777   2.152   6.794   3.318  1.7313  2.4306  1.1085
14820SOL    HW246778   2.295   6.764   3.278  0.7088 -0.4952 -0.7021
14821SOL     OW46779   1.259   5.321  10.333  0.3773 -0.3956  0.0391
14821SOL    HW146780   1.179   5.373  10.331 -0.3894 -1.4318  1.7769
14821SOL    HW246781   1.254   5.272  10.415  3.6685  0.8850  1.1878
14822SOL     OW46782   7.053   3.632   5.876 -0.0397  0.2349 -0.0364
14822SOL    HW146783   7.085   3.645   5.787 -0.7310  0.1490 -0.3073
14822SOL    HW246784   6.958   3.643   5.868 -0.1008  0.2618  0.6980
14823SOL     OW46785   4.154   5.721   7.067 -0.1883  0.2286 -0.2219
14823SOL    HW146786   4.080   5.760   7.021 -0.0374  0.9810  0.1538
14823SOL    HW246787   4.126   5.632   7.086 -0.8446  0.3842 -0.4346
14824SOL     OW46788   9.634   0.816   5.593  0.1612  0.2081 -0.5960
14824SOL    HW146789   9.590   0.810   5.508 -1.2240  1.6718 -0.0365
14824SOL    HW246790   9.567   0.853   5.651  1.9084  1.7527  0.5061
14825SOL     OW46791   2.347   0.251   7.849  0.0220 -0.7098 -0.1981
14825SOL    HW146792   2.381   0.199   7.922  1.7787 -0.6686 -0.9341
14825SOL    HW246793   2.341   0.340   7.885  0.0445 -0.8451  0.1475
14826SOL     OW46794   4.787   9.473   9.909 -1.1604 -0.2211 -0.3283
14826SOL    HW146795   4.772   9.397   9.965 -0.4116  0.0053  0.1904
14826SOL    HW246796   4.881   9.490   9.916 -0.9490 -0.5315 -2.1005
14827SOL     OW46797   5.669   4.836   6.581  0.0067  0.0422  0.1274
14827SOL    HW146798   5.592   4.876   6.541  0.1792  0.8583  0.5703
14827SOL    HW246799   5.709   4.784   6.512 -0.0657  0.8890 -0.5685
14828SOL     OW46800   0.124   2.452   7.862  0.4991  0.1256  0.6555
14828SOL    HW146801   0.094   2.416   7.779  2.2214  0.0648  0.0277
14828SOL    HW246802   0.045   2.454   7.917 -0.4176 -0.9830 -0.5584
14829SOL     OW46803   6.438   0.529   9.227 -0.1525 -0.5389  0.1175
14829SOL    HW146804   6.361   0.582   9.248  0.2407 -0.1109  0.4935
14829SOL    HW246805   6.421   0.496   9.139  0.1550  1.2618 -0.6460
14830SOL     OW46806   7.201   5.986   3.077 -0.0689 -0.1692 -0.7352
14830SOL    HW146807   7.119   6.027   3.105 -0.3380 -1.3741  0.3245
14830SOL    HW246808   7.184   5.892   3.081  1.3532 -0.4399 -0.5200
14831SOL     OW46809   9.060   0.661   1.669 -0.3115  0.1809  0.2300
14831SOL    HW146810   8.975   0.698   1.694  0.1034  0.2272  1.6544
14831SOL    HW246811   9.041   0.601   1.597 -1.3769  1.0803 -0.2634
14832SOL     OW46812   6.611   4.268   2.849  0.1578 -0.0187  0.2296
14832SOL    HW146813   6.581   4.296   2.762  1.1062 -1.8056 -0.7398
14832SOL    HW246814   6.571   4.330   2.910 -1.0087  0.9343 -1.4336
14833SOL     OW46815   3.710   5.206   4.146 -0.2565  0.8504 -0.2748
14833SOL    HW146816   3.656   5.282   4.127  0.0438  1.0827 -0.2059
14833SOL    HW246817   3.727   5.210   4.240 -0.9020  0.2547 -0.1223
14834SOL     OW46818   8.780   2.035   4.327  0.1577  0.0421  0.2309
14834SOL    HW146819   8.822   2.049   4.412 -0.3167  0.4922  0.3917
14834SOL    HW246820   8.853   2.034   4.265  0.3940  1.1316  0.4673
14835SOL     OW46821   2.706  10.572   7.596  0.6313  0.3715 -0.4004
14835SOL    HW146822   2.619  10.593   7.630  0.7153  1.0320 -0.5661
14835SOL    HW246823   2.738  10.503   7.653  0.7666  1.4458  0.8828
14836SOL     OW46824   6.112   8.410   6.114  0.3500 -0.5924  0.3801
14836SOL    HW146825   6.037   8.353   6.124 -0.4016  0.3725  0.3881
14836SOL    HW246826   6.184   8.352   6.089 -1.0813 -1.1855 -2.8297
14837SOL     OW46827   6.886   7.311   6.740 -0.2611  0.2475  0.6579
14837SOL    HW146828   6.905   7.405   6.739 -1.1292  0.4362 -1.3926
14837SOL    HW246829   6.952   7.272   6.683 -0.6996 -0.2114  0.4533
14838SOL     OW46830   7.079   6.432   6.334  0.4590 -0.2088 -0.3105
14838SOL    HW146831   7.071   6.522   6.303  0.4374  0.3441  1.1931
14838SOL    HW246832   6.992   6.411   6.369  0.5686 -0.6750 -0.3142
14839SOL     OW46833   8.800   9.489   2.909 -0.2370 -0.1580  0.2017
14839SOL    HW146834   8.716   9.515   2.870 -0.6991 -1.0514  0.5706
14839SOL    HW246835   8.792   9.511   3.001  0.3299  0.6824  0.0598
14840SOL     OW46836   1.924   2.331   6.443 -0.2422 -0.8783 -0.0195
14840SOL    HW146837   1.871   2.252   6.445 -1.0518 -0.4183 -1.7479
14840SOL    HW246838   1.883   2.386   6.376  1.5329  0.1229 -0.3418
14841SOL     OW46839   7.173   8.431   2.581  0.2214 -0.2281  0.0115
14841SOL    HW146840   7.233   8.382   2.636 -0.4809 -0.0232  0.9895
14841SOL    HW246841   7.191   8.523   2.601 -1.4204 -0.1797  1.4682
14842SOL     OW46842   2.160   0.131   1.313  0.0925  0.1704  0.2373
14842SOL    HW146843   2.192   0.218   1.288 -1.1022  1.2727  2.2907
14842SOL    HW246844   2.146   0.137   1.407  1.8898 -2.9149  0.8224
14843SOL     OW46845   4.748   3.251   3.807  0.5149 -0.7565  0.9491
14843SOL    HW146846   4.655   3.270   3.796  0.6695 -1.1533 -1.6822
14843SOL    HW246847   4.781   3.321   3.863 -1.4253 -0.8992  2.3818
14844SOL     OW46848   0.171   5.439   5.933 -0.1443  0.5489  0.0917
14844SOL    HW146849   0.229   5.409   6.003  1.4095  0.4356 -1.1694
14844SOL    HW246850   0.179   5.534   5.934  0.3777  0.5132 -0.3208
14845SOL     OW46851   5.397  10.350   7.762 -0.3601 -0.4039 -0.2141
14845SOL    HW146852   5.371  10.347   7.670 -0.4635  0.9594 -0.2499
14845SOL    HW246853   5.372  10.438   7.791  1.9450  0.1125  0.4269
14846SOL     OW46854   9.540   8.038   3.411 -0.5796 -0.4228 -0.7872
14846SOL    HW146855   9.504   8.037   3.499 -0.6646  1.3390 -0.7615
14846SOL    HW246856   9.526   8.128   3.380 -1.7656 -1.3037 -3.0990
14847SOL     OW46857   6.574   4.395   1.088 -0.0585 -0.1635 -0.3381
14847SOL    HW146858   6.510   4.464   1.070  0.2480  0.5366  1.0926
14847SOL    HW246859   6.568   4.382   1.183  2.4434  0.4823 -0.0276
14848SOL     OW46860   1.966   6.429   5.135  0.4569 -0.1734  0.1191
14848SOL    HW146861   1.944   6.388   5.051  0.0195 -1.5046  0.8528
14848SOL    HW246862   2.060   6.441   5.132  0.8872 -2.8125  0.4959
14849SOL     OW46863   4.544   6.490   5.918 -0.2072  0.0921  0.3616
14849SOL    HW146864   4.494   6.531   5.847 -1.4322 -0.4120  0.9109
14849SOL    HW246865   4.532   6.549   5.993 -1.0949 -0.6870  0.8581
14850SOL     OW46866   6.538   4.615   5.943 -0.3944 -0.1266  0.7191
14850SOL    HW146867   6.508   4.619   6.034 -0.4607  0.2226  0.6800
14850SOL    HW246868   6.492   4.539   5.907 -1.3388  0.4819  0.6231
14851SOL     OW46869   9.429   1.583   3.353 -0.0190 -0.4090 -0.0452
14851SOL    HW146870   9.516   1.546   3.339  0.2507  0.1004  0.2593
14851SOL    HW246871   9.378   1.511   3.389  0.0873 -0.8971 -0.8462
14852SOL     OW46872   2.165   8.343  10.575 -0.6985 -0.5128 -0.5506
14852SOL    HW146873   2.128   8.431  10.572 -1.6352 -0.7723  1.4784
14852SOL    HW246874   2.090   8.285  10.572 -0.1848 -1.1920 -0.5277
14853SOL     OW46875   4.642   7.514   0.112  0.4643  0.1438  0.7559
14853SOL    HW146876   4.706   7.585   0.118  0.7767 -0.0665 -0.0367
14853SOL    HW246877   4.688   7.437   0.146  0.7762 -0.0927 -0.1709
14854SOL     OW46878   0.530   0.993   0.518  0.3885 -0.1556 -0.1390
14854SOL    HW146879   0.515   0.920   0.459 -2.1070  0.3527 -0.2289
14854SOL    HW246880   0.453   1.048   0.509  2.5291  3.0494 -0.7992
14855SOL     OW46881   8.624  10.397  10.505  0.4510 -0.6704  0.1602
14855SOL    HW146882   8.603  10.308  10.533 -0.7963  0.5768  3.9292
14855SOL    HW246883   8.539  10.441  10.501  1.1950  1.0581  1.6455
14856SOL     OW46884   4.783   5.667   5.685 -0.4202  0.4645  0.5064
14856SOL    HW146885   4.836   5.740   5.716  0.0747 -0.0418  0.8678
14856SOL    HW246886   4.718   5.707   5.627  0.2904  1.1050  0.1411
14857SOL     OW46887   1.318   5.309   8.934  0.6041 -0.4772 -0.1059
14857SOL    HW146888   1.362   5.263   9.006 -0.9147 -1.3339  0.3484
14857SOL    HW246889   1.388   5.336   8.876  1.7009 -2.1988  0.3202
14858SOL     OW46890   2.154   8.238   5.590 -0.1325  0.1639  0.0462
14858SOL    HW146891   2.229   8.182   5.568  0.4136  0.2710  1.5129
14858SOL    HW246892   2.166   8.258   5.683 -0.6993  2.1251 -0.2531
14859SOL     OW46893   2.213   9.669  10.482  0.6633 -0.4408 -0.4365
14859SOL    HW146894   2.205   9.575  10.495  2.3261 -0.2914  2.9747
14859SOL    HW246895   2.291   9.693  10.532 -0.8730  3.0281  0.6245
14860SOL     OW46896   8.689   3.340   0.508  0.1837  0.1050  0.2130
14860SOL    HW146897   8.711   3.319   0.418  1.0268 -1.8214  0.8186
14860SOL    HW246898   8.756   3.296   0.560 -2.1250 -1.6397  1.9250
14861SOL     OW46899   8.101   2.859   4.717 -0.3502  0.0630 -0.6796
14861SOL    HW146900   8.089   2.764   4.720 -2.3296  0.2805 -0.2872
14861SOL    HW246901   8.017   2.893   4.686 -0.4061  1.7913  1.1237
14862SOL     OW46902   5.637   6.618   7.428  0.2735 -0.7688 -0.2809
14862SOL    HW146903   5.621   6.561   7.352 -0.0643 -0.8313 -0.1643
14862SOL    HW246904   5.717   6.665   7.406  0.7180 -1.4949 -0.2595
14863SOL     OW46905   4.359   7.943   3.366  0.2705  0.0571  0.1005
14863SOL    HW146906   4.271   7.926   3.333 -0.1307 -1.8033  1.9252
14863SOL    HW246907   4.375   7.873   3.429  2.9177  0.5849  0.1201
14864SOL     OW46908   5.693   7.770   4.095  0.0049  0.2047 -1.0159
14864SOL    HW146909   5.668   7.801   4.182  1.8686  0.0800 -0.4070
14864SOL    HW246910   5.708   7.850   4.045 -1.5853  0.2890 -1.4392
14865SOL     OW46911   4.047   9.712   8.523  0.1915  0.1761  0.2469
14865SOL    HW146912   4.006   9.765   8.591 -1.8249 -0.8323 -0.0977
14865SOL    HW246913   4.140   9.711   8.545  0.1269  2.8088  0.9287
14866SOL     OW46914   4.756   5.007   9.153  0.2427 -0.0529 -0.1517
14866SOL    HW146915   4.806   4.929   9.179  1.9803  0.4371 -1.7644
14866SOL    HW246916   4.750   5.059   9.233 -0.9004 -1.7622  0.9436
14867SOL     OW46917   2.083   4.780   8.346 -0.4706 -0.1854 -0.1532
14867SOL    HW146918   2.029   4.818   8.276  0.7030  2.3492  0.2239
14867SOL    HW246919   2.163   4.752   8.302  0.0623  0.9498  0.0742
14868SOL     OW46920   9.571  10.199   3.431 -0.0885  0.5466  0.0516
14868SOL    HW146921   9.619  10.190   3.349  1.1479  1.3705  0.6579
14868SOL    HW246922   9.544  10.109   3.452 -0.1242  0.2826 -1.0737
14869SOL     OW46923   0.017   1.672   5.431  0.0597  0.2689  0.0371
14869SOL    HW146924  -0.027   1.608   5.488  0.1534  0.5292  0.4096
14869SOL    HW246925  -0.054   1.727   5.398  0.1551  1.1455  1.2164
14870SOL     OW46926   0.580   4.939   7.887  0.2823 -0.1036 -0.2440
14870SOL    HW146927   0.617   4.990   7.959  1.2835 -0.5530 -0.4318
14870SOL    HW246928   0.548   5.005   7.825  0.9356  0.2973 -0.1633
14871SOL     OW46929   0.282   9.872   0.041  0.0521  0.0516 -0.0264
14871SOL    HW146930   0.280   9.818  -0.038  0.1106  0.4575 -0.3082
14871SOL    HW246931   0.315   9.813   0.109  0.4404 -0.1794 -0.4042
14872SOL     OW46932   2.095   6.929   5.998  0.1430 -0.2246 -0.0886
14872SOL    HW146933   2.059   7.008   6.038 -0.4773 -0.2825 -0.5048
14872SOL    HW246934   2.189   6.946   5.991 -0.0149  0.5743 -0.3841
14873SOL     OW46935  10.030   5.611   1.433  0.1034  1.0666  0.1463
14873SOL    HW146936   9.978   5.662   1.371 -3.1264 -2.0528 -0.0548
14873SOL    HW246937   9.974   5.603   1.510 -0.3873 -3.2480 -0.4078
14874SOL     OW46938   5.401   3.439   4.712  0.4990 -0.2126 -0.1231
14874SOL    HW146939   5.379   3.365   4.768  1.8553 -0.8783 -0.4161
14874SOL    HW246940   5.375   3.516   4.762  1.0795 -0.8193  1.1551
14875SOL     OW46941   6.984   0.781  10.158  0.1692  0.2176 -0.3984
14875SOL    HW146942   6.913   0.734  10.115 -0.1429 -0.3586  0.6981
14875SOL    HW246943   7.064   0.738  10.127  0.1047  1.2321 -2.0751
14876SOL     OW46944   2.549  10.018   5.210  0.6603 -0.8852  0.4334
14876SOL    HW146945   2.487  10.039   5.140  0.3227  0.8149  1.2045
14876SOL    HW246946   2.512   9.940   5.252  1.2710 -2.4219 -1.6925
14877SOL     OW46947   6.932   6.506   5.290  0.1241  0.1062 -0.0883
14877SOL    HW146948   6.957   6.507   5.197  0.1275 -0.9358 -0.1038
14877SOL    HW246949   6.994   6.445   5.330 -0.4299 -0.1088  0.4420
14878SOL     OW46950   1.047   3.991   1.763 -0.2314  0.1714 -0.2233
14878SOL    HW146951   0.990   3.932   1.813  1.2422 -0.8424  0.3260
14878SOL    HW246952   0.987   4.054   1.724 -1.5901  0.0815  1.5942
14879SOL     OW46953   8.420   8.837   2.239  0.5543 -0.0100 -0.2279
14879SOL    HW146954   8.333   8.875   2.234  1.0156  0.9961 -0.9237
14879SOL    HW246955   8.406   8.749   2.273 -0.5183  0.8423  1.6579
14880SOL     OW46956   0.296   4.227   0.688  0.1296  0.1354 -0.0851
14880SOL    HW146957   0.228   4.272   0.738  0.8954  1.2664 -0.0190
14880SOL    HW246958   0.253   4.199   0.608 -1.2899 -2.2407  1.3963
14881SOL     OW46959   2.604   9.726   1.271 -0.2425  0.2536 -0.1481
14881SOL    HW146960   2.573   9.796   1.328  0.3222  0.4173 -0.0297
14881SOL    HW246961   2.531   9.665   1.266 -0.5420  0.5761  0.1978
14882SOL     OW46962   8.719   0.948   5.926  0.3833  0.1501  0.3047
14882SOL    HW146963   8.770   1.026   5.948  0.6055  0.2258 -0.4307
14882SOL    HW246964   8.737   0.933   5.833 -1.1019  0.3024 -0.0356
14883SOL     OW46965   7.358   2.593   2.877  0.1671 -0.5120 -0.5643
14883SOL    HW146966   7.325   2.560   2.794  2.0589 -0.6326 -1.3262
14883SOL    HW246967   7.314   2.541   2.944 -2.9594  0.9564 -1.3035
14884SOL     OW46968   5.206   7.047   6.904 -0.4985 -0.0025  0.0334
14884SOL    HW146969   5.132   7.039   6.965 -0.3984  0.7223  0.2574
14884SOL    HW246970   5.176   7.004   6.824 -0.9004 -0.3257  0.3520
14885SOL     OW46971   0.494   6.364  10.280  0.1784 -0.1623 -0.0289
14885SOL    HW146972   0.495   6.308  10.358  1.0428  1.8966  1.5419
14885SOL    HW246973   0.567   6.332  10.227 -0.4962 -1.6776 -0.1035
14886SOL     OW46974   3.671   9.098   0.910 -0.6770 -0.6223 -0.1534
14886SOL    HW146975   3.588   9.055   0.885 -1.1256  0.7225 -1.0792
14886SOL    HW246976   3.706   9.132   0.827 -0.9743  1.8594  0.6653
14887SOL     OW46977   8.028   2.223   2.812  0.5284 -0.2285  0.0805
14887SOL    HW146978   7.974   2.143   2.815 -0.1110  0.1586 -0.6044
14887SOL    HW246979   8.034   2.251   2.903  0.3935 -0.8198  0.2815
14888SOL     OW46980   0.358   3.013   0.206  0.2499  0.3974  0.3169
14888SOL    HW146981   0.297   3.087   0.207 -0.3634 -0.0453 -1.1317
14888SOL    HW246982   0.311   2.941   0.247  1.3407  1.1000  3.0046
14889SOL     OW46983   1.447   1.801   2.820  0.2857  0.2655  0.2388
14889SOL    HW146984   1.392   1.820   2.896  1.9803  0.3585  1.4966
14889SOL    HW246985   1.522   1.859   2.829  1.1103 -0.5788 -0.8469
14890SOL     OW46986   7.657  10.377   6.371  0.6230  0.3096 -0.6202
14890SOL    HW146987   7.681  10.467   6.345 -0.3126  0.5057 -0.8372
14890SOL    HW246988   7.735  10.325   6.351  1.2723  1.1162 -0.2473
14891SOL     OW46989   6.023   9.725   2.836 -0.4472  0.6565 -0.1178
14891SOL    HW146990   6.055   9.640   2.804  0.5110  0.9930 -0.0753
14891SOL    HW246991   5.980   9.764   2.760  0.7565  0.9286 -0.6822
14892SOL     OW46992   1.833   8.161   0.614  0.3068  0.6237  0.1302
14892SOL    HW146993   1.927   8.152   0.633  0.4032  0.5348 -0.3671
14892SOL    HW246994   1.790   8.107   0.680  0.5310  1.6402  1.1380
14893SOL     OW46995   9.452   0.286   3.750  0.0902  0.1344 -0.2300
14893SOL    HW146996   9.516   0.245   3.809  1.7153  0.0947 -1.9281
14893SOL    HW246997   9.467   0.380   3.761  1.7435  0.1185 -1.8909
14894SOL     OW46998   8.104   3.156  10.434 -0.4432 -0.0134  0.1072
14894SOL    HW146999   8.073   3.110  10.512 -2.6498  0.5197 -0.3734
14894SOL    HW247000   8.157   3.228  10.468 -0.2161 -0.6075  1.0497
14895SOL     OW47001   0.115   8.468   1.974 -0.1615 -0.0746 -0.3702
14895SOL    HW147002   0.112   8.556   2.010  0.2472 -0.5545  0.8811
14895SOL    HW247003   0.194   8.429   2.011 -0.1681 -0.8664 -1.1567
14896SOL     OW47004   6.447   5.436   2.210  0.9711 -0.7130  0.3073
14896SOL    HW147005   6.508   5.377   2.166  1.9411  0.4700  0.0388
14896SOL    HW247006   6.383   5.458   2.142  0.5589 -1.4911  0.4283
14897SOL     OW47007   8.276   9.201   4.092  0.3685 -0.2155 -0.0356
14897SOL    HW147008   8.320   9.131   4.044  0.9749 -1.5585  2.3161
14897SOL    HW247009   8.224   9.156   4.158  1.4560  1.5085  2.1307
14898SOL     OW47010   5.765   1.371   9.077  0.6868 -0.5078  0.0657
14898SOL    HW147011   5.800   1.322   9.003  1.0686 -0.6273  0.3198
14898SOL    HW247012   5.837   1.372   9.141  0.4532 -0.1836  0.3257
14899SOL     OW47013   3.473   4.577   2.298 -0.3282  0.5935  0.0870
14899SOL    HW147014   3.396   4.628   2.323 -0.3180 -0.1533  1.7629
14899SOL    HW247015   3.528   4.640   2.251 -1.8357  1.1897 -0.9833
14900SOL     OW47016   3.986  10.217   2.197 -0.4877  1.0581  0.0321
14900SOL    HW147017   3.976  10.204   2.291 -0.2552  1.1775  0.0763
14900SOL    HW247018   4.026  10.136   2.165 -1.7878  0.4796 -0.1872
14901SOL     OW47019   0.594   7.647   8.014  0.0509  0.3881  0.3643
14901SOL    HW147020   0.685   7.620   8.026 -0.3951 -1.8911 -0.8039
14901SOL    HW247021   0.598   7.716   7.948  1.0778  1.9200  1.9577
14902SOL     OW47022   5.539   6.305   4.133  0.5955 -0.3641  0.0321
14902SOL    HW147023   5.446   6.324   4.121  0.6585  0.6367  0.9450
14902SOL    HW247024   5.583   6.389   4.117  1.0850 -0.1453  2.2147
14903SOL     OW47025   2.177   2.441   9.914  0.2492 -0.5345  0.8764
14903SOL    HW147026   2.175   2.421  10.008 -1.7020  0.8602  1.1919
14903SOL    HW247027   2.121   2.518   9.905  0.6214 -0.4737 -1.4203
14904SOL     OW47028   3.763   8.583  10.052  0.0740 -0.0554  0.4815
14904SOL    HW147029   3.724   8.670  10.037  1.2100  0.4675  0.4580
14904SOL    HW247030   3.692   8.532  10.091 -0.5950  0.9150  0.5850
14905SOL     OW47031   2.624   9.178   9.064  0.0101 -0.6287 -0.0233
14905SOL    HW147032   2.546   9.138   9.102 -0.4219 -0.1472 -0.3817
14905SOL    HW247033   2.590   9.238   8.997  0.6662 -0.0753  0.1288
14906SOL     OW47034   4.353   1.875   6.655  0.2414  0.2555  0.3464
14906SOL    HW147035   4.432   1.927   6.670 -0.0962  0.9026 -0.0731
14906SOL    HW247036   4.281   1.938   6.660 -0.3710 -0.4969  1.8350
14907SOL     OW47037   2.601  10.307   0.697 -0.1652  0.2607  0.2104
14907SOL    HW147038   2.560  10.352   0.623 -0.6843  0.8921  0.8640
14907SOL    HW247039   2.528  10.286   0.756  0.0863 -1.2947  0.0102
14908SOL     OW47040   3.945   0.930   3.435 -0.5624 -0.2880  0.8826
14908SOL    HW147041   3.862   0.922   3.388 -1.0588  0.2314  1.6416
14908SOL    HW247042   3.971   0.840   3.453 -1.2463 -0.4486  1.1027
14909SOL     OW47043   4.358   7.722   5.732 -0.5797  0.2934  0.3528
14909SOL    HW147044   4.374   7.786   5.802  1.6753  0.8397 -0.5576
14909SOL    HW247045   4.444   7.684   5.714 -0.9067  0.6600 -2.5549
14910SOL     OW47046   6.320   4.207  10.331  0.0801 -0.6214  0.0233
14910SOL    HW147047   6.297   4.115  10.314 -1.5755 -0.2331  0.0350
14910SOL    HW247048   6.296   4.252  10.250  0.7069 -0.1524  0.0946
14911SOL     OW47049   0.447   6.405   0.707  0.0831 -0.0297  0.0273
14911SOL    HW147050   0.415   6.430   0.620  0.7132 -0.9276 -0.4927
14911SOL    HW247051   0.527   6.456   0.719 -0.5349  0.8414  0.5273
14912SOL     OW47052   7.777   1.393   2.241 -0.3261 -0.1957 -0.6846
14912SOL    HW147053   7.760   1.301   2.262  0.8142 -0.7334 -1.9559
14912SOL    HW247054   7.830   1.424   2.314  0.6615 -1.0402 -1.0072
14913SOL     OW47055   7.678  10.496   5.427 -0.5724 -0.0902 -0.3496
14913SOL    HW147056   7.767  10.524   5.449 -0.4945  1.1687 -2.0841
14913SOL    HW247057   7.621  10.558   5.472 -0.6596 -1.2520  1.2560
14914SOL     OW47058   3.015   7.382   3.441 -0.5411 -0.5048 -0.4743
14914SOL    HW147059   2.921   7.393   3.454 -0.0889  0.1557  3.0905
14914SOL    HW247060   3.043   7.462   3.397 -1.3518  0.2137  0.2970
14915SOL     OW47061  10.575   3.366   0.472 -0.4731  0.0376 -0.1289
14915SOL    HW147062  10.543   3.449   0.509  1.1718  0.3808  0.6233
14915SOL    HW247063  10.574   3.305   0.546  1.4875  0.3357  0.1871
14916SOL     OW47064   1.775   9.084   1.326  0.5156 -0.0535  0.4556
14916SOL    HW147065   1.796   9.010   1.268  1.2127  1.3056 -1.1157
14916SOL    HW247066   1.767   9.045   1.412  1.7334 -1.8659 -0.1830
14917SOL     OW47067   0.164   5.378   4.696  0.1348 -0.2447  0.3910
14917SOL    HW147068   0.155   5.285   4.718  0.4862 -0.1466  0.9775
14917SOL    HW247069   0.258   5.394   4.699  0.2247 -0.2725 -1.4614
14918SOL     OW47070   7.638   4.006   6.421  0.5308 -0.2319  0.3310
14918SOL    HW147071   7.546   3.989   6.401  0.6832 -1.6644  0.7436
14918SOL    HW247072   7.671   4.054   6.345 -0.8595  1.4465  0.7449
14919SOL     OW47073   9.511   7.457   3.746 -0.6219  0.3489 -0.1535
14919SOL    HW147074   9.596   7.422   3.770 -1.0511 -0.6538 -0.0563
14919SOL    HW247075   9.526   7.551   3.734  0.0740  0.5432  1.8508
14920SOL     OW47076   2.270   8.177   4.920 -0.3647  0.0584 -0.4204
14920SOL    HW147077   2.270   8.162   5.015  2.3039  0.6704 -0.2319
14920SOL    HW247078   2.274   8.089   4.882  0.2395 -0.1476  0.1016
14921SOL     OW47079   9.150   2.877   8.073  0.3438  0.0738 -0.2617
14921SOL    HW147080   9.121   2.946   8.133 -0.0191 -2.2371  2.3784
14921SOL    HW247081   9.239   2.903   8.049  1.0965  0.3626  2.5197
14922SOL     OW47082   1.490   0.216   6.271  0.5208 -0.5614  0.3640
14922SOL    HW147083   1.569   0.222   6.218  1.2132 -1.0813  1.3263
14922SOL    HW247084   1.419   0.240   6.210  1.4892  0.8571 -0.2544
14923SOL     OW47085  10.347   9.569   2.736  0.5804  0.3972 -0.0112
14923SOL    HW147086  10.280   9.548   2.802 -0.9070  0.7245 -1.3451
14923SOL    HW247087  10.326   9.510   2.663  2.7219 -0.5709  0.0925
14924SOL     OW47088   0.417   2.611   3.015 -0.5496 -0.2790 -0.4707
14924SOL    HW147089   0.374   2.655   3.088 -0.4472 -1.0732  0.0808
14924SOL    HW247090   0.506   2.596   3.045 -0.6087 -0.9396 -0.6058
14925SOL     OW47091   8.323   1.578   1.159  0.3865 -0.3030  0.1019
14925SOL    HW147092   8.282   1.569   1.073 -0.4787  0.9051  0.3662
14925SOL    HW247093   8.338   1.672   1.168  1.5279 -0.5445  0.8012
14926SOL     OW47094   1.055   2.014   7.796  0.5770  0.6920 -0.2020
14926SOL    HW147095   1.105   2.025   7.715  0.4154 -0.2035 -0.4306
14926SOL    HW247096   0.984   1.954   7.773  0.2403  0.8161  0.4830
14927SOL     OW47097   5.848   9.179   7.307  0.1283  1.0344 -0.5429
14927SOL    HW147098   5.897   9.241   7.252 -1.0955  0.7240 -2.0635
14927SOL    HW247099   5.791   9.133   7.245 -0.1997 -0.4403  0.7982
14928SOL     OW47100   0.064   7.234   8.928 -0.0023 -0.0461 -0.4474
14928SOL    HW147101   0.053   7.321   8.966  1.7951 -0.5583  1.3971
14928SOL    HW247102   0.154   7.233   8.896 -0.2988 -0.9337 -1.3238
14929SOL     OW47103   8.520   2.173   8.647 -0.3906  0.2083  0.1749
14929SOL    HW147104   8.446   2.148   8.704  0.7085 -1.0964  1.0959
14929SOL    HW247105   8.535   2.265   8.666 -0.9601  0.1537  0.9425
14930SOL     OW47106   7.448   9.499   7.949 -0.4368  0.1649  0.5753
14930SOL    HW147107   7.371   9.445   7.933 -0.6056  0.2375  1.1197
14930SOL    HW247108   7.437   9.574   7.891 -0.8044  0.2001  0.6852
14931SOL     OW47109   4.716   9.167   8.207  0.0017  0.0679  0.0075
14931SOL    HW147110   4.766   9.087   8.218 -1.1334 -0.4659  1.7084
14931SOL    HW247111   4.628   9.138   8.185  0.1288  0.9530 -1.8886
14932SOL     OW47112   5.926   3.803   5.567  0.0618  0.0862  0.1900
14932SOL    HW147113   5.937   3.898   5.567  0.6845  0.0185  0.7602
14932SOL    HW247114   5.850   3.787   5.623 -0.2504  0.2644 -0.1782
14933SOL     OW47115   7.223   1.245   0.871  0.3754 -0.5734 -0.5629
14933SOL    HW147116   7.134   1.224   0.841 -0.0858 -0.0261  0.3714
14933SOL    HW247117   7.215   1.248   0.966  1.5847 -1.3119 -0.4210
14934SOL     OW47118   3.842   6.188   0.183  0.2238 -0.3844 -0.0422
14934SOL    HW147119   3.780   6.120   0.157 -0.3831  0.6695 -1.4851
14934SOL    HW247120   3.787   6.260   0.214  0.8811 -1.1859  3.4813
14935SOL     OW47121   3.422   7.812   1.074  0.0505  0.0178 -0.3708
14935SOL    HW147122   3.390   7.866   1.146  0.5762 -0.3718  0.1519
14935SOL    HW247123   3.477   7.871   1.022  1.0997 -0.1565  0.5211
14936SOL     OW47124   4.809   2.366   7.438  0.3114 -0.3217 -0.1923
14936SOL    HW147125   4.737   2.321   7.394 -0.9496  0.0429  1.4092
14936SOL    HW247126   4.837   2.434   7.377 -1.2175  0.0133 -0.5399
14937SOL     OW47127   8.081   1.921   0.329  0.1650  0.4471 -0.1270
14937SOL    HW147128   8.050   1.998   0.281 -1.2543  0.8251  1.2862
14937SOL    HW247129   8.132   1.956   0.402 -0.6054  0.0865  0.6075
14938SOL     OW47130   1.736  10.326   4.095 -0.5728 -0.2305 -0.6739
14938SOL    HW147131   1.736  10.273   4.174 -0.1790 -0.7908 -1.0444
14938SOL    HW247132   1.658  10.381   4.103  0.6274  1.3298  1.1611
14939SOL     OW47133   2.073   6.440   0.421 -0.1543 -0.3238  0.1125
14939SOL    HW147134   2.097   6.438   0.514  1.8563 -0.1883 -0.3625
14939SOL    HW247135   2.075   6.349   0.394 -3.1986 -0.6794  0.7054
14940SOL     OW47136   8.787   1.888   9.349  0.2639  0.4867 -0.2326
14940SOL    HW147137   8.718   1.841   9.395 -0.4128  0.9635 -0.7377
14940SOL    HW247138   8.766   1.877   9.256  1.4943 -0.3033 -0.4375
14941SOL     OW47139   9.091   0.400   5.400 -0.2814  0.4864  0.0708
14941SOL    HW147140   9.020   0.457   5.430 -0.3910  0.7559 -0.6767
14941SOL    HW247141   9.159   0.461   5.371 -0.5636  0.2709 -1.1364
14942SOL     OW47142   4.391   1.792   2.869  0.4916  0.1583  0.0665
14942SOL    HW147143   4.467   1.851   2.874  1.6648 -1.2856 -0.1907
14942SOL    HW247144   4.425   1.713   2.828 -0.1537 -2.1065  3.5398
14943SOL     OW47145   9.012   4.230   8.358 -0.8585 -0.5815 -0.0073
14943SOL    HW147146   9.079   4.189   8.302  0.7552  1.9730 -0.0964
14943SOL    HW247147   8.940   4.167   8.358  0.3921 -2.1854 -2.2646
14944SOL     OW47148   5.553   5.766  10.373 -0.2680 -0.2004 -0.1087
14944SOL    HW147149   5.616   5.737  10.438  0.7691  0.3282 -0.8571
14944SOL    HW247150   5.468   5.762  10.419  0.4742  0.5893  1.4174
14945SOL     OW47151   1.254   1.996   5.153 -0.0460 -0.1268 -0.4434
14945SOL    HW147152   1.240   1.906   5.124  0.9558  0.1447 -1.8894
14945SOL    HW247153   1.338   1.994   5.199  0.7896  0.3462 -1.9087
14946SOL     OW47154   4.833   5.972   7.214  0.5831  0.9394 -0.4615
14946SOL    HW147155   4.801   6.060   7.195  1.4283  1.1675 -0.8565
14946SOL    HW247156   4.831   5.927   7.130 -1.3244  0.0702  0.0026
14947SOL     OW47157   4.553   8.975   9.739 -0.6616 -0.3268 -0.2052
14947SOL    HW147158   4.476   8.924   9.765 -1.1249 -0.5877 -1.9799
14947SOL    HW247159   4.599   8.919   9.677  1.2363 -0.3533  1.1413
14948SOL     OW47160   2.561   7.697   6.329  0.1007  0.0332  0.1849
14948SOL    HW147161   2.481   7.720   6.376  0.8711  1.4474  0.8679
14948SOL    HW247162   2.623   7.672   6.398  0.4217 -0.5178 -0.2934
14949SOL     OW47163   8.084   8.081   7.875 -0.2236 -0.6945 -0.3120
14949SOL    HW147164   8.139   8.020   7.924  0.4267  0.4042  0.3972
14949SOL    HW247165   8.140   8.158   7.863 -1.8690  0.8692  1.2953
14950SOL     OW47166   1.121   1.926  10.303  0.8052 -0.0920  0.0906
14950SOL    HW147167   1.131   1.876  10.384  0.8698  1.5165  1.1367
14950SOL    HW247168   1.204   1.913  10.257  0.5929 -1.4005  0.0444
14951SOL     OW47169   2.665   5.267   3.230 -0.1625 -0.4673 -0.2414
14951SOL    HW147170   2.616   5.325   3.171 -1.1569 -0.7998  0.2425
14951SOL    HW247171   2.606   5.251   3.303  1.1435  0.1349  0.9999
14952SOL     OW47172   5.530   0.471   6.105  0.4832 -0.5591 -0.1597
14952SOL    HW147173   5.437   0.450   6.102  0.4500 -0.5605  0.6969
14952SOL    HW247174   5.554   0.488   6.013 -0.2504 -0.9945 -0.4379
14953SOL     OW47175   5.419   0.008   1.940 -0.1832 -0.4784  0.1120
14953SOL    HW147176   5.473  -0.027   1.869  0.1973  1.2364 -0.5138
14953SOL    HW247177   5.329  -0.012   1.914 -0.1614  1.3368 -1.6521
14954SOL     OW47178   5.123   9.705   8.843 -0.4130  0.5469 -0.4971
14954SOL    HW147179   5.150   9.686   8.753  0.6177  0.5679 -0.2126
14954SOL    HW247180   5.104   9.620   8.882 -3.2966  0.6665 -1.4092
14955SOL     OW47181   4.837   4.051   8.476 -0.3363  0.2464  0.5059
14955SOL    HW147182   4.811   4.124   8.533  0.6910  1.1704 -0.1573
14955SOL    HW247183   4.890   3.994   8.531  0.5019  1.0409  0.5460
14956SOL     OW47184   5.890   1.944   0.821 -0.1637  0.0568 -0.2193
14956SOL    HW147185   5.863   1.857   0.847  0.7735 -0.4960 -1.0082
14956SOL    HW247186   5.882   1.945   0.725  1.9167  0.0461 -0.4473
14957SOL     OW47187   7.128   2.146   3.681 -0.4142 -0.3502  0.3203
14957SOL    HW147188   7.108   2.240   3.680  2.1389  0.2540  0.3212
14957SOL    HW247189   7.076   2.110   3.609 -2.2248  0.8503  0.9557
14958SOL     OW47190   3.001   3.198   6.260  0.3497  0.1951 -0.6050
14958SOL    HW147191   3.065   3.135   6.226  2.0020  1.3452  0.2583
14958SOL    HW247192   3.021   3.279   6.214  1.0528  1.1608  1.3084
14959SOL     OW47193   1.265   4.026   0.812  0.0777 -0.1409 -0.3567
14959SOL    HW147194   1.212   3.948   0.826 -0.0818 -0.1058 -0.7649
14959SOL    HW247195   1.250   4.050   0.720 -0.7173  0.9747  0.0296
14960SOL     OW47196   0.564   0.263  10.275 -0.5087 -0.7060  0.0636
14960SOL    HW147197   0.472   0.281  10.257 -0.5239  2.3987  2.3379
14960SOL    HW247198   0.563   0.190  10.337 -1.6677  0.5309  1.5877
14961SOL     OW47199   8.954   5.031   6.654  0.5277 -0.3633 -0.3851
14961SOL    HW147200   8.975   4.939   6.670 -1.9167 -1.6989 -3.7183
14961SOL    HW247201   9.013   5.057   6.584  0.1614  0.1290 -0.5156
14962SOL     OW47202   8.043   7.535   1.375  0.3272 -0.0377  0.1950
14962SOL    HW147203   8.095   7.480   1.315 -0.1517 -0.2969  0.0090
14962SOL    HW247204   8.024   7.477   1.449  2.2529  0.7431  1.3801
14963SOL     OW47205   4.098   0.996   8.052  0.0072  0.5124  0.0703
14963SOL    HW147206   4.043   0.921   8.074 -1.3053  1.4388  0.0546
14963SOL    HW247207   4.142   1.019   8.134  0.0309  0.0352  0.1905
14964SOL     OW47208   8.664   3.691   5.137 -0.6266  0.1935  0.1502
14964SOL    HW147209   8.723   3.762   5.112 -0.8718  0.1036 -0.6947
14964SOL    HW247210   8.626   3.661   5.055  0.7453 -2.0818  0.2736
14965SOL     OW47211   1.469   9.381   5.251  0.0626 -0.1482  0.5927
14965SOL    HW147212   1.472   9.460   5.306  0.9978  0.5610 -0.4193
14965SOL    HW247213   1.559   9.370   5.221 -0.3270 -0.8390 -0.3509
14966SOL     OW47214   9.040   0.671   9.305 -0.5215 -0.4600 -0.0798
14966SOL    HW147215   8.983   0.601   9.338 -0.0330 -0.5419  0.6174
14966SOL    HW247216   9.035   0.738   9.373 -1.0227  0.2148 -0.7639
14967SOL     OW47217   3.538   5.653   3.173 -0.0964  0.3787  0.1550
14967SOL    HW147218   3.622   5.611   3.194  0.0391  0.7728  0.4288
14967SOL    HW247219   3.483   5.582   3.141  0.5191  0.2089 -0.5701
14968SOL     OW47220   7.755   0.094   7.596  1.0465 -0.1783  0.0615
14968SOL    HW147221   7.713   0.166   7.643 -0.8483 -0.7763 -0.6051
14968SOL    HW247222   7.806   0.137   7.527 -1.2252  0.5767 -1.2769
14969SOL     OW47223   2.137   4.568   9.354 -0.2359  0.2521  0.2032
14969SOL    HW147224   2.146   4.475   9.333 -0.3449  0.6030 -1.5899
14969SOL    HW247225   2.172   4.614   9.276  1.5895  1.7493  1.7802
14970SOL     OW47226   6.374   4.637  10.359  0.0019  0.4145  0.5495
14970SOL    HW147227   6.387   4.728  10.385 -0.2539  0.5570  0.1756
14970SOL    HW247228   6.322   4.641  10.279  0.9037 -0.0199 -0.0686
14971SOL     OW47229   0.308   5.628   8.604  0.0926  0.2286 -0.3097
14971SOL    HW147230   0.222   5.669   8.605 -0.1122 -0.1510 -1.2298
14971SOL    HW247231   0.358   5.677   8.538  1.5515  2.2957  2.1523
14972SOL     OW47232   4.581  10.526   9.974 -0.1256  0.8257 -0.2337
14972SOL    HW147233   4.579  10.455   9.910  2.0738  0.6010 -0.1373
14972SOL    HW247234   4.672  10.556   9.973 -0.0193  0.8915  2.6630
14973SOL     OW47235   7.517   0.203   5.246 -0.2793  0.1005 -0.3253
14973SOL    HW147236   7.476   0.182   5.330 -0.6460  0.6407 -0.3658
14973SOL    HW247237   7.566   0.124   5.223  3.1611  1.1635  2.3481
14974SOL     OW47238   3.764   2.369   2.892  0.4752  0.4317  0.1196
14974SOL    HW147239   3.713   2.449   2.900  0.7481  0.5425  0.8361
14974SOL    HW247240   3.698   2.300   2.879  0.1468  0.6047  0.8092
14975SOL     OW47241   6.982   3.324  10.318 -0.2078 -0.0481 -0.3066
14975SOL    HW147242   6.941   3.311  10.233 -1.4588  0.5638  0.1721
14975SOL    HW247243   6.931   3.395  10.358  1.7573  1.2178  0.0605
14976SOL     OW47244   9.763   1.755   9.753  0.3172 -0.4428 -0.0546
14976SOL    HW147245   9.757   1.659   9.750 -0.3016 -0.3995 -1.6757
14976SOL    HW247246   9.853   1.773   9.781  0.6247 -1.5113 -0.3076
14977SOL     OW47247   2.083   8.940  10.231 -0.1647 -0.1688  0.3380
14977SOL    HW147248   2.015   8.952  10.165 -0.6038  0.6087  0.9118
14977SOL    HW247249   2.066   8.853  10.268 -0.3593 -0.3063 -0.0745
14978SOL     OW47250   8.796   0.368   0.128 -0.3199  0.1368  0.2520
14978SOL    HW147251   8.883   0.408   0.131 -0.9315  1.8356 -1.7263
14978SOL    HW247252   8.749   0.406   0.202  0.3302 -0.0590  0.7708
14979SOL     OW47253   4.211   8.481   5.049  0.1750  0.4294 -0.2944
14979SOL    HW147254   4.248   8.412   4.995  2.7219  1.5550 -0.1242
14979SOL    HW247255   4.176   8.545   4.986 -1.8081 -0.7127 -0.4509
14980SOL     OW47256   1.885   7.884   8.658 -0.1000 -0.5870  0.3028
14980SOL    HW147257   1.929   7.819   8.604 -0.7973 -1.3702  0.6569
14980SOL    HW247258   1.896   7.853   8.748 -2.1710 -1.3558  0.3517
14981SOL     OW47259  10.164   9.386   2.947  0.0522 -0.6813  0.4361
14981SOL    HW147260  10.103   9.370   3.019 -0.0629 -0.9207  0.2891
14981SOL    HW247261  10.108   9.414   2.874  0.3166  1.1151  0.8849
14982SOL     OW47262   5.102   0.792   9.991 -0.4626  0.0965  0.0077
14982SOL    HW147263   5.143   0.867  10.034  0.7413 -0.6895  0.2843
14982SOL    HW247264   5.137   0.715  10.037 -2.0370 -0.6440  0.0517
14983SOL     OW47265   3.643   6.689   3.640  0.0987  0.6837  0.0765
14983SOL    HW147266   3.595   6.757   3.593 -0.4223  1.3769  1.5595
14983SOL    HW247267   3.685   6.735   3.713  1.8519 -0.1588 -0.3276
14984SOL     OW47268   2.322   7.253   1.496  0.1148 -0.0033 -0.5351
14984SOL    HW147269   2.291   7.174   1.540  1.3380  1.1705  2.7699
14984SOL    HW247270   2.256   7.271   1.430 -1.6108 -2.2756  0.4263
14985SOL     OW47271   2.893   8.912   6.932  0.6322 -0.5562  0.0437
14985SOL    HW147272   2.916   8.860   7.009  0.9323  0.7705  0.8780
14985SOL    HW247273   2.821   8.968   6.962  0.0134 -0.8017 -0.9607
14986SOL     OW47274   3.575   9.930   9.294 -0.0171 -0.5436 -0.4670
14986SOL    HW147275   3.540   9.846   9.266 -0.6820 -1.1139  1.8479
14986SOL    HW247276   3.501   9.973   9.338  1.3328 -0.5697  2.0214
14987SOL     OW47277   4.066   8.969   5.145  0.1745  0.1413  0.5864
14987SOL    HW147278   4.000   9.038   5.156 -2.4131 -1.9225 -0.9353
14987SOL    HW247279   4.145   9.015   5.115 -1.5494  2.4232 -0.7340
14988SOL     OW47280   3.294   6.998   7.600  0.0779 -0.1952  0.3038
14988SOL    HW147281   3.347   7.074   7.578 -0.1710  0.5310  2.0295
14988SOL    HW247282   3.353   6.923   7.590  0.4560  0.2503 -0.9550
14989SOL     OW47283   8.197   7.583   4.302  0.8083 -0.3972 -0.2371
14989SOL    HW147284   8.151   7.580   4.218  1.5006  0.6702 -0.6700
14989SOL    HW247285   8.222   7.675   4.313 -0.3615 -0.2425  1.7402
14990SOL     OW47286   5.267   1.772   7.797 -0.5406  0.1651 -0.0938
14990SOL    HW147287   5.336   1.727   7.747  0.0815  0.4056  0.5253
14990SOL    HW247288   5.188   1.760   7.745  0.1634  0.7640 -1.3357
14991SOL     OW47289   1.352  10.203   8.527  0.2060 -0.2336  0.3603
14991SOL    HW147290   1.298  10.126   8.546 -0.0833 -0.2910 -0.6649
14991SOL    HW247291   1.311  10.243   8.451  0.3696  0.9305  0.8754
14992SOL     OW47292   0.648   7.910   5.047 -0.1190 -0.1233  0.5113
14992SOL    HW147293   0.730   7.918   5.095  0.1639 -0.9773  0.1864
14992SOL    HW247294   0.628   7.999   5.018  0.6200  0.1124  0.7198
14993SOL     OW47295   8.345   9.506   7.403  0.2139 -0.5222 -0.2710
14993SOL    HW147296   8.276   9.449   7.435 -1.3060  0.8392 -0.9775
14993SOL    HW247297   8.339   9.500   7.307  1.2110 -0.5301 -0.3463
14994SOL     OW47298   9.780  10.075   2.942  0.5394  0.0769 -0.4021
14994SOL    HW147299   9.707  10.019   2.968  0.6959  0.6240  1.3951
14994SOL    HW247300   9.743  10.135   2.878 -0.7153  0.5608  0.7207
14995SOL     OW47301   9.236   8.225   8.091  0.4090 -0.2892  0.7011
14995SOL    HW147302   9.329   8.232   8.068  0.2061  0.1440 -0.0289
14995SOL    HW247303   9.202   8.313   8.076 -0.4805 -0.8430 -0.7088
14996SOL     OW47304   3.756   6.835   6.816  0.1508 -0.0737  1.0386
14996SOL    HW147305   3.740   6.740   6.814 -0.5795  0.0499 -0.0530
14996SOL    HW247306   3.673   6.873   6.845  0.2800  0.2611  0.9697
14997SOL     OW47307   0.710   9.192   4.862  0.1466  0.0602 -0.1706
14997SOL    HW147308   0.645   9.135   4.822 -0.3479  0.7968 -0.4473
14997SOL    HW247309   0.791   9.173   4.815  0.2582 -1.2316  0.5232
14998SOL     OW47310   3.051   6.587   6.520 -0.2001  0.2382  0.1919
14998SOL    HW147311   3.121   6.522   6.525 -1.9079 -1.7457 -0.0960
14998SOL    HW247312   3.094   6.667   6.492  1.9050 -0.9714 -0.2380
14999SOL     OW47313   2.955   5.847   5.482 -0.1556  0.2251  0.1832
14999SOL    HW147314   2.894   5.912   5.448 -0.0264  0.2989  0.0960
14999SOL    HW247315   2.920   5.763   5.452  1.1206  0.4047 -1.9509
15000SOL     OW47316   4.927   6.710   5.641  0.0994  0.0854 -0.0350
15000SOL    HW147317   4.917   6.717   5.736 -0.9637 -0.7894 -0.0634
15000SOL    HW247318   4.850   6.756   5.605  1.1027  1.4606 -0.5276
15001SOL     OW47319   1.154   7.288   6.815 -0.0062  0.0421  0.2992
15001SOL    HW147320   1.131   7.196   6.830  1.6071 -0.5189 -0.4187
15001SOL    HW247321   1.166   7.294   6.720  2.5079  0.2915  0.5660
15002SOL     OW47322   1.917   4.062   2.955  0.0131 -0.1592  0.2678
15002SOL    HW147323   1.915   4.158   2.957  0.8293 -0.1297  0.1270
15002SOL    HW247324   1.847   4.038   2.895  0.5840  0.4069 -0.6557
15003SOL     OW47325   9.983   8.288   7.054  0.2010 -0.1570 -0.0753
15003SOL    HW147326   9.906   8.337   7.081  0.5729  0.4298 -0.0570
15003SOL    HW247327  10.057   8.341   7.082  0.6139  0.5390 -2.2793
15004SOL     OW47328   4.473   0.685  10.004  0.1932  0.2602 -0.5367
15004SOL    HW147329   4.533   0.724  10.067 -0.2582  1.8453 -1.0518
15004SOL    HW247330   4.403   0.647  10.058  0.7384 -0.0330 -0.0251
15005SOL     OW47331   4.122   2.463   6.923  0.0677  0.3272  0.2424
15005SOL    HW147332   4.127   2.556   6.944 -0.4394 -0.2285  3.5082
15005SOL    HW247333   4.030   2.448   6.899  0.0736  0.6194  0.0414
15006SOL     OW47334   9.671   6.575   2.967 -0.6738  0.0837  0.3212
15006SOL    HW147335   9.625   6.605   3.045 -0.1267  0.9909  0.3138
15006SOL    HW247336   9.668   6.649   2.907  1.9264  0.7221  0.8322
15007SOL     OW47337   7.895   2.415   5.473  0.0713  0.0506  0.6902
15007SOL    HW147338   7.836   2.343   5.453  1.3730 -1.2160  1.2060
15007SOL    HW247339   7.838   2.491   5.483 -1.2736 -0.7245 -0.6561
15008SOL     OW47340   5.358   7.165   2.637 -1.0341  0.2208  0.0715
15008SOL    HW147341   5.297   7.178   2.564 -1.0807  0.6108  0.1752
15008SOL    HW247342   5.445   7.171   2.597 -1.0612  0.2882  0.0224
15009SOL     OW47343   2.234   5.182   0.287 -0.2771 -0.0799 -0.3750
15009SOL    HW147344   2.323   5.196   0.319 -0.1737  1.0085 -1.0800
15009SOL    HW247345   2.185   5.257   0.319 -0.9950 -0.7667  0.1622
15010SOL     OW47346   9.615   5.391   8.463  0.1834  0.2870 -0.4670
15010SOL    HW147347   9.670   5.342   8.524  0.4049  1.0503 -0.0399
15010SOL    HW247348   9.676   5.446   8.415  0.1894 -1.2814 -2.3654
15011SOL     OW47349   5.848   3.792   4.826 -0.7382 -0.0722  0.4520
15011SOL    HW147350   5.816   3.870   4.781  0.8890  0.3676 -0.0304
15011SOL    HW247351   5.889   3.739   4.757 -0.4589 -0.6108  1.0151
15012SOL     OW47352   7.053  10.124   2.027  0.3995  0.2157  0.0117
15012SOL    HW147353   7.121  10.173   1.981  0.5770  0.1237  0.1752
15012SOL    HW247354   6.981  10.117   1.964  0.7940 -0.2523 -0.3876
15013SOL     OW47355   0.896   6.616   0.168 -0.2295 -0.1114 -0.1581
15013SOL    HW147356   0.928   6.531   0.196  0.0685 -0.5379 -1.6858
15013SOL    HW247357   0.800   6.609   0.174 -0.1809 -0.2716  0.4686
15014SOL     OW47358   1.240   1.959   3.485 -0.4969 -0.5541  0.0363
15014SOL    HW147359   1.223   2.016   3.560  0.3560  0.0792 -0.2506
15014SOL    HW247360   1.334   1.966   3.469 -0.4715 -1.5896 -0.3742
15015SOL     OW47361   6.418   1.490   8.059  0.2047  0.1641  0.1938
15015SOL    HW147362   6.379   1.428   8.121 -0.5053 -0.4554 -0.8550
15015SOL    HW247363   6.356   1.494   7.987  0.0944  2.3551  0.3654
15016SOL     OW47364  10.541   6.198  10.515 -0.7531  0.3019 -0.3433
15016SOL    HW147365  10.482   6.264  10.478  0.1447  1.7682  0.7120
15016SOL    HW247366  10.575   6.151  10.440  0.9686  3.1383 -1.4903
15017SOL     OW47367   8.798   9.136   1.146  0.1945  0.4541 -0.2215
15017SOL    HW147368   8.818   9.229   1.152  0.3105  0.3320  2.4628
15017SOL    HW247369   8.853   9.095   1.212 -0.7405 -1.3719 -0.4983
15018SOL     OW47370   7.903   5.868   2.140  0.9470  0.5401  0.1101
15018SOL    HW147371   7.891   5.962   2.124  1.8053  0.7076  0.3972
15018SOL    HW247372   7.988   5.862   2.182  1.0537 -0.4082 -0.2235
15019SOL     OW47373   0.089   1.134   6.578 -0.4594  0.0097 -0.3591
15019SOL    HW147374   0.093   1.230   6.575 -0.8600  0.1393  1.6133
15019SOL    HW247375   0.038   1.110   6.501  0.3817  1.3048 -1.3734
15020SOL     OW47376   8.161   8.969   2.216 -0.5461 -0.0376  0.0151
15020SOL    HW147377   8.168   9.056   2.256 -0.3301 -0.9113  2.0147
15020SOL    HW247378   8.067   8.949   2.218 -0.9540  1.1022 -2.7898
15021SOL     OW47379   0.340   0.517   9.289  0.4209  0.5479 -0.8094
15021SOL    HW147380   0.388   0.485   9.212 -0.5047 -1.3066 -0.6610
15021SOL    HW247381   0.300   0.439   9.327 -0.6131  1.6829  0.5442
15022SOL     OW47382   2.311   0.660   1.301 -0.1640  0.6645  0.4744
15022SOL    HW147383   2.343   0.670   1.211 -0.2700  1.7613  0.5391
15022SOL    HW247384   2.218   0.640   1.291  0.0169 -0.1468  0.3332
15023SOL     OW47385   4.753   0.890   2.841 -0.1586 -0.6928  0.2505
15023SOL    HW147386   4.827   0.906   2.900 -0.4341  2.5622 -0.1404
15023SOL    HW247387   4.703   0.971   2.843 -1.2611 -1.1661 -2.9659
15024SOL     OW47388   4.736   9.438   5.389 -0.0571  0.1321 -0.0855
15024SOL    HW147389   4.803   9.503   5.364  1.9544 -2.1153 -0.9286
15024SOL    HW247390   4.715   9.459   5.480  1.6730  1.0693  0.1424
15025SOL     OW47391   8.399   1.969   1.350 -0.1342 -0.5311  0.5373
15025SOL    HW147392   8.329   2.033   1.338  0.8992  0.3209 -1.1536
15025SOL    HW247393   8.361   1.903   1.409 -1.9918  0.4349  0.4780
15026SOL     OW47394   6.081   2.966   2.059 -0.0239 -0.5266  0.2629
15026SOL    HW147395   6.151   2.937   2.000 -0.2710  0.8978 -0.7682
15026SOL    HW247396   6.005   2.914   2.033  0.7433 -2.6520  1.8947
15027SOL     OW47397  10.470   8.463   0.331  0.6828  0.0237 -0.0199
15027SOL    HW147398  10.506   8.381   0.364  2.2303 -0.2169 -2.0594
15027SOL    HW247399  10.457   8.447   0.237 -0.6147  1.5764 -0.1387
15028SOL     OW47400   8.523   5.784   5.146 -0.7164 -0.3061 -0.1785
15028SOL    HW147401   8.506   5.744   5.061 -0.6831  1.2662 -0.9581
15028SOL    HW247402   8.441   5.829   5.168 -0.1529  0.7869 -0.2457
15029SOL     OW47403   2.549   1.846   2.699 -0.4438 -0.2130 -0.5411
15029SOL    HW147404   2.479   1.839   2.764  0.1381  0.6160  0.2009
15029SOL    HW247405   2.521   1.918   2.642 -0.9753 -0.9678 -1.2653
15030SOL     OW47406   8.903   4.156   5.157 -0.3748 -0.2733  0.2104
15030SOL    HW147407   8.816   4.123   5.176 -0.4656 -0.5570 -0.6320
15030SOL    HW247408   8.928   4.206   5.235  1.4846 -5.5608  3.5575
15031SOL     OW47409   6.472   4.408   2.658 -0.0911  0.2861  0.0304
15031SOL    HW147410   6.399   4.452   2.703 -0.7925 -0.9871  0.2112
15031SOL    HW247411   6.430   4.361   2.586  0.5103 -0.6198  0.2535
15032SOL     OW47412   1.349   9.851   2.368  0.2357  0.1199  0.3037
15032SOL    HW147413   1.258   9.827   2.348  1.1572 -4.6045  0.8361
15032SOL    HW247414   1.347   9.881   2.459 -1.0569  2.9571 -0.5283
15033SOL     OW47415   7.617   6.779   3.153  0.4120 -0.0110 -0.3649
15033SOL    HW147416   7.624   6.752   3.061 -0.1679  1.6857 -0.9533
15033SOL    HW247417   7.690   6.840   3.166 -0.2760  0.7981 -0.1306
15034SOL     OW47418  10.594   9.813   0.325  0.0315 -0.3473 -0.1265
15034SOL    HW147419  10.657   9.747   0.297  1.6128  1.5068 -1.2389
15034SOL    HW247420  10.561   9.851   0.244  0.3181  1.2313  0.4549
15035SOL     OW47421   2.856   9.085   9.665 -0.1754  0.0065  0.2816
15035SOL    HW147422   2.850   9.141   9.742  0.8282 -1.4827  1.5103
15035SOL    HW247423   2.815   9.135   9.595 -1.3593  1.2977  1.8393
15036SOL     OW47424   8.837   7.310   6.349 -0.2602 -0.3942 -0.1168
15036SOL    HW147425   8.883   7.377   6.401  1.6955 -1.1474 -0.8042
15036SOL    HW247426   8.782   7.265   6.413  0.3184  0.2113  0.8518
15037SOL     OW47427   1.680   3.163   2.032 -0.1216 -0.2282 -0.3654
15037SOL    HW147428   1.687   3.229   2.101  0.1504 -2.0480  1.4593
15037SOL    HW247429   1.587   3.138   2.034  0.0606 -0.9030 -0.0147
15038SOL     OW47430   8.746   9.991   4.941 -0.0176 -0.5393  0.1531
15038SOL    HW147431   8.831  10.035   4.937  2.0638 -4.2594 -2.0210
15038SOL    HW247432   8.743   9.951   5.028 -1.1127  2.0356  1.4295
15039SOL     OW47433   4.741   5.095   5.089  0.1503  0.4731 -0.4788
15039SOL    HW147434   4.763   5.002   5.096  2.1066  0.9808  1.0217
15039SOL    HW247435   4.712   5.106   4.998  0.2448 -1.5227 -0.7923
15040SOL     OW47436   2.337   2.781  10.094 -0.0815  0.2277 -0.7065
15040SOL    HW147437   2.402   2.846  10.121  0.5462 -0.9842  0.8828
15040SOL    HW247438   2.257   2.806  10.140 -0.1257  0.4852 -0.9283
15041SOL     OW47439   8.549   1.694   6.040  0.3990 -0.7176  0.3432
15041SOL    HW147440   8.614   1.763   6.028  0.4647 -1.0747 -1.6958
15041SOL    HW247441   8.587   1.617   5.997 -1.9205 -0.5591 -2.2775
15042SOL     OW47442  10.125   3.174   3.261  0.8023  0.5117 -0.4328
15042SOL    HW147443  10.132   3.197   3.168  2.3972  0.1065 -0.4469
15042SOL    HW247444  10.167   3.088   3.267 -0.8229 -0.2567  0.4025
15043SOL     OW47445   4.113  10.335   4.897 -0.1425  0.2006  0.3501
15043SOL    HW147446   4.152  10.248   4.887 -0.8912 -0.2610  1.2658
15043SOL    HW247447   4.068  10.351   4.814 -2.2218 -1.4672  1.0429
15044SOL     OW47448   6.165  10.247   3.005  0.3176 -0.8430 -0.1105
15044SOL    HW147449   6.137  10.287   3.087  1.3357  0.0295 -0.1765
15044SOL    HW247450   6.111  10.289   2.938  1.5088  0.6281 -0.2043
15045SOL     OW47451   6.448   0.252   4.457 -0.1209 -0.4240 -0.3139
15045SOL    HW147452   6.472   0.291   4.541  0.7173  3.6403 -2.1844
15045SOL    HW247453   6.360   0.216   4.472  0.4265 -0.8396  2.4963
15046SOL     OW47454   1.860   4.670   7.523 -0.6959  0.9946 -0.5522
15046SOL    HW147455   1.894   4.633   7.604  3.2998  0.3770 -2.2317
15046SOL    HW247456   1.790   4.610   7.497 -1.5098  0.7571  1.9544
15047SOL     OW47457   4.570   5.111   9.754 -0.6811  0.0842  0.2988
15047SOL    HW147458   4.522   5.036   9.789 -0.1110 -0.1304  0.6363
15047SOL    HW247459   4.505   5.159   9.702 -0.8112 -1.1763 -0.7533
15048SOL     OW47460   2.008   3.416   5.647 -0.1899 -0.2137  0.0539
15048SOL    HW147461   1.954   3.340   5.624  0.7819 -0.9252  0.0509
15048SOL    HW247462   2.026   3.405   5.741  0.9568 -0.6553 -0.2059
15049SOL     OW47463   8.362   9.585   6.457 -0.4307  0.3474  0.3503
15049SOL    HW147464   8.275   9.612   6.486 -1.3586 -1.2671 -0.7403
15049SOL    HW247465   8.391   9.655   6.399 -0.9187  1.0072  0.8912
15050SOL     OW47466   8.245  10.597   0.631 -0.8378  0.2202 -0.4469
15050SOL    HW147467   8.324  10.560   0.671 -0.5142 -1.3895 -2.3904
15050SOL    HW247468   8.274  10.677   0.588 -0.3420 -0.0784 -0.6839
15051SOL     OW47469   4.223   8.780   7.488 -0.4364  0.0078 -0.2833
15051SOL    HW147470   4.297   8.820   7.536 -0.8003 -0.9271  1.1111
15051SOL    HW247471   4.148   8.834   7.512 -0.7531 -0.8976  0.8271
15052SOL     OW47472   2.055   6.434   8.013  0.0541 -0.2923  0.0992
15052SOL    HW147473   2.110   6.511   8.028 -2.7753  1.5721  1.9345
15052SOL    HW247474   2.081   6.372   8.081 -0.3194  0.7244  1.1979
15053SOL     OW47475   9.794   9.050   4.470 -0.6882 -0.4372 -0.4463
15053SOL    HW147476   9.730   9.094   4.414 -1.2709 -2.1936 -1.2455
15053SOL    HW247477   9.802   9.106   4.547 -2.6316  0.1908 -0.6514
15054SOL     OW47478   3.926   7.506   3.505  0.3036 -0.4279  0.1569
15054SOL    HW147479   3.950   7.598   3.494  1.0377 -0.6193  0.0515
15054SOL    HW247480   3.905   7.476   3.416  2.1051 -0.8840 -0.1581
15055SOL     OW47481   1.312   1.576   3.347  0.3050 -0.1296 -0.1280
15055SOL    HW147482   1.243   1.629   3.385  0.4907 -0.1343  0.2194
15055SOL    HW247483   1.271   1.491   3.329  0.2809 -0.2092  0.2986
15056SOL     OW47484   9.610  10.213   8.132  0.1964 -0.2376  0.5513
15056SOL    HW147485   9.527  10.224   8.179  0.6422  1.5231  1.0208
15056SOL    HW247486   9.650  10.300   8.134  2.6967 -1.3201  1.5550
15057SOL     OW47487   2.679   1.900   9.740  0.1006  0.6139 -0.4978
15057SOL    HW147488   2.736   1.900   9.663 -0.2556  1.9590 -0.7890
15057SOL    HW247489   2.591   1.890   9.705 -0.0733  1.3387 -0.2945
15058SOL     OW47490   2.297   9.176   8.924  0.1717  0.0519 -0.7270
15058SOL    HW147491   2.319   9.135   9.008  1.2165  0.7357 -0.6394
15058SOL    HW247492   2.350   9.256   8.922 -0.1243  0.2410 -1.8692
15059SOL     OW47493   5.773   4.776   1.251 -0.4188  0.9364  0.4288
15059SOL    HW147494   5.808   4.766   1.163 -0.6435  0.6119  0.3758
15059SOL    HW247495   5.849   4.799   1.305  0.4321 -2.2487  0.8103
15060SOL     OW47496   9.494   1.480   0.829  0.4561  0.0499  0.2209
15060SOL    HW147497   9.572   1.535   0.818  2.1657 -2.5747 -2.6702
15060SOL    HW247498   9.521   1.413   0.892 -0.2148  0.2663  0.7478
15061SOL     OW47499   6.684   4.528   8.767 -0.0524 -0.1756 -0.6166
15061SOL    HW147500   6.682   4.600   8.831  1.5292 -0.5876 -0.0569
15061SOL    HW247501   6.596   4.528   8.728 -0.9209  0.3999  1.2152
15062SOL     OW47502   2.072   9.718   5.549 -0.0699 -0.2565 -0.4143
15062SOL    HW147503   1.991   9.727   5.599  0.0013 -0.7581 -0.2012
15062SOL    HW247504   2.110   9.636   5.580 -0.4772 -1.0563 -1.9397
15063SOL     OW47505   9.305   5.674   4.932  0.0846  0.1670 -0.1357
15063SOL    HW147506   9.245   5.669   4.857 -0.0015  0.7941 -0.1204
15063SOL    HW247507   9.354   5.755   4.917 -0.4908  0.7161  0.8928
15064SOL     OW47508   2.776   0.727   1.258  0.1909 -0.5427  0.1871
15064SOL    HW147509   2.830   0.697   1.331 -0.1718 -2.4585 -0.2821
15064SOL    HW247510   2.704   0.665   1.254 -0.0396 -0.2133 -1.5262
15065SOL     OW47511   4.237   3.390   8.709 -0.2141 -0.1914 -0.5047
15065SOL    HW147512   4.149   3.355   8.700  0.9055 -3.5257  0.2058
15065SOL    HW247513   4.258   3.377   8.802  1.6512 -1.2254 -1.0266
15066SOL     OW47514   1.898   4.570   8.439 -0.4943  0.1427  0.3203
15066SOL    HW147515   1.951   4.649   8.428 -2.4250  1.2155 -2.2106
15066SOL    HW247516   1.960   4.498   8.431  0.7894  1.3629 -1.3901
15067SOL     OW47517   4.858  10.289  10.256  0.3817 -0.3133 -0.6807
15067SOL    HW147518   4.858  10.372  10.304 -1.7858 -0.0290 -1.0590
15067SOL    HW247519   4.917  10.304  10.182  0.0811  0.8748 -0.7009
15068SOL     OW47520  10.075   1.243   8.060  0.0015  0.0654  0.5265
15068SOL    HW147521   9.989   1.284   8.060 -1.2006 -2.2341  2.4267
15068SOL    HW247522  10.131   1.303   8.109 -0.7837  1.0354  0.2581
15069SOL     OW47523   1.664   4.662   9.631 -0.4838  0.1333 -0.9252
15069SOL    HW147524   1.732   4.701   9.686 -0.5961  0.9886 -1.3758
15069SOL    HW247525   1.680   4.698   9.544 -0.9003 -0.4505 -1.2471
15070SOL     OW47526  10.055   6.473   8.323 -0.6003  0.2514 -0.3889
15070SOL    HW147527  10.131   6.425   8.354 -0.9542  1.0127  1.7787
15070SOL    HW247528  10.074   6.565   8.343 -1.5092  0.6013 -1.0640
15071SOL     OW47529   4.662   0.779  10.172 -0.1298 -0.0191  0.2833
15071SOL    HW147530   4.674   0.707  10.234  1.0972  2.1036  2.6978
15071SOL    HW247531   4.643   0.855  10.228  0.8645  1.9956 -1.9625
15072SOL     OW47532   2.013  10.074   4.695 -0.7124 -0.2117  0.0165
15072SOL    HW147533   2.009  10.079   4.790  1.8064 -0.2924  0.1854
15072SOL    HW247534   2.105  10.089   4.673 -1.1978 -0.2466 -2.4165
15073SOL     OW47535   9.924   3.082   7.265  0.2410 -0.3320  0.5871
15073SOL    HW147536   9.918   3.075   7.361 -0.5989  1.4671  0.6996
15073SOL    HW247537   9.839   3.116   7.238  1.1591  1.1520 -0.5704
15074SOL     OW47538   0.090   1.576   3.494  0.3342 -0.2644  0.2188
15074SOL    HW147539   0.004   1.617   3.495  1.1617  1.6150 -0.8888
15074SOL    HW247540   0.132   1.607   3.575  0.3906 -0.2476  0.1829
15075SOL     OW47541   2.405   2.877   9.005 -0.0035 -0.0574  0.3187
15075SOL    HW147542   2.453   2.832   8.935  0.6765  2.0643 -0.7029
15075SOL    HW247543   2.331   2.917   8.960 -2.9897 -3.3612  1.8955
15076SOL     OW47544   8.111   7.883   9.855 -0.6923 -0.0941 -0.0796
15076SOL    HW147545   8.172   7.935   9.804 -1.3066 -0.8435 -1.6241
15076SOL    HW247546   8.166   7.836   9.918  0.6657 -2.2259 -2.6421
15077SOL     OW47547   7.143   1.364   8.665  0.1092 -0.1312  0.2868
15077SOL    HW147548   7.230   1.398   8.648 -0.2692  1.3665  1.1058
15077SOL    HW247549   7.091   1.391   8.590  0.6008 -2.1708 -0.8449
15078SOL     OW47550   4.628   6.335   4.282 -0.1377  0.0737  0.1780
15078SOL    HW147551   4.598   6.266   4.222  0.1132  0.2425 -0.1452
15078SOL    HW247552   4.719   6.312   4.301  0.6845  1.4998 -1.6969
15079SOL     OW47553   9.264   3.157   2.427 -0.2789 -0.0616  0.3678
15079SOL    HW147554   9.276   3.173   2.333 -3.4714  2.4413  0.2169
15079SOL    HW247555   9.198   3.089   2.431 -1.1090  0.7382  0.7152
15080SOL     OW47556   8.118   7.545   6.146  0.1263  0.1865  0.0637
15080SOL    HW147557   8.058   7.476   6.174 -1.2914  1.7822  1.1703
15080SOL    HW247558   8.145   7.587   6.228 -0.0362  1.7331 -0.6416
15081SOL     OW47559   5.199   3.669   8.551 -0.2884  0.4203  0.1957
15081SOL    HW147560   5.189   3.619   8.469  2.2180  1.6225 -0.9653
15081SOL    HW247561   5.291   3.656   8.575 -0.3640  2.0184  1.5040
15082SOL     OW47562   2.812   3.983   1.057 -0.5228 -0.0918  0.2387
15082SOL    HW147563   2.806   4.056   1.118 -0.2596 -0.0970  0.2738
15082SOL    HW247564   2.722   3.967   1.029 -1.1342 -1.9415  2.8248
15083SOL     OW47565   1.821   3.678   2.274  0.3337 -0.2407 -0.5152
15083SOL    HW147566   1.903   3.634   2.298  0.5699 -0.2593 -1.3321
15083SOL    HW247567   1.753   3.611   2.285  0.2835  0.0364  1.0713
15084SOL     OW47568   4.034   9.442   8.950 -0.3447 -0.2506  0.2589
15084SOL    HW147569   4.079   9.506   8.895 -0.9257  0.2590  0.3736
15084SOL    HW247570   3.942   9.464   8.942 -0.6036 -1.3566 -0.0670
15085SOL     OW47571   0.371   8.719   6.347  0.0962 -0.3349 -0.7370
15085SOL    HW147572   0.284   8.683   6.331 -0.3809  0.9578 -1.1909
15085SOL    HW247573   0.368   8.751   6.437  0.9087 -2.4165  0.0934
15086SOL     OW47574   5.259   7.760   4.753 -0.3331 -0.0823  0.1020
15086SOL    HW147575   5.318   7.803   4.814 -1.0085 -0.0720  0.7630
15086SOL    HW247576   5.316   7.704   4.700  0.3452  0.4175  0.2917
15087SOL     OW47577   3.814   9.240   2.047  0.1869 -0.4391 -0.0663
15087SOL    HW147578   3.784   9.160   2.005 -0.9975  0.7257 -1.5898
15087SOL    HW247579   3.734   9.290   2.064  0.7364 -0.3244  2.5653
15088SOL     OW47580   8.504   5.145   2.541 -0.0546 -0.3293 -0.0041
15088SOL    HW147581   8.485   5.056   2.510 -0.6860 -0.0865 -0.3396
15088SOL    HW247582   8.491   5.140   2.635 -2.4473 -0.0658 -0.2356
15089SOL     OW47583   1.380  10.242   6.641 -0.2258  0.5444 -0.0473
15089SOL    HW147584   1.414  10.311   6.583 -1.2065 -1.5129 -3.3567
15089SOL    HW247585   1.458  10.194   6.667  0.2357  1.4522  0.3123
15090SOL     OW47586   2.843   5.641   6.474  0.5942 -0.4545 -0.2870
15090SOL    HW147587   2.855   5.548   6.455 -0.4118 -0.4696 -0.9141
15090SOL    HW247588   2.910   5.661   6.539  2.0254 -1.1997 -1.4629
15091SOL     OW47589   3.595   4.604   6.912  0.1293 -0.0888  0.2320
15091SOL    HW147590   3.575   4.539   6.845  1.3242  0.9906 -1.2217
15091SOL    HW247591   3.615   4.552   6.990  0.0729 -1.4307 -0.6137
15092SOL     OW47592   5.413   4.171   0.649  0.1670  0.1491  0.1985
15092SOL    HW147593   5.363   4.197   0.726 -0.7056 -2.7569  0.7521
15092SOL    HW247594   5.503   4.198   0.667 -0.4689  1.7748  1.0546
15093SOL     OW47595   4.667   5.415   0.303  0.4693 -0.9412  0.0919
15093SOL    HW147596   4.675   5.354   0.377 -3.6851 -1.3847  0.4077
15093SOL    HW247597   4.615   5.488   0.338 -2.3336 -1.5292 -2.4229
15094SOL     OW47598   5.476   9.551   4.606 -0.1613  0.1083 -0.9295
15094SOL    HW147599   5.418   9.599   4.547 -1.0244  1.6997  1.0889
15094SOL    HW247600   5.564   9.580   4.582 -0.6426  2.5630  0.0261
15095SOL     OW47601   6.840   5.658   2.181 -0.1475 -0.2117  0.6375
15095SOL    HW147602   6.759   5.706   2.164  0.4310  0.4512 -0.3869
15095SOL    HW247603   6.830   5.624   2.270 -1.7356 -0.5398  0.3772
15096SOL     OW47604   7.969   2.775   8.818 -0.1422  0.3317  0.0258
15096SOL    HW147605   7.889   2.723   8.811 -0.3271  0.4397  1.1262
15096SOL    HW247606   8.038   2.709   8.830 -0.1671  0.2710 -0.1623
15097SOL     OW47607   8.472   4.334   4.375  0.4621 -0.2272  0.2319
15097SOL    HW147608   8.526   4.407   4.405 -0.8474  0.2798  1.4761
15097SOL    HW247609   8.535   4.265   4.355  1.5829  0.0775  2.3916
15098SOL     OW47610   4.565   4.074   4.236 -0.0998  0.0337 -0.4780
15098SOL    HW147611   4.547   4.094   4.144  2.6974  0.4280 -1.0469
15098SOL    HW247612   4.563   3.978   4.240  0.1932 -0.0074 -1.0886
15099SOL     OW47613   8.965   7.014   5.264 -0.0089 -0.2648  0.2386
15099SOL    HW147614   8.917   7.048   5.339 -0.4374  1.9385 -0.9435
15099SOL    HW247615   8.897   6.990   5.201  0.3758 -0.5227 -0.0804
15100SOL     OW47616  10.461   2.652   1.867 -0.0030 -0.0513  0.7055
15100SOL    HW147617  10.434   2.620   1.781  0.2816 -0.0795  0.6243
15100SOL    HW247618  10.400   2.723   1.886 -1.3152 -1.3163  1.3590
15101SOL     OW47619   6.236   8.604   6.278  0.0909 -0.0342 -0.0867
15101SOL    HW147620   6.201   8.540   6.215  1.5905 -0.5203 -0.4684
15101SOL    HW247621   6.282   8.668   6.224 -1.5699  1.5358  0.2768
15102SOL     OW47622   7.994  10.363   7.630  0.5733 -0.7743  0.3257
15102SOL    HW147623   8.016  10.456   7.639  0.4467 -0.8409  1.4710
15102SOL    HW247624   8.012  10.343   7.538  0.0816  0.5121 -0.0722
15103SOL     OW47625   6.633   9.032   7.420  0.0322  0.1760 -0.2769
15103SOL    HW147626   6.569   9.046   7.351 -2.2494 -1.0555  1.4636
15103SOL    HW247627   6.718   9.037   7.375 -1.2640  1.1329 -2.8070
15104SOL     OW47628   5.857   6.511  10.568  0.6912 -0.4423 -0.3280
15104SOL    HW147629   5.816   6.460  10.638 -1.5016  0.7935 -0.6053
15104SOL    HW247630   5.813   6.595  10.572  0.3352 -0.4005 -3.3182
15105SOL     OW47631   9.370   8.203   9.451  0.3245 -0.6546  0.2474
15105SOL    HW147632   9.276   8.192   9.432  0.1980 -0.1660  0.5574
15105SOL    HW247633   9.371   8.247   9.536  0.7977  0.9252 -0.5333
15106SOL     OW47634   1.321   9.263   5.566  0.3847  0.6462  0.1385
15106SOL    HW147635   1.415   9.247   5.573  0.8848  3.4261  0.9677
15106SOL    HW247636   1.314   9.355   5.541 -2.1409  0.1454 -1.4066
15107SOL     OW47637   2.061   1.457   7.991  0.0946 -0.3215  0.4229
15107SOL    HW147638   2.026   1.487   8.074  0.3075  0.5517  0.2121
15107SOL    HW247639   1.991   1.404   7.952 -0.3110 -0.0582  0.7907
15108SOL     OW47640   0.391   4.809   3.295 -0.5221  0.1156 -0.5437
15108SOL    HW147641   0.427   4.868   3.228  0.0959  1.2007  0.6971
15108SOL    HW247642   0.337   4.866   3.350  1.4562 -0.0303  1.7268
15109SOL     OW47643   2.068   8.615   3.066 -0.2575  0.1614  0.1325
15109SOL    HW147644   2.029   8.548   3.009  0.1373  0.4637 -0.5114
15109SOL    HW247645   2.036   8.698   3.031  1.0240  0.4230 -0.4986
15110SOL     OW47646   2.973   0.019   0.645  0.0676 -0.1836 -0.6000
15110SOL    HW147647   3.031   0.055   0.578 -1.3473 -2.1877 -3.0758
15110SOL    HW247648   2.989   0.074   0.722  3.7618  0.5752 -1.6943
15111SOL     OW47649   0.563   6.690   9.710  0.0546 -0.7203 -0.0919
15111SOL    HW147650   0.620   6.762   9.684  0.5957 -1.0771  0.0911
15111SOL    HW247651   0.620   6.613   9.711  0.1918 -0.6619  2.5685
15112SOL     OW47652   5.620   2.388   7.181 -0.4807 -0.4143 -0.1530
15112SOL    HW147653   5.689   2.332   7.147  0.5537  0.7938 -0.1340
15112SOL    HW247654   5.646   2.406   7.272 -0.0322  1.1902 -0.5674
15113SOL     OW47655   2.185   9.268   2.035 -0.0138  0.4659  0.0093
15113SOL    HW147656   2.225   9.327   1.971 -0.7308  0.8203 -0.1167
15113SOL    HW247657   2.259   9.235   2.087  0.2430  3.1732  1.5470
15114SOL     OW47658   4.920   1.387   5.070 -0.7689 -0.0013  0.1797
15114SOL    HW147659   4.949   1.442   4.997 -2.1135 -0.5559 -0.8105
15114SOL    HW247660   4.998   1.376   5.124  0.4829 -0.2485 -1.6010
15115SOL     OW47661   5.681   8.289   0.176  0.0205 -0.2715 -0.1940
15115SOL    HW147662   5.659   8.349   0.247  0.1551  0.1682 -0.5160
15115SOL    HW247663   5.706   8.346   0.104  1.0798 -0.7293 -0.2086
15116SOL     OW47664   6.715   3.152   3.438  0.7459 -0.0102  0.2608
15116SOL    HW147665   6.758   3.193   3.364  0.5151 -0.9807 -0.4288
15116SOL    HW247666   6.766   3.181   3.514  1.8978 -0.1942 -0.4171
15117SOL     OW47667   1.598   4.562   7.458  0.2902 -0.0083 -0.1665
15117SOL    HW147668   1.603   4.492   7.393  0.2779 -1.6866  1.5491
15117SOL    HW247669   1.514   4.547   7.503  0.8591  0.3307  1.0444
15118SOL     OW47670   3.006   8.248   5.526  0.1082 -0.0653 -0.3993
15118SOL    HW147671   2.980   8.325   5.476 -1.8010  0.0549  0.6973
15118SOL    HW247672   2.970   8.174   5.477  1.1744 -0.2251 -0.9751
15119SOL     OW47673   0.461   1.283  10.236  0.2267  0.4198  0.4160
15119SOL    HW147674   0.532   1.344  10.254 -0.1592  1.0030 -0.0083
15119SOL    HW247675   0.451   1.285  10.140  1.2218 -1.4644  0.2345
15120SOL     OW47676   9.166   3.079   5.110  0.3086  0.0544  0.0862
15120SOL    HW147677   9.151   2.986   5.125 -2.5664  0.3712 -0.2766
15120SOL    HW247678   9.092   3.122   5.151 -0.1153  1.9404 -2.3918
15121SOL     OW47679   0.011   4.178   4.151  0.0002 -0.9764  0.1418
15121SOL    HW147680   0.050   4.164   4.237 -1.7015 -0.8898  0.9528
15121SOL    HW247681   0.062   4.250   4.113  1.1481 -1.4010  0.8044
15122SOL     OW47682   8.252   4.395   9.889  0.3592  0.2696  0.1846
15122SOL    HW147683   8.288   4.443   9.815 -0.5461 -0.5846 -0.8399
15122SOL    HW247684   8.324   4.388   9.951  1.4426  0.1310 -1.0571
15123SOL     OW47685  10.455   8.374   2.962 -0.2170  0.1691  0.6176
15123SOL    HW147686  10.373   8.416   2.989  0.3065  1.3247  0.4771
15123SOL    HW247687  10.518   8.446   2.957  0.1223 -0.2170 -2.0588
15124SOL     OW47688  10.426   6.328   2.363 -0.2645 -0.0621  0.0584
15124SOL    HW147689  10.334   6.308   2.342 -0.7751  1.1889  1.0076
15124SOL    HW247690  10.442   6.413   2.323  0.1832  0.1665  0.7069
15125SOL     OW47691   9.871   4.142   1.803  0.2996  0.1466 -0.2566
15125SOL    HW147692   9.963   4.130   1.825  0.4098  0.3252 -0.6100
15125SOL    HW247693   9.871   4.163   1.710 -0.2458 -1.7538 -0.7374
15126SOL     OW47694   4.895   4.630   4.358 -0.1139  0.3362  0.5908
15126SOL    HW147695   4.850   4.557   4.399  0.7844 -0.2676  0.5254
15126SOL    HW247696   4.894   4.609   4.265 -0.7768  0.9338  0.4572
15127SOL     OW47697   3.469   9.204   3.320 -0.3527  0.2788  0.2695
15127SOL    HW147698   3.481   9.297   3.300  0.1622  0.0390 -0.6229
15127SOL    HW247699   3.432   9.167   3.239  1.4945 -0.6839 -0.1929
15128SOL     OW47700   8.887   7.569   5.135  0.2686  0.1962  0.4812
15128SOL    HW147701   8.866   7.628   5.207 -0.2877  0.2867  0.2439
15128SOL    HW247702   8.977   7.591   5.112  0.4743  0.1314  1.1786
15129SOL     OW47703   0.670   6.583  10.566  0.1621 -0.3283  0.4231
15129SOL    HW147704   0.600   6.640  10.533 -0.0091 -0.9810 -0.3876
15129SOL    HW247705   0.653   6.576  10.660  0.2301  1.0084  0.5531
15130SOL     OW47706   6.493   3.599   4.874  0.0398  0.2386 -0.5788
15130SOL    HW147707   6.458   3.669   4.818 -0.5221  0.9749  0.6504
15130SOL    HW247708   6.487   3.635   4.963  0.9848 -0.8724 -0.0520
15131SOL     OW47709   1.569   0.254   9.763  0.7820 -0.3014 -0.5046
15131SOL    HW147710   1.574   0.349   9.775 -0.4418 -0.3122  0.2298
15131SOL    HW247711   1.603   0.240   9.675 -1.2993  1.0943 -1.6145
15132SOL     OW47712   0.981   4.761   4.556  0.2394  0.0409  0.6982
15132SOL    HW147713   1.019   4.848   4.571  1.4185 -0.5311  1.1121
15132SOL    HW247714   1.025   4.704   4.619 -2.2306 -0.4318  2.1322
15133SOL     OW47715   6.307   8.946   1.972  0.2746  0.3391 -0.2082
15133SOL    HW147716   6.371   9.013   1.998  1.8860 -1.0775 -0.3663
15133SOL    HW247717   6.237   8.953   2.037  1.9775  0.0035  1.7612
15134SOL     OW47718   2.550   8.971   3.770 -0.8774  0.1033 -0.5466
15134SOL    HW147719   2.585   8.891   3.730 -0.9814 -0.8113  1.1072
15134SOL    HW247720   2.618   9.036   3.758  0.6932 -1.1520  1.0024
15135SOL     OW47721   2.609   0.204   1.989 -0.5463  0.3144  0.3941
15135SOL    HW147722   2.532   0.160   2.026  0.3559 -1.2127  0.5363
15135SOL    HW247723   2.675   0.199   2.058 -0.3055  1.6585  0.2926
15136SOL     OW47724   7.560   1.541   6.876 -0.0009  0.5087  0.1494
15136SOL    HW147725   7.640   1.589   6.855  0.1844 -0.2710 -1.0282
15136SOL    HW247726   7.583   1.449   6.866 -1.0421  0.2699 -0.2461
15137SOL     OW47727   6.738   4.090  10.298 -0.4915  0.6080  0.4465
15137SOL    HW147728   6.715   4.019  10.238  1.1718  1.5038 -1.3448
15137SOL    HW247729   6.673   4.083  10.368 -3.1416  0.1177 -1.8759
15138SOL     OW47730   2.110   5.666   8.962 -0.3855 -0.3740  0.2968
15138SOL    HW147731   2.202   5.639   8.962 -0.5994 -1.2135 -1.1093
15138SOL    HW247732   2.103   5.726   9.036  1.2931 -0.2870  0.4362
15139SOL     OW47733   5.035   8.876   6.050 -1.1875  0.0982  0.1503
15139SOL    HW147734   5.003   8.887   5.961 -0.2383  1.6545 -0.0392
15139SOL    HW247735   5.040   8.966   6.084  1.9997 -0.1135  0.4840
15140SOL     OW47736   8.021   8.962   7.384 -0.4383 -0.1611  0.3254
15140SOL    HW147737   8.083   9.034   7.392 -0.3005 -0.3605  1.2048
15140SOL    HW247738   8.066   8.887   7.423  0.8921 -1.7282 -3.6776
15141SOL     OW47739   7.676   8.991   4.980  0.1621 -0.4073 -0.1380
15141SOL    HW147740   7.707   8.901   4.966 -0.3675 -0.6274  0.0898
15141SOL    HW247741   7.674   9.001   5.075 -1.4036 -0.7308 -0.1223
15142SOL     OW47742   4.364   9.233   2.008 -0.1505  0.4535  0.2568
15142SOL    HW147743   4.340   9.302   1.947  0.1962  0.0521 -0.3391
15142SOL    HW247744   4.420   9.174   1.958 -1.5205 -1.0035  0.3360
15143SOL     OW47745   2.380   4.757   1.402 -0.1481 -0.1635 -0.2838
15143SOL    HW147746   2.467   4.791   1.423 -0.6381  0.6268  0.5068
15143SOL    HW247747   2.327   4.776   1.480 -0.8426 -1.3173 -0.4532
15144SOL     OW47748   3.923   3.272   1.081  0.2089  0.0714 -0.1572
15144SOL    HW147749   3.885   3.286   1.167 -1.4504  1.6484 -1.0762
15144SOL    HW247750   3.895   3.347   1.029  2.6706  0.1116 -1.6162
15145SOL     OW47751   3.344   3.915   0.623  0.0585  0.4306  0.0947
15145SOL    HW147752   3.319   3.970   0.697  0.9192  1.0079 -0.0301
15145SOL    HW247753   3.418   3.961   0.583  0.2514 -0.3901 -0.5165
15146SOL     OW47754   7.179   0.723   5.673 -0.3002  0.0370  0.5725
15146SOL    HW147755   7.267   0.686   5.679 -0.1220  0.6052  1.8808
15146SOL    HW247756   7.140   0.706   5.759 -1.4296 -0.1000  0.0493
15147SOL     OW47757   7.763   1.629   0.057 -0.1829 -0.1259  0.2867
15147SOL    HW147758   7.819   1.584  -0.006 -0.6213  0.9753 -0.9392
15147SOL    HW247759   7.713   1.691   0.005 -0.8015  0.6103  1.6885
15148SOL     OW47760   2.771   8.001   1.027 -0.5918  0.4310  0.0191
15148SOL    HW147761   2.733   7.920   1.062  0.9386 -0.0438  0.6904
15148SOL    HW247762   2.819   7.973   0.949 -0.4970  0.7662 -0.0435
15149SOL     OW47763   1.535   0.818  10.156 -0.1859 -0.4770 -0.3821
15149SOL    HW147764   1.587   0.750  10.198 -2.0876  0.2060  3.4851
15149SOL    HW247765   1.453   0.774  10.132  0.6374 -0.7101 -3.1457
15150SOL     OW47766   2.841   6.218   1.749 -0.2298  0.0486  0.4306
15150SOL    HW147767   2.800   6.133   1.735  0.8689 -1.1004  3.3815
15150SOL    HW247768   2.790   6.257   1.821  0.3049  1.1694  0.2195
15151SOL     OW47769   4.592   3.683   8.509  0.1179  0.0106  0.0993
15151SOL    HW147770   4.527   3.619   8.538 -0.4018  0.0637 -0.8711
15151SOL    HW247771   4.662   3.630   8.471  1.6121 -0.1510  2.8433
15152SOL     OW47772   8.128   4.080   3.772  0.2778 -0.0713  0.6368
15152SOL    HW147773   8.141   4.119   3.859 -0.2332  2.3093 -0.2725
15152SOL    HW247774   8.137   3.986   3.787  0.3723  0.2567  3.2261
15153SOL     OW47775   9.969   5.385   1.260 -0.0933 -0.1529 -0.1889
15153SOL    HW147776  10.008   5.470   1.276  1.1950 -0.6165 -0.7246
15153SOL    HW247777   9.879   5.393   1.291 -0.1172  1.5247 -0.6086
15154SOL     OW47778   3.011   7.687   1.079  0.6177 -0.2243 -0.2738
15154SOL    HW147779   3.026   7.781   1.081 -0.6135  0.0371 -1.6092
15154SOL    HW247780   3.051   7.654   1.159  0.9414  1.4444  0.2812
15155SOL     OW47781   9.464   0.664   2.323  0.4330 -0.3873  0.3521
15155SOL    HW147782   9.519   0.682   2.247 -1.1129 -1.6810 -1.1657
15155SOL    HW247783   9.394   0.729   2.318  0.5655 -0.1911  0.9530
15156SOL     OW47784   5.166   8.303   4.981  0.1980 -0.0318 -0.2782
15156SOL    HW147785   5.167   8.291   4.886 -0.6612 -1.3392 -0.1475
15156SOL    HW247786   5.086   8.353   4.998 -0.2890 -0.8516 -0.1414
15157SOL     OW47787   8.535   3.913   7.521 -0.4607  0.0709 -0.4494
15157SOL    HW147788   8.451   3.956   7.535 -0.1352  0.3762  0.6835
15157SOL    HW247789   8.585   3.975   7.468 -0.0518  1.0775  1.0414
15158SOL     OW47790   8.105   1.038   9.812 -0.8576  0.2648 -0.0547
15158SOL    HW147791   8.145   1.061   9.729 -0.3764  0.4609  0.2259
15158SOL    HW247792   8.047   1.112   9.832 -0.9459  0.2339 -0.2004
15159SOL     OW47793   9.863   5.517   4.533  0.1284 -0.0096 -0.1730
15159SOL    HW147794   9.819   5.591   4.575  1.2562 -0.3032  1.6663
15159SOL    HW247795   9.866   5.450   4.602  2.8278 -0.2206 -0.4083
15160SOL     OW47796   7.484   4.531   2.050 -0.0265 -0.3431 -0.4847
15160SOL    HW147797   7.510   4.505   1.962  0.6546 -0.2918 -0.3023
15160SOL    HW247798   7.487   4.450   2.101  0.6742 -0.1750 -0.2526
15161SOL     OW47799   0.612   7.088   4.139  0.0133 -0.2314  0.2172
15161SOL    HW147800   0.600   7.073   4.046  0.5711  0.4672  0.0284
15161SOL    HW247801   0.526   7.070   4.178 -0.0463 -1.2035 -0.3329
15162SOL     OW47802   2.200   9.810   2.743 -0.2374 -0.3723 -0.0437
15162SOL    HW147803   2.163   9.769   2.821  1.5502 -0.3591  0.8750
15162SOL    HW247804   2.283   9.764   2.729 -0.5096 -0.3632 -1.9494
15163SOL     OW47805  10.361   7.541   2.134 -0.3323 -0.1393 -0.5441
15163SOL    HW147806  10.323   7.591   2.061 -0.3488  0.9355  0.1761
15163SOL    HW247807  10.382   7.607   2.200  1.8334 -0.7974 -0.4780
15164SOL     OW47808   6.920   3.821   4.768  0.7159  0.4665  0.3887
15164SOL    HW147809   6.903   3.733   4.734 -2.0673  1.6102 -1.5016
15164SOL    HW247810   6.888   3.818   4.858  0.9191 -0.5145  0.4434
15165SOL     OW47811   6.012   6.275  10.468  0.0994  0.5227  0.1646
15165SOL    HW147812   6.081   6.239  10.524 -0.1572 -1.1383 -0.5238
15165SOL    HW247813   5.975   6.347  10.519 -0.8932 -1.6025  2.7094
15166SOL     OW47814   7.310   0.960   6.521 -0.0428 -1.0725 -0.4727
15166SOL    HW147815   7.351   0.965   6.434 -1.5272 -0.8951 -1.2012
15166SOL    HW247816   7.241   1.027   6.519 -0.3318 -1.3098  0.7131
15167SOL     OW47817   2.687   1.757   8.065 -0.1082  0.0692  0.1946
15167SOL    HW147818   2.628   1.748   7.990 -1.1312  1.7852  0.7262
15167SOL    HW247819   2.668   1.683   8.121 -1.2702  0.2264  0.0190
15168SOL     OW47820   0.312   9.815   2.298  0.1740 -0.4375 -0.3899
15168SOL    HW147821   0.249   9.801   2.227 -0.1846 -0.0109 -0.1567
15168SOL    HW247822   0.275   9.767   2.372 -1.3203  2.0185  0.5684
15169SOL     OW47823   3.912   6.813   5.758  0.2908 -0.0415 -0.4597
15169SOL    HW147824   3.865   6.746   5.709 -0.5488  0.4850 -0.4083
15169SOL    HW247825   4.003   6.785   5.757 -0.2957 -2.2066  1.2608
15170SOL     OW47826   6.251   5.712   6.154  0.0352  0.2617  0.3092
15170SOL    HW147827   6.292   5.637   6.196 -0.8673 -0.8198 -0.6884
15170SOL    HW247828   6.255   5.694   6.060 -0.0814  1.5210  0.0340
15171SOL     OW47829   2.780   8.693   7.702 -0.1863 -0.0970  0.3089
15171SOL    HW147830   2.772   8.618   7.760 -0.2331 -0.5421 -0.2618
15171SOL    HW247831   2.730   8.762   7.746  1.0649  0.0579  1.5529
15172SOL     OW47832   8.082   2.497   6.723  0.0369 -0.3047  0.0235
15172SOL    HW147833   8.022   2.483   6.650  0.8887 -1.9514 -0.4355
15172SOL    HW247834   8.105   2.408   6.752 -0.9913  0.2863  2.9404
15173SOL     OW47835  10.333   5.293   7.631  0.4011 -0.1929 -0.4809
15173SOL    HW147836  10.378   5.376   7.620 -0.3566  0.4951  1.2464
15173SOL    HW247837  10.240   5.315   7.629  0.1448 -0.4397  2.9016
15174SOL     OW47838   8.747   6.024   0.658  0.4573  0.1376 -0.5146
15174SOL    HW147839   8.784   5.935   0.654 -1.9179 -0.9176 -0.4138
15174SOL    HW247840   8.669   6.015   0.712 -0.8883  1.8959 -2.0520
15175SOL     OW47841   8.368   3.271   7.306  0.1807  0.1280 -0.0416
15175SOL    HW147842   8.408   3.312   7.230 -1.2587 -0.1663 -1.0061
15175SOL    HW247843   8.282   3.241   7.275  0.2132 -1.4713  1.2644
15176SOL     OW47844   0.385   4.841   5.160  0.1146  0.0409  0.4839
15176SOL    HW147845   0.309   4.782   5.153  0.1490 -0.0021  0.4692
15176SOL    HW247846   0.457   4.792   5.119  0.2642 -0.1184  0.9315
15177SOL     OW47847   9.172   0.914   5.125 -0.3068  0.0019 -0.1059
15177SOL    HW147848   9.147   0.822   5.116 -1.2655  0.1561  0.8764
15177SOL    HW247849   9.128   0.944   5.204  2.2201  0.5775  1.1898
15178SOL     OW47850   7.982   8.825   9.323 -0.3026  0.7763 -0.0453
15178SOL    HW147851   8.026   8.741   9.333 -1.1017  0.4995  1.5727
15178SOL    HW247852   7.937   8.819   9.239  0.2925 -0.0938 -0.3172
15179SOL     OW47853   7.251   8.513   1.704 -0.5771 -0.3770  0.0422
15179SOL    HW147854   7.203   8.564   1.639 -1.6934  1.2539  2.0286
15179SOL    HW247855   7.334   8.561   1.715  0.3760 -1.6217 -1.3547
15180SOL     OW47856   4.819   9.648   7.140 -0.4867  0.0377  0.2467
15180SOL    HW147857   4.871   9.586   7.089 -0.7177  0.2035 -0.1948
15180SOL    HW247858   4.855   9.643   7.228 -0.8185 -1.0862  0.3355
15181SOL     OW47859   6.583   4.668   1.445 -0.7770 -0.3923  0.2079
15181SOL    HW147860   6.647   4.601   1.421  0.4480  1.2789 -1.5569
15181SOL    HW247861   6.626   4.718   1.515 -0.7412 -0.1397  0.0085
15182SOL     OW47862   8.659   8.649   4.545  0.1573 -0.4375  0.2452
15182SOL    HW147863   8.595   8.580   4.527  0.3468 -1.1807  2.1559
15182SOL    HW247864   8.607   8.730   4.550 -0.4762 -0.8558  0.6000
15183SOL     OW47865   8.530   0.623   6.318 -0.1616  0.5173 -0.6425
15183SOL    HW147866   8.608   0.579   6.353 -1.9952 -0.9835  1.9162
15183SOL    HW247867   8.549   0.716   6.328  0.4237  0.1966  2.4055
15184SOL     OW47868   3.591   1.287   4.191 -0.4005  0.1309  0.4259
15184SOL    HW147869   3.498   1.299   4.173 -0.8529  0.5416  2.7863
15184SOL    HW247870   3.625   1.375   4.204  0.6220  0.0798 -1.4951
15185SOL     OW47871   7.039   2.007   7.693  0.1594 -0.4359  0.8691
15185SOL    HW147872   7.052   2.011   7.787  2.1293 -1.5384  0.6784
15185SOL    HW247873   7.126   2.015   7.655 -0.5876  0.0551 -0.8870
15186SOL     OW47874   4.227   2.815   7.239  0.6480 -0.4781  0.3615
15186SOL    HW147875   4.230   2.910   7.228 -0.2003 -0.2927  1.4862
15186SOL    HW247876   4.165   2.801   7.311  0.2237 -1.9180 -0.2282
15187SOL     OW47877   3.923   4.022   4.279 -0.0525  0.1004 -0.7137
15187SOL    HW147878   4.016   4.009   4.297  0.0314 -0.4550 -1.5055
15187SOL    HW247879   3.883   3.938   4.303 -0.1807 -0.0520 -1.4313
15188SOL     OW47880   2.491   4.345  10.149 -0.0265 -0.2821 -0.1114
15188SOL    HW147881   2.430   4.398  10.201 -0.4843 -0.9235  0.0320
15188SOL    HW247882   2.530   4.285  10.213  1.3633  0.6473 -0.0621
15189SOL     OW47883   6.831   2.053   1.372  0.1298 -0.0279  0.4017
15189SOL    HW147884   6.881   2.088   1.446  0.2381 -0.2082  0.4144
15189SOL    HW247885   6.750   2.104   1.373  0.0023 -0.2303  0.8259
15190SOL     OW47886   0.192   0.436   9.794 -0.3335  0.0250  0.3141
15190SOL    HW147887   0.271   0.447   9.848  0.5999  1.6125 -1.2747
15190SOL    HW247888   0.147   0.520   9.800 -0.7319 -0.1172 -0.5554
15191SOL     OW47889   6.268   2.994   6.011 -0.0536 -0.2922  0.1019
15191SOL    HW147890   6.209   2.942   5.956  0.4372 -0.7769  0.0245
15191SOL    HW247891   6.267   3.081   5.972  1.4924 -0.9993 -1.6481
15192SOL     OW47892   9.878   9.112   6.116  0.6125 -0.2808  0.6939
15192SOL    HW147893   9.795   9.082   6.077  0.5465 -0.4822  0.9836
15192SOL    HW247894   9.868   9.092   6.209  0.0962  1.7046  1.1023
15193SOL     OW47895   7.123   7.999   0.156  0.3399 -0.0310 -0.3092
15193SOL    HW147896   7.185   7.926   0.148  0.0428 -0.4862  1.1643
15193SOL    HW247897   7.176   8.072   0.188  0.5193  0.2487 -1.2045
15194SOL     OW47898   9.725   4.547   0.299  0.4791  0.1960  0.0279
15194SOL    HW147899   9.653   4.517   0.355  0.6415  0.0112  0.1419
15194SOL    HW247900   9.719   4.493   0.220  0.3185  0.3778 -0.0843
15195SOL     OW47901   4.011   9.180   4.978 -0.2382 -0.3123  0.1081
15195SOL    HW147902   4.100   9.190   4.945 -0.6943 -0.1664 -1.1005
15195SOL    HW247903   4.005   9.245   5.048  0.1578  0.6939 -0.7629
15196SOL     OW47904   5.958   0.720   4.484 -0.0945 -0.3249 -0.6012
15196SOL    HW147905   5.958   0.796   4.542 -3.1904 -1.3620  0.9969
15196SOL    HW247906   6.014   0.656   4.527  1.9303  0.6800 -1.5854
15197SOL     OW47907   3.407   6.422   2.350 -0.4150 -0.1579 -0.5940
15197SOL    HW147908   3.472   6.484   2.385 -0.3656 -0.2922 -0.4466
15197SOL    HW247909   3.323   6.459   2.376 -0.3565 -0.6393  0.3088
15198SOL     OW47910   1.013   0.691   7.723 -0.3968  0.9743 -0.4623
15198SOL    HW147911   0.984   0.773   7.683 -0.3088  1.0613 -0.3484
15198SOL    HW247912   0.959   0.681   7.801 -1.9225 -0.1670 -1.5910
15199SOL     OW47913   0.071   7.926   4.107 -0.4027 -0.2221  0.3001
15199SOL    HW147914   0.156   7.969   4.116 -0.2024 -0.3052 -0.9714
15199SOL    HW247915   0.046   7.903   4.196  0.6951  0.2199  0.7386
15200SOL     OW47916   1.217   6.960   1.673  0.1755  0.5750  0.4044
15200SOL    HW147917   1.126   6.934   1.685  0.3351 -0.0699  0.2509
15200SOL    HW247918   1.245   6.990   1.760 -0.7868  2.8208  0.0350
15201SOL     OW47919   0.030   9.857   7.205  0.0540 -0.1693 -0.1519
15201SOL    HW147920   0.023   9.797   7.130 -0.1237 -0.7730  0.3394
15201SOL    HW247921  -0.028   9.930   7.183 -0.3161 -0.5413 -0.4171
15202SOL     OW47922   5.958   7.013   4.588  0.8174  0.0407  0.1409
15202SOL    HW147923   5.906   7.092   4.572  1.1457 -0.1435 -2.3285
15202SOL    HW247924   5.897   6.951   4.627 -0.9506 -0.1516 -2.6212
15203SOL     OW47925  10.571   2.847   4.371  0.0796  0.5204  0.6297
15203SOL    HW147926  10.658   2.841   4.332  0.7100  1.2048  1.8682
15203SOL    HW247927  10.579   2.916   4.437 -1.1176 -0.1268  1.4909
15204SOL     OW47928   8.108   4.142   8.504 -0.3913 -0.0044  0.1728
15204SOL    HW147929   8.053   4.095   8.442  0.6590 -2.8158  1.2391
15204SOL    HW247930   8.066   4.128   8.589  0.2800  0.4919  0.5949
15205SOL     OW47931   5.899   7.623   1.167 -0.1653 -0.1983  0.0884
15205SOL    HW147932   5.868   7.693   1.225 -0.0995  0.3278 -0.5010
15205SOL    HW247933   5.825   7.603   1.111  0.0514 -0.0688 -0.2483
15206SOL     OW47934   1.081   4.894   1.293  0.0818 -0.4056 -0.0496
15206SOL    HW147935   1.087   4.989   1.290 -1.8663 -0.2449  0.0456
15206SOL    HW247936   1.157   4.864   1.243  2.2933  1.0894  2.1545
15207SOL     OW47937   0.645   2.377   2.030  0.1823 -0.6459 -0.3131
15207SOL    HW147938   0.562   2.420   2.047  0.1282 -0.9807  0.3338
15207SOL    HW247939   0.639   2.347   1.939  0.0809  0.3743 -0.6506
15208SOL     OW47940   5.036   3.071   1.033  0.2387  0.0662  0.1132
15208SOL    HW147941   5.097   3.143   1.042 -2.1387  2.0751  1.3136
15208SOL    HW247942   5.025   3.038   1.122 -0.9732  0.2608  0.0527
15209SOL     OW47943   0.066   8.194   9.496 -0.0169  0.0778 -0.4108
15209SOL    HW147944   0.012   8.123   9.532  1.0170  0.1318  1.3144
15209SOL    HW247945   0.043   8.195   9.403 -2.1732 -0.6127  0.0407
15210SOL     OW47946   8.517   2.447   8.738 -0.0409  0.2443 -0.4258
15210SOL    HW147947   8.541   2.522   8.683  2.2989 -1.2499 -1.5688
15210SOL    HW247948   8.535   2.476   8.827  0.0392  1.2995 -0.7705
15211SOL     OW47949   1.109   1.700   3.463  0.2433  0.3040  0.2829
15211SOL    HW147950   1.129   1.793   3.476  2.3325 -0.0981  0.2837
15211SOL    HW247951   1.093   1.692   3.369  0.9403  0.5340  0.1375
15212SOL     OW47952  10.054   8.557   1.726 -0.0593 -0.2485 -0.0833
15212SOL    HW147953  10.086   8.512   1.648 -2.0020 -0.9835 -0.5291
15212SOL    HW247954  10.106   8.638   1.731  0.9802 -0.8079 -1.3768
15213SOL     OW47955   9.458   9.082   6.813 -0.1619  0.5348 -0.4518
15213SOL    HW147956   9.391   9.015   6.823 -0.5318  0.7417 -1.4572
15213SOL    HW247957   9.414   9.153   6.766  0.2657  1.4207  0.4528
15214SOL     OW47958   2.017   4.862   7.806 -0.1151  0.5515  0.5041
15214SOL    HW147959   1.986   4.906   7.727  0.3619  0.2423  0.1366
15214SOL    HW247960   2.068   4.787   7.774 -2.0345 -1.1129  1.0957
15215SOL     OW47961   9.020  10.473   3.533 -0.0366 -0.3487 -0.0391
15215SOL    HW147962   9.011  10.413   3.607 -1.0251  0.7131  0.7379
15215SOL    HW247963   9.114  10.490   3.527  0.3366 -2.4294 -0.6894
15216SOL     OW47964   8.478   3.945  10.437 -0.1306 -0.0243 -0.7536
15216SOL    HW147965   8.532   3.923  10.361  1.5033  2.1170 -0.3156
15216SOL    HW247966   8.427   4.021  10.409 -0.6681 -0.1727 -0.1951
15217SOL     OW47967   9.998   6.473   7.251 -1.1282  0.1752  0.1102
15217SOL    HW147968   9.913   6.495   7.213 -0.2292  1.0117 -1.5306
15217SOL    HW247969  10.051   6.551   7.237  0.2059 -0.6920  0.2020
15218SOL     OW47970   9.981  10.262   2.478 -0.0299  0.7329  0.1517
15218SOL    HW147971   9.952  10.306   2.557  0.6338  1.1362  0.1817
15218SOL    HW247972  10.017  10.178   2.509 -1.5951  0.0051  0.0595
15219SOL     OW47973   2.809   7.868   6.737  0.1966  0.2092  0.0341
15219SOL    HW147974   2.844   7.866   6.826 -0.6402 -1.0829  0.3479
15219SOL    HW247975   2.839   7.786   6.697  0.5072  0.7416 -0.8706
15220SOL     OW47976   6.438   9.401   0.266  0.6734  0.5861  0.6751
15220SOL    HW147977   6.358   9.385   0.216 -0.8950  2.1446  2.5348
15220SOL    HW247978   6.507   9.404   0.199 -0.4532 -2.5320 -0.8202
15221SOL     OW47979   3.669   0.873   1.231  0.1894  0.3437 -0.1283
15221SOL    HW147980   3.648   0.803   1.169  1.7391  0.2502 -0.5952
15221SOL    HW247981   3.590   0.926   1.235 -1.2709 -1.7884  0.7415
15222SOL     OW47982   4.085   7.640   4.519  0.5837 -0.5154 -0.0340
15222SOL    HW147983   4.114   7.621   4.430  0.5368 -0.3918 -0.0756
15222SOL    HW247984   4.019   7.709   4.509  2.0321  0.9817  0.2507
15223SOL     OW47985   6.796   7.727   3.000  0.0710  0.3261  0.5982
15223SOL    HW147986   6.763   7.727   2.910 -2.0446  0.9111  1.3261
15223SOL    HW247987   6.819   7.818   3.017  0.6197  0.1882  0.6170
15224SOL     OW47988   2.215   1.527   6.699 -0.9484  0.1357 -0.1449
15224SOL    HW147989   2.294   1.562   6.659  0.5807  0.0610  2.5123
15224SOL    HW247990   2.177   1.469   6.633  1.8881 -0.7481 -1.1393
15225SOL     OW47991  10.470   1.722   6.082  0.0185  1.1235 -0.0106
15225SOL    HW147992  10.375   1.709   6.078  0.2135 -0.9428  0.8201
15225SOL    HW247993  10.498   1.717   5.991 -0.3983 -1.1861 -0.0708
15226SOL     OW47994   0.079   3.845  10.198  0.4577 -0.2706  0.0914
15226SOL    HW147995   0.104   3.754  10.188 -1.6958 -0.8073 -0.9486
15226SOL    HW247996   0.155   3.894  10.166  0.5042 -1.7594 -2.3293
15227SOL     OW47997   1.090   5.353   1.451 -0.1912 -0.0470 -0.3811
15227SOL    HW147998   1.077   5.263   1.481  0.9401  0.5436  2.1191
15227SOL    HW247999   1.057   5.408   1.523 -0.8262  1.5732 -1.8221
15228SOL     OW48000   3.433   5.958   6.816 -0.2047  0.5274  0.0036
15228SOL    HW148001   3.364   6.017   6.785  0.8271  1.3076 -0.8574
15228SOL    HW248002   3.394   5.871   6.808 -2.4034  1.0795  2.9734
15229SOL     OW48003   0.703   3.900   2.795  0.3842 -0.5979  0.0554
15229SOL    HW148004   0.671   3.942   2.874 -0.1861 -0.6772 -0.1246
15229SOL    HW248005   0.763   3.832   2.825 -0.0569 -0.8205  0.4311
15230SOL     OW48006   7.879   2.127   5.776  0.6500 -0.3041  0.1639
15230SOL    HW148007   7.936   2.138   5.700  1.7206  0.5084  1.0427
15230SOL    HW248008   7.795   2.162   5.748  1.3906  1.2289 -0.2571
15231SOL     OW48009   1.225   9.263   0.086 -0.2032 -0.6010  0.1245
15231SOL    HW148010   1.139   9.241   0.120 -0.0826 -0.1253  0.7404
15231SOL    HW248011   1.272   9.179   0.084 -0.2174 -0.6435  1.1081
15232SOL     OW48012   5.475   4.199   2.990 -0.1533 -0.4988  0.5442
15232SOL    HW148013   5.399   4.148   2.961 -1.9036  1.5588  1.1997
15232SOL    HW248014   5.487   4.265   2.922 -0.3937  0.5709  1.5124
15233SOL     OW48015   1.153   4.453   7.742 -0.1936 -0.0426 -0.2527
15233SOL    HW148016   1.094   4.459   7.667 -1.9407  0.6391  1.0993
15233SOL    HW248017   1.095   4.453   7.818  1.5237 -0.4183  1.1291
15234SOL     OW48018   0.087   5.246   2.641  0.1124  0.6217  0.6948
15234SOL    HW148019   0.181   5.230   2.634  0.4966  2.4206  1.1506
15234SOL    HW248020   0.047   5.165   2.611  1.8094 -0.7813  2.0068
15235SOL     OW48021   1.937  10.063   7.806 -0.7454  0.5935 -0.2138
15235SOL    HW148022   1.964  10.002   7.875  1.0883  0.4452 -0.9807
15235SOL    HW248023   1.969  10.022   7.725 -1.8468  1.3035 -1.0352
15236SOL     OW48024   6.500   3.564   3.846 -0.2513  0.3203 -0.4043
15236SOL    HW148025   6.425   3.618   3.872  0.0775  0.9473 -0.7193
15236SOL    HW248026   6.542   3.540   3.928 -0.5907  0.2606 -0.2439
15237SOL     OW48027   2.167   7.561   6.190  0.5003  0.5094 -0.8979
15237SOL    HW148028   2.140   7.574   6.099  1.4717  0.7690 -1.1614
15237SOL    HW248029   2.258   7.591   6.193 -0.0457  2.2252  0.5803
15238SOL     OW48030   2.511   0.179   0.448 -0.0171  0.5938  0.8934
15238SOL    HW148031   2.529   0.178   0.354 -0.1201 -0.5140  0.8653
15238SOL    HW248032   2.597   0.175   0.489 -0.0162 -1.2967  0.7970
15239SOL     OW48033   7.611   8.901   5.712 -0.1036  0.3222 -0.4895
15239SOL    HW148034   7.637   8.810   5.729 -2.7853 -0.4730 -0.0209
15239SOL    HW248035   7.538   8.893   5.651 -0.7045  2.1346 -0.0646
15240SOL     OW48036  10.083   7.448   5.395 -0.1989  0.5098 -0.6391
15240SOL    HW148037   9.994   7.415   5.387 -0.0450  0.1495 -0.9488
15240SOL    HW248038  10.118   7.444   5.306  0.4776 -0.4039 -0.3557
15241SOL     OW48039   7.032   2.598   0.541 -0.1101 -0.3868  0.0254
15241SOL    HW148040   7.056   2.541   0.614 -0.0674  0.7035  0.8829
15241SOL    HW248041   7.028   2.686   0.579 -2.4485 -0.0952 -0.7645
15242SOL     OW48042   9.453   8.596   1.072 -0.0782  0.6161  0.1286
15242SOL    HW148043   9.401   8.672   1.047 -2.0391 -1.2779 -2.0893
15242SOL    HW248044   9.420   8.525   1.016  3.1068 -1.3855  0.5361
15243SOL     OW48045   5.776   1.947   4.960  0.8144 -0.2249 -0.2257
15243SOL    HW148046   5.827   2.017   4.921  0.5872 -0.3052 -0.6649
15243SOL    HW248047   5.828   1.920   5.036  0.0903  1.5552  0.9617
15244SOL     OW48048   4.484   2.687   7.825 -0.4002 -0.1029  0.3313
15244SOL    HW148049   4.502   2.729   7.741 -0.8363 -0.4956  0.0393
15244SOL    HW248050   4.531   2.741   7.889 -1.4719  1.2103  0.0473
15245SOL     OW48051   3.282   8.935   8.543 -0.4100 -0.1559 -0.3293
15245SOL    HW148052   3.334   8.879   8.601  0.0598  0.1260 -0.4664
15245SOL    HW248053   3.297   8.900   8.455  1.9083  1.6149 -0.7583
15246SOL     OW48054   3.891  10.427  10.553  0.4866  0.2950 -0.2365
15246SOL    HW148055   3.802  10.429  10.518  0.4436  1.8988 -0.1224
15246SOL    HW248056   3.883  10.381  10.637 -0.5464  1.7600  0.5133
15247SOL     OW48057   0.686   0.592   9.920  0.0931 -0.1188  0.1880
15247SOL    HW148058   0.715   0.550   9.838 -3.0943 -0.2888 -0.9841
15247SOL    HW248059   0.686   0.522   9.984 -1.1274 -0.9466 -0.6888
15248SOL     OW48060   4.514   9.096   0.351 -0.1568  0.3928 -0.8537
15248SOL    HW148061   4.451   9.167   0.358  0.1797  0.6836 -0.6826
15248SOL    HW248062   4.589   9.135   0.306 -0.2421 -0.0452 -1.3781
15249SOL     OW48063   7.423   2.569   1.612 -0.2460  0.2009  0.2593
15249SOL    HW148064   7.433   2.516   1.533 -1.6642 -0.5673  0.5694
15249SOL    HW248065   7.374   2.646   1.584  1.3808  1.1696 -0.0843
15250SOL     OW48066   5.903   4.558   3.686  0.1820 -0.0789  0.0676
15250SOL    HW148067   5.928   4.618   3.616 -0.2308  0.2916  0.2317
15250SOL    HW248068   5.859   4.613   3.751 -0.4079 -0.5925  0.1186
15251SOL     OW48069   0.575   3.879   5.843  0.3123 -0.0720 -0.2499
15251SOL    HW148070   0.650   3.887   5.784  0.5958 -2.1318 -0.2332
15251SOL    HW248071   0.609   3.901   5.929  0.4111  0.8630 -0.5178
15252SOL     OW48072   8.693   2.583   9.789  0.0376 -1.1269 -0.6196
15252SOL    HW148073   8.758   2.555   9.853  0.0275  1.8251  0.8778
15252SOL    HW248074   8.744   2.605   9.711  0.3136 -2.6616 -0.8905
15253SOL     OW48075   9.990   6.664   6.321 -0.0378 -0.1656 -0.1922
15253SOL    HW148076   9.993   6.704   6.234 -1.4599 -0.6001 -0.4691
15253SOL    HW248077  10.041   6.584   6.312  0.6132  0.2579 -0.3577
15254SOL     OW48078   1.009   1.824   1.860  0.1811  0.4960 -0.1914
15254SOL    HW148079   1.032   1.811   1.768  0.7630 -0.8973  0.1204
15254SOL    HW248080   0.920   1.858   1.858 -0.7609 -1.8013 -1.2368
15255SOL     OW48081   0.269  10.304   9.523  0.1773  0.6244  0.2073
15255SOL    HW148082   0.332  10.350   9.467 -0.0227  1.0922  0.3601
15255SOL    HW248083   0.316  10.226   9.553  0.2690  0.3501 -0.6441
15256SOL     OW48084   4.262   0.347   4.151 -0.3633 -0.3614  0.5513
15256SOL    HW148085   4.295   0.428   4.112 -2.5707  1.0274  1.4066
15256SOL    HW248086   4.198   0.315   4.088 -1.7393  0.2647  1.5885
15257SOL     OW48087   8.763   3.733  10.410 -0.0431  0.9148  0.1271
15257SOL    HW148088   8.840   3.755  10.462  0.0614  0.8952 -0.0165
15257SOL    HW248089   8.755   3.805  10.348 -1.0664  1.7068  1.1483
15258SOL     OW48090   7.130   0.938   8.403 -0.6995 -0.5990 -0.0623
15258SOL    HW148091   7.071   1.009   8.377  0.4450  0.3269 -0.1786
15258SOL    HW248092   7.205   0.982   8.442 -0.9103 -1.8248  1.9017
15259SOL     OW48093   7.694  10.573   0.487  0.0366 -0.1597 -0.3737
15259SOL    HW148094   7.765  10.526   0.531 -1.1860 -1.1255  0.6439
15259SOL    HW248095   7.698  10.661   0.523  0.5370 -0.2838 -0.1133
15260SOL     OW48096   3.224   7.767   2.575  0.0499 -0.3382 -0.0941
15260SOL    HW148097   3.258   7.705   2.511 -0.0581  0.1048 -0.5925
15260SOL    HW248098   3.129   7.755   2.572  0.0730 -0.6403  0.3234
15261SOL     OW48099  10.479   8.569   5.242 -0.0548 -0.5096 -0.3825
15261SOL    HW148100  10.544   8.553   5.310  0.5660  0.7360 -0.6456
15261SOL    HW248101  10.488   8.662   5.222  1.3977 -1.1820 -3.7295
15262SOL     OW48102   8.688   7.792   7.211 -0.4652 -0.1183 -0.2169
15262SOL    HW148103   8.743   7.866   7.237  1.5128 -1.6620  0.2572
15262SOL    HW248104   8.601   7.814   7.243  0.8938  0.1251  3.8572
15263SOL     OW48105   7.408   2.713   5.012 -0.0058 -0.5316 -0.4983
15263SOL    HW148106   7.439   2.800   4.985 -1.5757  0.7009  1.4387
15263SOL    HW248107   7.417   2.660   4.933  1.0121  1.3674 -1.7577
15264SOL     OW48108   8.260   6.726   3.439 -0.2088 -0.0015 -0.0276
15264SOL    HW148109   8.316   6.747   3.513 -1.7089  0.6175  0.9950
15264SOL    HW248110   8.319   6.722   3.364  1.3133 -0.3918  1.1488
15265SOL     OW48111   4.487   7.830   1.056 -0.2543 -0.8106 -0.0901
15265SOL    HW148112   4.465   7.896   0.991  1.4018 -0.8069 -0.6925
15265SOL    HW248113   4.423   7.843   1.126 -0.2077  1.1723 -0.3660
15266SOL     OW48114   8.121   8.121   6.227 -0.1791  0.0546  0.1123
15266SOL    HW148115   8.204   8.104   6.271  0.4939 -1.7896 -1.7073
15266SOL    HW248116   8.144   8.126   6.134 -1.9228  0.9531 -0.3040
15267SOL     OW48117   5.618   8.485   7.475  0.6785  0.2208 -0.1801
15267SOL    HW148118   5.538   8.435   7.461  1.3205 -0.7719 -0.3551
15267SOL    HW248119   5.595   8.549   7.543  0.2547 -1.2965  1.1667
15268SOL     OW48120   9.386   2.513   7.416  0.7474 -0.6774  0.1127
15268SOL    HW148121   9.431   2.438   7.454 -0.7219 -1.0534  1.1835
15268SOL    HW248122   9.456   2.566   7.378  1.8461 -2.4172 -0.4120
15269SOL     OW48123   5.332   4.958   2.056  0.4070 -0.0941  0.2569
15269SOL    HW148124   5.344   5.044   2.016  0.9151 -0.2746  0.0144
15269SOL    HW248125   5.336   4.975   2.150 -0.2096  0.2491  0.2250
15270SOL     OW48126   3.196   5.462   4.148 -0.9885 -0.9413 -0.2195
15270SOL    HW148127   3.161   5.507   4.225  0.2221  0.4842 -0.4703
15270SOL    HW248128   3.161   5.511   4.074 -0.7416 -1.2417 -0.5387
15271SOL     OW48129   0.243   0.255   5.974  0.2546 -0.3758 -0.5718
15271SOL    HW148130   0.292   0.334   5.998 -0.5003 -0.5710  1.9049
15271SOL    HW248131   0.263   0.193   6.044  0.4966 -2.2778 -2.2387
15272SOL     OW48132   4.560   0.384   0.950  0.0891 -0.0563  0.3332
15272SOL    HW148133   4.636   0.418   0.903 -0.3190 -0.5859 -0.7494
15272SOL    HW248134   4.589   0.298   0.982 -0.0611 -0.2705 -0.1040
15273SOL     OW48135   2.421   2.958  10.548  0.2338  0.3213  0.1263
15273SOL    HW148136   2.343   3.013  10.549  0.2648  0.3649  0.2439
15273SOL    HW248137   2.391   2.872  10.577  0.4844  0.6997  1.6109
15274SOL     OW48138   2.854   5.972   8.339 -0.6980  0.0937 -0.5871
15274SOL    HW148139   2.909   5.998   8.412 -0.2465 -1.7929 -0.2324
15274SOL    HW248140   2.907   5.991   8.261  0.0764 -0.8129 -0.2892
15275SOL     OW48141   1.224   8.993   5.637 -0.3776  0.4248  0.3439
15275SOL    HW148142   1.262   9.077   5.613  0.5438  0.5580  2.0686
15275SOL    HW248143   1.283   8.928   5.600  0.3854  0.6069  1.1904
15276SOL     OW48144   2.713  10.552   1.582 -0.3724 -0.0921  0.1511
15276SOL    HW148145   2.677  10.608   1.650 -1.9555 -2.3139  1.2729
15276SOL    HW248146   2.754  10.479   1.629  3.3299  0.8950 -1.1796
15277SOL     OW48147   0.242   7.667   8.844  0.5601  0.0043  0.0338
15277SOL    HW148148   0.152   7.646   8.867 -0.5536  0.9800 -2.8751
15277SOL    HW248149   0.275   7.589   8.799 -0.3576  0.9468 -2.4950
15278SOL     OW48150   2.835   3.048   1.588  0.1488  0.0472  0.2658
15278SOL    HW148151   2.904   3.113   1.571  0.3697  0.2636  1.8279
15278SOL    HW248152   2.837   2.990   1.512 -0.1392  1.9178 -1.2658
15279SOL     OW48153   6.486   8.000   1.634 -0.2461  0.0807  0.3140
15279SOL    HW148154   6.513   7.927   1.689 -0.5526  0.4375  0.9575
15279SOL    HW248155   6.460   8.068   1.696 -1.2132  0.2674 -0.2673
15280SOL     OW48156  10.365   6.650   2.882 -0.0566 -0.0435  0.1899
15280SOL    HW148157  10.378   6.664   2.976 -2.0008 -0.8761  0.6260
15280SOL    HW248158  10.278   6.686   2.864  1.1336  2.0720 -1.7759
15281SOL     OW48159   0.104  10.043   5.562 -0.4222  0.0101  0.1554
15281SOL    HW148160   0.080   9.986   5.635  0.4311  0.2247  0.6183
15281SOL    HW248161   0.021  10.060   5.516 -0.8532 -0.6986  0.6565
15282SOL     OW48162   3.175   4.543   1.683  0.3081 -0.4222  0.2145
15282SOL    HW148163   3.155   4.598   1.759  2.2765  0.2718  0.2711
15282SOL    HW248164   3.118   4.467   1.694 -0.6943  0.4540  1.4450
15283SOL     OW48165   0.524   6.346   1.750 -0.2714  0.2321 -0.3897
15283SOL    HW148166   0.436   6.313   1.735 -0.0336  0.0598 -1.4784
15283SOL    HW248167   0.565   6.348   1.663  0.6013  0.8680  0.0139
15284SOL     OW48168   4.431   8.015   5.613  0.4054 -0.0584  0.0926
15284SOL    HW148169   4.483   8.011   5.533 -0.0276 -1.2927 -0.1398
15284SOL    HW248170   4.340   8.008   5.584  0.2605 -0.9122  0.7068
15285SOL     OW48171   2.462   8.113  10.156  0.0443  0.3445 -0.1920
15285SOL    HW148172   2.517   8.191  10.146 -1.7042  1.5746 -0.5347
15285SOL    HW248173   2.416   8.126  10.238  0.1696 -0.6223  0.0378
15286SOL     OW48174   0.689   3.424   3.364  0.0576 -0.4675 -0.1846
15286SOL    HW148175   0.706   3.359   3.431  1.0458  1.1666  1.2330
15286SOL    HW248176   0.610   3.393   3.319  0.5761 -2.6623  0.3348
15287SOL     OW48177   3.878   7.081   1.492  0.2363 -0.4997 -0.3479
15287SOL    HW148178   3.956   7.040   1.529 -1.4592 -2.1999  1.6110
15287SOL    HW248179   3.856   7.027   1.416  0.9826  0.0656 -0.9880
15288SOL     OW48180   5.549   1.769   8.667  0.3089 -0.3542 -0.4547
15288SOL    HW148181   5.564   1.850   8.716  1.0713  0.1907 -1.5717
15288SOL    HW248182   5.637   1.740   8.641  0.1232 -1.9772  0.5979
15289SOL     OW48183   7.737   9.911   5.154  0.1128  0.2842  0.1594
15289SOL    HW148184   7.703   9.989   5.109 -1.1485 -0.0457  0.5022
15289SOL    HW248185   7.660   9.857   5.169  0.8945 -0.7778  0.4497
15290SOL     OW48186   0.890   6.350   0.288  0.4133  0.1672 -0.1074
15290SOL    HW148187   0.809   6.329   0.241  1.5517 -0.8876 -1.6545
15290SOL    HW248188   0.864   6.349   0.380 -1.5219  0.7276 -0.5903
15291SOL     OW48189   8.088   8.218   4.137 -0.0823  0.5281  0.1337
15291SOL    HW148190   8.151   8.242   4.068 -1.1572  2.0213 -0.3822
15291SOL    HW248191   8.082   8.123   4.132 -1.0344  0.6371 -2.7269
15292SOL     OW48192   2.622   7.932   6.926  0.3295  0.0122 -0.3946
15292SOL    HW148193   2.553   7.866   6.938 -0.5307  0.8764 -0.4850
15292SOL    HW248194   2.687   7.889   6.870 -0.1935 -0.7735 -0.4144
15293SOL     OW48195   7.037   1.491   0.521 -0.8248 -0.1160  0.0516
15293SOL    HW148196   7.113   1.464   0.574 -1.1913  0.1301  0.7076
15293SOL    HW248197   6.978   1.416   0.525 -1.1388  0.1488  0.5457
15294SOL     OW48198   4.656   2.707  10.069 -0.0441  0.4682 -0.2946
15294SOL    HW148199   4.587   2.694  10.135 -0.6211  2.6249 -0.3958
15294SOL    HW248200   4.737   2.688  10.115 -0.5644  0.2063  0.5313
15295SOL     OW48201   9.844   3.315   9.390 -0.0861 -0.1956  0.4001
15295SOL    HW148202   9.816   3.260   9.316 -0.0934  0.6408 -0.2257
15295SOL    HW248203   9.910   3.262   9.434  3.5367  1.0197 -2.9321
15296SOL     OW48204   2.721   7.886   8.760 -0.5118 -0.4644 -0.4334
15296SOL    HW148205   2.708   7.916   8.670 -0.0538  0.0781 -0.3239
15296SOL    HW248206   2.804   7.839   8.758 -0.7978 -0.9747 -0.4179
15297SOL     OW48207   6.177   7.864   6.735  0.4024 -0.0472 -0.0488
15297SOL    HW148208   6.256   7.834   6.690 -0.8776 -1.5019 -1.4816
15297SOL    HW248209   6.130   7.916   6.669  0.2559  1.0088  0.8638
15298SOL     OW48210   2.713   7.049   7.835 -1.0360 -0.2112  0.1688
15298SOL    HW148211   2.790   7.078   7.786 -1.8071  2.3097  0.3234
15298SOL    HW248212   2.644   7.043   7.769 -1.2619 -0.1738  0.4011
15299SOL     OW48213   0.342   6.234   9.446  0.4823  0.1566  0.1805
15299SOL    HW148214   0.282   6.303   9.477 -1.3289 -0.7708 -1.1307
15299SOL    HW248215   0.419   6.282   9.415 -0.8990  1.6899 -1.0821
15300SOL     OW48216  10.475  10.160   4.367  0.0697  0.2010 -0.2729
15300SOL    HW148217  10.458  10.254   4.372  1.5782  0.4827  0.1372
15300SOL    HW248218  10.563  10.150   4.402  0.8042 -1.0917 -2.3104
15301SOL     OW48219   2.142   6.769   5.771  0.5117  0.1494 -0.0362
15301SOL    HW148220   2.151   6.701   5.838 -0.1491 -0.1065 -0.2007
15301SOL    HW248221   2.127   6.850   5.820  1.9667  0.3125  0.1876
15302SOL     OW48222   6.588  10.558   9.404 -0.7059 -0.7872 -0.0383
15302SOL    HW148223   6.598  10.465   9.426 -0.1524 -0.5630  0.6651
15302SOL    HW248224   6.660  10.575   9.343 -0.6325 -0.7482  0.0591
15303SOL     OW48225   7.506   2.980   9.480  0.0850 -0.1276 -0.6546
15303SOL    HW148226   7.414   3.008   9.477  0.1520  0.0288 -2.3667
15303SOL    HW248227   7.555   3.061   9.491  0.0513 -0.1776 -0.0827
15304SOL     OW48228   9.855   8.403   3.550 -0.3285 -0.0042  0.2727
15304SOL    HW148229   9.931   8.433   3.601  0.0877 -1.4778  0.5781
15304SOL    HW248230   9.874   8.430   3.460  1.0620 -1.1765  0.1704
15305SOL     OW48231   0.862   5.080   6.996  0.2857 -0.0111 -0.4749
15305SOL    HW148232   0.898   5.169   7.002 -2.1128  1.0682 -0.9389
15305SOL    HW248233   0.844   5.067   6.903  0.1518 -0.7982 -0.3470
15306SOL     OW48234  10.504   0.307   2.984 -0.2694  0.6303 -1.0626
15306SOL    HW148235  10.594   0.329   3.008 -0.0676 -1.0714 -0.0815
15306SOL    HW248236  10.452   0.379   3.018  0.6258  1.1029 -0.6619
15307SOL     OW48237   7.018   3.591   2.761 -0.2060 -0.1111 -0.1165
15307SOL    HW148238   6.992   3.544   2.682 -1.0379 -0.9830  0.6674
15307SOL    HW248239   7.017   3.683   2.735  0.3060 -0.4251 -1.3327
15308SOL     OW48240   0.419   0.651   6.975 -0.6387 -0.7831 -0.2270
15308SOL    HW148241   0.430   0.566   7.017  1.8424 -1.2301 -1.5486
15308SOL    HW248242   0.378   0.632   6.891 -2.3236 -0.3292  0.4589
15309SOL     OW48243   0.005   7.634   8.282 -0.5693 -0.5580  0.1421
15309SOL    HW148244   0.078   7.612   8.341 -1.1563 -2.1827  0.2918
15309SOL    HW248245   0.018   7.579   8.205 -1.9150 -1.2870  0.3994
15310SOL     OW48246   7.708   5.003   0.056 -0.2287  0.1409  0.3912
15310SOL    HW148247   7.617   5.001   0.024  0.2983 -2.1838 -1.2796
15310SOL    HW248248   7.755   5.054  -0.010  0.0571 -0.6342 -0.0118
15311SOL     OW48249   6.967   8.776   0.845 -0.2216  0.1974  0.7267
15311SOL    HW148250   7.018   8.717   0.789 -1.5118 -0.8557  0.6400
15311SOL    HW248251   7.000   8.761   0.933 -0.3766 -0.4920  0.6729
15312SOL     OW48252   4.086   4.645   6.270  0.2897 -0.4091 -0.2249
15312SOL    HW148253   4.095   4.550   6.278  0.4551 -0.3651  0.1352
15312SOL    HW248254   4.169   4.679   6.302  0.1436 -0.1308 -0.1422
15313SOL     OW48255  10.395   1.885   2.108 -0.0907 -0.1346 -0.2908
15313SOL    HW148256  10.481   1.925   2.093  0.1153 -1.2393 -2.6403
15313SOL    HW248257  10.415   1.794   2.129 -0.6841 -0.2632 -0.2753
15314SOL     OW48258   2.424   8.760   6.456  0.3086 -0.1502 -0.2015
15314SOL    HW148259   2.506   8.719   6.485  0.7098  0.1696 -0.8644
15314SOL    HW248260   2.428   8.848   6.491 -0.4736 -0.5928  1.0731
15315SOL     OW48261   0.323  10.024   9.596 -0.2597  0.5248 -0.1841
15315SOL    HW148262   0.385  10.033   9.669 -1.0776  1.6497  0.3899
15315SOL    HW248263   0.379  10.014   9.519  0.6396  1.0658  0.3809
15316SOL     OW48264   5.412   7.308   5.074  0.2731 -0.5429  0.2030
15316SOL    HW148265   5.398   7.226   5.120  0.9846 -0.0512  1.3380
15316SOL    HW248266   5.507   7.316   5.066  0.2632  0.5261  0.8272
15317SOL     OW48267   6.991   8.746   3.682  0.5126  0.3637 -0.2563
15317SOL    HW148268   7.053   8.736   3.610  0.1287 -0.6705 -0.4657
15317SOL    HW248269   7.027   8.816   3.737  2.8487 -1.4473  0.6538
15318SOL     OW48270   2.068   3.350   2.473 -0.0212  0.1354 -0.2068
15318SOL    HW148271   1.984   3.305   2.464 -0.2974  0.5358  0.3394
15318SOL    HW248272   2.046   3.442   2.478  0.3699  0.1861  0.9005
15319SOL     OW48273   6.703   8.037   5.341  0.5871 -0.0486  0.3698
15319SOL    HW148274   6.777   8.096   5.327  0.6618 -0.5128 -1.5352
15319SOL    HW248275   6.736   7.951   5.316 -0.0133 -0.6238  1.4863
15320SOL     OW48276   4.207   0.002   6.996  0.0664  0.3143  0.1083
15320SOL    HW148277   4.264  -0.001   7.073  0.8289 -1.5129 -0.4613
15320SOL    HW248278   4.251   0.061   6.936 -0.4990  1.7034  1.0095
15321SOL     OW48279   1.202   2.817   1.833 -0.2438 -0.3633 -0.4846
15321SOL    HW148280   1.295   2.825   1.856 -0.0254 -2.6096 -0.3696
15321SOL    HW248281   1.180   2.727   1.856 -2.1323 -0.2589 -1.7257
15322SOL     OW48282   2.083   5.558  10.182 -0.0840 -0.1417 -0.8577
15322SOL    HW148283   2.041   5.635  10.221 -2.6824 -1.6949 -0.3538
15322SOL    HW248284   2.136   5.522  10.253  0.8425  0.9342 -0.9817
15323SOL     OW48285   0.733  10.417   7.833 -0.0163  0.2520  0.3499
15323SOL    HW148286   0.785  10.339   7.816  0.4337  0.5517  0.3388
15323SOL    HW248287   0.683  10.432   7.753 -0.3392 -0.1998  0.4627
15324SOL     OW48288   3.480   5.674   1.055 -0.1576  0.1282  0.1939
15324SOL    HW148289   3.392   5.646   1.083  0.1774 -0.4427  0.6957
15324SOL    HW248290   3.468   5.702   0.965 -0.7218 -0.6498  0.0136
15325SOL     OW48291   5.051   9.156   6.106  0.1964  0.3446  0.1562
15325SOL    HW148292   5.071   9.247   6.083 -1.1394  0.8704  0.9448
15325SOL    HW248293   5.081   9.147   6.196  1.5349 -0.4228 -0.3374
15326SOL     OW48294   9.512   4.203   6.143 -0.6211  0.1216  0.3855
15326SOL    HW148295   9.501   4.170   6.054  0.1031 -0.2621  0.4341
15326SOL    HW248296   9.428   4.183   6.186 -1.6744  1.9770 -0.7096
15327SOL     OW48297   0.111   9.163   7.814 -0.1232  0.2865 -0.0974
15327SOL    HW148298   0.120   9.085   7.869 -1.1047 -0.6481 -1.2049
15327SOL    HW248299   0.198   9.175   7.775  0.3669  0.5029  1.0353
15328SOL     OW48300   6.250   4.187   7.795 -0.5637 -0.2230 -0.2086
15328SOL    HW148301   6.252   4.198   7.890  1.3038  2.1065 -0.4305
15328SOL    HW248302   6.316   4.120   7.777  1.8779  1.9913 -0.0367
15329SOL     OW48303   0.906   4.658   3.328 -0.2889 -0.3503 -0.3343
15329SOL    HW148304   0.842   4.689   3.392  1.1892 -0.2335  1.1508
15329SOL    HW248305   0.916   4.731   3.267  1.4586  1.3538  1.8216
15330SOL     OW48306   4.071   6.564   6.971  0.1941  0.3439 -0.4677
15330SOL    HW148307   4.071   6.656   6.996 -0.1286  0.0304  0.7943
15330SOL    HW248308   4.133   6.558   6.899  1.2799  1.3224  0.3501
15331SOL     OW48309   3.813  10.303   0.182  0.2215 -0.6434 -0.6602
15331SOL    HW148310   3.846  10.354   0.256 -1.6971  1.3344 -1.0955
15331SOL    HW248311   3.722  10.329   0.173 -0.8724 -4.0760 -1.0347
15332SOL     OW48312   8.097   3.092   3.462 -0.2788 -0.2973  0.2707
15332SOL    HW148313   8.116   3.005   3.428 -2.2865 -0.0232 -1.7981
15332SOL    HW248314   8.080   3.079   3.555  2.1520 -1.6312  0.5969
15333SOL     OW48315   9.742   7.912   8.131 -0.3231  0.2785  0.3086
15333SOL    HW148316   9.677   7.967   8.174 -0.8616  0.2041 -0.3856
15333SOL    HW248317   9.819   7.969   8.120 -0.6868  0.7313  0.0719
15334SOL     OW48318   1.569   1.437   4.050  0.3477  0.1429  0.1241
15334SOL    HW148319   1.562   1.465   3.959 -0.7619  1.1782  0.5030
15334SOL    HW248320   1.607   1.512   4.096 -0.6311  0.2601  0.7800
15335SOL     OW48321   1.448   1.531   2.822  0.3391  0.2125 -0.0784
15335SOL    HW148322   1.408   1.521   2.909 -0.4296  1.3509 -0.2850
15335SOL    HW248323   1.458   1.625   2.811  0.7564  0.0591 -1.0893
15336SOL     OW48324   9.833   5.251   5.446  0.2831  0.2972  0.0246
15336SOL    HW148325   9.761   5.314   5.454  0.1367  0.0784  0.4438
15336SOL    HW248326   9.796   5.168   5.476 -0.0837 -0.4347 -2.2468
15337SOL     OW48327   9.899   8.195   8.300 -0.2443 -0.2519  0.4488
15337SOL    HW148328   9.916   8.150   8.217  0.7849 -0.8936  0.9856
15337SOL    HW248329   9.910   8.127   8.367 -0.8920  0.2924  1.1366
15338SOL     OW48330   6.873   0.996   2.532 -0.1297 -0.0349 -0.1028
15338SOL    HW148331   6.941   1.062   2.524 -0.2193  0.1271  0.4344
15338SOL    HW248332   6.791   1.045   2.538 -0.3390 -0.2371 -1.1026
15339SOL     OW48333   2.870   5.623   8.282  0.2409 -0.1542  0.6122
15339SOL    HW148334   2.865   5.718   8.298 -1.3762 -0.6140  3.3984
15339SOL    HW248335   2.959   5.599   8.308  0.9708  0.6520 -0.9529
15340SOL     OW48336   7.598   6.863   0.050  0.1534 -0.1420 -0.0884
15340SOL    HW148337   7.679   6.886   0.006 -0.5687 -0.9159 -1.9455
15340SOL    HW248338   7.529   6.904  -0.003 -0.7297 -0.2399  0.9346
15341SOL     OW48339   2.722   9.672   2.968  0.2445 -0.3665  0.1284
15341SOL    HW148340   2.657   9.608   2.996  1.8323 -2.4587 -0.6826
15341SOL    HW248341   2.692   9.702   2.882  0.3133 -1.2651 -0.2110
15342SOL     OW48342   7.904   0.926   2.498 -0.4616 -0.3402 -0.0258
15342SOL    HW148343   7.849   0.868   2.446  0.0253  0.8005 -1.8879
15342SOL    HW248344   7.843   0.969   2.558 -1.6983  1.0284 -2.1628
15343SOL     OW48345   1.032   1.846   6.694 -0.1806 -0.4703  0.1775
15343SOL    HW148346   0.940   1.823   6.681 -0.7230  0.6170  1.7485
15343SOL    HW248347   1.071   1.842   6.607 -2.4210  2.0129 -1.0503
15344SOL     OW48348   1.683   6.127   1.857 -0.5327  0.2580 -0.1968
15344SOL    HW148349   1.763   6.154   1.812  2.0112 -1.0076  3.1290
15344SOL    HW248350   1.662   6.042   1.819 -1.1214  1.1306 -1.9415
15345SOL     OW48351   2.525   1.793   1.396 -0.3138  0.4716  0.5156
15345SOL    HW148352   2.477   1.829   1.322 -1.9452  0.8561  1.6825
15345SOL    HW248353   2.604   1.847   1.403 -0.4494  0.8280 -0.5330
15346SOL     OW48354   3.906   9.468   7.078  0.1191 -0.6454  0.1446
15346SOL    HW148355   4.001   9.461   7.080  0.2312  0.3348 -0.8518
15346SOL    HW248356   3.884   9.519   7.157  0.4774 -0.3259  0.0385
15347SOL     OW48357   6.315   6.398   0.732  0.2324 -0.6064  0.6829
15347SOL    HW148358   6.391   6.383   0.676  0.1888  2.0135 -0.2188
15347SOL    HW248359   6.282   6.484   0.705 -0.6675  0.1240  3.7490
15348SOL     OW48360   6.304  10.236   1.086  0.1664  0.3869  0.1525
15348SOL    HW148361   6.354  10.248   1.166  1.7878  1.5045 -0.9537
15348SOL    HW248362   6.219  10.275   1.105  1.0799  2.1702  0.8513
15349SOL     OW48363   9.948   8.454   8.354  0.6889 -0.9867  0.1095
15349SOL    HW148364   9.950   8.435   8.448  0.9426 -0.8023  0.1423
15349SOL    HW248365   9.938   8.369   8.313  0.3293 -1.0473  0.3106
15350SOL     OW48366   1.736   3.983   2.770  0.4098 -0.3310 -0.1322
15350SOL    HW148367   1.673   4.054   2.762 -0.5673 -1.1972 -0.3083
15350SOL    HW248368   1.786   3.985   2.688 -0.4959 -0.6580 -0.7043
15351SOL     OW48369  10.199   1.487   5.100 -0.5357 -0.4252  0.4769
15351SOL    HW148370  10.104   1.498   5.104 -0.7984 -0.0629 -3.3216
15351SOL    HW248371  10.212   1.397   5.072 -0.0532  0.4599 -2.4995
15352SOL     OW48372   1.257   5.549   6.052  0.0029  0.4275  0.6354
15352SOL    HW148373   1.221   5.462   6.042 -2.3472  1.4537 -0.5341
15352SOL    HW248374   1.352   5.537   6.049 -0.2838 -1.9377 -0.6297
15353SOL     OW48375   8.995   5.504   1.148 -0.0678  0.2470  0.0907
15353SOL    HW148376   8.995   5.414   1.117  2.5559  0.1110  0.2350
15353SOL    HW248377   9.011   5.556   1.069  0.3879  0.3916  0.2705
15354SOL     OW48378   2.083   5.946   9.779  0.3489 -0.2949  0.1009
15354SOL    HW148379   2.123   5.886   9.842  0.8568  1.7455  1.8407
15354SOL    HW248380   1.994   5.912   9.767  1.0013 -2.0826  0.0154
15355SOL     OW48381  10.551   5.761   4.668 -0.1127 -0.1407  0.2067
15355SOL    HW148382  10.485   5.733   4.731 -0.8390  0.5995 -0.2040
15355SOL    HW248383  10.595   5.835   4.710  0.4072 -0.5757  0.4419
15356SOL     OW48384   7.760   5.522   5.722 -0.3821 -0.4187 -0.0617
15356SOL    HW148385   7.723   5.437   5.700 -2.1869 -0.1334  1.6092
15356SOL    HW248386   7.813   5.545   5.646 -0.4721 -2.6548 -0.8934
15357SOL     OW48387   9.656   3.239   5.502  0.6039 -0.1881  0.0792
15357SOL    HW148388   9.576   3.283   5.473  0.0200 -0.9332  0.5479
15357SOL    HW248389   9.673   3.174   5.434 -0.8409 -2.0294  1.3929
15358SOL     OW48390   1.985   7.958   4.832 -0.1411  0.5006 -0.1106
15358SOL    HW148391   1.943   7.879   4.867 -0.2372 -0.0068 -1.3376
15358SOL    HW248392   1.943   7.973   4.748  1.2244  0.7239 -0.7805
15359SOL     OW48393   9.017   2.548   6.729 -0.2926  0.6611 -0.0427
15359SOL    HW148394   9.043   2.455   6.733 -1.1750  0.3437 -1.2924
15359SOL    HW248395   9.099   2.594   6.709  0.6831  0.4784  3.0248
15360SOL     OW48396   6.947   6.071   3.172 -0.2709  0.0319 -0.0083
15360SOL    HW148397   6.928   5.981   3.199 -1.5303  0.7079  1.5750
15360SOL    HW248398   6.898   6.083   3.091  1.7502 -1.3733 -1.5046
15361SOL     OW48399  10.551   8.390   4.580  0.8283 -0.3797  0.7331
15361SOL    HW148400  10.471   8.375   4.529  0.1408  1.3757  1.2167
15361SOL    HW248401  10.576   8.304   4.612 -0.5861 -1.0385  0.1455
15362SOL     OW48402   9.700   8.677   7.978  0.1606  0.1479  0.0350
15362SOL    HW148403   9.713   8.689   8.072  2.3091 -0.1639 -0.1735
15362SOL    HW248404   9.756   8.603   7.955 -0.2015  0.3155 -1.5360
15363SOL     OW48405   6.255   9.947   9.473 -0.5069 -0.5339 -0.3744
15363SOL    HW148406   6.269   9.883   9.404 -1.4345 -0.4597 -0.6484
15363SOL    HW248407   6.289  10.029   9.438  1.3593 -0.9832  0.2559
15364SOL     OW48408   3.159   9.456   3.940 -0.5104  0.2894  0.2369
15364SOL    HW148409   3.135   9.522   4.004 -2.4414  0.3988 -0.5273
15364SOL    HW248410   3.170   9.504   3.858 -1.3827 -0.2525 -0.2080
15365SOL     OW48411   9.558   0.927   4.727  0.3183  0.2097 -0.3201
15365SOL    HW148412   9.506   0.861   4.773 -0.8916  0.8352 -0.7623
15365SOL    HW248413   9.637   0.880   4.700  0.5196 -0.4777  1.3230
15366SOL     OW48414   7.957   7.645   6.843 -0.1199  0.5833 -0.7872
15366SOL    HW148415   7.885   7.703   6.817 -0.4693  0.2300 -0.6072
15366SOL    HW248416   7.931   7.558   6.813  0.3843  0.5086 -1.0172
15367SOL     OW48417   2.809   8.085   3.452 -0.5768 -0.6977  0.0929
15367SOL    HW148418   2.839   8.159   3.504 -0.7585  1.0948 -2.1896
15367SOL    HW248419   2.747   8.039   3.508  1.2012 -0.4696  2.3775
15368SOL     OW48420   9.805   6.779   7.630 -0.5067 -0.3287  0.4554
15368SOL    HW148421   9.848   6.833   7.696 -0.8795  0.9774 -0.3307
15368SOL    HW248422   9.712   6.782   7.653 -0.7284  0.7030 -0.4908
15369SOL     OW48423   4.787   8.505   1.305  0.5988 -0.3650 -0.1351
15369SOL    HW148424   4.706   8.475   1.346  1.1401 -0.9786  0.5014
15369SOL    HW248425   4.795   8.597   1.332 -1.4830  0.7342 -2.7353
15370SOL     OW48426   6.959  10.361   4.740  0.5468  0.8115 -0.3209
15370SOL    HW148427   7.046  10.334   4.709  0.4560  0.8501 -0.6138
15370SOL    HW248428   6.898  10.317   4.680  0.4185  2.7355 -1.6922
15371SOL     OW48429   6.964  10.372   6.080 -0.1790  0.1319  0.0532
15371SOL    HW148430   7.049  10.367   6.036 -0.2942 -0.5577 -0.0907
15371SOL    HW248431   6.929  10.458   6.055  0.9188  0.8642  0.9365
15372SOL     OW48432   8.705   1.003   2.003 -0.2193  0.3649 -0.0705
15372SOL    HW148433   8.742   1.068   1.944 -0.0709  0.4666  0.1340
15372SOL    HW248434   8.616   1.033   2.020 -0.6674 -0.2800 -1.1681
15373SOL     OW48435   0.138   4.232  10.287 -0.1560  0.7710  0.4241
15373SOL    HW148436   0.123   4.239  10.193 -0.1205 -1.3383  0.2148
15373SOL    HW248437   0.054   4.202  10.323  0.6782 -1.6814  0.5491
15374SOL     OW48438   2.145   8.024   8.527  0.6195  0.1261 -0.1702
15374SOL    HW148439   2.067   8.062   8.567  0.2084  0.6251 -1.3715
15374SOL    HW248440   2.115   7.940   8.493  0.1108  1.0061 -2.0699
15375SOL     OW48441   9.485   0.433   9.083  0.0786  0.4721 -0.0649
15375SOL    HW148442   9.521   0.364   9.140 -1.3704 -0.4868 -0.2519
15375SOL    HW248443   9.556   0.452   9.021  0.3630 -1.2210 -0.3170
15376SOL     OW48444   7.183   0.602  10.108 -0.0462  0.2576  0.3149
15376SOL    HW148445   7.164   0.510  10.090  0.3023 -0.1529  1.9421
15376SOL    HW248446   7.245   0.627  10.040 -0.0569 -0.7417 -0.0776
15377SOL     OW48447   9.947   7.166   0.118 -0.5734 -0.1007 -0.1391
15377SOL    HW148448   9.932   7.082   0.162 -0.0020 -0.3405 -0.3847
15377SOL    HW248449   9.894   7.162   0.039 -0.2171 -0.4124 -0.3657
15378SOL     OW48450   1.670   1.639   1.142  0.9846 -0.4889  0.6511
15378SOL    HW148451   1.580   1.638   1.173  1.0774 -0.8037  0.9124
15378SOL    HW248452   1.709   1.559   1.177  0.8881 -1.2600 -0.9103
15379SOL     OW48453   0.094   3.609   7.103  0.2211  0.4786 -0.2262
15379SOL    HW148454   0.057   3.546   7.040 -0.7455  1.2483 -0.4523
15379SOL    HW248455   0.164   3.653   7.054 -2.4593  3.2491 -1.9493
15380SOL     OW48456   4.674   6.362   1.068  0.4709  0.5354 -0.2604
15380SOL    HW148457   4.599   6.414   1.038  0.2216  0.1687 -0.2826
15380SOL    HW248458   4.750   6.404   1.027  0.0554 -0.5580 -2.2601
15381SOL     OW48459   6.660   5.259   4.683  0.2223  0.0601 -0.2350
15381SOL    HW148460   6.721   5.234   4.614  0.4911  1.2473 -0.4492
15381SOL    HW248461   6.712   5.260   4.763 -0.0309 -1.0679 -0.0475
15382SOL     OW48462   2.373   0.564   0.552  0.8026 -0.5696 -0.6417
15382SOL    HW148463   2.378   0.631   0.484 -0.6118 -0.3384 -0.5493
15382SOL    HW248464   2.297   0.511   0.528  0.1919 -0.3946  0.8048
15383SOL     OW48465   9.210   2.069   5.344 -0.1934 -0.4659 -0.0386
15383SOL    HW148466   9.198   2.164   5.339  0.5601 -0.3278  0.6815
15383SOL    HW248467   9.171   2.044   5.427  1.3561 -0.4935  0.7097
15384SOL     OW48468   8.667   1.209   5.244  0.3070 -0.3697  0.2298
15384SOL    HW148469   8.633   1.262   5.171 -0.8530  0.2590  1.1911
15384SOL    HW248470   8.671   1.120   5.208  2.0581  0.2661 -1.3358
15385SOL     OW48471   3.530   7.737   9.806 -0.5607  0.0206  0.0833
15385SOL    HW148472   3.564   7.719   9.718  0.0888 -2.3297  0.7300
15385SOL    HW248473   3.574   7.817   9.833  0.3098  0.0029 -1.1945
15386SOL     OW48474   1.363   8.346   5.916  0.4162  0.0327  0.0997
15386SOL    HW148475   1.418   8.291   5.972  0.5541 -0.6910 -0.7275
15386SOL    HW248476   1.424   8.384   5.852  0.4489  1.7602  1.0962
15387SOL     OW48477   7.147   3.560   3.007 -0.0052  0.2480 -0.4794
15387SOL    HW148478   7.178   3.473   3.031 -0.3998  0.4302  0.7510
15387SOL    HW248479   7.091   3.545   2.930  0.9493 -0.4071 -1.0653
15388SOL     OW48480   5.569   8.327   2.415 -0.1402 -0.2593  1.3191
15388SOL    HW148481   5.495   8.364   2.367 -0.7259 -1.9722  0.8196
15388SOL    HW248482   5.646   8.370   2.378 -0.6072 -1.1882 -0.8992
15389SOL     OW48483   8.136   7.927   1.872 -0.2804 -0.0492  0.0662
15389SOL    HW148484   8.188   7.850   1.849  0.2483  0.5461 -0.8134
15389SOL    HW248485   8.142   7.983   1.795 -0.6347  0.8849  0.7059
15390SOL     OW48486   1.976   1.367   2.034 -0.2718  0.0886  0.2628
15390SOL    HW148487   1.917   1.438   2.009 -0.7380 -0.2885  0.2871
15390SOL    HW248488   2.009   1.333   1.951 -0.5396 -0.0786  0.2233
15391SOL     OW48489  10.249   8.317   3.658  0.3097 -0.0739  0.3636
15391SOL    HW148490  10.229   8.342   3.748 -0.6155  0.6831 -0.0390
15391SOL    HW248491  10.296   8.392   3.622  0.2212 -0.1627  0.0587
15392SOL     OW48492   1.466   5.121  10.309  0.5597 -0.2568 -0.4035
15392SOL    HW148493   1.515   5.101  10.229  0.1632  0.3008 -0.7922
15392SOL    HW248494   1.399   5.183  10.282 -0.3169 -0.9356  0.1437
15393SOL     OW48495   2.703   2.246   4.791  0.1621  0.0214 -0.2056
15393SOL    HW148496   2.648   2.320   4.813 -1.4478 -1.0861 -0.3407
15393SOL    HW248497   2.645   2.170   4.795  2.4024 -1.7548  3.1876
15394SOL     OW48498   0.369   9.849   4.639  1.0290  0.0692  0.0648
15394SOL    HW148499   0.402   9.939   4.635 -1.0826  1.0304  2.2138
15394SOL    HW248500   0.281   9.854   4.602  1.3339 -1.4196 -0.9560
15395SOL     OW48501   4.884   4.033   9.237 -0.1269 -0.2785  0.0097
15395SOL    HW148502   4.846   4.073   9.159 -2.3824 -0.3390  0.9951
15395SOL    HW248503   4.949   4.097   9.268  1.1645 -0.4727 -2.1129
15396SOL     OW48504   9.951   6.513   4.785 -0.3173 -0.0820  0.1223
15396SOL    HW148505   9.999   6.535   4.706 -2.5103  0.2453 -1.1959
15396SOL    HW248506  10.019   6.490   4.849  1.5501  0.5542 -1.5411
15397SOL     OW48507   0.012   8.620   1.165 -0.0912 -0.2305 -0.2717
15397SOL    HW148508  -0.020   8.545   1.214  2.5123 -0.2294  1.6162
15397SOL    HW248509   0.015   8.589   1.074 -1.3233 -1.5458  0.0875
15398SOL     OW48510   2.115  10.166   6.892  0.3213 -0.0552 -0.1380
15398SOL    HW148511   2.121  10.072   6.880 -0.1203 -0.2404  0.9446
15398SOL    HW248512   2.195  10.190   6.938 -0.5468 -0.2757  1.5672
15399SOL     OW48513   5.529  10.102   2.154 -0.6297  0.7002 -0.1878
15399SOL    HW148514   5.583  10.181   2.155 -0.5403  0.6421  0.6556
15399SOL    HW248515   5.442  10.132   2.181 -0.3419  0.3590  1.2017
15400SOL     OW48516   0.642   3.711   6.920  0.5553 -0.1306 -0.2988
15400SOL    HW148517   0.708   3.733   6.855 -0.9168  1.4954 -1.3315
15400SOL    HW248518   0.658   3.771   6.993  0.5327 -0.0859 -0.3306
15401SOL     OW48519   3.279   1.038  10.278 -0.0372  0.3869 -0.0438
15401SOL    HW148520   3.244   1.058  10.191  0.1202  1.3212  0.0944
15401SOL    HW248521   3.242   0.952  10.300 -1.3645  0.8530 -0.3658
15402SOL     OW48522   4.645   5.995   9.989 -0.5955 -0.1486 -0.2540
15402SOL    HW148523   4.675   5.954  10.071  1.9144 -0.5135 -1.2534
15402SOL    HW248524   4.616   5.921   9.935 -0.1754 -0.1529 -0.4779
15403SOL     OW48525   7.099   3.827   3.647 -0.1081 -0.0988  0.4030
15403SOL    HW148526   7.021   3.788   3.607  1.2746 -3.2699  0.5543
15403SOL    HW248527   7.154   3.851   3.573 -0.1162 -0.3178  0.3243
15404SOL     OW48528   2.576   5.473   0.186 -0.0669  0.3758  0.3314
15404SOL    HW148529   2.547   5.393   0.229  0.5176  0.1591  0.3353
15404SOL    HW248530   2.555   5.460   0.094  0.3671  0.0537  0.2739
15405SOL     OW48531   3.194   2.121   5.519  0.3330 -0.0571  0.5682
15405SOL    HW148532   3.234   2.166   5.594 -0.1254  0.2461  0.6346
15405SOL    HW248533   3.108   2.095   5.550 -0.5041  1.4840 -0.3473
15406SOL     OW48534   5.727  10.364   9.289  0.2808  0.3215  0.5709
15406SOL    HW148535   5.672  10.300   9.244  0.1534  0.5286  0.4351
15406SOL    HW248536   5.679  10.446   9.283  1.2281  0.8021 -0.7173
15407SOL     OW48537   4.058   3.500   9.158 -0.1257  0.8791  0.4403
15407SOL    HW148538   4.144   3.486   9.198 -0.5464  1.8139  1.7586
15407SOL    HW248539   4.004   3.428   9.191  0.7361 -1.2601 -2.4579
15408SOL     OW48540   8.565   3.655   2.386  0.1320 -0.5675 -0.0088
15408SOL    HW148541   8.629   3.585   2.397  0.8517  0.1293  0.3559
15408SOL    HW248542   8.577   3.683   2.295 -0.9549 -1.6583 -0.5183
15409SOL     OW48543   3.929   1.604   7.410 -0.1379  0.2540 -0.2848
15409SOL    HW148544   3.883   1.605   7.494 -1.4376  1.2944 -0.9775
15409SOL    HW248545   3.862   1.583   7.345  1.0995 -1.9110 -0.9705
15410SOL     OW48546   0.129   0.139  10.413  0.2427  0.2605 -0.9738
15410SOL    HW148547   0.196   0.178  10.357  1.0980 -0.3350 -0.3777
15410SOL    HW248548   0.081   0.214  10.448  0.9419  0.7199 -0.9745
15411SOL     OW48549   2.156   0.955   8.262 -0.4653 -0.2998 -0.1047
15411SOL    HW148550   2.188   0.893   8.327  4.2742  1.8508  0.0394
15411SOL    HW248551   2.126   1.030   8.313 -1.8873 -0.6647 -0.3695
15412SOL     OW48552   7.912   5.650   4.292 -0.0064 -0.2471 -0.2148
15412SOL    HW148553   7.870   5.589   4.231  0.9097 -0.5525 -0.5568
15412SOL    HW248554   7.925   5.730   4.240  0.9856 -0.5848 -0.5134
15413SOL     OW48555   4.130   4.308  10.559  0.5776 -0.6483 -0.3862
15413SOL    HW148556   4.124   4.403  10.544 -0.7387 -0.8823 -1.6191
15413SOL    HW248557   4.122   4.298  10.653  2.1967  0.5420 -0.0701
15414SOL     OW48558  10.176   7.360   1.030  0.2779  0.0902 -0.1163
15414SOL    HW148559  10.186   7.442   1.079  3.2485 -0.0186 -0.3218
15414SOL    HW248560  10.262   7.346   0.990 -1.0889 -1.4884 -2.7597
15415SOL     OW48561  10.322   6.818   4.981  0.3615  0.5256  0.6329
15415SOL    HW148562  10.227   6.826   4.987  0.2960  0.5573 -0.3566
15415SOL    HW248563  10.344   6.853   4.895  1.1206 -0.8069  0.2660
15416SOL     OW48564   7.018   0.652   1.152  0.8492  0.3228  0.0045
15416SOL    HW148565   7.016   0.558   1.133 -1.3942  0.3603 -0.2582
15416SOL    HW248566   6.995   0.657   1.245  2.7348  0.5729  0.4988
15417SOL     OW48567   7.916   2.682   7.937 -0.2162 -0.0589  0.4192
15417SOL    HW148568   7.996   2.663   7.889  0.0969  0.1478  0.8491
15417SOL    HW248569   7.887   2.598   7.971  1.2521  0.1815  2.4555
15418SOL     OW48570   9.288   3.468   4.885 -0.1531  0.1071  0.0874
15418SOL    HW148571   9.286   3.541   4.823 -2.4534  0.6349  0.7046
15418SOL    HW248572   9.360   3.488   4.944 -0.2790  1.4919 -0.2032
15419SOL     OW48573   3.232   9.795   6.411 -0.2391  0.1612 -0.3253
15419SOL    HW148574   3.273   9.870   6.453  1.2940 -0.6231 -0.3722
15419SOL    HW248575   3.263   9.798   6.320 -0.4634 -0.3260 -0.4233
15420SOL     OW48576   1.187   9.840   2.052  0.2767 -0.2251  0.1765
15420SOL    HW148577   1.143   9.790   2.120 -0.2063 -0.6080 -0.4018
15420SOL    HW248578   1.184   9.931   2.082  0.4198 -0.4427  0.8452
15421SOL     OW48579   0.750   8.631   7.296 -0.0402 -0.1102 -0.0629
15421SOL    HW148580   0.807   8.570   7.342  0.2787 -0.1442 -0.4927
15421SOL    HW248581   0.729   8.698   7.360 -0.0524 -0.4493  0.2910
15422SOL     OW48582   6.978   9.481   6.733  0.0056  0.1250  0.3339
15422SOL    HW148583   6.975   9.456   6.640  0.1281 -0.8097  0.5651
15422SOL    HW248584   6.891   9.459   6.767 -0.4835  1.6775  0.1701
15423SOL     OW48585   8.364   3.674   5.268  0.2940  0.3026  0.0934
15423SOL    HW148586   8.298   3.622   5.314  1.2734 -0.1448  1.0172
15423SOL    HW248587   8.371   3.631   5.182 -0.9988  0.6945 -0.2367
15424SOL     OW48588   9.295   4.661   1.497 -0.2893  0.2410  0.5065
15424SOL    HW148589   9.386   4.636   1.482 -0.4152 -0.2529  0.5682
15424SOL    HW248590   9.247   4.622   1.424 -0.5905 -0.3158  0.9958
15425SOL     OW48591   9.033   9.260   9.298  0.1128  0.3767 -0.1019
15425SOL    HW148592   9.066   9.174   9.324 -1.4424 -0.1329  0.2970
15425SOL    HW248593   8.960   9.240   9.239 -0.0440  1.4381 -0.2742
15426SOL     OW48594   0.610   7.045   5.605  0.3577  0.0544 -0.3298
15426SOL    HW148595   0.575   6.961   5.574  2.6743 -0.6460 -1.2276
15426SOL    HW248596   0.572   7.055   5.693 -1.3211 -1.0502 -0.8623
15427SOL     OW48597   9.269   5.356   4.031  0.4245 -0.1280 -0.5954
15427SOL    HW148598   9.226   5.291   3.975 -0.2409 -0.3063  0.1092
15427SOL    HW248599   9.327   5.304   4.087 -0.1377 -0.1216 -0.0039
15428SOL     OW48600   8.353   4.900   1.283  0.2459  0.2397 -0.1287
15428SOL    HW148601   8.357   4.842   1.208  0.9542  2.1443 -1.6592
15428SOL    HW248602   8.282   4.962   1.262  3.1410  3.4577 -1.4229
15429SOL     OW48603   0.797   5.687   7.245 -0.0873 -0.0272  0.3565
15429SOL    HW148604   0.860   5.759   7.236 -0.0406 -0.1998 -1.0139
15429SOL    HW248605   0.712   5.731   7.244 -0.0247  0.1818  1.9199
15430SOL     OW48606   4.572   6.236   2.115  0.4570 -0.2346  0.5636
15430SOL    HW148607   4.658   6.250   2.074  0.8002 -1.3100  0.8968
15430SOL    HW248608   4.510   6.249   2.044  0.8918  0.4786  0.2988
15431SOL     OW48609   4.990   4.141   2.955  0.1517 -1.0909 -0.9917
15431SOL    HW148610   5.052   4.211   2.973 -0.6483 -0.8834  1.3036
15431SOL    HW248611   4.904   4.183   2.961 -0.3196 -2.1275 -0.3062
15432SOL     OW48612   4.187   9.162   0.132  0.2063  0.3536 -0.0800
15432SOL    HW148613   4.234   9.199   0.207  1.7750  1.6608 -1.6188
15432SOL    HW248614   4.145   9.237   0.091  0.0622 -0.1989 -0.9644
15433SOL     OW48615   0.532   6.785   6.017  0.1381  0.3004 -0.5155
15433SOL    HW148616   0.536   6.736   5.935  3.5142  0.1396 -0.4126
15433SOL    HW248617   0.540   6.877   5.990  0.4092  0.3073 -0.4145
15434SOL     OW48618   6.549   1.536   4.670 -0.1167  0.0982 -0.5539
15434SOL    HW148619   6.578   1.599   4.605  2.1007 -0.9946 -0.7311
15434SOL    HW248620   6.599   1.558   4.749  0.3932 -1.1677 -0.5031
15435SOL     OW48621   2.719   1.710   0.330 -0.0258  0.1201  0.7786
15435SOL    HW148622   2.704   1.805   0.338 -1.2586 -0.1014  1.3073
15435SOL    HW248623   2.672   1.685   0.250  1.1736  0.1050  0.0480
15436SOL     OW48624   8.850   2.287   5.990  0.6337  0.0559  0.1261
15436SOL    HW148625   8.765   2.268   5.949  0.6095  0.9126 -0.2457
15436SOL    HW248626   8.828   2.317   6.078  0.6726 -1.5629  0.7190
15437SOL     OW48627   2.208   9.874   9.692 -0.0114  0.2781  0.4982
15437SOL    HW148628   2.278   9.913   9.744 -0.0046  0.2288  0.5261
15437SOL    HW248629   2.143   9.944   9.682  0.6093  0.7327 -0.5954
15438SOL     OW48630   5.153   9.487   4.267  0.1908  0.8832  0.1186
15438SOL    HW148631   5.177   9.576   4.293  1.0635  0.3761  1.1479
15438SOL    HW248632   5.201   9.473   4.185  1.2835  0.8365  0.7498
15439SOL     OW48633   9.681   2.619   2.165  0.6944  0.0000 -0.4794
15439SOL    HW148634   9.586   2.608   2.163  0.5379  1.1786 -0.3354
15439SOL    HW248635   9.715   2.533   2.191 -0.3249 -0.4201 -0.4848
15440SOL     OW48636   3.555   5.501   4.903  0.1442  0.6478 -0.5723
15440SOL    HW148637   3.591   5.414   4.923  0.4541  1.0510  0.7293
15440SOL    HW248638   3.483   5.511   4.965 -1.8430  0.1542 -2.6667
15441SOL     OW48639   1.487   6.140   0.939 -0.1981  0.5059  0.4546
15441SOL    HW148640   1.432   6.138   0.861 -0.9873 -2.0226  0.9898
15441SOL    HW248641   1.427   6.162   1.011 -0.6821 -2.3617  1.0555
15442SOL     OW48642   3.669   5.592   4.019  0.5209  0.4433  0.3049
15442SOL    HW148643   3.611   5.516   4.012 -0.2898  1.1147 -0.7244
15442SOL    HW248644   3.706   5.602   3.931 -0.2609  1.8750  0.0965
15443SOL     OW48645   9.319   9.802   3.067 -0.2905 -0.6382  0.6106
15443SOL    HW148646   9.318   9.707   3.055  1.1769 -0.9346  2.3133
15443SOL    HW248647   9.248   9.834   3.012  0.4168 -2.5227 -1.5673
15444SOL     OW48648   0.883   3.157   3.778  0.0049  0.3765 -0.0421
15444SOL    HW148649   0.885   3.216   3.702 -0.9378  0.8331  0.2814
15444SOL    HW248650   0.972   3.122   3.783  0.3473  1.1172 -0.7548
15445SOL     OW48651   5.161   5.493   8.098  0.0305  0.0782 -0.6570
15445SOL    HW148652   5.069   5.509   8.077 -0.1946  0.2779  0.3935
15445SOL    HW248653   5.159   5.460   8.188  1.0071  0.3940 -0.5114
15446SOL     OW48654   2.110   2.681   6.647 -0.3056 -0.0893  0.4086
15446SOL    HW148655   2.024   2.678   6.690  0.1461  0.9134  1.4265
15446SOL    HW248656   2.145   2.767   6.670  1.2529 -0.7303  0.5596
15447SOL     OW48657   6.344   2.471   7.574 -0.7691  0.1082  0.0932
15447SOL    HW148658   6.371   2.562   7.586 -1.1493  0.2729 -0.2701
15447SOL    HW248659   6.304   2.469   7.487  0.0312 -0.5987 -0.2691
15448SOL     OW48660   1.843   3.107   7.313 -0.6260  0.0057 -0.2253
15448SOL    HW148661   1.897   3.064   7.247  0.1568 -1.0582  1.0467
15448SOL    HW248662   1.890   3.093   7.395 -0.9064  2.3794  0.4220
15449SOL     OW48663   8.867   5.290   4.229 -0.4343 -0.5157 -0.2491
15449SOL    HW148664   8.818   5.341   4.165 -2.1109 -1.3187  0.3430
15449SOL    HW248665   8.894   5.353   4.296  0.9795  0.2528 -1.4880
15450SOL     OW48666   2.190   7.265   7.356 -0.2729  0.6300  0.2599
15450SOL    HW148667   2.217   7.227   7.272  2.1538  1.1997  0.6934
15450SOL    HW248668   2.123   7.329   7.334 -1.2567 -0.7713 -0.9701
15451SOL     OW48669   7.320   2.253   5.648 -0.4199 -0.1627  0.5686
15451SOL    HW148670   7.247   2.315   5.639  0.8776  1.4043  0.5862
15451SOL    HW248671   7.335   2.221   5.559 -1.3768 -0.8510  0.6255
15452SOL     OW48672   8.136   3.177   7.132  0.0397 -0.3955 -0.4793
15452SOL    HW148673   8.125   3.191   7.037 -1.6007  1.6059 -0.0780
15452SOL    HW248674   8.187   3.096   7.139  0.3195 -0.5287 -3.0658
15453SOL     OW48675   8.669   2.751   3.805  0.0902 -0.4635 -0.2178
15453SOL    HW148676   8.750   2.702   3.819  1.9095  1.7256 -2.2720
15453SOL    HW248677   8.684   2.836   3.848 -0.8337  0.2224 -1.2064
15454SOL     OW48678   3.578   1.406   0.207 -0.0594  0.2094  0.1473
15454SOL    HW148679   3.537   1.389   0.292 -1.2532 -0.3505 -0.5209
15454SOL    HW248680   3.547   1.493   0.182 -0.2506  0.0945 -0.0189
15455SOL     OW48681   7.148   0.308   5.769 -0.2669 -0.1099  0.9099
15455SOL    HW148682   7.229   0.303   5.820 -1.1461 -1.4631  2.2364
15455SOL    HW248683   7.093   0.370   5.817 -0.1568  0.5831  0.1718
15456SOL     OW48684   1.250   0.212   3.039  0.5267 -0.2961  0.0170
15456SOL    HW148685   1.335   0.229   2.998  1.4870 -1.4011  1.4440
15456SOL    HW248686   1.267   0.140   3.100 -0.8425  1.1256  2.2047
15457SOL     OW48687  10.514   2.124   7.305  0.1480  0.6731 -0.1289
15457SOL    HW148688  10.599   2.080   7.303  0.4272  1.1957  0.1528
15457SOL    HW248689  10.494   2.135   7.398 -0.4009  0.2307 -0.1879
15458SOL     OW48690   1.767   3.703   3.937  0.4042  0.4172  0.0166
15458SOL    HW148691   1.757   3.631   3.874  0.4023  0.4818 -0.0561
15458SOL    HW248692   1.683   3.750   3.932 -0.5221 -0.9420  1.7499
15459SOL     OW48693   8.812   8.312   8.254 -0.6558 -0.3088  0.2123
15459SOL    HW148694   8.837   8.239   8.197  0.0104 -0.0500  0.1660
15459SOL    HW248695   8.873   8.306   8.328 -0.6943  0.1125  0.2766
15460SOL     OW48696   3.457   8.943   9.529  0.0706  0.0052  0.7020
15460SOL    HW148697   3.549   8.947   9.553 -0.0094  0.7268  0.9104
15460SOL    HW248698   3.440   9.025   9.483 -0.2565 -0.5062 -0.1160
15461SOL     OW48699   2.743   2.013   3.801  0.1828 -0.5000  0.2435
15461SOL    HW148700   2.664   1.973   3.765  0.5047  0.2036 -1.2912
15461SOL    HW248701   2.751   2.097   3.757  0.0183  0.9549  2.7571
15462SOL     OW48702   1.845   0.441   4.975 -0.2741 -0.3416  0.2569
15462SOL    HW148703   1.931   0.426   5.014 -0.3476 -2.9381 -0.4299
15462SOL    HW248704   1.843   0.384   4.899 -1.6836  1.5720 -1.2213
15463SOL     OW48705   9.610   8.213   0.556 -0.1767  0.3745  0.0768
15463SOL    HW148706   9.551   8.139   0.569 -1.7530  1.4119 -0.8498
15463SOL    HW248707   9.556   8.290   0.572  1.0400  1.3614 -0.3818
15464SOL     OW48708   1.937   4.188  10.529  0.2329 -0.9138 -1.2571
15464SOL    HW148709   1.849   4.201  10.566  0.9718 -2.7999  1.4955
15464SOL    HW248710   1.976   4.275  10.529 -1.1145 -0.2850 -1.0597
15465SOL     OW48711   7.948   4.231   4.112 -0.7088 -0.0874 -0.1368
15465SOL    HW148712   8.032   4.198   4.080  0.6752  0.5626  2.5406
15465SOL    HW248713   7.966   4.322   4.138 -2.1378 -0.0238  0.7784
15466SOL     OW48714   7.565   4.327   8.470  0.2853 -0.2749 -0.1062
15466SOL    HW148715   7.500   4.320   8.400 -0.4891  1.5529  0.3748
15466SOL    HW248716   7.545   4.253   8.528 -1.1903  0.0508 -0.1420
15467SOL     OW48717   3.684   4.408   4.543 -0.2026  0.8423 -0.1477
15467SOL    HW148718   3.628   4.333   4.523  0.6859  0.1805 -0.1554
15467SOL    HW248719   3.735   4.381   4.619 -0.4964  1.7695  0.3953
15468SOL     OW48720   2.547   6.789   5.847 -0.5290 -0.4531  0.4602
15468SOL    HW148721   2.494   6.849   5.793 -0.1264 -1.9122 -1.6746
15468SOL    HW248722   2.503   6.704   5.839  0.6350 -1.1123  0.8671
15469SOL     OW48723   1.063   2.156   6.253 -0.3102 -0.1168 -0.4073
15469SOL    HW148724   1.080   2.112   6.170  1.7031  0.8454 -0.5516
15469SOL    HW248725   1.113   2.105   6.318 -1.1213 -0.3109  0.0806
15470SOL     OW48726   6.318   3.989   8.731 -0.0015 -0.1154  0.0777
15470SOL    HW148727   6.230   3.990   8.770 -0.3469  3.3412 -0.5281
15470SOL    HW248728   6.326   3.901   8.694 -2.1186 -1.4322  2.3860
15471SOL     OW48729   4.528   8.150   6.059 -0.1624  0.6021  0.0608
15471SOL    HW148730   4.540   8.059   6.034 -1.0904  0.1091  1.2698
15471SOL    HW248731   4.583   8.161   6.137  1.4361  1.6427 -1.1577
15472SOL     OW48732   0.799   6.701   2.075  1.1084 -0.1519 -0.2732
15472SOL    HW148733   0.754   6.727   2.156  1.8453  0.0738  0.0729
15472SOL    HW248734   0.778   6.770   2.012  0.4550 -0.3753 -0.3110
15473SOL     OW48735   3.870   1.838   9.551  0.5408  0.1602 -0.1533
15473SOL    HW148736   3.774   1.845   9.551  0.4870 -0.3836  0.7536
15473SOL    HW248737   3.898   1.903   9.616  0.7429 -0.0809  0.0047
15474SOL     OW48738  10.000   4.426   4.428  0.6697  0.1649  0.5761
15474SOL    HW148739  10.035   4.507   4.391 -1.7909  1.1356  0.2416
15474SOL    HW248740   9.997   4.365   4.354  0.3013  0.5277  0.2931
15475SOL     OW48741   0.748  10.288   6.999  0.7089 -0.0282  0.2517
15475SOL    HW148742   0.797  10.314   7.077  0.4186  1.1701  0.0549
15475SOL    HW248743   0.811  10.295   6.927  1.3015 -2.2152  0.4737
15476SOL     OW48744   1.856   1.467   2.273  0.2687 -0.5144  0.1577
15476SOL    HW148745   1.903   1.415   2.207  2.0115  1.4264 -0.2511
15476SOL    HW248746   1.925   1.510   2.323 -1.0718 -0.1377  1.7760
15477SOL     OW48747   2.031   2.544   7.355  0.2667  0.2554  0.4912
15477SOL    HW148748   2.116   2.584   7.339  1.0677 -0.9283  1.5589
15477SOL    HW248749   1.980   2.611   7.400  1.1613  0.5041  1.1619
15478SOL     OW48750   2.595   7.588   6.606 -0.1552 -0.7713  0.5063
15478SOL    HW148751   2.682   7.566   6.642 -0.3818  0.1003  1.6564
15478SOL    HW248752   2.551   7.634   6.678 -0.6307  1.1043 -0.9208
15479SOL     OW48753   1.963   6.794   3.689  0.4976  0.3728  0.4330
15479SOL    HW148754   2.056   6.814   3.681  0.4001  1.1408  1.0449
15479SOL    HW248755   1.933   6.848   3.762 -0.7468  1.2845 -0.6915
15480SOL     OW48756   0.048   0.756   5.350 -0.2100 -0.2239 -0.5663
15480SOL    HW148757  -0.003   0.827   5.312 -1.5599 -0.5125  0.6167
15480SOL    HW248758   0.051   0.776   5.443 -1.5162 -2.2134 -0.0349
15481SOL     OW48759   5.807   0.460   7.833 -0.9200  0.1807  0.0066
15481SOL    HW148760   5.800   0.397   7.760  1.9055  0.5301 -0.6935
15481SOL    HW248761   5.883   0.430   7.883 -1.0515  1.6141  1.1247
15482SOL     OW48762   2.615   7.622   1.018  0.4338  0.0086  0.0560
15482SOL    HW148763   2.542   7.678   0.990 -0.9629 -0.8573  1.7586
15482SOL    HW248764   2.574   7.552   1.069  2.0857 -2.6588 -1.9831
15483SOL     OW48765   5.634   4.516   9.602 -0.2467  0.1953 -0.1495
15483SOL    HW148766   5.629   4.584   9.670 -0.9462  0.3210 -0.3113
15483SOL    HW248767   5.549   4.473   9.606 -0.1325 -0.0809 -0.6577
15484SOL     OW48768   5.332   5.351   8.331  0.2495  0.3144 -0.1938
15484SOL    HW148769   5.309   5.418   8.395  1.7734 -0.0254  0.7589
15484SOL    HW248770   5.427   5.357   8.323  0.3206 -1.1375 -0.7494
15485SOL     OW48771   2.898   0.316   2.710 -0.1632  0.0654  0.0242
15485SOL    HW148772   2.981   0.272   2.731 -0.9595 -0.7284  1.7046
15485SOL    HW248773   2.870   0.355   2.793 -2.4690 -1.4221  0.0357
15486SOL     OW48774   0.159   5.723   1.287 -0.4060 -0.2417 -0.6384
15486SOL    HW148775   0.079   5.769   1.265 -1.3596  0.5502  3.5497
15486SOL    HW248776   0.133   5.631   1.292 -1.2694  0.0575  1.1307
15487SOL     OW48777   4.671   2.130   9.523 -0.2151  0.2782 -0.1886
15487SOL    HW148778   4.686   2.221   9.498 -1.8158  0.8439  0.7430
15487SOL    HW248779   4.662   2.132   9.618 -1.4346 -0.6510 -0.2538
15488SOL     OW48780   4.708   9.599   2.966  0.4106 -0.4050  0.3054
15488SOL    HW148781   4.737   9.582   3.056 -0.0362 -0.3385  0.4665
15488SOL    HW248782   4.697   9.512   2.928 -1.6501 -0.5350  1.0572
15489SOL     OW48783   3.508   4.310   0.219  0.3764 -0.0033 -0.3985
15489SOL    HW148784   3.522   4.319   0.314 -0.4390  2.0782 -0.4353
15489SOL    HW248785   3.511   4.399   0.185  1.8113 -0.8038 -2.5531
15490SOL     OW48786   9.737   4.385   7.681  0.8415 -0.1676 -0.2794
15490SOL    HW148787   9.655   4.431   7.701  1.0040  0.4900 -1.0820
15490SOL    HW248788   9.716   4.293   7.696 -0.2209 -0.0625 -0.9750
15491SOL     OW48789   9.676   9.336  10.448  0.2429 -0.3669 -0.2653
15491SOL    HW148790   9.740   9.319  10.517 -0.5548 -1.4288  0.2512
15491SOL    HW248791   9.614   9.263  10.454  0.4869 -0.8540 -2.5168
15492SOL     OW48792   4.024   6.552   4.604  0.5490  0.3425 -0.4584
15492SOL    HW148793   3.950   6.613   4.593  0.8587  0.8583  0.2355
15492SOL    HW248794   4.028   6.537   4.699 -0.2720 -1.7227 -0.7058
15493SOL     OW48795   3.944   8.440   3.843  0.0211  0.5141 -0.5496
15493SOL    HW148796   3.995   8.515   3.874 -1.1023  1.2449 -0.3829
15493SOL    HW248797   3.888   8.477   3.774 -2.3433  0.4385  1.2211
15494SOL     OW48798   0.141   2.496   9.366  0.4084 -0.2612  0.0074
15494SOL    HW148799   0.181   2.441   9.433  0.7809  0.9917  0.8548
15494SOL    HW248800   0.048   2.477   9.371  0.4651 -0.3921  0.6959
15495SOL     OW48801   3.353   8.307   6.201  0.7768 -0.5480  0.1080
15495SOL    HW148802   3.443   8.329   6.179  0.5507 -0.5706 -0.8789
15495SOL    HW248803   3.301   8.378   6.164  0.3519 -0.7235  0.3554
15496SOL     OW48804   0.219   2.953   3.856  0.2055  0.1597  0.0610
15496SOL    HW148805   0.300   2.923   3.814  2.0095  2.9153  1.3077
15496SOL    HW248806   0.200   3.037   3.814 -1.9899 -0.3481 -0.0885
15497SOL     OW48807  10.025   6.878   4.206  0.1339 -0.0768  0.5025
15497SOL    HW148808  10.081   6.940   4.253  0.2524  1.2445 -1.2942
15497SOL    HW248809   9.968   6.841   4.274  0.8711  1.1020  1.8076
15498SOL     OW48810   4.370   4.302   1.469  0.0557 -0.4295 -0.3665
15498SOL    HW148811   4.444   4.294   1.410  0.7251 -1.8155  0.6029
15498SOL    HW248812   4.382   4.232   1.533 -0.0400  1.6251  2.0798
15499SOL     OW48813   3.166   6.618   1.574  0.2813 -0.3834  0.2901
15499SOL    HW148814   3.248   6.666   1.587  1.1932 -1.0492 -2.3455
15499SOL    HW248815   3.188   6.527   1.593 -0.4164 -0.3266  1.4840
15500SOL     OW48816  10.264   5.197   0.770  0.1148 -0.9898 -0.1648
15500SOL    HW148817  10.244   5.234   0.856 -0.9683 -2.3265  0.1866
15500SOL    HW248818  10.359   5.182   0.772  0.8083  2.5368 -0.6845
15501SOL     OW48819   9.512   0.153  10.342  0.0290  0.1864 -0.6858
15501SOL    HW148820   9.511   0.110  10.256 -2.7585 -0.7095 -0.3097
15501SOL    HW248821   9.490   0.244  10.324  0.0662  0.1391 -0.9742
15502SOL     OW48822   4.617   9.792   7.514  0.2865  0.0674 -0.2672
15502SOL    HW148823   4.554   9.723   7.536  1.1199 -0.7629 -0.4002
15502SOL    HW248824   4.655   9.818   7.598 -1.0091  1.3749 -0.0496
15503SOL     OW48825   2.513   0.857   6.732  0.2250 -0.6776 -0.1487
15503SOL    HW148826   2.598   0.901   6.728  0.4420 -1.1574 -1.2717
15503SOL    HW248827   2.451   0.926   6.755  0.8402 -0.2003  0.0899
15504SOL     OW48828   3.877  10.597   9.984  0.0177 -0.1608  0.1190
15504SOL    HW148829   3.813  10.668   9.979 -1.8538 -1.8295 -1.8003
15504SOL    HW248830   3.847  10.543  10.057 -1.6077 -1.5509 -1.4593
15505SOL     OW48831   7.636   6.368   0.888 -0.1711 -0.0326  0.6575
15505SOL    HW148832   7.594   6.368   0.974 -1.1127 -1.3349  0.2409
15505SOL    HW248833   7.678   6.454   0.881  0.1603 -0.0076  2.5162
15506SOL     OW48834   3.405   1.069   0.779 -0.5141 -0.1645  0.6387
15506SOL    HW148835   3.412   1.164   0.771 -0.6416 -0.2348 -0.3265
15506SOL    HW248836   3.319   1.054   0.819  0.0273  0.1685  2.0075
15507SOL     OW48837   3.413   0.789   1.297 -0.0791 -0.2117  0.1094
15507SOL    HW148838   3.384   0.824   1.212 -0.2535 -2.4006 -0.7813
15507SOL    HW248839   3.386   0.698   1.296  0.1006 -0.3486  2.4756
15508SOL     OW48840   8.099   7.091   2.482 -0.4950 -0.5580  0.1056
15508SOL    HW148841   8.151   7.114   2.558 -0.4843  1.7812 -0.5260
15508SOL    HW248842   8.032   7.032   2.515 -0.7196  0.6971  2.0259
15509SOL     OW48843   0.063   6.463   4.097 -0.0446  0.1489 -0.1068
15509SOL    HW148844   0.105   6.391   4.144  0.0915  0.3454  0.0734
15509SOL    HW248845  -0.031   6.445   4.104  0.0141 -0.4886 -0.8216
15510SOL     OW48846   3.707   3.683   0.042  0.0097  0.4508  0.2086
15510SOL    HW148847   3.762   3.674   0.120 -1.0051 -0.1221  0.8654
15510SOL    HW248848   3.639   3.745   0.068  0.8321  1.8831 -0.8957
15511SOL     OW48849   3.834   0.355   2.778 -0.1133  0.5017  0.0962
15511SOL    HW148850   3.808   0.433   2.730 -0.2555  0.9505  0.8886
15511SOL    HW248851   3.930   0.352   2.769 -0.1679  0.3850 -0.4956
15512SOL     OW48852   1.784   2.028   7.928  0.0469  0.3407  0.2319
15512SOL    HW148853   1.859   2.081   7.901  0.0729 -0.4713 -1.3959
15512SOL    HW248854   1.785   2.032   8.023  0.0171  3.2960  0.2216
15513SOL     OW48855   8.462   0.124  10.556  0.4048 -0.5640 -0.5659
15513SOL    HW148856   8.432   0.034  10.543 -2.3811  0.0744  0.7447
15513SOL    HW248857   8.497   0.125  10.646 -0.1164 -0.2247 -0.3624
15514SOL     OW48858   9.049   9.990   0.209  0.2189 -0.5472  0.4081
15514SOL    HW148859   9.099   9.925   0.259  1.3030 -0.3756 -0.4127
15514SOL    HW248860   9.096   9.997   0.126  0.3508  1.5243  0.6064
15515SOL     OW48861   1.214   7.715   2.835  0.0398 -0.3526 -0.2671
15515SOL    HW148862   1.171   7.800   2.832  1.0192  0.2261  0.9810
15515SOL    HW248863   1.204   7.686   2.926  0.4277 -1.1910 -0.4719
15516SOL     OW48864   3.278   8.230  10.414  0.5642 -0.0631 -0.2045
15516SOL    HW148865   3.349   8.198  10.358 -0.1013 -0.9068 -0.5767
15516SOL    HW248866   3.209   8.255  10.353 -0.4884 -1.7521  0.2306
15517SOL     OW48867   0.637   8.833   4.893  0.4925 -0.5925  0.4203
15517SOL    HW148868   0.727   8.807   4.873  0.1234 -0.7350 -1.1723
15517SOL    HW248869   0.618   8.903   4.831 -0.6846 -0.9494  0.3621
15518SOL     OW48870   7.145   4.500   5.268 -0.4823  0.3555  0.7428
15518SOL    HW148871   7.079   4.436   5.295 -1.7541  1.4469  0.3509
15518SOL    HW248872   7.148   4.493   5.173  0.1843  0.1141  0.7800
15519SOL     OW48873   7.148   2.102   1.789 -0.2411 -0.1982 -0.6858
15519SOL    HW148874   7.056   2.120   1.773 -0.5866  0.3093  1.5625
15519SOL    HW248875   7.189   2.189   1.793  0.1911 -0.3884 -0.8897
15520SOL     OW48876  10.574   9.664   2.938 -0.0686  0.1326 -0.5550
15520SOL    HW148877  10.497   9.610   2.952 -0.9919  1.5589  0.0791
15520SOL    HW248878  10.621   9.662   3.021 -0.1748  0.4015 -0.4874
15521SOL     OW48879   8.151   6.231   1.209 -0.3789 -0.5285 -0.1709
15521SOL    HW148880   8.127   6.319   1.235  1.5578  0.2292 -0.7135
15521SOL    HW248881   8.070   6.191   1.179 -1.1337  1.4120 -0.8393
15522SOL     OW48882   0.949   6.568   6.645  0.5317  0.1841 -0.2891
15522SOL    HW148883   0.902   6.523   6.715  2.0465  0.9891  1.3424
15522SOL    HW248884   0.995   6.499   6.598  1.7992 -0.1649  1.3743
15523SOL     OW48885   4.498   9.608   7.878  0.0934 -0.3082 -0.1337
15523SOL    HW148886   4.561   9.593   7.948 -0.5230 -1.4348  0.1989
15523SOL    HW248887   4.442   9.679   7.911  1.0078  0.5283 -0.3310
15524SOL     OW48888   3.628  10.435   4.315  0.0760  0.1438 -0.7108
15524SOL    HW148889   3.689  10.434   4.241 -0.8539  0.7404 -1.4968
15524SOL    HW248890   3.659  10.364   4.372  1.6729  0.6098 -0.9400
15525SOL     OW48891   4.874   8.679   6.155 -0.2003 -0.0985 -0.5750
15525SOL    HW148892   4.872   8.681   6.251  0.1169  0.8022 -0.5789
15525SOL    HW248893   4.942   8.742   6.132 -1.2066  0.7066 -1.4296
15526SOL     OW48894   3.799   6.807   1.720 -0.4578 -0.3772 -0.4054
15526SOL    HW148895   3.834   6.721   1.743  4.5895  1.4667  0.0300
15526SOL    HW248896   3.795   6.854   1.803 -1.0788  0.4789 -0.9098
15527SOL     OW48897   5.884  10.122   9.321  0.4617  0.1930  0.0782
15527SOL    HW148898   5.967  10.119   9.274  0.8604  0.6230  0.7580
15527SOL    HW248899   5.860  10.214   9.323 -0.2939  0.0237 -0.5527
15528SOL     OW48900   5.619   8.683   1.563 -1.4051  0.0261  0.3575
15528SOL    HW148901   5.634   8.776   1.576 -2.0484  0.4265 -1.4778
15528SOL    HW248902   5.525   8.672   1.573 -1.1519 -0.7851  2.3393
15529SOL     OW48903   9.472   2.314   5.451 -0.1263 -0.7143 -0.6784
15529SOL    HW148904   9.488   2.381   5.384  1.0821  0.6488  0.8626
15529SOL    HW248905   9.394   2.345   5.497  0.0952 -0.6639 -0.3333
15530SOL     OW48906   4.954   9.745   0.880 -0.2982  0.2598  0.4583
15530SOL    HW148907   4.959   9.663   0.832 -1.3981  0.1692  0.4779
15530SOL    HW248908   5.033   9.746   0.935  1.0466  0.4102 -1.3621
15531SOL     OW48909   1.514  10.001   0.030 -0.3611 -0.0597 -0.4034
15531SOL    HW148910   1.519  10.094   0.010  0.1744 -0.0310 -0.1643
15531SOL    HW248911   1.604   9.970   0.020 -0.3555 -0.3512  0.4360
15532SOL     OW48912   8.749   2.143   2.679 -0.1843 -0.1233  0.2306
15532SOL    HW148913   8.811   2.201   2.723 -2.0646  2.1862  0.0558
15532SOL    HW248914   8.702   2.099   2.750  1.5178 -1.8767  0.3637
15533SOL     OW48915   9.185   4.868   9.615  0.3206 -0.8415  0.2095
15533SOL    HW148916   9.264   4.921   9.613  0.0550 -0.4078  0.7897
15533SOL    HW248917   9.215   4.780   9.635  0.8030 -0.9906 -1.0947
15534SOL     OW48918   0.697   3.633   7.783 -0.0728  0.1344 -0.4536
15534SOL    HW148919   0.611   3.616   7.744  0.2993 -1.9037 -0.5293
15534SOL    HW248920   0.751   3.560   7.753  1.6580  1.2977 -0.2811
15535SOL     OW48921   2.610   4.046   8.972  0.3232  0.3000 -0.3382
15535SOL    HW148922   2.531   4.050   9.025  0.4504 -1.1204  0.0042
15535SOL    HW248923   2.580   4.019   8.885  0.5416 -1.7599  0.1754
15536SOL     OW48924   6.193   1.364   9.011  0.2298 -0.0604 -0.2692
15536SOL    HW148925   6.121   1.316   9.053 -1.0893  1.2575 -0.9476
15536SOL    HW248926   6.182   1.345   8.918  1.2097 -0.4151 -0.3187
15537SOL     OW48927   9.813   1.608   8.667 -0.4741 -0.1298 -0.2578
15537SOL    HW148928   9.867   1.545   8.715 -1.5800 -1.4342 -0.6684
15537SOL    HW248929   9.876   1.661   8.619  0.6187  0.7027  1.9602
15538SOL     OW48930   4.009   2.269   1.526 -0.2211  0.4819 -0.1817
15538SOL    HW148931   4.042   2.207   1.591  1.2631 -0.9471 -2.1725
15538SOL    HW248932   4.088   2.301   1.482 -1.0893  2.4256 -0.4319
15539SOL     OW48933   0.460   5.613   2.980  0.5596  0.5540 -0.1827
15539SOL    HW148934   0.409   5.595   2.901 -1.6474  1.0584  1.0345
15539SOL    HW248935   0.425   5.551   3.045  3.1915 -0.7388  0.1505
15540SOL     OW48936   1.147   6.440   2.002  0.1267 -0.4454 -0.1755
15540SOL    HW148937   1.115   6.501   2.068  1.7609 -1.4838  1.7243
15540SOL    HW248938   1.230   6.477   1.973  0.0768 -0.6881 -0.6394
15541SOL     OW48939   5.612   7.165   0.602  1.0744  0.7405  0.5174
15541SOL    HW148940   5.574   7.251   0.585 -1.8758 -0.2597  1.3945
15541SOL    HW248941   5.549   7.122   0.660  1.4104 -2.7356 -1.4239
15542SOL     OW48942   1.444   4.428   3.825 -0.4021 -0.0203  0.1724
15542SOL    HW148943   1.511   4.495   3.812  0.7674 -1.3007 -0.5716
15542SOL    HW248944   1.363   4.471   3.798  0.2429  1.2391  0.1469
15543SOL     OW48945   3.135   2.535   0.026 -0.5497 -0.1587 -0.3371
15543SOL    HW148946   3.047   2.535  -0.012  0.1620 -0.3061 -2.1012
15543SOL    HW248947   3.160   2.627   0.030  0.3310 -0.2407 -2.7038
15544SOL     OW48948   1.694   3.088   0.696  0.1997 -0.4196 -0.0538
15544SOL    HW148949   1.716   3.064   0.786  0.1858 -1.2963 -0.2658
15544SOL    HW248950   1.778   3.099   0.653  0.2300  1.4792  0.4052
15545SOL     OW48951   4.809   2.681   6.637 -0.2941 -0.1935  0.8331
15545SOL    HW148952   4.773   2.715   6.554 -1.3597  0.0783  1.3871
15545SOL    HW248953   4.903   2.696   6.630 -0.4072  0.1429 -0.1889
15546SOL     OW48954   9.640   2.199   0.500 -0.0544  0.5184 -0.3334
15546SOL    HW148955   9.596   2.200   0.415 -0.2856 -0.7897 -0.2483
15546SOL    HW248956   9.590   2.137   0.552  1.7362 -0.8933 -0.1732
15547SOL     OW48957   8.824   7.391   7.352  0.9910  0.0422 -0.3692
15547SOL    HW148958   8.869   7.445   7.417  1.2057 -0.0438 -0.4432
15547SOL    HW248959   8.798   7.454   7.284  2.3032 -0.0934 -1.0427
15548SOL     OW48960  10.139   2.582   4.628  0.0684  0.4676 -0.1623
15548SOL    HW148961  10.163   2.564   4.537  1.1240  0.5794  0.0792
15548SOL    HW248962  10.221   2.605   4.670 -0.5611  1.4216  0.5941
15549SOL     OW48963   7.398   0.442   8.703  0.6095 -0.1211 -0.1943
15549SOL    HW148964   7.388   0.434   8.608 -0.8212  0.3345 -0.1003
15549SOL    HW248965   7.367   0.530   8.723 -1.5675 -1.0846  0.9796
15550SOL     OW48966   1.693   1.140   9.119 -0.3802  0.3493 -0.0660
15550SOL    HW148967   1.619   1.178   9.167 -0.4891 -1.1343  0.9942
15550SOL    HW248968   1.662   1.134   9.029 -0.9166  1.2936  0.0340
15551SOL     OW48969   2.249   9.449   6.686 -0.1687 -0.0117  0.1937
15551SOL    HW148970   2.303   9.508   6.738  0.0110 -1.3316  1.5926
15551SOL    HW248971   2.184   9.415   6.748 -1.0456 -0.3160 -0.8674
15552SOL     OW48972   6.532   4.422   0.626 -0.5150  0.1547 -0.1039
15552SOL    HW148973   6.542   4.467   0.542 -0.8049 -2.4451 -1.6381
15552SOL    HW248974   6.621   4.407   0.657 -0.4002  0.8274 -0.0957
15553SOL     OW48975   6.237   6.309  10.295  0.4380  0.5187 -0.1176
15553SOL    HW148976   6.154   6.299  10.342 -0.0992  2.8541 -0.4388
15553SOL    HW248977   6.291   6.364  10.352  0.8598  1.0091 -0.9620
15554SOL     OW48978  10.194   6.739   1.855 -0.1758  1.1090 -0.0485
15554SOL    HW148979  10.116   6.778   1.894 -1.7034 -0.8974 -0.9460
15554SOL    HW248980  10.216   6.796   1.782 -1.8231  0.8376 -0.7961
15555SOL     OW48981  10.262   2.510   3.822  0.1970 -0.2269 -0.0900
15555SOL    HW148982  10.177   2.555   3.825  0.0399 -0.4521 -0.8009
15555SOL    HW248983  10.300   2.524   3.908  0.0914  1.1519 -0.2441
15556SOL     OW48984   5.342   1.301   5.255 -0.0937 -0.3255 -0.4238
15556SOL    HW148985   5.387   1.385   5.268 -2.4754  0.9227  0.2965
15556SOL    HW248986   5.387   1.261   5.180  2.5609  0.5089  0.6247
15557SOL     OW48987   5.131   5.729   1.158 -0.0970  0.1442 -0.1239
15557SOL    HW148988   5.036   5.728   1.141  0.2664  0.5044 -2.5451
15557SOL    HW248989   5.138   5.762   1.247 -2.2771 -0.6826  0.4354
15558SOL     OW48990  10.387   8.585   1.813  0.1315  0.5053  0.1355
15558SOL    HW148991  10.308   8.631   1.784  1.2380  1.3948 -1.6283
15558SOL    HW248992  10.410   8.529   1.739  1.8996  1.2673  0.0643
15559SOL     OW48993   3.328   9.007   3.131 -0.0994  0.0783  0.0215
15559SOL    HW148994   3.389   8.997   3.059  0.1166 -0.0587  0.2212
15559SOL    HW248995   3.296   9.097   3.124 -0.3608 -0.0482 -0.4626
15560SOL     OW48996   4.522   1.934   6.281 -0.2548  0.3345  1.3019
15560SOL    HW148997   4.452   1.996   6.260  0.8099  0.7079 -1.6448
15560SOL    HW248998   4.482   1.873   6.343 -2.9975  0.8935  0.2306
15561SOL     OW48999   8.929   7.651   8.307  0.1409 -0.1190  0.0548
15561SOL    HW149000   8.985   7.575   8.292  0.2256  0.0904 -0.7239
15561SOL    HW249001   8.972   7.722   8.260 -0.8450  0.0114 -0.6790
15562SOL     OW49002   8.726   0.168   5.312  0.1541 -0.2596 -0.3968
15562SOL    HW149003   8.670   0.094   5.286 -2.8075  2.1593 -1.5434
15562SOL    HW249004   8.728   0.224   5.235  1.1995  1.4870  0.8437
15563SOL     OW49005   5.547   8.659   4.726  0.0914 -0.0941  0.3968
15563SOL    HW149006   5.628   8.629   4.768  0.2012  0.3326  0.4971
15563SOL    HW249007   5.512   8.725   4.786  0.8191  1.3326 -0.6847
15564SOL     OW49008   5.001   9.841   8.393  0.1313 -0.3886  0.6737
15564SOL    HW149009   4.964   9.924   8.426 -2.1475 -1.3169  0.6477
15564SOL    HW249010   5.086   9.834   8.436 -1.1935  0.1996  3.6446
15565SOL     OW49011   2.151   5.678   1.423  0.2257  0.1665  0.0409
15565SOL    HW149012   2.196   5.762   1.422  0.1078  0.2370  0.6747
15565SOL    HW249013   2.149   5.651   1.331 -0.2426  1.1267 -0.2451
15566SOL     OW49014   6.468   5.829   8.567 -0.5192  0.2680 -0.2515
15566SOL    HW149015   6.513   5.749   8.591 -2.3901 -0.7042  0.1638
15566SOL    HW249016   6.378   5.816   8.596 -1.0500  2.2053 -0.8813
15567SOL     OW49017   2.617  10.312   0.331 -0.4665  0.1091  0.3752
15567SOL    HW149018   2.564  10.363   0.393  0.7624  2.6781 -0.5360
15567SOL    HW249019   2.686  10.274   0.385 -0.1694  1.2174  0.8157
15568SOL     OW49020  10.170   2.675   0.451  0.1157 -0.5079  0.2008
15568SOL    HW149021  10.093   2.728   0.469  0.9163  0.5086  0.6859
15568SOL    HW249022  10.232   2.696   0.521  0.7531 -1.4899 -0.0403
15569SOL     OW49023   3.526   7.848   9.102  0.3075  0.1782 -0.4573
15569SOL    HW149024   3.534   7.806   9.017 -0.3467 -0.0406 -0.4219
15569SOL    HW249025   3.581   7.926   9.096  0.0124  0.3380 -1.1936
15570SOL     OW49026  10.582   7.481   3.288  0.4651 -0.6045 -0.6865
15570SOL    HW149027  10.661   7.426   3.288  1.3519  0.5545 -2.7216
15570SOL    HW249028  10.533   7.452   3.211 -0.0381  0.1043 -0.6350
15571SOL     OW49029   8.046   7.854   1.318  0.1579  0.1203  0.4415
15571SOL    HW149030   7.991   7.846   1.396 -0.4535 -0.9684 -0.0690
15571SOL    HW249031   8.043   7.767   1.279  0.8429  0.5277 -0.5426
15572SOL     OW49032   1.286   1.462   4.674  0.1846 -0.4072 -0.0411
15572SOL    HW149033   1.351   1.527   4.700 -1.1035  0.4693  1.1092
15572SOL    HW249034   1.221   1.463   4.744 -0.9261 -1.4747 -1.0038
15573SOL     OW49035   4.165   0.436   9.289  0.3767 -0.3981  0.5957
15573SOL    HW149036   4.111   0.493   9.344  0.1072 -0.9395  0.9053
15573SOL    HW249037   4.164   0.351   9.334  0.3013 -0.8024 -0.1442
15574SOL     OW49038   7.647   5.035   4.348  0.1959  0.1690 -0.1584
15574SOL    HW149039   7.606   5.042   4.434  1.5806 -0.2613  0.5575
15574SOL    HW249040   7.705   5.111   4.343  0.7168 -0.2345 -0.3694
15575SOL     OW49041   3.745   8.003   0.832 -0.2537  0.1579 -0.1065
15575SOL    HW149042   3.732   8.017   0.925 -1.2648 -0.1188 -0.1889
15575SOL    HW249043   3.827   7.954   0.826 -0.4756 -0.3312  0.6856
15576SOL     OW49044   0.713   6.404   5.793  0.3010 -0.1924  0.6046
15576SOL    HW149045   0.702   6.363   5.879  1.2800  1.1858  1.4383
15576SOL    HW249046   0.792   6.457   5.802 -0.3019  1.0078 -0.7529
15577SOL     OW49047   3.055   9.160   3.656 -0.1946  0.0035  0.3522
15577SOL    HW149048   3.132   9.199   3.616 -0.6071  0.3910 -0.0745
15577SOL    HW249049   3.079   9.149   3.748  0.4867 -0.1928  0.1549
15578SOL     OW49050   9.272   2.102   7.303  0.2408  0.4867  0.6620
15578SOL    HW149051   9.303   2.066   7.386  0.5495  0.7530  0.6663
15578SOL    HW249052   9.184   2.067   7.293 -0.9248  2.6187  2.4680
15579SOL     OW49053   8.315   0.684  10.281  0.5872 -0.6032  0.0969
15579SOL    HW149054   8.331   0.603  10.231  0.9896 -1.1543  1.1005
15579SOL    HW249055   8.323   0.658  10.372 -1.0208  0.2027  0.4987
15580SOL     OW49056   6.765   2.395   0.649 -0.6900  0.6894 -0.4521
15580SOL    HW149057   6.843   2.425   0.695  0.9693 -1.2683 -1.8010
15580SOL    HW249058   6.786   2.305   0.623 -3.5316 -0.0117 -0.6113
15581SOL     OW49059   2.367  10.202   1.377 -0.6732 -0.0908  0.0803
15581SOL    HW149060   2.455  10.221   1.409 -0.9810  0.0116  0.8876
15581SOL    HW249061   2.378  10.189   1.283 -0.0157  1.3836 -0.0747
15582SOL     OW49062   1.812   5.747   7.449  0.0683 -0.5161 -0.0937
15582SOL    HW149063   1.877   5.687   7.485 -1.1555 -1.4603  0.6233
15582SOL    HW249064   1.775   5.700   7.374  1.2881  0.6644 -1.4856
15583SOL     OW49065   9.503   8.550   2.633 -0.2298  0.1147  0.2867
15583SOL    HW149066   9.578   8.496   2.660 -0.0916  0.9723  1.7550
15583SOL    HW249067   9.523   8.578   2.544  0.3754 -1.0472  0.0352
15584SOL     OW49068   6.200   0.297   5.186 -0.3195 -0.1382 -0.3347
15584SOL    HW149069   6.253   0.304   5.106  0.0726 -0.0458 -0.0721
15584SOL    HW249070   6.111   0.319   5.158 -0.1486  0.0916 -0.7068
15585SOL     OW49071   0.478   2.301   0.061 -0.4397  0.7406 -0.6155
15585SOL    HW149072   0.563   2.321   0.024 -0.1594  0.5685 -0.0736
15585SOL    HW249073   0.417   2.307  -0.013  0.3153 -1.2008 -1.4541
15586SOL     OW49074   0.659   0.130   6.777  0.1673 -0.1582 -0.1411
15586SOL    HW149075   0.722   0.114   6.847  0.7362 -1.2598 -0.8815
15586SOL    HW249076   0.573   0.119   6.819  0.4962 -2.7957 -0.0095
15587SOL     OW49077   7.295   5.461   9.133  0.2138 -0.2088 -0.2107
15587SOL    HW149078   7.292   5.367   9.145  2.3662 -0.2920  0.0932
15587SOL    HW249079   7.308   5.496   9.221 -1.2547  0.4419 -0.2311
15588SOL     OW49080   9.270   2.955   5.934  0.0419  0.4735 -0.3812
15588SOL    HW149081   9.178   2.930   5.941  0.1928 -0.6026 -1.8290
15588SOL    HW249082   9.310   2.922   6.015 -0.4367 -1.0792 -0.7390
15589SOL     OW49083   3.437   6.522   3.649 -0.1084  0.3782  0.1461
15589SOL    HW149084   3.514   6.577   3.661  2.3222 -2.7284  0.2089
15589SOL    HW249085   3.432   6.509   3.554 -0.0405 -0.0808  0.2032
15590SOL     OW49086   3.448   5.377   3.327 -0.3291 -0.2435 -0.0571
15590SOL    HW149087   3.442   5.296   3.377 -0.5706  0.3219  0.8636
15590SOL    HW249088   3.494   5.353   3.247  0.7969 -1.0122  0.7977
15591SOL     OW49089   0.152   7.381   5.497 -0.4683  0.0186  0.2458
15591SOL    HW149090   0.068   7.342   5.473 -1.1272  0.9525  0.9403
15591SOL    HW249091   0.129   7.470   5.526  0.4020 -0.5846  3.0503
15592SOL     OW49092   3.551  10.212   1.251  0.0821 -0.4063  0.3655
15592SOL    HW149093   3.456  10.199   1.262 -0.0864  1.5345  1.9031
15592SOL    HW249094   3.589  10.177   1.332  0.2404  2.0827  1.4581
15593SOL     OW49095   5.711   0.509   5.416 -0.2513  0.6552 -0.2751
15593SOL    HW149096   5.791   0.553   5.388  2.3390 -2.4398  1.6467
15593SOL    HW249097   5.695   0.541   5.504 -0.1115  0.0434 -0.0198
15594SOL     OW49098   5.309   2.035   8.381 -0.1409  0.2243  0.1368
15594SOL    HW149099   5.347   2.027   8.468  0.3788  0.4050 -0.0659
15594SOL    HW249100   5.225   1.990   8.386 -0.2049  0.4103  0.7845
15595SOL     OW49101   5.565  10.350  10.470 -0.2974  0.2797  0.2287
15595SOL    HW149102   5.473  10.323  10.474 -0.2584  0.1588  0.3083
15595SOL    HW249103   5.562  10.445  10.466 -0.3108  0.6502  4.7646
15596SOL     OW49104   1.111   8.328   9.071  0.2611 -0.2663 -0.6499
15596SOL    HW149105   1.204   8.317   9.093 -0.1921 -0.1076  1.5181
15596SOL    HW249106   1.108   8.413   9.026  0.8391  1.2422  1.9264
15597SOL     OW49107   9.187   9.286   6.965 -0.3550  0.2054  0.4001
15597SOL    HW149108   9.152   9.204   7.000  0.2923  0.5627  1.9459
15597SOL    HW249109   9.226   9.330   7.040 -2.8599  3.1277  0.2151
15598SOL     OW49110   9.990   1.229   3.566  0.0651  0.2355 -0.4477
15598SOL    HW149111  10.051   1.163   3.532 -1.2817 -0.8070 -0.9485
15598SOL    HW249112  10.025   1.253   3.652  1.0153 -0.5544 -0.6034
15599SOL     OW49113   6.928   3.822   9.583 -0.7112 -0.0920  0.5824
15599SOL    HW149114   6.954   3.780   9.500 -0.6881  0.1178  0.4824
15599SOL    HW249115   6.996   3.796   9.645  0.3264  1.2715  0.0797
15600SOL     OW49116   9.466   3.741   2.645 -0.3199 -0.5800  0.4886
15600SOL    HW149117   9.546   3.693   2.666  0.9522  1.1982 -0.0121
15600SOL    HW249118   9.424   3.688   2.577 -0.8725 -2.7725  2.4208
15601SOL     OW49119   8.396   0.802   0.649 -0.3803  0.0688 -0.0962
15601SOL    HW149120   8.336   0.861   0.695  1.0226  1.9319 -0.5352
15601SOL    HW249121   8.370   0.808   0.557 -0.2717 -0.0407 -0.1347
15602SOL     OW49122   7.015   6.129   9.200  0.1790 -0.7575 -0.0233
15602SOL    HW149123   6.926   6.115   9.168  0.4102  1.2767 -1.8391
15602SOL    HW249124   7.007   6.202   9.262  0.7086  0.5238 -1.3881
15603SOL     OW49125   7.287   2.032   6.833  0.3854 -0.1057 -0.3597
15603SOL    HW149126   7.269   1.950   6.786 -1.6039 -1.7509  2.9300
15603SOL    HW249127   7.356   2.009   6.895  0.1338  0.8416  0.2875
15604SOL     OW49128  10.444   4.957   0.109 -0.1009  0.1656  0.2853
15604SOL    HW149129  10.443   4.970   0.014 -1.3424 -0.8163  0.1273
15604SOL    HW249130  10.352   4.944   0.132  0.3056 -0.9022  1.4219
15605SOL     OW49131   0.692   1.204   9.536  0.2396 -0.1159  0.3257
15605SOL    HW149132   0.619   1.151   9.568  0.3231 -0.4751 -0.0672
15605SOL    HW249133   0.767   1.145   9.539  0.0535 -0.5119 -1.5114
15606SOL     OW49134   8.440   4.757   0.269  0.2106 -0.3127  0.5076
15606SOL    HW149135   8.504   4.828   0.267  0.5480 -0.4603  3.0451
15606SOL    HW249136   8.493   4.678   0.280 -0.3305 -0.3818  3.2443
15607SOL     OW49137   6.513   3.432   4.474  0.3344  0.1609 -0.1536
15607SOL    HW149138   6.427   3.463   4.446  0.5637  0.1670 -0.8523
15607SOL    HW249139   6.555   3.509   4.513 -0.4431 -0.1358  1.3455
15608SOL     OW49140   2.178   7.725   7.464  0.2368  0.1089  0.5512
15608SOL    HW149141   2.200   7.637   7.492  0.5619 -0.1874 -0.5979
15608SOL    HW249142   2.091   7.717   7.424  0.5914  0.1566 -0.2434
15609SOL     OW49143   3.989   7.208   7.088  0.4759 -0.0062 -0.0799
15609SOL    HW149144   3.929   7.191   7.161  1.3922  2.4401  1.3858
15609SOL    HW249145   3.935   7.250   7.022  0.0297 -0.3897  0.0339
15610SOL     OW49146   8.027   0.892   5.779 -0.3583 -1.0569  0.6096
15610SOL    HW149147   7.942   0.935   5.791  0.4319  0.9587 -0.5850
15610SOL    HW249148   8.006   0.799   5.776 -2.2735 -0.7630  2.3531
15611SOL     OW49149   2.377   9.319   9.978  0.0672 -0.6110 -0.2270
15611SOL    HW149150   2.456   9.295   9.929  0.9720  1.0222  0.3639
15611SOL    HW249151   2.352   9.239  10.024  1.6188 -1.0703 -0.1313
15612SOL     OW49152   3.718   2.725   8.639 -0.3781  0.5494 -0.7167
15612SOL    HW149153   3.705   2.651   8.580 -1.5507 -0.7635  1.0739
15612SOL    HW249154   3.813   2.736   8.643 -0.1940 -0.6971 -1.2046
15613SOL     OW49155   8.343   0.591   2.325  0.3199 -0.0161 -0.0259
15613SOL    HW149156   8.350   0.679   2.289  2.1196  0.2729  0.9546
15613SOL    HW249157   8.287   0.600   2.402  1.3201  0.4956  0.6649
15614SOL     OW49158   3.654   8.025   1.116 -0.7022  0.5235 -0.0018
15614SOL    HW149159   3.689   7.944   1.153 -0.8822 -0.1836 -1.3056
15614SOL    HW249160   3.629   8.078   1.192  0.0044 -0.3727  0.8807
15615SOL     OW49161   1.471   8.038   2.166 -0.6221  0.1045 -0.4818
15615SOL    HW149162   1.550   7.988   2.189  0.2084  1.7633  0.4697
15615SOL    HW249163   1.505   8.122   2.134 -1.9838  0.2066 -1.7690
15616SOL     OW49164   4.885   8.632   3.137  0.2945  0.1104  0.4238
15616SOL    HW149165   4.878   8.545   3.097  0.5086  0.1041  0.4007
15616SOL    HW249166   4.974   8.634   3.174  0.1265  0.1461  0.8301
15617SOL     OW49167   2.559   9.113   1.484 -0.5245 -0.0385 -0.1156
15617SOL    HW149168   2.561   9.207   1.466 -1.7026 -0.1764 -1.1270
15617SOL    HW249169   2.626   9.076   1.427 -0.8499  0.0711 -0.5751
15618SOL     OW49170   9.575   5.797   3.959  0.1818 -0.1284  0.4035
15618SOL    HW149171   9.583   5.785   4.054 -0.9213 -2.7829  0.2577
15618SOL    HW249172   9.655   5.758   3.924 -0.3857 -1.1134  0.1754
15619SOL     OW49173   2.011  10.285   4.398  0.1179  0.1126 -0.5129
15619SOL    HW149174   1.999  10.339   4.320 -0.0857  2.3617  0.9920
15619SOL    HW249175   2.103  10.258   4.395  0.4256  1.1589 -0.9589
15620SOL     OW49176   5.046   1.808   7.629  0.4788 -0.1424  0.0901
15620SOL    HW149177   4.963   1.854   7.643  0.6798  0.0451  0.6795
15620SOL    HW249178   5.022   1.729   7.581  0.0336  0.2050 -0.2666
15621SOL     OW49179   7.042   7.959   6.866 -0.4153 -0.1403  0.3182
15621SOL    HW149180   6.955   7.921   6.877 -0.6629  0.6813  1.3605
15621SOL    HW249181   7.079   7.960   6.954 -0.5514  2.2953  0.4228
15622SOL     OW49182  10.069   2.147   9.762  0.8395  0.0596  0.5081
15622SOL    HW149183  10.095   2.202   9.836  2.2957 -0.3874  0.3605
15622SOL    HW249184  10.150   2.131   9.714  0.5259 -2.4557  0.7119
15623SOL     OW49185   6.771   3.551   3.138  0.3528  0.5894 -0.0986
15623SOL    HW149186   6.705   3.611   3.174 -1.3811  0.2779 -2.5212
15623SOL    HW249187   6.836   3.610   3.099 -1.1082  1.0335 -2.0618
15624SOL     OW49188   3.539   7.501   8.145 -0.0975 -0.1146 -0.0467
15624SOL    HW149189   3.593   7.427   8.116  1.0638  0.2658  1.0636
15624SOL    HW249190   3.579   7.577   8.104 -1.9327 -0.1340 -2.0697
15625SOL     OW49191   9.565   1.551   6.140  0.0738  0.0254 -0.1887
15625SOL    HW149192   9.601   1.586   6.058  0.0460  0.4392 -0.0271
15625SOL    HW249193   9.640   1.546   6.199 -0.2041  1.4218  0.3318
15626SOL     OW49194   5.861   4.145   9.309  0.3991  0.1055  0.7036
15626SOL    HW149195   5.818   4.083   9.368 -1.1118  0.0260 -0.4367
15626SOL    HW249196   5.954   4.121   9.313 -0.0400 -1.6900  0.9319
15627SOL     OW49197   4.818   9.000   2.918  0.2851 -0.0061  0.3844
15627SOL    HW149198   4.753   8.968   2.980 -1.1101  1.6740 -0.1303
15627SOL    HW249199   4.775   8.997   2.833  1.5775 -0.6813 -0.2788
15628SOL     OW49200   8.308   9.417   4.258 -0.4938  0.1869  0.3988
15628SOL    HW149201   8.314   9.386   4.348  0.8494  0.1477  0.3164
15628SOL    HW249202   8.332   9.340   4.205 -0.0386  0.5494  0.0699
15629SOL     OW49203   6.045   4.926   7.758 -0.0314  0.3149  0.1005
15629SOL    HW149204   6.066   4.999   7.816  0.7214 -0.0893  0.3620
15629SOL    HW249205   6.074   4.954   7.671 -0.0471  0.4561  0.1416
15630SOL     OW49206   6.390   3.841   7.896 -0.7658  0.0844 -0.5124
15630SOL    HW149207   6.454   3.912   7.902 -0.9689  0.1920  0.4839
15630SOL    HW249208   6.356   3.847   7.807  1.5214 -0.7652 -1.5357
15631SOL     OW49209   1.159  10.298   3.403  0.4758  0.1018 -0.4539
15631SOL    HW149210   1.234  10.249   3.436  0.5522  0.7308  0.3451
15631SOL    HW249211   1.137  10.358   3.475  0.1217  0.9292 -1.2404
15632SOL     OW49212   2.220   3.138   2.645 -0.5676 -0.3454 -0.0355
15632SOL    HW149213   2.171   3.198   2.589 -0.8094  2.6323  3.0664
15632SOL    HW249214   2.153   3.090   2.693 -0.3445 -1.6384 -0.9445
15633SOL     OW49215   7.750   5.471  10.521  0.2592  0.3948 -0.0504
15633SOL    HW149216   7.828   5.518  10.491  0.2962 -0.2713 -1.0426
15633SOL    HW249217   7.683   5.492  10.456  0.1429 -0.5133 -0.2442
15634SOL     OW49218   8.356   8.925   6.928 -0.3191 -0.7039  0.1875
15634SOL    HW149219   8.378   8.930   6.835 -0.5464 -1.5654  0.0736
15634SOL    HW249220   8.348   8.831   6.946 -0.9216 -0.5278  0.9265
15635SOL     OW49221   8.243   4.257   9.360 -0.8171  0.1327 -0.3695
15635SOL    HW149222   8.316   4.252   9.422  1.3958  0.0921 -2.8109
15635SOL    HW249223   8.236   4.168   9.324 -0.1646  0.7331 -2.1166
15636SOL     OW49224   5.084  10.545   9.854  0.5898  0.2988 -0.3254
15636SOL    HW149225   5.149  10.589   9.909  0.3706  1.3964 -0.9197
15636SOL    HW249226   5.107  10.570   9.764  0.2935 -0.5922 -0.6587
15637SOL     OW49227   2.630   1.988   8.206  0.5589 -0.9444 -0.3998
15637SOL    HW149228   2.584   2.052   8.153  0.5192 -1.2540 -0.7409
15637SOL    HW249229   2.663   1.923   8.144 -0.2314 -1.7833  0.0182
15638SOL     OW49230   6.748   6.790   4.413 -0.4147 -0.4852 -0.2989
15638SOL    HW149231   6.678   6.835   4.460  0.3787  0.3490  0.0977
15638SOL    HW249232   6.828   6.834   4.439  0.3302 -1.7355 -0.3807
15639SOL     OW49233   4.897   9.426   4.557  0.3103 -0.2150 -0.2605
15639SOL    HW149234   4.904   9.427   4.462  1.3249 -1.4888 -0.2153
15639SOL    HW249235   4.946   9.504   4.585  1.7099 -0.8940 -0.7131
15640SOL     OW49236   3.919   1.625   1.721 -0.5997  0.0122  0.1900
15640SOL    HW149237   3.952   1.661   1.639 -2.2757  1.9215  0.2934
15640SOL    HW249238   3.913   1.700   1.780  0.5661 -1.3087  2.1265
15641SOL     OW49239   9.262   0.364   1.464 -0.8881 -0.4259  0.1615
15641SOL    HW149240   9.311   0.336   1.386 -0.9503 -1.0716  0.3423
15641SOL    HW249241   9.328   0.368   1.533 -1.1271 -1.6394  0.4866
15642SOL     OW49242   4.025  10.184   4.263  0.0709  0.2849  0.1844
15642SOL    HW149243   3.942  10.155   4.224  0.0092  0.6581  0.0356
15642SOL    HW249244   3.999  10.240   4.336  0.1770 -0.8661  1.1428
15643SOL     OW49245   9.977   5.498   9.939 -0.4391  0.2790  0.1934
15643SOL    HW149246   9.883   5.509   9.950 -0.3260  2.1855 -0.3376
15643SOL    HW249247  10.015   5.575   9.981  0.9015 -0.4793  0.4401
15644SOL     OW49248   1.935   5.076   0.580  0.1584 -0.1902  0.4005
15644SOL    HW149249   1.926   5.146   0.645  0.1112 -0.7463  1.0038
15644SOL    HW249250   1.897   5.112   0.500 -0.7178  0.1437  0.9501
15645SOL     OW49251   3.498   3.603   2.034  0.3259 -0.7655  0.0707
15645SOL    HW149252   3.542   3.553   2.103  0.3510 -0.0467  0.5898
15645SOL    HW249253   3.483   3.690   2.073 -0.7413 -0.7175 -0.4118
15646SOL     OW49254   4.584   6.965   3.089 -0.1237  0.1626  0.1622
15646SOL    HW149255   4.508   6.965   3.148 -0.9044  0.2918 -0.8223
15646SOL    HW249256   4.548   6.984   3.003  1.0649  0.4320 -0.2978
15647SOL     OW49257   4.373  10.084   3.557  0.3916  0.1172  0.0902
15647SOL    HW149258   4.448  10.129   3.595 -1.5710  2.1891  1.7674
15647SOL    HW249259   4.337  10.146   3.494 -1.4917  0.3970  1.3588
15648SOL     OW49260   2.923   8.718   4.474 -0.5076 -0.0225  0.2477
15648SOL    HW149261   2.892   8.777   4.405  0.0319  0.3030  0.2784
15648SOL    HW249262   2.854   8.652   4.482  1.0458 -2.4225 -3.4031
15649SOL     OW49263   8.460   7.337   5.041  0.6752  0.3088 -0.0772
15649SOL    HW149264   8.550   7.308   5.049  1.1658  1.8619  0.4640
15649SOL    HW249265   8.430   7.350   5.131 -0.1889 -0.4470 -0.2387
15650SOL     OW49266  10.268   8.471   5.453 -0.1269  0.4752 -0.3412
15650SOL    HW149267  10.203   8.528   5.412 -0.5398 -0.0304 -0.3855
15650SOL    HW249268  10.288   8.405   5.387  0.7741  0.8863 -0.4981
15651SOL     OW49269   4.229   4.948   0.841 -0.2369 -0.2833 -0.6139
15651SOL    HW149270   4.200   4.900   0.919 -1.4128 -0.2414 -1.0135
15651SOL    HW249271   4.246   5.037   0.872 -0.4669 -0.3295 -0.3553
15652SOL     OW49272  10.466   8.327   8.387  0.4816 -0.2096  0.6822
15652SOL    HW149273  10.450   8.233   8.398  0.9217 -0.3956 -0.2383
15652SOL    HW249274  10.392   8.358   8.335  0.8170 -0.2187  0.2032
15653SOL     OW49275   3.865   0.368   9.407  0.0663 -0.7280 -0.0486
15653SOL    HW149276   3.930   0.435   9.426 -1.1969  1.4939 -2.8519
15653SOL    HW249277   3.810   0.364   9.485  0.9720  0.5078  0.6794
15654SOL     OW49278   7.331   9.482   0.152 -0.3149  0.6478  0.1942
15654SOL    HW149279   7.358   9.539   0.224  0.6084 -0.3374  0.6688
15654SOL    HW249280   7.273   9.418   0.193  1.7434 -1.1182  0.5529
15655SOL     OW49281   6.068   4.890   2.470  0.1845  0.4497 -0.3718
15655SOL    HW149282   6.144   4.873   2.415 -0.8689 -0.6150 -1.5803
15655SOL    HW249283   6.103   4.930   2.549  1.7395  2.3942 -1.9380
15656SOL     OW49284   3.291   0.613   1.841  0.2088 -0.1626 -0.1582
15656SOL    HW149285   3.291   0.565   1.924 -2.0755  1.8009  1.1052
15656SOL    HW249286   3.250   0.553   1.779  1.3806 -1.4299  0.2470
15657SOL     OW49287   0.582   9.355   0.038 -0.2025  0.4278  0.3075
15657SOL    HW149288   0.590   9.446   0.066 -1.4544  0.7787 -0.4160
15657SOL    HW249289   0.570   9.359  -0.056 -0.1543 -0.5007  0.2485
15658SOL     OW49290   2.419   9.214   0.869 -0.2302  0.0690  0.2220
15658SOL    HW149291   2.459   9.133   0.900 -1.4354 -1.0273 -0.9838
15658SOL    HW249292   2.494   9.268   0.842  0.5524 -1.5882 -1.1644
15659SOL     OW49293   9.253   3.164   9.354 -0.0198  0.4512  0.2593
15659SOL    HW149294   9.184   3.175   9.419  0.1480 -0.3263  0.5794
15659SOL    HW249295   9.247   3.242   9.299 -0.7070  0.7153  0.6980
15660SOL     OW49296   1.532   0.942   9.696 -0.5814 -0.0130  0.3398
15660SOL    HW149297   1.599   0.992   9.648 -0.0305 -1.0777 -0.0347
15660SOL    HW249298   1.526   0.986   9.780  0.3413  0.3261  0.2469
15661SOL     OW49299   1.655   0.544   0.924  0.0613 -0.4411  0.3238
15661SOL    HW149300   1.724   0.599   0.888  2.2856 -3.2344 -0.0578
15661SOL    HW249301   1.682   0.526   1.014 -1.2961  0.0644  0.8652
15662SOL     OW49302   9.171   4.105   5.058 -0.1840  0.0822 -0.2484
15662SOL    HW149303   9.084   4.116   5.096 -0.5493 -1.8640 -0.4566
15662SOL    HW249304   9.156   4.093   4.965  0.1045 -2.1462 -0.0559
15663SOL     OW49305   2.477   5.720  10.427  0.4316 -0.5171 -0.0011
15663SOL    HW149306   2.563   5.694  10.460 -0.0959 -0.1260  1.7698
15663SOL    HW249307   2.464   5.666  10.349  1.1790 -2.4880  1.1598
15664SOL     OW49308   4.844   1.994   0.525 -0.9039  0.3068 -0.0170
15664SOL    HW149309   4.920   1.997   0.583 -1.6574  2.2232  0.9445
15664SOL    HW249310   4.796   1.916   0.553 -0.0104 -0.1467  0.2779
15665SOL     OW49311   8.732   4.277   9.646 -0.0968  0.0429  0.4186
15665SOL    HW149312   8.770   4.365   9.646 -3.7195  1.7952 -1.3768
15665SOL    HW249313   8.725   4.254   9.553  2.5614 -3.1993  0.8020
15666SOL     OW49314   4.458   3.542   4.537 -0.1026 -0.3350 -0.1826
15666SOL    HW149315   4.463   3.513   4.628 -0.5636  0.9617  0.2742
15666SOL    HW249316   4.528   3.606   4.529  0.8016 -1.3891 -1.1348
15667SOL     OW49317   3.062   0.190   5.492  0.3606 -0.1060 -0.0047
15667SOL    HW149318   3.123   0.239   5.437  0.2797  0.6682  0.5723
15667SOL    HW249319   2.988   0.249   5.504 -0.9491 -1.3591 -1.4247
15668SOL     OW49320   0.183   8.570   8.842  0.2935 -0.3449 -0.5651
15668SOL    HW149321   0.236   8.633   8.892  1.7963 -3.3721  2.0268
15668SOL    HW249322   0.114   8.624   8.802  1.3643  2.9071  1.5058
15669SOL     OW49323   7.633   6.738   4.781 -0.1636 -0.2051  0.5421
15669SOL    HW149324   7.543   6.746   4.812 -0.7418 -3.3383  0.0236
15669SOL    HW249325   7.629   6.756   4.688 -0.2127 -0.1522  0.5546
15670SOL     OW49326   8.921   8.237   0.622  0.0467 -0.3453 -0.2451
15670SOL    HW149327   8.949   8.161   0.674  0.4511  0.3510  0.5700
15670SOL    HW249328   8.926   8.207   0.532 -0.5816 -1.5563  0.0921
15671SOL     OW49329  10.468   3.670   3.610 -0.0015  0.0840  0.0933
15671SOL    HW149330  10.420   3.630   3.537  0.4613 -0.0193 -0.1622
15671SOL    HW249331  10.484   3.598   3.671 -1.1697  0.3500  0.7308
15672SOL     OW49332   2.969   0.397   7.263  0.7492 -0.2628  0.5293
15672SOL    HW149333   2.990   0.489   7.278  0.2603 -0.3018  1.6141
15672SOL    HW249334   3.049   0.350   7.289  0.9816 -0.1501  0.0236
15673SOL     OW49335   8.758   0.593   9.839 -0.4068  0.1224  0.4463
15673SOL    HW149336   8.803   0.583   9.923 -0.1097  1.5121  0.4770
15673SOL    HW249337   8.666   0.602   9.863 -0.5143 -0.9548  0.5025
15674SOL     OW49338   3.411   3.740   3.916  0.1837  0.0719  0.0707
15674SOL    HW149339   3.460   3.659   3.904  2.0971  1.0726  0.6835
15674SOL    HW249340   3.402   3.748   4.011 -0.2984  0.4273 -0.0008
15675SOL     OW49341   2.221   0.937   3.420 -0.6391  0.0188 -0.4893
15675SOL    HW149342   2.254   0.872   3.482  1.3514  1.2130 -0.2018
15675SOL    HW249343   2.284   1.010   3.426 -3.1434  2.3053 -0.2683
15676SOL     OW49344  10.265   9.053   1.659 -0.4248  0.0394 -0.2186
15676SOL    HW149345  10.225   9.119   1.716  0.3348  0.8531 -0.6098
15676SOL    HW249346  10.233   9.075   1.571 -0.1219 -0.0866 -0.3596
15677SOL     OW49347   1.093   8.606   3.546 -0.4782  0.5606  0.2998
15677SOL    HW149348   1.161   8.555   3.589  0.4237  1.4709  0.0002
15677SOL    HW249349   1.083   8.566   3.460  0.0087  0.6948  0.1771
15678SOL     OW49350   0.626   1.561   2.027 -0.0612  0.3461 -0.0465
15678SOL    HW149351   0.573   1.491   2.066  0.2779  0.2581  0.2700
15678SOL    HW249352   0.687   1.586   2.097  0.8144 -0.0748 -0.6408
15679SOL     OW49353   2.742  10.517   6.290 -0.8933  0.3044  0.1023
15679SOL    HW149354   2.678  10.452   6.261 -1.5246  0.2619  1.4826
15679SOL    HW249355   2.692  10.574   6.349 -0.5793  2.5774 -1.6815
15680SOL     OW49356   8.116   5.878   9.498 -0.0517 -0.2669  0.0642
15680SOL    HW149357   8.158   5.960   9.472  0.6856 -1.2038 -1.8142
15680SOL    HW249358   8.041   5.870   9.440 -1.2778  0.0065  1.5502
15681SOL     OW49359   0.866   8.836   0.029 -0.1308 -0.1493 -0.5203
15681SOL    HW149360   0.898   8.927   0.035  1.1693 -0.6596  0.9098
15681SOL    HW249361   0.881   8.813  -0.063  1.7193  0.3647 -0.4059
15682SOL     OW49362   6.448   3.466   2.409  0.1760 -0.3325 -0.2020
15682SOL    HW149363   6.478   3.548   2.370 -0.7485  0.1855  0.1435
15682SOL    HW249364   6.459   3.478   2.503 -2.8971  0.6876  0.1275
15683SOL     OW49365   7.117   8.157   4.676  0.1180  0.2713  0.0234
15683SOL    HW149366   7.142   8.113   4.595  0.6571  2.9514 -1.3578
15683SOL    HW249367   7.191   8.142   4.735  1.4584  1.4142 -1.2979
15684SOL     OW49368   0.229   1.380   3.792  0.1900  0.1449 -0.0174
15684SOL    HW149369   0.261   1.305   3.742 -0.4230 -0.8699  1.0572
15684SOL    HW249370   0.203   1.343   3.877 -0.7978  1.4522  0.2828
15685SOL     OW49371   7.020   9.344   2.587 -0.0910 -0.1830  0.5402
15685SOL    HW149372   7.100   9.397   2.588  1.8339 -2.7550 -1.7052
15685SOL    HW249373   7.025   9.291   2.667  0.8689 -0.8437  0.0543
15686SOL     OW49374   9.790   7.689  10.420 -0.0135 -0.0949  0.3743
15686SOL    HW149375   9.869   7.716  10.373 -1.0357  0.6804 -0.9608
15686SOL    HW249376   9.719   7.740  10.381 -1.3780 -1.6200  0.7043
15687SOL     OW49377   2.827   9.163   5.784 -0.5960 -0.3989  0.4969
15687SOL    HW149378   2.738   9.179   5.752  0.4650  1.0070 -2.0818
15687SOL    HW249379   2.880   9.158   5.704  2.0742  1.7241  1.9964
15688SOL     OW49380   4.477   9.222   8.444  0.0319 -0.1615 -0.0911
15688SOL    HW149381   4.382   9.235   8.446 -0.1883 -1.2740  3.1405
15688SOL    HW249382   4.488   9.129   8.422  0.2464 -0.3921  0.9247
15689SOL     OW49383   5.853   8.969   7.040  0.2070 -0.0127 -0.2569
15689SOL    HW149384   5.842   8.875   7.054  0.1562  0.1964  1.2486
15689SOL    HW249385   5.891   8.975   6.952 -2.0228 -1.2851 -1.3969
15690SOL     OW49386   9.529   9.622   0.427 -0.2125  0.1912 -0.0070
15690SOL    HW149387   9.562   9.688   0.366 -1.3253  0.8723  0.0983
15690SOL    HW249388   9.538   9.539   0.380 -2.2653  0.8329 -1.6903
15691SOL     OW49389  10.586   4.664   8.471  0.6550  0.4986 -0.0913
15691SOL    HW149390  10.566   4.680   8.563  1.1564  1.6560 -0.1597
15691SOL    HW249391  10.594   4.569   8.463 -0.4728  0.3072  0.8212
15692SOL     OW49392   9.364   5.810  10.399  0.1219  0.2005 -0.0484
15692SOL    HW149393   9.436   5.747  10.402 -0.1547 -0.1175 -0.0458
15692SOL    HW249394   9.382   5.871  10.471  0.6189  0.3791 -0.3202
15693SOL     OW49395   8.705   7.024  10.343 -0.2896  0.0327 -0.8944
15693SOL    HW149396   8.695   7.088  10.273 -1.2602  0.6307 -0.2429
15693SOL    HW249397   8.655   6.948  10.313  1.3074 -0.6597 -1.9072
15694SOL     OW49398   0.016   2.524   5.196 -0.8679  0.2114  0.1913
15694SOL    HW149399   0.020   2.620   5.193  1.2398  0.1381 -0.4790
15694SOL    HW249400   0.049   2.496   5.111 -0.7703 -1.1338  0.6531
15695SOL     OW49401   1.260   1.032   1.082  0.9093  0.4109 -0.5717
15695SOL    HW149402   1.245   1.124   1.062  0.3863  0.4820  0.1225
15695SOL    HW249403   1.307   1.033   1.166 -0.5862  0.0075  0.3013
15696SOL     OW49404   8.987   9.306   8.560 -0.0354 -0.3802  0.7842
15696SOL    HW149405   9.015   9.311   8.469  1.9260  0.6911  1.3895
15696SOL    HW249406   8.976   9.398   8.587  1.2562 -0.5762  2.1131
15697SOL     OW49407   3.502   8.016   8.788 -0.8331 -0.5541 -0.0297
15697SOL    HW149408   3.587   8.058   8.776 -0.5264 -1.0382  0.4132
15697SOL    HW249409   3.492   7.960   8.711 -1.8137  1.2483 -1.2709
15698SOL     OW49410   7.704   3.740   4.221 -0.0096 -0.0465  0.2762
15698SOL    HW149411   7.708   3.726   4.315 -1.4722  0.6130  0.4616
15698SOL    HW249412   7.663   3.826   4.211  1.2577  0.4462 -0.9524
15699SOL     OW49413   4.474   4.626   1.914  0.7081 -0.0564  0.5626
15699SOL    HW149414   4.384   4.657   1.927  0.9817  1.4261 -0.7943
15699SOL    HW249415   4.498   4.659   1.827  1.4085 -3.2789 -0.5857
15700SOL     OW49416   8.908   6.217   6.265  0.3933 -0.0032 -0.1698
15700SOL    HW149417   8.894   6.271   6.343 -0.7824  0.0056 -0.3590
15700SOL    HW249418   8.918   6.128   6.298 -1.9293 -0.2817 -0.0719
15701SOL     OW49419   4.169   5.539   0.049  0.0849 -0.1271  0.4475
15701SOL    HW149420   4.232   5.585  -0.007  2.0044  0.3171  2.7957
15701SOL    HW249421   4.149   5.458   0.001  0.3542  0.9525 -1.5787
15702SOL     OW49422   3.037   3.344   8.316  0.0635  0.1675  0.5339
15702SOL    HW149423   2.990   3.407   8.372  0.0750 -0.1319  0.8866
15702SOL    HW249424   3.044   3.388   8.232  1.2135  1.1744  1.1260
15703SOL     OW49425   3.205   6.568   2.832  0.3598 -0.2920  0.4877
15703SOL    HW149426   3.161   6.485   2.855  0.4121 -0.8279 -1.1878
15703SOL    HW249427   3.133   6.630   2.821  0.0529 -0.8462 -0.9711
15704SOL     OW49428   4.016   5.198   0.597 -0.2913  0.4218  0.2651
15704SOL    HW149429   4.104   5.232   0.616  0.5400 -1.5913  0.2738
15704SOL    HW249430   3.993   5.147   0.675 -0.9281 -0.0900 -0.2451
15705SOL     OW49431   9.779   2.530   5.645  0.8508  0.1934 -0.1657
15705SOL    HW149432   9.719   2.605   5.641  0.1280 -0.3527  0.3183
15705SOL    HW249433   9.733   2.460   5.599 -0.1352 -1.0619  2.5355
15706SOL     OW49434   4.177   0.361   1.962  0.1184  0.1807 -0.0623
15706SOL    HW149435   4.108   0.298   1.986  1.1197 -0.6190  0.8423
15706SOL    HW249436   4.198   0.338   1.871  1.0743 -1.4269  0.5170
15707SOL     OW49437   7.240   3.035   9.131 -0.1209  0.3947  0.2005
15707SOL    HW149438   7.238   3.085   9.212 -2.1088  1.3289 -0.3409
15707SOL    HW249439   7.329   3.047   9.097  1.2351 -1.2670  2.9101
15708SOL     OW49440   3.356   3.112   7.584 -0.0786 -0.3653 -0.0942
15708SOL    HW149441   3.419   3.041   7.592  0.7622  0.1550 -1.6244
15708SOL    HW249442   3.311   3.114   7.668  0.8372 -1.7923  0.4676
15709SOL     OW49443   7.267   6.274   3.051  0.6136 -0.0350 -0.4475
15709SOL    HW149444   7.358   6.260   3.027  0.4466 -0.2728 -0.9591
15709SOL    HW249445   7.221   6.196   3.021  0.6076 -1.0792  2.0007
15710SOL     OW49446   4.284   0.964   4.071 -0.1533  0.3073  0.5268
15710SOL    HW149447   4.229   1.023   4.019 -0.3495  0.4758  0.9253
15710SOL    HW249448   4.273   0.993   4.161 -1.4774 -1.2827  0.9401
15711SOL     OW49449   0.333   6.923   1.411 -0.0982 -0.1577  0.0639
15711SOL    HW149450   0.305   6.879   1.490 -1.9107  0.6679 -0.0589
15711SOL    HW249451   0.252   6.938   1.362  0.9270 -0.2910 -1.7609
15712SOL     OW49452   3.641   5.081   2.452 -0.1757  0.1786  0.1338
15712SOL    HW149453   3.735   5.079   2.436 -0.2053  0.7628 -0.1639
15712SOL    HW249454   3.618   4.992   2.478  0.8892  0.5679  2.7078
15713SOL     OW49455   3.444   1.063   6.691 -0.1440 -0.1937  0.0339
15713SOL    HW149456   3.423   1.115   6.613 -0.9129 -1.3308 -0.5574
15713SOL    HW249457   3.360   1.027   6.719  0.3504 -1.0717  0.4438
15714SOL     OW49458   7.999   5.456   1.721 -0.4098 -0.3310  0.1161
15714SOL    HW149459   7.923   5.426   1.771  0.5225 -2.3498  0.3966
15714SOL    HW249460   8.074   5.442   1.780  0.2873  0.9051 -0.4334
15715SOL     OW49461   1.753   2.089   7.369  0.5491 -0.4668 -0.1127
15715SOL    HW149462   1.675   2.060   7.320 -0.7127 -0.4000  1.7524
15715SOL    HW249463   1.739   2.183   7.382 -0.3377 -0.8614  2.2902
15716SOL     OW49464   4.665   2.978   5.185 -0.7945  0.4413 -0.2747
15716SOL    HW149465   4.626   2.994   5.271  2.2500 -1.1223  1.5366
15716SOL    HW249466   4.705   3.061   5.161 -0.1205  0.4251  0.7229
15717SOL     OW49467   3.661   7.372   6.277 -0.0515 -0.7513 -0.0360
15717SOL    HW149468   3.623   7.459   6.265 -2.3627 -1.4491  1.5964
15717SOL    HW249469   3.715   7.380   6.355 -0.9797 -0.9576  0.6437
15718SOL     OW49470   2.616   5.206  10.216  0.1510  0.0384  0.0824
15718SOL    HW149471   2.619   5.299  10.237 -0.4679  0.2539 -0.7601
15718SOL    HW249472   2.682   5.194  10.148  1.0082 -0.3601  0.9542
15719SOL     OW49473  10.321   7.228   4.241 -0.2042  0.0248 -0.1976
15719SOL    HW149474  10.372   7.165   4.191 -1.5745 -0.7767 -0.6325
15719SOL    HW249475  10.328   7.310   4.192  0.1055 -0.2459 -0.6039
15720SOL     OW49476   3.243   9.907   3.614 -0.2637  0.4522 -0.0473
15720SOL    HW149477   3.161   9.864   3.588 -0.6233  1.2387 -0.2661
15720SOL    HW249478   3.228  10.000   3.594  0.1685  0.8103  1.2004
15721SOL     OW49479   8.420   5.683   0.794 -0.2835  0.0792  0.5404
15721SOL    HW149480   8.440   5.612   0.855 -0.4892 -1.1593 -0.7877
15721SOL    HW249481   8.352   5.648   0.737  1.3019  0.4271 -1.7012
15722SOL     OW49482   5.433   0.841   8.595 -0.0796  0.2656 -0.2550
15722SOL    HW149483   5.528   0.843   8.580 -0.2341  0.5700 -1.2734
15722SOL    HW249484   5.419   0.902   8.668  0.6655 -0.9959  1.0006
15723SOL     OW49485   6.136   7.712   5.588  0.2835 -0.0994  0.3809
15723SOL    HW149486   6.114   7.774   5.519  0.2555 -0.7404 -0.1923
15723SOL    HW249487   6.096   7.629   5.560  1.8400 -0.8292  0.2469
15724SOL     OW49488   2.576   0.414   7.548 -0.0797 -0.3083  0.0714
15724SOL    HW149489   2.613   0.391   7.463  0.2539 -1.1467  0.4276
15724SOL    HW249490   2.635   0.373   7.611  0.3587  1.2741  0.7556
15725SOL     OW49491   7.673   7.857   2.699 -0.0473  0.6170  0.5852
15725SOL    HW149492   7.666   7.944   2.738  0.2321  0.0210  2.0174
15725SOL    HW249493   7.767   7.841   2.690 -0.1013  0.5951 -0.0069
15726SOL     OW49494   9.883   7.731   8.798  0.6330 -0.1008  0.3144
15726SOL    HW149495   9.882   7.664   8.866 -0.4658  0.5592  0.9852
15726SOL    HW249496   9.791   7.743   8.775  0.8970  0.5118 -0.4579
15727SOL     OW49497   5.052   3.251   0.267 -1.1193  0.2837 -0.3632
15727SOL    HW149498   5.130   3.212   0.307 -1.3621  1.4627  1.3436
15727SOL    HW249499   4.987   3.252   0.336 -2.1180  0.8867 -1.2761
15728SOL     OW49500   8.017   6.386   4.971  0.2489 -0.3082 -0.0389
15728SOL    HW149501   8.025   6.301   4.928 -0.0021 -0.7918  0.8499
15728SOL    HW249502   7.937   6.424   4.935 -0.5369 -1.1618  0.7413
15729SOL     OW49503   2.097   7.245   4.219  0.4511 -0.4507 -0.2497
15729SOL    HW149504   2.065   7.335   4.230 -0.5063 -0.8152 -0.0141
15729SOL    HW249505   2.039   7.192   4.273  1.3754 -1.1527  0.0810
15730SOL     OW49506   7.081   4.261   3.149  0.2887  0.7201 -0.0879
15730SOL    HW149507   7.002   4.208   3.158  0.9062 -0.0931  0.6330
15730SOL    HW249508   7.145   4.204   3.107  1.4724  0.3151  2.1576
15731SOL     OW49509   5.965   0.373   5.088  0.2156 -0.4404 -0.2111
15731SOL    HW149510   5.984   0.377   4.994  0.8023  1.3079 -0.0664
15731SOL    HW249511   5.872   0.353   5.094  0.3474 -1.3883 -1.1384
15732SOL     OW49512   2.240   5.411  10.354  0.1086 -0.0277  0.2716
15732SOL    HW149513   2.235   5.450  10.441  0.7510 -0.2201  0.3999
15732SOL    HW249514   2.201   5.324  10.365 -2.8758  1.1117 -0.3805
15733SOL     OW49515   9.863   8.839   6.625  0.2561 -0.2287  0.5101
15733SOL    HW149516   9.806   8.888   6.684  1.4822  1.3626  0.4434
15733SOL    HW249517   9.952   8.858   6.657  0.8030 -1.7334 -0.0610
15734SOL     OW49518   1.632   0.183  10.209  0.0067  0.4437  0.3152
15734SOL    HW149519   1.582   0.164  10.130  0.3117 -0.3716  0.3135
15734SOL    HW249520   1.720   0.202  10.179 -0.3569  2.2255  0.2902
15735SOL     OW49521   5.833   7.501   3.133 -0.3460 -0.1317 -0.3497
15735SOL    HW149522   5.811   7.455   3.052 -0.1490 -1.1903  0.1789
15735SOL    HW249523   5.749   7.534   3.165 -0.5753 -0.5778 -0.4752
15736SOL     OW49524   0.384   0.165   2.261 -0.3446 -0.5262 -0.4562
15736SOL    HW149525   0.398   0.073   2.237 -1.2154 -0.5299 -0.9980
15736SOL    HW249526   0.298   0.166   2.302  0.0116 -0.0707  0.2917
15737SOL     OW49527   0.808   3.885   9.553  0.0874 -0.2994 -0.1976
15737SOL    HW149528   0.713   3.873   9.549  0.1080 -0.0702 -2.5217
15737SOL    HW249529   0.821   3.978   9.539  0.6980 -0.6168 -2.0133
15738SOL     OW49530   0.980   9.567   6.466  0.9368  0.3144 -0.4073
15738SOL    HW149531   0.950   9.524   6.547  1.5148  0.9759  0.1638
15738SOL    HW249532   1.009   9.495   6.411 -0.6589 -0.2641 -0.5503
15739SOL     OW49533   6.265   9.232   3.315  0.1697 -0.0994  0.1170
15739SOL    HW149534   6.337   9.269   3.264 -0.0525  0.5487  0.2554
15739SOL    HW249535   6.263   9.140   3.291  0.4418  0.0737 -0.6028
15740SOL     OW49536   9.995   8.058   0.963  0.0851  0.3592 -0.0283
15740SOL    HW149537   9.933   8.039   1.033  0.3552  0.1020  0.1460
15740SOL    HW249538  10.078   8.075   1.008 -0.0199  1.4399 -0.2157
15741SOL     OW49539   2.151   3.048   0.017 -0.1509 -0.2864  0.4192
15741SOL    HW149540   2.127   3.018   0.105 -1.9850 -0.6181 -0.1544
15741SOL    HW249541   2.088   3.005  -0.041  1.1590 -0.2511 -1.1015
15742SOL     OW49542   1.245   2.392   4.958 -0.2458  0.6687 -0.3246
15742SOL    HW149543   1.191   2.350   4.891 -0.0298  0.5761 -0.4419
15742SOL    HW249544   1.186   2.407   5.032  0.2090 -2.1381  0.7228
15743SOL     OW49545   2.920   7.616  10.251 -1.0327  0.0948 -0.0403
15743SOL    HW149546   2.839   7.667  10.243  0.5353  2.6345 -1.0479
15743SOL    HW249547   2.956   7.616  10.162 -0.0784 -1.2982  0.3274
15744SOL     OW49548   7.514   6.274   1.127  0.0392 -0.3551  0.4550
15744SOL    HW149549   7.458   6.202   1.097  0.4678 -1.6861  2.6270
15744SOL    HW249550   7.453   6.340   1.160 -0.3230 -0.8615  0.8205
15745SOL     OW49551   0.393   9.226   6.844 -0.1998  0.5675  0.3652
15745SOL    HW149552   0.368   9.315   6.869 -1.0474  1.0189 -1.8677
15745SOL    HW249553   0.449   9.237   6.768 -0.1652 -0.8159  0.1642
15746SOL     OW49554   0.119   7.043   0.463 -0.5361  0.5012 -0.4468
15746SOL    HW149555   0.126   7.138   0.471 -0.6129  0.5424 -0.8845
15746SOL    HW249556   0.085   7.028   0.375  3.4732 -0.0707 -2.1528
15747SOL     OW49557   7.932   0.563   4.823 -0.4132 -0.0652  0.4416
15747SOL    HW149558   7.939   0.560   4.918 -0.1287 -0.4819  0.4126
15747SOL    HW249559   7.841   0.541   4.805 -0.8372  1.4297  0.6699
15748SOL     OW49560   5.795   9.627   1.475  0.3944  0.4153  0.2711
15748SOL    HW149561   5.742   9.570   1.530 -0.3263  0.1635 -0.6742
15748SOL    HW249562   5.780   9.597   1.386  3.4646 -0.8105  0.0317
15749SOL     OW49563   1.889   2.785   0.196 -0.6263  0.2309 -0.1714
15749SOL    HW149564   1.876   2.805   0.103 -1.7465 -0.5792 -0.2089
15749SOL    HW249565   1.802   2.761   0.228  0.1671 -2.2156  0.4008
15750SOL     OW49566   6.626   3.344   0.392  0.8629 -0.4512 -0.1282
15750SOL    HW149567   6.583   3.383   0.315  0.7700  0.6864  0.4782
15750SOL    HW249568   6.639   3.418   0.452  1.8416 -1.1440  0.5390
15751SOL     OW49569   7.094   4.901  10.329 -0.1093  0.6929  0.2984
15751SOL    HW149570   7.059   4.834  10.388 -0.6889  1.8000  1.2487
15751SOL    HW249571   7.156   4.950  10.382  1.1473  0.2460 -0.7102
15752SOL     OW49572   9.752   5.803  10.235 -0.3171 -0.0282 -0.9149
15752SOL    HW149573   9.700   5.868  10.188 -0.2743  0.9872  0.3749
15752SOL    HW249574   9.689   5.757  10.290  0.1288  1.7088  1.2199
15753SOL     OW49575   1.827   4.317   3.043 -0.2387  0.3465 -0.7479
15753SOL    HW149576   1.793   4.393   3.090  0.7559  0.3710 -0.0205
15753SOL    HW249577   1.875   4.268   3.110 -0.5335 -0.7196 -1.2953
15754SOL     OW49578  10.400   6.665   9.986  0.0089  0.1855 -0.4778
15754SOL    HW149579  10.462   6.594  10.003  0.1932  0.3082 -0.6320
15754SOL    HW249580  10.330   6.624   9.935 -0.5171 -0.1692  0.5070
15755SOL     OW49581   2.756  10.133  10.086  0.5724  0.0524 -0.2320
15755SOL    HW149582   2.703  10.204  10.122 -0.0591 -0.9440  0.9114
15755SOL    HW249583   2.813  10.107  10.158  0.8351 -0.5505 -0.6533
15756SOL     OW49584   4.266  10.246   1.922  0.7641 -0.2831  0.0122
15756SOL    HW149585   4.182  10.253   1.876 -0.6977  0.7994  2.5971
15756SOL    HW249586   4.316  10.321   1.891 -0.2176  0.4719  0.1913
15757SOL     OW49587   6.207   6.191   0.022 -0.1188  0.6736  0.1890
15757SOL    HW149588   6.260   6.119  -0.012  1.7994  3.0652 -2.4823
15757SOL    HW249589   6.258   6.225   0.095  0.7627  1.3005 -0.6790
15758SOL     OW49590   7.177   1.360   2.041 -0.0218 -0.4860 -0.2118
15758SOL    HW149591   7.141   1.433   2.092 -1.6475 -0.3966 -1.4075
15758SOL    HW249592   7.165   1.283   2.096  0.4507 -0.0586  0.4995
15759SOL     OW49593   5.272   0.286   8.917  0.2866  0.4817 -0.1302
15759SOL    HW149594   5.344   0.337   8.954  1.0359  1.0446 -2.1897
15759SOL    HW249595   5.311   0.243   8.840 -1.3781  0.1981 -0.8515
15760SOL     OW49596   5.212   7.648   7.682 -0.3863 -0.0111 -0.0181
15760SOL    HW149597   5.270   7.709   7.637 -0.3723 -0.5316 -0.7193
15760SOL    HW249598   5.170   7.598   7.612 -0.1205 -1.0633  0.5485
15761SOL     OW49599   9.378   9.518   0.998 -0.2103 -0.1779  0.1092
15761SOL    HW149600   9.307   9.497   1.058 -3.4650 -1.8859 -3.8604
15761SOL    HW249601   9.433   9.439   0.999 -0.8346 -0.6245  0.1155
15762SOL     OW49602  10.162   2.786   2.245 -0.1788 -0.7879  0.2976
15762SOL    HW149603  10.188   2.802   2.336 -0.2337 -1.3433  0.4141
15762SOL    HW249604  10.235   2.820   2.193  0.1789 -1.1111  0.5791
15763SOL     OW49605   8.882  10.137   4.259 -0.0438  0.6826  0.3121
15763SOL    HW149606   8.860  10.051   4.295 -1.0709  0.9323  0.2990
15763SOL    HW249607   8.872  10.127   4.164 -0.6073  0.9362  0.3424
15764SOL     OW49608   6.032   5.189   0.716 -0.0066  0.2635 -0.4098
15764SOL    HW149609   5.989   5.109   0.687 -0.0023  0.9026 -2.2943
15764SOL    HW249610   6.096   5.208   0.648  0.1911  1.7171  0.1411
15765SOL     OW49611   2.902   3.376   2.929  0.2106 -0.4314 -0.0660
15765SOL    HW149612   2.901   3.426   3.011  1.2088  1.0541 -0.9124
15765SOL    HW249613   2.921   3.286   2.956  1.0402  0.1207  1.3015
15766SOL     OW49614   5.853   2.121   1.338  0.0019  0.2348  0.1789
15766SOL    HW149615   5.867   2.210   1.370  0.3984  0.3770 -0.3548
15766SOL    HW249616   5.827   2.133   1.246 -0.5177 -0.1752  0.2734
15767SOL     OW49617   0.846  10.022   9.397 -0.4390 -0.2606  0.0679
15767SOL    HW149618   0.894  10.049   9.476  1.0980 -1.6573 -0.3226
15767SOL    HW249619   0.861  10.092   9.334  2.3778 -1.2288 -0.5026
15768SOL     OW49620   7.092   0.389   6.127 -0.0642  0.1861 -0.0800
15768SOL    HW149621   7.008   0.419   6.160  0.4218  1.6087 -0.0834
15768SOL    HW249622   7.102   0.301   6.164 -0.5753  0.8309  1.6826
15769SOL     OW49623   2.070   0.599   9.662  0.3524  0.0138 -0.1566
15769SOL    HW149624   2.096   0.687   9.637  0.1532  0.1520  0.1143
15769SOL    HW249625   2.152   0.550   9.667  0.4736  0.2116 -0.2027
15770SOL     OW49626   9.596   5.744   8.506  0.1125 -0.0043  0.2259
15770SOL    HW149627   9.676   5.790   8.479  0.0524 -0.9789 -1.7364
15770SOL    HW249628   9.551   5.722   8.425 -0.9255 -1.6669  1.1763
15771SOL     OW49629   9.155   8.479   4.897 -0.3042  0.4160  0.1287
15771SOL    HW149630   9.227   8.417   4.887 -1.1076 -0.5227 -0.0006
15771SOL    HW249631   9.126   8.467   4.988 -1.0450 -0.0557 -0.1640
15772SOL     OW49632   9.200   8.976   7.692 -0.0508  0.0895 -0.3042
15772SOL    HW149633   9.156   9.001   7.610  2.4471 -4.6425 -3.5531
15772SOL    HW249634   9.289   9.010   7.683  0.2485 -0.4588  0.4450
15773SOL     OW49635   5.141   2.021   5.666  0.1989 -0.3931  0.5557
15773SOL    HW149636   5.137   2.114   5.688  0.7819  0.2660 -1.8722
15773SOL    HW249637   5.056   2.001   5.627  0.3510 -0.6785  0.3635
15774SOL     OW49638   8.039   8.450   2.308  0.8528 -0.3175  0.0172
15774SOL    HW149639   7.992   8.472   2.389  0.5770 -1.5432  0.2059
15774SOL    HW249640   8.122   8.414   2.338  0.6839 -0.9266 -0.2312
15775SOL     OW49641   7.890   8.190   5.315 -0.4697 -0.1473 -0.2595
15775SOL    HW149642   7.866   8.192   5.407 -1.7425  1.6955 -0.5920
15775SOL    HW249643   7.969   8.243   5.310  0.8714 -1.9994  0.0360
15776SOL     OW49644   9.955  10.327   8.157 -0.2728 -0.1627 -0.2438
15776SOL    HW149645   9.956  10.303   8.064 -0.4875  0.4124 -0.3960
15776SOL    HW249646  10.004  10.257   8.200 -0.7957 -0.8276 -0.6969
15777SOL     OW49647   3.698   2.866   8.895 -0.2421  0.3522 -0.1090
15777SOL    HW149648   3.710   2.825   8.809  0.2821 -0.8239  0.4954
15777SOL    HW249649   3.766   2.826   8.949 -0.6015  1.0406  0.8707
15778SOL     OW49650   5.606   4.069   1.578  0.1623  0.1547 -0.0555
15778SOL    HW149651   5.619   3.978   1.606  0.8119  0.4778  0.7426
15778SOL    HW249652   5.666   4.080   1.503  0.4121  0.0519  0.1285
15779SOL     OW49653   4.785   9.777   9.572 -0.6170  0.3595 -0.0847
15779SOL    HW149654   4.860   9.794   9.629 -0.1975  0.9067 -0.7821
15779SOL    HW249655   4.720   9.736   9.629  0.2951 -0.3388  0.4910
15780SOL     OW49656   0.678  10.118   7.480 -0.1844  0.0158  0.0911
15780SOL    HW149657   0.665  10.073   7.397 -0.9532 -1.0244  0.7467
15780SOL    HW249658   0.591  10.149   7.504  0.2026  1.2119  0.0349
15781SOL     OW49659   4.021   2.813   7.466 -0.4522  0.5536  0.2044
15781SOL    HW149660   3.945   2.755   7.455 -1.3751  1.6701  0.5732
15781SOL    HW249661   4.085   2.758   7.512 -0.4142 -0.8941 -1.4583
15782SOL     OW49662   7.545   7.622   5.147 -0.1096 -0.1750 -0.2495
15782SOL    HW149663   7.454   7.592   5.140 -0.1411 -0.9372  2.3104
15782SOL    HW249664   7.548   7.702   5.096 -2.4659  0.3289  0.2732
15783SOL     OW49665   5.671   6.075   4.198 -0.4820 -0.8523  0.1276
15783SOL    HW149666   5.614   6.153   4.198  0.6147 -0.0225  0.5508
15783SOL    HW249667   5.634   6.019   4.129  1.7882  2.4190 -4.2658
15784SOL     OW49668   9.288   3.100   5.490 -0.4977 -0.2499  0.0438
15784SOL    HW149669   9.276   3.185   5.532 -0.8930 -0.8077  1.1103
15784SOL    HW249670   9.333   3.119   5.408 -1.3358  1.0674 -0.1313
15785SOL     OW49671   4.623   4.708   6.249  0.1445  0.9019  0.1499
15785SOL    HW149672   4.629   4.626   6.299  1.5926  0.0364 -1.3303
15785SOL    HW249673   4.650   4.776   6.310 -1.0618  0.2982  1.4050
15786SOL     OW49674   1.901   1.260   3.182 -0.0463  0.1225 -0.0416
15786SOL    HW149675   1.924   1.325   3.248  1.0187 -0.9759  0.7238
15786SOL    HW249676   1.928   1.176   3.220 -1.7545 -0.8335 -0.8144
15787SOL     OW49677   2.262   2.469  10.510  0.5097 -0.4251 -0.5008
15787SOL    HW149678   2.277   2.406  10.581 -0.9913 -1.2403 -0.8771
15787SOL    HW249679   2.270   2.417  10.430 -0.0228  0.0166 -0.8420
15788SOL     OW49680   9.109   0.301   8.028 -0.3500 -0.1600  0.0673
15788SOL    HW149681   9.134   0.388   7.996 -0.6714 -0.4539 -1.0265
15788SOL    HW249682   9.137   0.241   7.959 -0.0019 -0.9524  0.8748
15789SOL     OW49683   3.430   4.196   3.679 -0.7014  1.0629  0.1957
15789SOL    HW149684   3.395   4.275   3.719 -0.6662  0.9192  0.5144
15789SOL    HW249685   3.498   4.167   3.740 -1.2307  0.3670  0.4505
15790SOL     OW49686   5.528   3.735   5.760 -0.1939  0.1113 -0.3983
15790SOL    HW149687   5.517   3.699   5.672  0.0359 -0.5122 -0.1817
15790SOL    HW249688   5.544   3.658   5.815  0.5574  0.5667  0.0400
15791SOL     OW49689   2.097   4.145   0.244 -0.3764  0.4052  0.3245
15791SOL    HW149690   2.022   4.085   0.235  0.0162 -0.0509  0.0360
15791SOL    HW249691   2.136   4.146   0.157  1.8539 -1.8889  1.1622
15792SOL     OW49692   9.347   7.246  10.155  0.0340 -0.6000 -0.3271
15792SOL    HW149693   9.277   7.308  10.174  0.6288 -0.1500  0.4369
15792SOL    HW249694   9.330   7.219  10.064  0.5652  1.7766 -1.2200
15793SOL     OW49695   9.743   9.621   8.689 -0.8511  0.2339 -0.3338
15793SOL    HW149696   9.784   9.542   8.654 -1.2845  0.4417 -1.3560
15793SOL    HW249697   9.659   9.591   8.723 -0.8774  0.1981 -0.4295
15794SOL     OW49698   1.390   5.887   2.616 -0.0013  0.0972  0.5511
15794SOL    HW149699   1.458   5.885   2.549 -1.0020  0.1061 -0.4972
15794SOL    HW249700   1.312   5.918   2.570 -0.6032  0.5614  1.8323
15795SOL     OW49701   0.648   2.340   2.998  0.1485  0.0299 -1.0495
15795SOL    HW149702   0.630   2.287   2.921 -1.3821 -0.2626 -0.5214
15795SOL    HW249703   0.580   2.316   3.060  2.3531 -1.0801  1.1201
15796SOL     OW49704   8.693   1.376   5.725 -0.1091  0.2013 -0.1267
15796SOL    HW149705   8.652   1.332   5.650  0.3416 -2.4212  1.0598
15796SOL    HW249706   8.762   1.430   5.686  0.4616 -1.5044 -1.6247
15797SOL     OW49707   1.415   2.799   3.058 -0.3439  0.3623  0.3104
15797SOL    HW149708   1.439   2.891   3.071 -0.0364  0.5497 -1.4164
15797SOL    HW249709   1.322   2.796   3.080 -0.1574  0.8808  1.2528
15798SOL     OW49710   2.645   1.548   8.236 -0.3352  1.1455  0.4537
15798SOL    HW149711   2.632   1.529   8.329 -0.6538  1.1619  0.4155
15798SOL    HW249712   2.583   1.490   8.191  1.0309 -0.1255  0.1477
15799SOL     OW49713   6.848   6.999  10.133  0.4009 -0.1994 -0.0400
15799SOL    HW149714   6.841   7.059  10.207  0.4818  0.5754 -0.6419
15799SOL    HW249715   6.917   6.938  10.158 -0.2747 -0.5731  0.9406
15800SOL     OW49716   7.579   1.502  10.026  0.4276  0.1695  0.1041
15800SOL    HW149717   7.511   1.463  10.081  0.2411  0.6509  0.2193
15800SOL    HW249718   7.555   1.478   9.937  0.3391 -0.0163  0.1779
15801SOL     OW49719   1.366   2.892   0.423  0.1545 -0.2787  0.2522
15801SOL    HW149720   1.368   2.915   0.516 -1.5311 -1.5398  0.6439
15801SOL    HW249721   1.338   2.800   0.422  0.5016 -0.3876 -1.4904
15802SOL     OW49722   2.667   5.951   9.439  0.2729  0.5129  0.3037
15802SOL    HW149723   2.735   5.999   9.485 -0.0379  1.1323  0.1218
15802SOL    HW249724   2.683   5.859   9.462 -0.4027  0.8642  2.3543
15803SOL     OW49725   0.783   5.224  10.257  0.2196  0.3141  0.2667
15803SOL    HW149726   0.847   5.215  10.328  1.3557 -0.4268 -0.8129
15803SOL    HW249727   0.724   5.149  10.269  1.2848 -0.6645 -0.3975
15804SOL     OW49728   1.848   5.549   6.681 -0.4500 -0.2067  0.5467
15804SOL    HW149729   1.779   5.528   6.744  0.1551 -1.3072  0.8716
15804SOL    HW249730   1.823   5.502   6.601 -1.3576  1.4020 -0.1571
15805SOL     OW49731   9.001   2.798   2.851 -0.0254 -0.0596 -0.1805
15805SOL    HW149732   9.090   2.822   2.829 -0.9439  1.3356 -2.8586
15805SOL    HW249733   9.006   2.764   2.940  3.0205  0.6160  0.0044
15806SOL     OW49734   6.316   9.397   3.642  0.2883  0.0646 -0.1293
15806SOL    HW149735   6.380   9.335   3.606  0.8104  0.6021 -0.1377
15806SOL    HW249736   6.337   9.480   3.600 -0.1080  0.3490  0.2360
15807SOL     OW49737   2.605   3.412   2.366  0.5829  0.4402  0.2683
15807SOL    HW149738   2.518   3.408   2.406  0.6288 -0.2002  0.3218
15807SOL    HW249739   2.596   3.357   2.287  1.5087 -1.4114  1.3911
15808SOL     OW49740   9.652   1.137   8.394  0.2476 -0.2486  0.2711
15808SOL    HW149741   9.680   1.057   8.350 -0.9906 -0.4843 -0.1455
15808SOL    HW249742   9.566   1.115   8.431 -0.0336  0.8308  0.2894
15809SOL     OW49743   2.423   9.535   1.269  0.3210  0.3046  0.0128
15809SOL    HW149744   2.339   9.546   1.313  0.3160  0.1662  0.0404
15809SOL    HW249745   2.408   9.464   1.207  0.8791 -0.9361  1.2394
15810SOL     OW49746   4.130   7.453   6.166 -0.3365 -0.4768 -0.6603
15810SOL    HW149747   4.092   7.459   6.078  1.3873 -0.1000 -1.4322
15810SOL    HW249748   4.198   7.386   6.157 -0.3380 -0.6416  0.4798
15811SOL     OW49749   2.082   1.759   5.911 -0.0901 -0.2850  0.2857
15811SOL    HW149750   2.034   1.825   5.961  0.1609  0.4755 -0.4587
15811SOL    HW249751   2.087   1.683   5.970 -1.1874  0.0259  0.8089
15812SOL     OW49752   9.825   6.853   2.389  0.2183  0.0712 -0.1445
15812SOL    HW149753   9.846   6.760   2.375 -1.4359 -0.1217 -1.6862
15812SOL    HW249754   9.746   6.852   2.443  0.0078  0.5604 -0.4363
15813SOL     OW49755   2.717   3.732   7.711 -0.1393  0.2952  0.3364
15813SOL    HW149756   2.621   3.732   7.716 -0.0890  0.2592  1.7875
15813SOL    HW249757   2.745   3.760   7.798  1.1671  1.4871 -0.4333
15814SOL     OW49758   0.699   3.646   9.098  0.7964 -0.3549 -0.2420
15814SOL    HW149759   0.644   3.663   9.175  1.6378 -2.2240  0.8373
15814SOL    HW249760   0.645   3.589   9.043  0.1972  0.9772 -1.0993
15815SOL     OW49761   8.195   9.075   7.711 -0.2382  0.0436 -0.3645
15815SOL    HW149762   8.129   9.144   7.700  0.4155  0.9559  1.0685
15815SOL    HW249763   8.279   9.122   7.705  0.2793 -0.9654 -1.3385
15816SOL     OW49764   6.733   9.417   6.991 -0.4910  0.4210 -0.1929
15816SOL    HW149765   6.745   9.343   6.931 -3.4488 -1.9669  1.8469
15816SOL    HW249766   6.777   9.391   7.072 -1.6773  0.8005  0.6015
15817SOL     OW49767   2.310   6.498   3.424  0.4432 -0.0828 -0.3140
15817SOL    HW149768   2.236   6.534   3.474  0.6903  0.7263 -0.5197
15817SOL    HW249769   2.375   6.475   3.490 -0.5323 -2.1332 -0.0119
15818SOL     OW49770   9.606   9.111   0.221 -0.2284  0.2147  0.0187
15818SOL    HW149771   9.634   9.036   0.169  0.4215  0.0367  0.6126
15818SOL    HW249772   9.536   9.078   0.276 -0.5830  0.2838 -0.3819
15819SOL     OW49773   6.204   3.172   8.187 -0.1702  0.1055 -0.1836
15819SOL    HW149774   6.293   3.201   8.169 -0.1689  0.9950  1.1432
15819SOL    HW249775   6.148   3.244   8.158 -0.5830 -0.9228 -2.1158
15820SOL     OW49776   2.316   4.183   3.393 -0.0362  0.4825  0.2970
15820SOL    HW149777   2.350   4.227   3.471 -0.0496 -1.1604  1.2769
15820SOL    HW249778   2.229   4.152   3.419 -0.4701  0.8052 -0.7255
15821SOL     OW49779   6.662   8.424   4.778  0.2709  0.1118  0.0346
15821SOL    HW149780   6.644   8.512   4.813 -0.3988  0.0270 -0.0801
15821SOL    HW249781   6.646   8.366   4.852  0.8439  0.0919  0.1473
15822SOL     OW49782   4.728   8.708   1.624  0.1000 -0.2230 -0.4415
15822SOL    HW149783   4.777   8.780   1.662  0.1611  0.9928 -2.6613
15822SOL    HW249784   4.652   8.749   1.584 -0.8085 -1.6387 -0.2354
15823SOL     OW49785   4.204   8.803   1.684 -0.1722  0.7031 -0.1303
15823SOL    HW149786   4.232   8.836   1.769  2.5769 -0.4853 -0.4713
15823SOL    HW249787   4.232   8.871   1.622 -0.8364  0.8824 -0.2464
15824SOL     OW49788   1.935   9.943   1.221  0.3064  0.9113 -0.0608
15824SOL    HW149789   1.888   9.918   1.300 -1.2794 -2.3538 -1.8246
15824SOL    HW249790   2.027   9.926   1.241 -0.1520 -0.6515  0.8648
15825SOL     OW49791   0.925   6.454   3.308  0.5791  0.2261  0.2726
15825SOL    HW149792   0.850   6.500   3.272  0.3351  0.8730  1.5505
15825SOL    HW249793   0.887   6.378   3.352  0.5199  1.1544  1.8961
15826SOL     OW49794   2.440   9.824   4.406  0.4990  0.0100 -0.0069
15826SOL    HW149795   2.523   9.846   4.363 -0.5490 -0.7533 -2.6381
15826SOL    HW249796   2.375   9.832   4.336 -1.5863  0.0465  1.8475
15827SOL     OW49797   8.269   1.498   9.224  0.6078  0.6900 -0.3437
15827SOL    HW149798   8.236   1.421   9.178 -1.4187  1.9227 -1.1024
15827SOL    HW249799   8.345   1.466   9.273  0.3692 -1.5676 -1.3119
15828SOL     OW49800   4.787  10.542   2.184  0.5433  0.3255  0.2498
15828SOL    HW149801   4.839  10.569   2.109  0.7912  1.7003  0.8946
15828SOL    HW249802   4.840  10.476   2.228  0.8568  0.2809 -0.1927
15829SOL     OW49803   0.098  10.129   1.452 -0.6450 -0.0211  0.0234
15829SOL    HW149804   0.055  10.136   1.366 -1.4491 -1.2832  0.3017
15829SOL    HW249805   0.025  10.126   1.515 -0.0646  1.5843  0.8418
15830SOL     OW49806   7.973   9.221   2.426 -0.3682  0.3948  0.2254
15830SOL    HW149807   8.047   9.216   2.366 -0.8001 -2.8848 -0.2033
15830SOL    HW249808   8.012   9.212   2.513  0.0385  3.0188  0.4116
15831SOL     OW49809   5.720   9.344   1.609  0.5720  0.3540 -0.2058
15831SOL    HW149810   5.633   9.365   1.644  0.8843  1.1208  0.1491
15831SOL    HW249811   5.703   9.310   1.522 -0.1051  0.2522 -0.0448
15832SOL     OW49812   6.867   8.796   5.504  0.3448 -0.8651  0.0876
15832SOL    HW149813   6.849   8.707   5.475 -2.1005  0.0024 -1.3504
15832SOL    HW249814   6.792   8.818   5.561  0.0530  0.7677 -0.8703
15833SOL     OW49815   6.526   0.951   3.434 -0.0135 -0.5371  0.2117
15833SOL    HW149816   6.454   0.920   3.379 -0.1993 -0.3354  0.3400
15833SOL    HW249817   6.488   1.022   3.485  0.7769  0.9098 -1.1283
15834SOL     OW49818  10.481   9.255   4.294  0.1531  0.4513 -0.4639
15834SOL    HW149819  10.509   9.286   4.380  1.9757 -0.9150 -0.5232
15834SOL    HW249820  10.429   9.177   4.313 -0.0657  0.5693 -0.5762
15835SOL     OW49821   3.083   5.384   5.060  0.3584  0.1503 -0.2244
15835SOL    HW149822   3.034   5.372   4.979  1.8257  0.0722 -1.1506
15835SOL    HW249823   3.062   5.473   5.089 -0.1253  0.2039 -0.7413
15836SOL     OW49824   5.585   5.623   0.258 -0.2241 -0.2897 -0.1270
15836SOL    HW149825   5.655   5.678   0.294 -0.0846 -1.4220  1.4114
15836SOL    HW249826   5.506   5.675   0.267  0.3606  1.0239 -1.9088
15837SOL     OW49827   9.357   7.312   5.945 -0.2406 -0.2054  0.2616
15837SOL    HW149828   9.286   7.339   5.887  0.5274  1.1687 -0.0758
15837SOL    HW249829   9.435   7.354   5.909  0.1842  1.1706  2.5791
15838SOL     OW49830   8.353   9.831   6.696 -0.1970  0.1834  0.5316
15838SOL    HW149831   8.362   9.902   6.632 -0.9022  0.8459  1.1378
15838SOL    HW249832   8.358   9.751   6.645  0.4693  0.6743 -0.1876
15839SOL     OW49833   0.395  10.581   0.599  0.3980 -0.1792 -0.3143
15839SOL    HW149834   0.336  10.632   0.655  1.3277  1.5655 -0.8578
15839SOL    HW249835   0.442  10.524   0.660 -0.0070  0.2740  0.4426
15840SOL     OW49836   9.079   8.677   9.617  0.4560 -0.1600 -0.1552
15840SOL    HW149837   9.051   8.696   9.528  0.3305 -2.4125 -0.6548
15840SOL    HW249838   9.168   8.711   9.622  0.6829 -0.5557 -1.3387
15841SOL     OW49839   1.405   3.021   6.585  0.1024 -0.2764 -0.1721
15841SOL    HW149840   1.344   3.018   6.659 -0.7406 -0.3376 -0.8458
15841SOL    HW249841   1.473   2.957   6.607  0.1186  0.0556  0.7616
15842SOL     OW49842   2.473   1.628   1.048  0.4558  0.3007 -0.4173
15842SOL    HW149843   2.398   1.607   1.103 -1.0006  1.4811 -1.8343
15842SOL    HW249844   2.549   1.616   1.105 -0.8991  0.7227  1.5995
15843SOL     OW49845   4.986   0.355   0.511  0.0251 -0.6338 -0.7088
15843SOL    HW149846   4.897   0.355   0.477 -0.1939 -1.3065 -0.1778
15843SOL    HW249847   4.980   0.302   0.591  1.3010 -2.4385 -1.7455
15844SOL     OW49848   1.420   9.338   6.301  0.1442  0.2248 -0.1542
15844SOL    HW149849   1.447   9.420   6.259 -0.8562  0.8729  0.4224
15844SOL    HW249850   1.344   9.309   6.249  0.1132  0.0003  0.0175
15845SOL     OW49851   4.934   4.601  10.506  0.6387  0.1104  0.2048
15845SOL    HW149852   4.953   4.693  10.488 -1.1800  1.1619  2.8677
15845SOL    HW249853   4.944   4.593  10.601  3.6658 -3.2914 -0.2014
15846SOL     OW49854   6.075   4.636   8.923  0.2973  0.1077  0.1114
15846SOL    HW149855   6.035   4.564   8.874 -0.0131  0.5184 -0.2514
15846SOL    HW249856   6.055   4.714   8.871  0.2794  0.5083  0.7093
15847SOL     OW49857   3.231   3.055  10.157 -0.6068  1.2001 -0.4246
15847SOL    HW149858   3.166   2.985  10.154  2.1627 -1.8200  1.9128
15847SOL    HW249859   3.188   3.126  10.205 -1.9945 -0.9731  1.7856
15848SOL     OW49860   2.122   0.353   8.651  0.2230 -0.4166 -0.0462
15848SOL    HW149861   2.174   0.373   8.729 -1.2485  0.8604  0.6699
15848SOL    HW249862   2.130   0.431   8.596  0.1287 -0.7416 -0.5313
15849SOL     OW49863   0.800   9.223   8.568  0.4447  0.0491  0.1828
15849SOL    HW149864   0.822   9.160   8.499 -3.2416  0.7580 -1.8682
15849SOL    HW249865   0.761   9.170   8.638  1.5038 -0.3433  0.5042
15850SOL     OW49866   5.725   0.256   3.244 -0.4764  0.0231  0.0318
15850SOL    HW149867   5.722   0.231   3.152  0.4484  0.4423 -0.1190
15850SOL    HW249868   5.644   0.220   3.281 -0.6855 -0.4505 -0.8598
15851SOL     OW49869   3.879   0.106   2.510 -0.1540 -0.6563  0.7881
15851SOL    HW149870   3.965   0.098   2.470 -0.5885 -1.9380  0.0601
15851SOL    HW249871   3.883   0.188   2.559  1.0285 -0.0324 -0.3051
15852SOL     OW49872   5.110   3.971   5.035  0.8029  0.4232  0.2969
15852SOL    HW149873   5.079   4.062   5.030 -0.5594 -0.0144  0.2610
15852SOL    HW249874   5.193   3.971   4.989  1.0345  1.7439  0.6793
15853SOL     OW49875   7.777   2.787   1.289  0.2948  0.2391 -0.1173
15853SOL    HW149876   7.684   2.796   1.305  0.3911 -0.3235  0.8728
15853SOL    HW249877   7.819   2.842   1.356  0.7204 -2.4789  2.0404
15854SOL     OW49878   2.439   8.962   0.387 -0.3852 -0.2816  0.0514
15854SOL    HW149879   2.404   9.038   0.433  0.7582  0.3678 -0.1119
15854SOL    HW249880   2.450   8.992   0.297  0.4510 -0.5083  0.0711
15855SOL     OW49881   3.504   3.351   1.459  0.1993  0.2264 -0.2926
15855SOL    HW149882   3.435   3.306   1.508  0.4095 -0.2277 -0.4008
15855SOL    HW249883   3.544   3.410   1.523  0.7243 -0.6435  0.2054
15856SOL     OW49884  10.437   0.215   0.577  0.2228 -0.1021 -0.3053
15856SOL    HW149885  10.492   0.291   0.561  1.9059 -1.5638 -1.9239
15856SOL    HW249886  10.385   0.238   0.654  0.8144  2.5575 -0.6272
15857SOL     OW49887   2.460   7.902   7.415 -0.4844 -0.4011  0.9542
15857SOL    HW149888   2.368   7.881   7.394 -0.5912  0.3094  0.6842
15857SOL    HW249889   2.509   7.827   7.382 -1.0220 -1.0812  1.6569
15858SOL     OW49890   2.965   0.108   9.234 -0.4351  0.0142 -0.2208
15858SOL    HW149891   2.889   0.077   9.283  0.0053  0.9510  1.1030
15858SOL    HW249892   2.968   0.202   9.251  0.3152  0.1887 -1.2452
15859SOL     OW49893   3.400   3.728   7.658  0.0455 -0.4265  0.4808
15859SOL    HW149894   3.446   3.654   7.697  0.2694 -0.9426 -0.6936
15859SOL    HW249895   3.307   3.710   7.674  0.1602 -0.3114  1.2894
15860SOL     OW49896   1.398   8.612   3.849 -0.7190  0.1379 -0.2312
15860SOL    HW149897   1.357   8.535   3.809 -0.3100 -0.7963  1.0551
15860SOL    HW249898   1.405   8.676   3.778  0.3950 -1.5823 -1.7468
15861SOL     OW49899   1.834   1.885   6.426  0.3468 -0.1146 -0.2392
15861SOL    HW149900   1.920   1.898   6.466  0.0798 -0.8113  0.6135
15861SOL    HW249901   1.798   1.973   6.416  1.5837  0.2613 -1.6147
15862SOL     OW49902   6.760   2.754   7.991 -0.8465  0.4504  0.6492
15862SOL    HW149903   6.819   2.714   8.056  1.0143 -0.0476 -1.2412
15862SOL    HW249904   6.753   2.688   7.922 -2.3516  1.1734  0.0880
15863SOL     OW49905   6.766   3.362   0.119 -0.3537  0.1313 -0.5833
15863SOL    HW149906   6.691   3.421   0.129  0.5988  0.9412  2.9864
15863SOL    HW249907   6.731   3.275   0.142 -0.4023  0.3634  0.2398
15864SOL     OW49908   8.554   6.854   5.113  0.3162 -0.2481  0.0177
15864SOL    HW149909   8.556   6.936   5.162 -1.0349  0.6440 -1.3306
15864SOL    HW249910   8.521   6.878   5.026 -0.1921 -2.2248 -0.3971
15865SOL     OW49911  10.196   8.072   1.420  0.3419  0.7035 -0.1657
15865SOL    HW149912  10.151   8.077   1.335 -0.0740  1.5577  0.0983
15865SOL    HW249913  10.126   8.057   1.483  0.4661  1.6975  0.2095
15866SOL     OW49914   7.175   8.262   1.592 -0.0543  0.0611 -0.4627
15866SOL    HW149915   7.181   8.233   1.683 -0.2566 -0.6324 -0.6654
15866SOL    HW249916   7.224   8.345   1.590  1.0460 -0.5510  0.0153
15867SOL     OW49917   0.585   8.108   4.543  0.3029 -0.1341  0.2334
15867SOL    HW149918   0.605   8.054   4.467  1.0396  0.2667  0.1303
15867SOL    HW249919   0.630   8.065   4.616 -0.5579 -0.6246  0.4936
15868SOL     OW49920   8.318   0.808   6.413 -0.2307 -0.0814  0.5557
15868SOL    HW149921   8.299   0.837   6.502 -0.5931  1.4109  0.0280
15868SOL    HW249922   8.397   0.855   6.388 -0.1906 -0.4034  0.0519
15869SOL     OW49923   7.722  10.452   0.067  0.1036  0.4323 -0.3074
15869SOL    HW149924   7.775  10.396   0.123  1.3686  1.6544 -0.2292
15869SOL    HW249925   7.681  10.514   0.127 -1.0723 -0.1951 -0.4242
15870SOL     OW49926   7.146   8.291   4.229 -0.2984 -0.1543 -0.4548
15870SOL    HW149927   7.139   8.302   4.324  0.5848  1.2791 -0.5233
15870SOL    HW249928   7.069   8.337   4.194 -0.7839 -0.9355 -0.4402
15871SOL     OW49929   1.339   1.606   1.284 -0.1689 -0.7757  0.0088
15871SOL    HW149930   1.310   1.520   1.315 -1.2439 -0.2937  0.3863
15871SOL    HW249931   1.330   1.664   1.359 -0.8475 -0.0216 -0.6318
15872SOL     OW49932   9.980   0.210   8.384  0.5853  0.2483 -0.2121
15872SOL    HW149933  10.009   0.126   8.346  1.5810  0.0074  1.0208
15872SOL    HW249934   9.886   0.198   8.398  0.4842 -0.2020 -1.1881
15873SOL     OW49935   7.802   8.503   9.578  0.2898  0.2078 -0.0690
15873SOL    HW149936   7.785   8.543   9.493 -0.6503 -1.1653 -0.5633
15873SOL    HW249937   7.898   8.503   9.586  0.7059 -2.8176 -2.8027
15874SOL     OW49938   6.830   2.417   9.611 -0.1357  0.4138 -0.2734
15874SOL    HW149939   6.908   2.472   9.618 -1.6100  2.5180  0.7018
15874SOL    HW249940   6.757   2.479   9.608 -1.8963 -1.4763  0.7957
15875SOL     OW49941   8.140  10.485   7.012  0.3713  0.1630  0.2548
15875SOL    HW149942   8.112  10.553   6.950 -0.8106 -0.0162  0.5647
15875SOL    HW249943   8.071  10.485   7.079  0.4810 -1.1799  0.3824
15876SOL     OW49944   7.779   8.040   0.785 -0.5920 -0.1046 -0.0691
15876SOL    HW149945   7.828   8.051   0.703 -0.9830 -0.4431 -0.3492
15876SOL    HW249946   7.704   7.985   0.762  0.5137 -2.1906  0.9981
15877SOL     OW49947   5.321   3.000   3.434  0.2474 -0.0635 -0.2350
15877SOL    HW149948   5.236   2.994   3.391  0.4795  1.0902 -0.8867
15877SOL    HW249949   5.367   2.920   3.408 -0.3827 -0.3641 -0.4318
15878SOL     OW49950   9.045   3.572   9.699  0.1830  0.4505  0.2802
15878SOL    HW149951   9.027   3.481   9.676  0.9658  0.6391 -1.1928
15878SOL    HW249952   9.140   3.577   9.705  0.1504  1.1661  0.3843
15879SOL     OW49953  10.420   9.805  10.429  0.6525 -0.2371  0.7263
15879SOL    HW149954  10.514   9.819  10.419  0.8325 -0.4617  1.8878
15879SOL    HW249955  10.403   9.721  10.385  0.6360  0.6926 -1.1078
15880SOL     OW49956   2.597   1.566   6.832 -0.3543  0.1169  0.7412
15880SOL    HW149957   2.521   1.548   6.886 -0.2201  1.0695  1.2614
15880SOL    HW249958   2.561   1.588   6.746 -0.8980  3.2700  1.6498
15881SOL     OW49959   7.689   0.532   1.664 -0.9870  0.6656 -0.5112
15881SOL    HW149960   7.732   0.600   1.716 -1.0172  1.9967 -2.1239
15881SOL    HW249961   7.756   0.505   1.600 -0.4467 -2.0108  1.0472
15882SOL     OW49962  10.322   4.967   9.679 -0.2302  0.4844  0.2322
15882SOL    HW149963  10.308   4.991   9.587 -1.1558  1.0727  0.5135
15882SOL    HW249964  10.403   4.916   9.678 -1.5067 -1.7057 -1.2909
15883SOL     OW49965   6.098   5.954   9.917  0.1693  0.8226 -0.4943
15883SOL    HW149966   6.095   5.979  10.010 -1.2880 -0.1870 -0.2434
15883SOL    HW249967   6.006   5.954   9.890  0.0777 -3.1160 -0.7455
15884SOL     OW49968   9.232   4.171   9.837  0.3986 -0.2869 -0.1347
15884SOL    HW149969   9.163   4.237   9.838  0.5669 -0.1032 -0.4225
15884SOL    HW249970   9.306   4.212   9.883  1.1627  0.4673 -1.9459
15885SOL     OW49971   2.817   5.206   4.995 -0.3410 -0.3162 -0.0721
15885SOL    HW149972   2.892   5.167   4.951 -0.5853 -0.5961 -0.2467
15885SOL    HW249973   2.743   5.148   4.974 -0.4500 -0.5105  0.7720
15886SOL     OW49974   3.835   7.449   2.083  0.3403  0.1971  0.5053
15886SOL    HW149975   3.797   7.435   1.996 -1.1866  1.9258  0.8262
15886SOL    HW249976   3.901   7.380   2.092  0.4295 -0.1242 -1.9441
15887SOL     OW49977   1.023   6.426   4.666 -0.0501  0.1683  0.4452
15887SOL    HW149978   1.005   6.516   4.639  1.4889  0.7205  1.1079
15887SOL    HW249979   1.093   6.396   4.607 -0.8115 -0.7464 -0.0183
15888SOL     OW49980   0.042   4.791  10.559  0.2182 -0.4153  0.2842
15888SOL    HW149981   0.063   4.884  10.552  0.8383 -0.5722  0.0373
15888SOL    HW249982   0.046   4.758  10.469  0.6956 -0.8271  0.4485
15889SOL     OW49983   4.384   6.408   3.088  0.0701 -0.7934 -0.0265
15889SOL    HW149984   4.331   6.334   3.118  0.1431 -0.6256  0.5143
15889SOL    HW249985   4.388   6.468   3.162  0.3135 -0.4086 -0.3420
15890SOL     OW49986   9.327   0.011   4.133  0.1307 -0.0857  0.0881
15890SOL    HW149987   9.385   0.011   4.058 -0.1683 -1.0427 -0.1509
15890SOL    HW249988   9.363   0.079   4.191  1.3923 -0.5570 -0.1144
15891SOL     OW49989   5.868  10.134   7.749 -0.0532 -0.5846  0.4714
15891SOL    HW149990   5.879  10.134   7.653 -1.1629  0.0076  0.3356
15891SOL    HW249991   5.774  10.133   7.762  0.0785  0.1730  1.5657
15892SOL     OW49992   3.291   8.400   0.507 -0.8016  0.0821 -0.2651
15892SOL    HW149993   3.331   8.333   0.562 -0.8413 -0.2057 -0.5815
15892SOL    HW249994   3.355   8.414   0.437 -0.0683  1.5421  0.6651
15893SOL     OW49995   7.640   1.519   1.816 -0.0167  0.4037 -0.2359
15893SOL    HW149996   7.600   1.455   1.876 -3.6813 -0.4195 -3.1944
15893SOL    HW249997   7.588   1.598   1.827  0.1131  0.6606 -1.3265
15894SOL     OW49998   8.753   4.795   9.148 -0.2078  0.0489 -0.2004
15894SOL    HW149999   8.677   4.772   9.095 -0.0894 -2.0829  0.4728
15894SOL    HW250000   8.722   4.866   9.204 -1.1939  0.3242 -1.0675
15895SOL     OW50001   2.821   9.394   3.635  0.5736  0.0636  0.1432
15895SOL    HW150002   2.747   9.432   3.587 -0.5059 -2.1354 -0.0957
15895SOL    HW250003   2.898   9.419   3.584 -0.2466  0.3726 -0.9983
15896SOL     OW50004   8.679   8.384   5.601 -0.0314  0.2001 -0.0215
15896SOL    HW150005   8.723   8.370   5.684 -0.6493  1.6245  0.5704
15896SOL    HW250006   8.646   8.297   5.577  2.0354 -0.6804  0.0798
15897SOL     OW50007   5.357   2.310   8.648  0.1395  0.2014 -0.2249
15897SOL    HW150008   5.269   2.300   8.685  0.7283 -0.4008  1.1059
15897SOL    HW250009   5.344   2.357   8.566 -1.4241  0.0892 -0.0688
15898SOL     OW50010   2.060   7.578   5.943  0.5278  0.3920  0.3470
15898SOL    HW150011   2.010   7.650   5.904 -1.1384  0.3595  2.2752
15898SOL    HW250012   2.035   7.501   5.891  1.0743  0.9010 -0.7065
15899SOL     OW50013   5.370   9.061   8.534  0.3092 -0.0357  0.1648
15899SOL    HW150014   5.308   9.044   8.462  2.0337 -0.4513 -1.3157
15899SOL    HW250015   5.315   9.077   8.610 -1.6138 -0.0370 -1.1489
15900SOL     OW50016   8.870   3.159   7.729  0.1437 -0.0760  0.1364
15900SOL    HW150017   8.778   3.173   7.752 -0.2641  0.3584 -1.6417
15900SOL    HW250018   8.914   3.238   7.757  0.3039 -0.9066  2.4258
15901SOL     OW50019   6.094  10.002  10.535  0.2822 -0.1585  0.1341
15901SOL    HW150020   6.014   9.966  10.498 -0.4068  3.0769 -1.9767
15901SOL    HW250021   6.071  10.020  10.627 -0.0122 -2.8363  0.6483
15902SOL     OW50022   5.751   4.827   2.984  0.0085  0.1392  0.2648
15902SOL    HW150023   5.845   4.841   2.972 -0.3107  1.0253 -1.4387
15902SOL    HW250024   5.718   4.912   3.014 -0.4341  0.1827 -0.3407
15903SOL     OW50025   3.302   0.533   1.274  0.1391 -0.0248 -0.4808
15903SOL    HW150026   3.211   0.516   1.297  0.0094  2.1330  0.9161
15903SOL    HW250027   3.353   0.483   1.338 -0.1198  0.1726 -0.1154
15904SOL     OW50028   9.963   6.523   5.941 -0.5006  0.0516 -0.0983
15904SOL    HW150029   9.889   6.563   5.988 -0.1306  0.5136  0.0931
15904SOL    HW250030  10.037   6.581   5.958 -0.0512 -0.4975 -0.1590
15905SOL     OW50031   9.623   3.537   1.024 -0.3063 -0.1489 -0.2870
15905SOL    HW150032   9.595   3.534   0.932  0.9110  0.1316 -0.6866
15905SOL    HW250033   9.707   3.492   1.025  0.3152  0.9604  0.4475
15906SOL     OW50034   3.264   2.790   0.060  0.2011 -0.3073  0.2798
15906SOL    HW150035   3.200   2.820   0.125  1.3612  2.5041  0.2653
15906SOL    HW250036   3.338   2.758   0.113  0.9269  1.4859  0.4118
15907SOL     OW50037   1.876   0.585   0.319 -0.0969  0.0317  0.1958
15907SOL    HW150038   1.890   0.537   0.237  0.4505  0.1257  0.2316
15907SOL    HW250039   1.804   0.645   0.300 -0.8508 -0.8442  0.1688
15908SOL     OW50040   5.126  10.089   2.486 -0.4418 -0.2463  0.1996
15908SOL    HW150041   5.082  10.167   2.521  1.1067  0.5193  0.5109
15908SOL    HW250042   5.185  10.123   2.419 -0.3750 -1.2641 -0.2735
15909SOL     OW50043   5.933   1.497   4.207  0.4106  0.5238 -0.2519
15909SOL    HW150044   6.027   1.482   4.208  0.3216 -0.0448 -0.3380
15909SOL    HW250045   5.911   1.518   4.298  0.5818  0.4335 -0.1889
15910SOL     OW50046   8.982   8.445   4.022  0.5187 -0.5992  1.0578
15910SOL    HW150047   8.941   8.521   4.063  0.2078  0.0633 -0.4230
15910SOL    HW250048   9.066   8.436   4.066  1.8875  2.4318 -0.6781
15911SOL     OW50049   8.199   6.023   5.571 -0.6882 -0.1550 -0.1217
15911SOL    HW150050   8.280   6.016   5.521 -0.7681 -0.8979 -0.1594
15911SOL    HW250051   8.227   6.042   5.661 -0.3380 -2.3318  0.2886
15912SOL     OW50052   8.228   6.185   5.998 -0.1441 -0.2880 -0.3055
15912SOL    HW150053   8.291   6.114   6.011  1.4711  1.0443 -0.4438
15912SOL    HW250054   8.150   6.143   5.963  0.7270 -1.9935 -0.2546
15913SOL     OW50055  10.099   8.475   4.149 -0.3010  0.2151 -0.0086
15913SOL    HW150056  10.069   8.473   4.240  0.2453 -2.3462  0.1886
15913SOL    HW250057  10.185   8.434   4.151 -1.2597 -2.1084 -1.9574
15914SOL     OW50058   3.445   0.312  10.526 -0.1533  0.1887  0.3130
15914SOL    HW150059   3.398   0.242  10.481  0.6475  0.9382 -1.8180
15914SOL    HW250060   3.393   0.390  10.510  1.3018  0.8826 -1.4002
15915SOL     OW50061   1.130   9.087   8.496  0.0411 -0.2789 -0.0895
15915SOL    HW150062   1.091   9.016   8.444  0.9713 -0.5559 -0.4282
15915SOL    HW250063   1.111   9.166   8.445  1.6865 -0.6331 -1.3699
15916SOL     OW50064   1.199   3.286   1.546 -0.4951 -0.3925 -0.0144
15916SOL    HW150065   1.276   3.233   1.566 -0.6607 -0.4655  0.4620
15916SOL    HW250066   1.181   3.269   1.454  0.0609 -0.3717 -0.1299
15917SOL     OW50067   8.239   7.038   9.269  0.1544  0.2799  0.3374
15917SOL    HW150068   8.321   7.072   9.306  0.1115  0.2751  0.4363
15917SOL    HW250069   8.238   6.946   9.293 -0.1837  0.4195  0.8822
15918SOL     OW50070   0.296   3.492   1.653  0.2798 -0.3662  0.4602
15918SOL    HW150071   0.335   3.446   1.579 -1.4795 -0.9587 -0.1483
15918SOL    HW250072   0.369   3.536   1.695  1.2448  0.6390 -2.0831
15919SOL     OW50073   8.696   4.242   9.916 -0.0539 -0.3673  0.4931
15919SOL    HW150074   8.681   4.228   9.823  1.4241  1.9190 -0.1698
15919SOL    HW250075   8.718   4.156   9.950 -1.8696 -1.4871 -0.9581
15920SOL     OW50076   0.485   3.311   3.203  0.2118 -0.1723 -0.1616
15920SOL    HW150077   0.430   3.295   3.126 -1.4338  2.4702  0.3063
15920SOL    HW250078   0.528   3.228   3.220 -2.9405 -2.1965 -1.1477
15921SOL     OW50079   8.890   7.809   5.294  0.3854 -0.2603  0.0978
15921SOL    HW150080   8.936   7.855   5.365  1.4840 -0.4197 -0.4855
15921SOL    HW250081   8.798   7.831   5.307  0.7279  0.8731  0.7276
15922SOL     OW50082   0.221   8.372   6.387  0.0559  0.2865 -0.1308
15922SOL    HW150083   0.241   8.292   6.338 -0.4479 -0.8822  1.4795
15922SOL    HW250084   0.294   8.381   6.448 -1.2483 -0.6000  1.6422
15923SOL     OW50085   9.488   3.951   3.525 -0.1104  0.0401  0.0751
15923SOL    HW150086   9.583   3.955   3.534 -0.0091 -0.9613 -0.4264
15923SOL    HW250087   9.455   4.012   3.591  0.8388 -0.5168  1.0883
15924SOL     OW50088  10.545   0.796   7.251 -0.4670 -0.0974 -0.5650
15924SOL    HW150089  10.611   0.727   7.244 -0.5588 -0.3739  0.9541
15924SOL    HW250090  10.489   0.783   7.174  0.4773 -0.6773 -1.1778
15925SOL     OW50091   3.306   0.927   9.439  0.1776 -0.1099  0.3107
15925SOL    HW150092   3.282   0.999   9.381  0.4129 -1.6799 -1.8371
15925SOL    HW250093   3.398   0.909   9.419  0.2865 -0.6592  1.2277
15926SOL     OW50094  10.295   1.905   5.721 -0.2282 -0.2553 -0.1258
15926SOL    HW150095  10.381   1.909   5.681 -0.3086  0.9346 -0.2109
15926SOL    HW250096  10.240   1.960   5.665 -1.3471 -1.9418 -0.7756
15927SOL     OW50097   1.638   1.060   0.191  0.1051  0.0437 -0.1562
15927SOL    HW150098   1.619   1.065   0.284 -2.3558  1.2776 -0.6366
15927SOL    HW250099   1.556   1.032   0.151  0.9520  0.0332 -1.9891
15928SOL     OW50100   5.413   1.441   1.986  0.0659  0.2485  0.1073
15928SOL    HW150101   5.339   1.418   1.929  0.1397  0.8288 -0.2417
15928SOL    HW250102   5.453   1.517   1.942 -0.0028  0.8416  1.0520
15929SOL     OW50103   8.349   8.145   6.876 -0.1325  0.5652 -0.0637
15929SOL    HW150104   8.390   8.110   6.955  1.1923 -0.1794 -1.0527
15929SOL    HW250105   8.263   8.102   6.873 -0.0751  0.3649  0.7950
15930SOL     OW50106   6.403   9.986   0.119  0.5201  0.4869  0.3296
15930SOL    HW150107   6.362  10.033   0.192  2.0213  0.9662  0.9053
15930SOL    HW250108   6.340   9.917   0.097 -0.9839  1.7293  0.5620
15931SOL     OW50109   5.008   6.052   0.592 -0.9496  0.1459 -0.0580
15931SOL    HW150110   5.031   6.123   0.531 -1.3390 -0.1147 -0.5248
15931SOL    HW250111   4.915   6.035   0.573 -1.3336  0.6898  1.2642
15932SOL     OW50112   8.661   0.558   5.088 -0.4222  0.2997  0.8314
15932SOL    HW150113   8.587   0.526   5.036  0.0231 -0.8878  0.8818
15932SOL    HW250114   8.621   0.587   5.170 -0.9068  0.2909  0.6012
15933SOL     OW50115   8.432   9.202   7.653  0.3448 -0.1486 -0.5953
15933SOL    HW150116   8.512   9.189   7.601  1.4798  1.3076  0.6913
15933SOL    HW250117   8.417   9.296   7.649 -1.3744 -0.4024 -0.8394
15934SOL     OW50118   9.966   2.861   0.546  0.3833  0.4727 -0.3612
15934SOL    HW150119   9.910   2.842   0.621  1.8252  1.5462  1.0606
15934SOL    HW250120   9.905   2.893   0.479 -0.7885  0.9732  0.8840
15935SOL     OW50121   7.457   4.539   7.824  0.0031 -0.3261  0.4295
15935SOL    HW150122   7.518   4.587   7.768 -1.6401  2.0790  0.6014
15935SOL    HW250123   7.372   4.551   7.784 -0.6796 -1.9652  1.2901
15936SOL     OW50124   2.576   2.281   5.277  0.2847 -0.3058  0.3813
15936SOL    HW150125   2.584   2.345   5.206 -1.1076  0.1431  0.5945
15936SOL    HW250126   2.664   2.275   5.313  0.9396 -0.2358 -1.1092
15937SOL     OW50127   1.330   5.058   7.988  0.3900 -0.2034 -0.1553
15937SOL    HW150128   1.299   5.093   8.072  0.9261  0.9027 -0.3920
15937SOL    HW250129   1.375   4.977   8.011 -1.2401 -0.9974  0.3710
15938SOL     OW50130   1.319   8.897   3.312  0.6291 -0.1559  0.2037
15938SOL    HW150131   1.366   8.959   3.368 -0.2960 -0.0309  0.8678
15938SOL    HW250132   1.343   8.811   3.347  1.6910 -0.1834 -0.5407
15939SOL     OW50133   0.753   2.541   6.477 -0.6900 -0.2011  0.6244
15939SOL    HW150134   0.775   2.582   6.560 -1.9236  1.1375  0.3292
15939SOL    HW250135   0.663   2.568   6.459 -0.7288 -1.1010 -0.7704
15940SOL     OW50136   2.111   4.304   7.015  0.6411  0.7620 -0.3554
15940SOL    HW150137   2.053   4.371   7.052  0.2566 -0.2646  0.9820
15940SOL    HW250138   2.053   4.251   6.961  0.8714  1.2457 -1.1004
15941SOL     OW50139   8.794   7.536   4.706  0.1652 -0.5385  0.5839
15941SOL    HW150140   8.766   7.627   4.712  1.1010 -0.2507  0.8148
15941SOL    HW250141   8.761   7.506   4.621  0.2690  0.1707  0.2841
15942SOL     OW50142   0.204   6.014   5.735  0.2169  0.2962  0.9555
15942SOL    HW150143   0.279   6.044   5.683  1.5196 -1.3949  1.7640
15942SOL    HW250144   0.176   6.092   5.783 -0.6834  1.7865 -1.7498
15943SOL     OW50145   9.375   7.551   5.486  0.2279  0.2419  0.1325
15943SOL    HW150146   9.382   7.529   5.579 -0.1656 -0.1070  0.0847
15943SOL    HW250147   9.382   7.467   5.441  0.5339  0.4231 -0.1615
15944SOL     OW50148   7.180   0.893   4.795 -0.2581  0.2575  0.0972
15944SOL    HW150149   7.211   0.881   4.885  0.1497  0.9925  0.0613
15944SOL    HW250150   7.250   0.859   4.740 -0.5145 -0.2070  0.0541
15945SOL     OW50151   5.897   5.176   5.199  0.3252 -0.8392 -0.4294
15945SOL    HW150152   5.914   5.139   5.112  1.2806 -0.0382 -0.5961
15945SOL    HW250153   5.915   5.269   5.190  0.1524 -0.6995  0.5616
15946SOL     OW50154   1.521   5.851   2.321 -0.3618  0.3693  0.1193
15946SOL    HW150155   1.536   5.765   2.359 -1.1542  0.2596  0.1987
15946SOL    HW250156   1.607   5.879   2.290 -0.2406 -0.7850 -0.6217
15947SOL     OW50157   8.904   3.640   4.382  0.4733 -0.2239 -0.5557
15947SOL    HW150158   8.997   3.616   4.385  0.4417 -0.4937 -1.3813
15947SOL    HW250159   8.892   3.699   4.456  1.0652 -1.0243  0.2014
15948SOL     OW50160   0.078   1.264   1.518  0.0053  0.1510 -0.0248
15948SOL    HW150161   0.073   1.199   1.449 -0.5775 -0.9956  1.0606
15948SOL    HW250162   0.163   1.307   1.504 -0.5526  0.7104 -2.0621
15949SOL     OW50163   3.231  10.006   0.990  0.4140  0.0159 -0.3660
15949SOL    HW150164   3.266  10.029   0.904  1.4364  0.8188  0.2356
15949SOL    HW250165   3.201   9.916   0.980  1.8966 -0.4357 -1.1813
15950SOL     OW50166   0.234   3.103   1.481 -0.3657 -0.3364 -0.1664
15950SOL    HW150167   0.142   3.080   1.494 -0.5381  1.0340  1.2325
15950SOL    HW250168   0.232   3.172   1.414 -0.6573  1.4726  1.5902
15951SOL     OW50169   1.386  10.108   6.942  0.1574  0.5270 -0.0945
15951SOL    HW150170   1.305  10.089   6.894  0.9345 -0.9738 -0.8618
15951SOL    HW250171   1.450  10.045   6.909  1.7844  1.9238  0.1900
15952SOL     OW50172   9.396   6.389   3.220 -0.0583  0.3166 -0.4363
15952SOL    HW150173   9.393   6.313   3.279 -0.0817 -0.0007 -0.8394
15952SOL    HW250174   9.415   6.463   3.277 -0.8747  0.1382  0.0903
15953SOL     OW50175   0.510   7.916   3.920  0.5634  0.0310 -0.2211
15953SOL    HW150176   0.526   7.969   3.842  0.8448 -1.1556 -0.9866
15953SOL    HW250177   0.544   7.969   3.992 -0.6577  1.6133 -0.7435
15954SOL     OW50178   8.163   1.611  10.057  0.0428 -0.2033 -0.3018
15954SOL    HW150179   8.252   1.630  10.026  0.2534 -0.2107  0.2777
15954SOL    HW250180   8.170   1.525  10.099 -0.3589 -0.4440 -0.7304
15955SOL     OW50181   9.865   3.428   6.371  0.1998 -0.0161 -0.3980
15955SOL    HW150182   9.892   3.520   6.379 -1.7716  0.5320  0.7975
15955SOL    HW250183   9.894   3.388   6.453 -1.3390  0.2823  0.3440
15956SOL     OW50184   9.276   2.584   2.739  0.2090 -0.3579  0.4834
15956SOL    HW150185   9.222   2.530   2.680 -0.6428  0.1794  0.7476
15956SOL    HW250186   9.246   2.561   2.827  1.5584 -1.2419  0.7398
15957SOL     OW50187  10.548   5.129   5.364 -0.3438  0.0855  0.2619
15957SOL    HW150188  10.607   5.094   5.297  1.8716 -0.5523  2.4297
15957SOL    HW250189  10.460   5.105   5.333  0.7108 -1.7013 -1.5533
15958SOL     OW50190   2.472   0.112   9.879  0.1314  0.1923 -0.3631
15958SOL    HW150191   2.458   0.207   9.885  1.1587  0.4426 -1.5059
15958SOL    HW250192   2.384   0.074   9.879 -0.2681  1.0717  1.0412
15959SOL     OW50193   5.688   4.691   7.044 -0.3296 -0.5191  0.1588
15959SOL    HW150194   5.643   4.608   7.029 -0.4760 -0.5635  0.8234
15959SOL    HW250195   5.619   4.752   7.070 -0.4471  0.2096 -1.7123
15960SOL     OW50196   4.459   6.416   4.760  0.0187  0.4178  0.7016
15960SOL    HW150197   4.499   6.329   4.765  0.3838  0.3197 -2.0534
15960SOL    HW250198   4.370   6.399   4.727  0.6817  1.1218 -1.6224
15961SOL     OW50199   7.845   9.852   3.783  0.0770 -0.4049  0.2427
15961SOL    HW150200   7.873   9.938   3.753 -0.7892  0.4938  1.8699
15961SOL    HW250201   7.921   9.795   3.767  0.6073  0.6040 -0.9903
15962SOL     OW50202  10.195   5.683  10.450  0.4076 -0.3198  0.0233
15962SOL    HW150203  10.216   5.683  10.356  0.6045  1.2329  0.0402
15962SOL    HW250204  10.274   5.649  10.491  1.3432  1.3942 -0.2317
15963SOL     OW50205   1.917   1.201   5.206 -0.4373 -0.5669 -0.2806
15963SOL    HW150206   1.872   1.172   5.286 -0.4249  0.4701  0.1229
15963SOL    HW250207   2.009   1.181   5.222 -0.3891 -0.0397  0.1179
15964SOL     OW50208  10.322   2.992   3.223  0.6376  0.0726 -0.8338
15964SOL    HW150209  10.310   2.908   3.178  0.0809 -1.1723  1.4859
15964SOL    HW250210  10.406   3.024   3.189 -0.3139 -0.1172 -3.6393
15965SOL     OW50211   4.491   0.593   2.448  0.0789 -0.5016  0.1065
15965SOL    HW150212   4.532   0.508   2.460  1.4042  0.1485  0.3396
15965SOL    HW250213   4.560   0.657   2.467 -0.1385  0.6378 -2.4813
15966SOL     OW50214   7.446   1.820   9.314 -0.1294 -0.1884 -0.1155
15966SOL    HW150215   7.520   1.759   9.306 -0.7855 -0.9458 -0.5187
15966SOL    HW250216   7.392   1.802   9.237  0.1729  1.6194 -0.8022
15967SOL     OW50217   2.485   4.852   9.203 -0.1933  0.0312 -0.5627
15967SOL    HW150218   2.420   4.788   9.234 -0.2897 -0.2371 -1.2864
15967SOL    HW250219   2.499   4.910   9.277  0.0076 -0.9186  0.1713
15968SOL     OW50220   5.367   5.197   4.072  0.7052 -0.0597 -0.3231
15968SOL    HW150221   5.286   5.147   4.082  2.0136 -2.0318  1.1898
15968SOL    HW250222   5.368   5.257   4.147  0.6717 -0.0473 -0.3327
15969SOL     OW50223   9.344   4.060   7.341  0.4683 -0.1281 -0.0898
15969SOL    HW150224   9.295   4.081   7.261  1.0805 -1.5517 -0.8760
15969SOL    HW250225   9.280   4.016   7.397  0.3127 -0.0741 -0.2226
15970SOL     OW50226   8.558   9.507  10.595  0.1849  0.0129  0.0240
15970SOL    HW150227   8.606   9.430  10.567 -0.3995 -0.1497 -0.5581
15970SOL    HW250228   8.622   9.578  10.591  0.3602 -0.1843 -0.8273
15971SOL     OW50229   4.191   5.045   6.713  0.2175 -0.7050  0.5553
15971SOL    HW150230   4.257   5.000   6.660  0.4022 -0.3369  0.4697
15971SOL    HW250231   4.238   5.118   6.753 -0.3489  0.1773 -0.3174
15972SOL     OW50232   2.163   2.401   2.139  0.0758 -0.2777 -0.1796
15972SOL    HW150233   2.082   2.410   2.090  0.5422  3.2476 -0.5789
15972SOL    HW250234   2.137   2.414   2.231 -0.0682 -1.3406 -0.0613
15973SOL     OW50235   1.620   5.888   0.890 -0.4886  0.2476  0.0014
15973SOL    HW150236   1.582   5.955   0.947 -1.0389  0.0452 -0.1186
15973SOL    HW250237   1.582   5.806   0.921 -0.9885  0.1594 -0.7959
15974SOL     OW50238   5.470   5.874   4.316  0.0378  0.0640  0.4080
15974SOL    HW150239   5.401   5.926   4.355  0.8593  1.2102  0.3727
15974SOL    HW250240   5.523   5.844   4.390  0.4896  0.6318  0.3189
15975SOL     OW50241   1.030   4.058   7.950  0.2810 -0.4224 -0.2078
15975SOL    HW150242   0.953   4.087   7.999 -0.1867 -1.3304 -0.4056
15975SOL    HW250243   1.104   4.087   8.004 -0.1651  0.8978 -0.2630
15976SOL     OW50244  10.497   9.364   0.075 -0.2406  0.2471  0.1552
15976SOL    HW150245  10.550   9.335   0.001 -0.5258 -0.3927  0.2017
15976SOL    HW250246  10.425   9.413   0.036  0.8285  1.8746  0.1297
15977SOL     OW50247   2.878   0.456   0.866  0.0451  0.0023  0.1676
15977SOL    HW150248   2.905   0.505   0.944  0.1523  1.3721 -0.6900
15977SOL    HW250249   2.873   0.523   0.797  0.4962 -1.2618 -1.1280
15978SOL     OW50250   1.230   6.983   7.980 -0.2482  0.1094 -0.0583
15978SOL    HW150251   1.223   7.046   7.909 -0.4539 -0.2313 -0.3446
15978SOL    HW250252   1.140   6.973   8.012 -0.0029  1.0960  0.9895
15979SOL     OW50253   9.036   2.034   9.453  0.1908 -0.9980  0.6150
15979SOL    HW150254   8.989   1.957   9.421  1.0390 -1.1378 -0.3479
15979SOL    HW250255   8.974   2.106   9.441  0.5049 -1.0219 -1.5384
15980SOL     OW50256   0.398   7.021   6.223  0.1263  0.4280  0.0048
15980SOL    HW150257   0.475   7.035   6.168  0.6177  0.9706  0.8113
15980SOL    HW250258   0.418   7.068   6.304 -0.5154 -0.4830  0.7090
15981SOL     OW50259   0.263   0.853   0.231  0.2965  0.1270  0.6559
15981SOL    HW150260   0.270   0.774   0.178 -0.3248  0.1986  0.4586
15981SOL    HW250261   0.314   0.919   0.183  0.7872 -0.1370  0.8039
15982SOL     OW50262   2.202   8.118   1.178 -0.1362  0.2463 -0.1292
15982SOL    HW150263   2.207   8.089   1.087  2.1397  0.7167 -0.2084
15982SOL    HW250264   2.265   8.063   1.225 -0.3455  0.8603  0.9035
15983SOL     OW50265   6.529   2.926   2.011 -0.4741 -0.7623 -0.0215
15983SOL    HW150266   6.582   2.884   2.079 -1.6398 -1.1549  0.6634
15983SOL    HW250267   6.497   3.006   2.052  2.3249  1.3363 -1.5372
15984SOL     OW50268   3.960   5.361   0.387 -0.0118 -0.4840  0.1609
15984SOL    HW150269   4.042   5.401   0.356 -0.5438  1.5558  1.2521
15984SOL    HW250270   3.988   5.279   0.429  1.5369  0.3649  0.8774
15985SOL     OW50271   4.306   9.640   9.247  0.4792  0.3889 -0.0844
15985SOL    HW150272   4.373   9.660   9.183  0.5904 -0.9301 -0.4105
15985SOL    HW250273   4.347   9.657   9.332  1.7099 -1.6116 -0.2159
15986SOL     OW50274   2.556   9.329   3.840 -0.6429  0.2980  0.3555
15986SOL    HW150275   2.528   9.245   3.875  0.8486 -0.9150 -1.1890
15986SOL    HW250276   2.637   9.349   3.887  0.3138 -0.3754 -0.9493
15987SOL     OW50277  10.264   4.372   7.511  0.2554 -0.1378  0.1045
15987SOL    HW150278  10.235   4.394   7.422 -0.8925 -0.4228  0.3817
15987SOL    HW250279  10.182   4.361   7.560  0.8639 -0.6493  1.0330
15988SOL     OW50280  10.551   5.888   8.819  0.2840  0.3562  0.1506
15988SOL    HW150281  10.472   5.835   8.810  0.7705 -0.0119 -3.0678
15988SOL    HW250282  10.526   5.974   8.787  0.6595  0.8558  1.1599
15989SOL     OW50283   4.645   6.221   5.461  0.7377  0.3931  0.3632
15989SOL    HW150284   4.717   6.235   5.522  0.2158 -0.1312  1.1197
15989SOL    HW250285   4.597   6.147   5.498 -0.7659  1.3648  0.4294
15990SOL     OW50286   9.197   4.076   8.963 -0.4114 -0.0464 -0.1895
15990SOL    HW150287   9.188   3.985   8.994  3.2855 -1.6439 -3.0116
15990SOL    HW250288   9.137   4.082   8.889 -0.4955 -0.2543 -0.1389
15991SOL     OW50289   2.688   8.850   3.377  0.3273  0.7102  0.5006
15991SOL    HW150290   2.754   8.916   3.401  0.8107  0.3178  0.2687
15991SOL    HW250291   2.739   8.779   3.338  0.1387 -0.9213  2.9822
15992SOL     OW50292   7.873  10.294   8.943 -0.4296  0.2427 -0.1342
15992SOL    HW150293   7.957  10.309   8.988 -0.4791  0.6453 -0.1766
15992SOL    HW250294   7.884  10.209   8.901 -0.0959  0.2206 -0.0081
15993SOL     OW50295  10.089   2.029   8.241 -0.1524  0.1045  0.0767
15993SOL    HW150296  10.026   2.080   8.292 -1.7742 -1.1537 -0.5791
15993SOL    HW250297  10.035   1.978   8.180  1.4470 -1.6532  0.0419
15994SOL     OW50298   0.417   7.260   2.751  0.3535 -0.0394 -0.0654
15994SOL    HW150299   0.440   7.186   2.807 -2.3885 -1.2950 -0.4809
15994SOL    HW250300   0.333   7.237   2.712 -0.7706  3.3784 -0.0499
15995SOL     OW50301   4.347  10.432   5.548  0.6384  0.1698  0.2152
15995SOL    HW150302   4.273  10.442   5.608 -0.8505  1.5362 -1.7205
15995SOL    HW250303   4.422  10.416   5.605 -1.5670 -5.8302  2.2660
15996SOL     OW50304   1.125   7.027   3.906  0.2944 -0.2749  0.4061
15996SOL    HW150305   1.216   7.050   3.885  0.4573 -0.5768  0.7787
15996SOL    HW250306   1.086   7.109   3.935 -0.4235  0.5993 -2.6154
15997SOL     OW50307   6.394   2.000   8.047 -0.1865  0.5577 -0.6426
15997SOL    HW150308   6.312   2.050   8.056  1.4918  3.4542 -0.1429
15997SOL    HW250309   6.422   1.986   8.138  0.6463  1.0400 -0.8173
15998SOL     OW50310   4.177   0.241   7.887  0.0740  0.1203  0.2829
15998SOL    HW150311   4.165   0.305   7.817 -1.8089  0.3893  0.7905
15998SOL    HW250312   4.170   0.291   7.968 -1.6546 -0.6983  0.6903
15999SOL     OW50313   2.547   1.977   1.686 -0.5133  0.0768  0.1005
15999SOL    HW150314   2.528   1.992   1.778 -0.7006 -0.5270  0.1667
15999SOL    HW250315   2.612   1.907   1.685 -1.2269 -0.6069 -0.2393
16000SOL     OW50316   5.015   4.466   7.043 -0.6691  0.1416 -0.3164
16000SOL    HW150317   4.989   4.547   6.999  0.8083  1.3899  1.0056
16000SOL    HW250318   4.970   4.470   7.128 -0.4810 -0.3676 -0.1924
16001SOL     OW50319   7.097   0.123   6.223 -0.4855  0.3052 -0.1085
16001SOL    HW150320   7.021   0.079   6.185  0.2582 -0.9615 -0.1992
16001SOL    HW250321   7.090   0.107   6.317 -0.0358 -0.3166 -0.1759
16002SOL     OW50322   1.107   0.621   8.605 -1.0729 -0.1939 -0.0834
16002SOL    HW150323   1.037   0.574   8.560 -0.9400 -0.1173 -0.3712
16002SOL    HW250324   1.165   0.552   8.638  0.7211 -0.2548 -3.0078
16003SOL     OW50325   7.723   8.891   8.493 -0.4020  0.2294  0.3447
16003SOL    HW150326   7.730   8.833   8.418  1.5444 -0.0953  0.7072
16003SOL    HW250327   7.644   8.864   8.539 -0.5631 -0.8462 -0.5462
16004SOL     OW50328   0.361   4.583   8.946  0.6082  0.0739  0.6882
16004SOL    HW150329   0.394   4.671   8.930  0.2000  0.9802  4.0797
16004SOL    HW250330   0.438   4.534   8.974  0.9275 -0.8780 -1.6452
16005SOL     OW50331   3.747   0.814   5.476  0.1084 -0.4034 -0.2201
16005SOL    HW150332   3.734   0.752   5.404  0.2472 -1.2593  0.4798
16005SOL    HW250333   3.833   0.853   5.460  0.9025 -1.8465  0.3887
16006SOL     OW50334   6.401   3.848   5.379 -0.6096 -0.1254 -0.0424
16006SOL    HW150335   6.306   3.836   5.370 -0.8672  1.9435 -0.5902
16006SOL    HW250336   6.416   3.938   5.352  1.8272 -1.0533 -2.2044
16007SOL     OW50337   1.655   3.627   7.489  0.9309 -0.0288 -0.5135
16007SOL    HW150338   1.740   3.594   7.460  0.5490  0.2111 -1.9799
16007SOL    HW250339   1.667   3.722   7.494  0.6314  0.0452 -1.1560
16008SOL     OW50340   4.571   3.234   2.025  0.2788  0.8278  0.3091
16008SOL    HW150341   4.663   3.215   2.009 -0.5779 -0.8246 -3.9164
16008SOL    HW250342   4.560   3.326   2.003  0.8616  1.0393  0.8597
16009SOL     OW50343   3.842   8.213   3.080  0.2655  0.2196  0.1088
16009SOL    HW150344   3.795   8.145   3.031 -1.3062  0.1174  1.6626
16009SOL    HW250345   3.871   8.168   3.160 -0.5019  1.2547  0.9961
16010SOL     OW50346  10.552   8.591   4.195 -0.4158 -0.2342  0.5867
16010SOL    HW150347  10.594   8.653   4.254 -0.1726  1.7010 -1.4954
16010SOL    HW250348  10.618   8.523   4.180  0.6128  0.8167  0.2348
16011SOL     OW50349  10.046  10.593   2.926 -0.4264 -0.1969 -0.0782
16011SOL    HW150350   9.995  10.518   2.958 -0.2429 -0.6638 -0.8645
16011SOL    HW250351  10.027  10.598   2.833 -0.9239  1.1379  0.0656
16012SOL     OW50352   8.034   1.996   3.442  0.4531 -0.3184  0.1964
16012SOL    HW150353   8.008   1.994   3.350 -2.0454 -1.9178  0.8379
16012SOL    HW250354   8.108   1.937   3.448 -0.6146 -1.7680 -0.5079
16013SOL     OW50355   0.051   5.441   9.373 -0.5552  0.2362 -0.4488
16013SOL    HW150356   0.131   5.469   9.418 -1.2731  3.4699 -0.8814
16013SOL    HW250357   0.035   5.510   9.308 -1.9770 -1.9784 -2.5957
16014SOL     OW50358   2.194   3.296   3.608  0.3194 -1.0508  0.3794
16014SOL    HW150359   2.135   3.260   3.674 -1.2045  0.2412 -0.1938
16014SOL    HW250360   2.157   3.267   3.524  0.0264  0.3885 -0.0194
16015SOL     OW50361   8.859   9.216   4.714  0.0306 -0.9129  0.4120
16015SOL    HW150362   8.809   9.243   4.792 -0.5874  0.5937 -0.4575
16015SOL    HW250363   8.847   9.288   4.653  2.6539 -0.8720 -0.1359
16016SOL     OW50364   5.999   3.862   6.445 -0.5701  0.2294 -0.5286
16016SOL    HW150365   6.070   3.925   6.452 -1.0408  0.7662 -0.5282
16016SOL    HW250366   6.024   3.791   6.504 -0.0621  0.4386 -0.4896
16017SOL     OW50367   3.466   3.980   3.245  0.3059  0.0750 -0.2480
16017SOL    HW150368   3.504   4.067   3.258  0.9009  0.0517 -1.6423
16017SOL    HW250369   3.371   3.994   3.249  0.4026  0.7275 -0.1344
16018SOL     OW50370   8.079   8.245   9.478  0.1413 -0.2720 -0.2188
16018SOL    HW150371   8.101   8.269   9.388 -0.5539 -0.3657 -0.4181
16018SOL    HW250372   8.079   8.150   9.479  2.8954 -0.3642  0.5699
16019SOL     OW50373   2.633   7.103   9.152  0.2413  0.4033 -0.0877
16019SOL    HW150374   2.656   7.178   9.098 -0.1255 -0.4377 -1.4696
16019SOL    HW250375   2.708   7.092   9.210 -0.1281  2.4171  0.8571
16020SOL     OW50376   5.052   1.202   8.539  0.0368 -0.0441 -0.0195
16020SOL    HW150377   5.099   1.277   8.575 -0.0543  1.8495 -3.3698
16020SOL    HW250378   5.121   1.139   8.516  0.2746 -0.2669  1.2734
16021SOL     OW50379   0.779  10.438   3.398  0.6914  0.2542  0.3831
16021SOL    HW150380   0.842  10.419   3.468  1.3466  2.4411  0.4642
16021SOL    HW250381   0.715  10.368   3.404  0.8532  0.2275  3.0197
16022SOL     OW50382   8.215   5.323   2.973 -0.7421 -0.5132 -0.4151
16022SOL    HW150383   8.189   5.394   3.032 -0.4938  0.5827 -1.5776
16022SOL    HW250384   8.191   5.243   3.020  0.1915  0.2728  1.5292
16023SOL     OW50385   6.711  10.148   4.656  0.0534  0.3920  0.4610
16023SOL    HW150386   6.711  10.232   4.611 -0.5606 -0.4394 -1.2059
16023SOL    HW250387   6.642  10.156   4.722  0.6048  1.4697  0.9271
16024SOL     OW50388   9.483   3.542   0.187 -0.1989 -0.1574  0.3740
16024SOL    HW150389   9.451   3.477   0.250  1.4136 -0.5069  0.8664
16024SOL    HW250390   9.531   3.491   0.122 -1.1044  0.2981 -0.7010
16025SOL     OW50391   0.342   3.292   6.834 -0.2530 -0.1637 -0.3934
16025SOL    HW150392   0.348   3.388   6.839  0.2313 -0.2574  2.3664
16025SOL    HW250393   0.256   3.276   6.795 -0.5933  1.3951 -0.3640
16026SOL     OW50394   5.482   2.112   3.683  0.0879 -0.2971  0.1481
16026SOL    HW150395   5.563   2.062   3.693 -0.2798 -1.0531 -0.4589
16026SOL    HW250396   5.452   2.127   3.773  1.7435  1.4835  0.4663
16027SOL     OW50397   1.972   0.529  10.431 -0.1936 -0.6040 -0.3071
16027SOL    HW150398   1.921   0.515  10.350 -1.1960  2.3216 -0.3204
16027SOL    HW250399   2.057   0.560  10.400  0.2198 -1.5955 -0.2155
16028SOL     OW50400   2.957   8.251   1.750 -0.1598  0.5728 -0.5504
16028SOL    HW150401   2.889   8.318   1.743 -0.1866  0.5625 -0.4011
16028SOL    HW250402   2.913   8.177   1.791  0.0104  0.6627 -0.2006
16029SOL     OW50403   3.624   9.767  10.398  0.3602 -0.6482 -0.5298
16029SOL    HW150404   3.645   9.674  10.412 -0.9397 -0.8355  0.4155
16029SOL    HW250405   3.541   9.779  10.445  0.9002  1.1831  0.0008
16030SOL     OW50406   4.714   0.320   0.398 -0.3430  0.2955 -0.7078
16030SOL    HW150407   4.642   0.266   0.428  0.2008  0.5214  1.0857
16030SOL    HW250408   4.682   0.361   0.317 -2.0812  0.1487 -0.1169
16031SOL     OW50409   7.096   1.117   2.169 -0.5723  0.1996  0.1510
16031SOL    HW150410   7.117   1.042   2.113  0.8887 -0.6330  1.7144
16031SOL    HW250411   7.092   1.080   2.258 -2.6938  1.4845  0.6621
16032SOL     OW50412   4.211   2.999   8.468 -0.4355 -0.0446  0.0772
16032SOL    HW150413   4.143   3.064   8.450  0.9536  1.3422 -0.3660
16032SOL    HW250414   4.254   2.985   8.384  2.9871  2.8730  1.0920
16033SOL     OW50415   0.932   4.909   9.143  0.4522  0.5786 -0.1483
16033SOL    HW150416   1.019   4.922   9.105 -0.0232  3.0115 -0.6166
16033SOL    HW250417   0.925   4.978   9.209 -1.0509  0.3203 -0.0075
16034SOL     OW50418   3.106   6.898   7.416  0.1540  0.3773  0.0754
16034SOL    HW150419   3.112   6.974   7.358 -0.4168  0.4966  0.1736
16034SOL    HW250420   3.142   6.928   7.499  1.0706  0.1768 -0.2278
16035SOL     OW50421   2.916   0.221   4.342 -0.3551 -0.2771 -0.2310
16035SOL    HW150422   2.971   0.196   4.416 -0.9012  1.4596  0.8210
16035SOL    HW250423   2.827   0.204   4.372 -0.7131  2.1782  0.3153
16036SOL     OW50424   4.423   1.458   9.182  0.3944  0.2692  0.2229
16036SOL    HW150425   4.379   1.492   9.260  0.4987  0.3633  0.2417
16036SOL    HW250426   4.508   1.504   9.181  0.1576  0.7062 -0.2692
16037SOL     OW50427   6.334   1.514   5.680  0.1509  0.5243  0.2093
16037SOL    HW150428   6.375   1.551   5.602 -0.2698  1.0521  0.2364
16037SOL    HW250429   6.387   1.544   5.753 -0.0085  0.8125  0.2053
16038SOL     OW50430   0.096   4.677   0.324 -0.5463  0.3323  0.1570
16038SOL    HW150431   0.005   4.680   0.295 -0.7556 -1.5766  0.4622
16038SOL    HW250432   0.142   4.738   0.266 -1.6086 -0.4515 -1.5985
16039SOL     OW50433   9.836   4.906   9.049  0.0585 -0.1997 -0.5590
16039SOL    HW150434   9.886   4.955   8.984  0.9190 -0.6551 -0.2478
16039SOL    HW250435   9.759   4.960   9.066  0.9716  1.0285 -0.2484
16040SOL     OW50436   7.999   3.663   9.847  0.0973  0.2525  0.3251
16040SOL    HW150437   8.077   3.704   9.810  0.7576 -0.9593  0.3032
16040SOL    HW250438   8.031   3.581   9.885 -1.1588 -0.2589  0.3403
16041SOL     OW50439   4.285   2.349   1.408  0.1721  0.4570  0.2263
16041SOL    HW150440   4.242   2.434   1.415 -1.1555 -0.0884 -0.8845
16041SOL    HW250441   4.319   2.346   1.319  0.7074  0.0399  0.4345
16042SOL     OW50442   5.427   2.348   3.529 -0.2228 -0.4034 -0.0816
16042SOL    HW150443   5.452   2.425   3.580  0.2516  1.3086 -2.6764
16042SOL    HW250444   5.436   2.275   3.590  0.0090  1.4762  2.3092
16043SOL     OW50445   5.515   3.926   4.617 -0.5498 -0.3164 -0.7031
16043SOL    HW150446   5.457   3.939   4.542  0.9030  3.3995 -1.3538
16043SOL    HW250447   5.602   3.914   4.579 -0.1224 -0.7167  0.3640
16044SOL     OW50448   2.631   5.581   3.825  0.2330  0.2825  0.3871
16044SOL    HW150449   2.600   5.530   3.750 -1.2129 -0.0933  1.2055
16044SOL    HW250450   2.718   5.611   3.799  0.4813 -1.2919 -0.7427
16045SOL     OW50451   1.632   1.443   6.674 -0.1994 -0.0567 -0.1859
16045SOL    HW150452   1.688   1.368   6.693 -0.8251 -0.1530  1.3353
16045SOL    HW250453   1.689   1.502   6.623  0.4663 -1.2900 -0.9246
16046SOL     OW50454  10.495   2.964   8.855 -0.2178 -0.9504  0.0106
16046SOL    HW150455  10.532   3.005   8.777  2.0583  0.3470  1.6388
16046SOL    HW250456  10.521   2.872   8.848  1.1865 -0.5654 -0.1351
16047SOL     OW50457   8.410   4.624   6.846  0.1841  0.0443 -0.1108
16047SOL    HW150458   8.382   4.604   6.936 -1.4188  0.8290 -0.4087
16047SOL    HW250459   8.379   4.550   6.794  0.6895 -0.1765 -0.1049
16048SOL     OW50460   3.292   7.052   6.514  0.4244  0.6378 -0.2464
16048SOL    HW150461   3.233   7.044   6.590  0.4676  0.9414 -0.1802
16048SOL    HW250462   3.314   7.144   6.511  0.5767  0.5923 -0.5178
16049SOL     OW50463   1.617   7.240   5.070  0.6127 -0.0865 -0.0454
16049SOL    HW150464   1.582   7.202   4.989  1.4515 -0.1488 -0.3859
16049SOL    HW250465   1.568   7.196   5.139 -0.5768  0.4327 -0.5191
16050SOL     OW50466   0.676   4.498   4.877 -0.0333  0.0193 -0.2923
16050SOL    HW150467   0.673   4.535   4.788  0.6523 -1.0939 -0.8032
16050SOL    HW250468   0.585   4.476   4.897 -0.2846  0.8578 -0.4533
16051SOL     OW50469  10.550   1.278   7.922  0.1394  0.1776 -0.1466
16051SOL    HW150470  10.491   1.337   7.874 -0.4651 -0.0482  0.3163
16051SOL    HW250471  10.520   1.190   7.900 -0.5729  0.0712  1.1565
16052SOL     OW50472   7.415   2.502   6.640  0.3269  0.4696 -0.8951
16052SOL    HW150473   7.412   2.410   6.617 -2.0102  0.7301 -1.9818
16052SOL    HW250474   7.480   2.540   6.581  0.9290 -0.3837 -0.7908
16053SOL     OW50475  10.076   4.351   5.345  0.4992  0.3603  0.3375
16053SOL    HW150476  10.032   4.323   5.264  1.4383  0.8019 -0.3462
16053SOL    HW250477  10.020   4.318   5.415 -0.1412 -0.3592 -0.4872
16054SOL     OW50478   2.317   8.765   8.977  0.3965 -0.6073 -0.3130
16054SOL    HW150479   2.372   8.843   8.984  0.7250 -0.6809 -1.7150
16054SOL    HW250480   2.378   8.692   8.981  0.2985 -0.7239 -0.9034
16055SOL     OW50481   5.270   1.029   1.334  0.3194  0.1704 -0.0454
16055SOL    HW150482   5.304   1.071   1.412  0.0557  1.3585 -0.5458
16055SOL    HW250483   5.193   1.081   1.310  1.0271  0.5342 -1.7086
16056SOL     OW50484   2.698   9.018   8.670  0.1531 -0.0728  0.2326
16056SOL    HW150485   2.704   8.934   8.716  0.0328 -0.1956  0.0252
16056SOL    HW250486   2.761   9.075   8.715 -0.8828  0.2055  1.3791
16057SOL     OW50487   1.586   8.632   0.848  0.0852  0.0846 -0.3173
16057SOL    HW150488   1.664   8.688   0.839  1.2919 -1.4541  0.0947
16057SOL    HW250489   1.600   8.585   0.930 -0.0476 -2.0414 -1.4616
16058SOL     OW50490   3.574   2.751   3.902  0.3734  0.1044  0.2540
16058SOL    HW150491   3.522   2.810   3.847 -0.7816 -0.4726  0.7123
16058SOL    HW250492   3.658   2.797   3.912  0.0006  1.0144 -0.5533
16059SOL     OW50493   7.422   8.434   5.266 -0.3202 -0.2444 -0.1909
16059SOL    HW150494   7.433   8.529   5.264  0.6027 -0.3255  0.6156
16059SOL    HW250495   7.490   8.403   5.324 -0.2376 -1.4664 -0.9091
16060SOL     OW50496   9.919  10.263   1.669 -0.2693 -0.2975 -0.1672
16060SOL    HW150497   9.824  10.263   1.663 -0.3032  1.4519 -0.2164
16060SOL    HW250498   9.937  10.259   1.763 -0.3759 -0.8098 -0.1659
16061SOL     OW50499   0.803   0.291   0.665  0.4890 -0.3962  0.1353
16061SOL    HW150500   0.871   0.355   0.688  0.6103 -0.0084 -1.1980
16061SOL    HW250501   0.850   0.223   0.616 -0.1740  0.2802 -1.5028
16062SOL     OW50502   4.533   8.908   0.014  0.2903  0.2642  0.3711
16062SOL    HW150503   4.544   8.814   0.001  0.9551  0.4036 -0.1201
16062SOL    HW250504   4.621   8.940   0.035  0.2760  0.9468 -0.5589
16063SOL     OW50505   2.939   9.384   3.092  1.0584 -0.1963 -0.2535
16063SOL    HW150506   2.903   9.469   3.116 -2.0525 -1.4949  0.1430
16063SOL    HW250507   2.997   9.361   3.164  0.5574  0.8418  0.4944
16064SOL     OW50508   7.618   7.124   3.061  0.1013  0.4310 -0.1906
16064SOL    HW150509   7.630   7.120   3.156  0.2430  1.2861 -0.1726
16064SOL    HW250510   7.524   7.110   3.049  0.2896 -1.1915 -0.0313
16065SOL     OW50511   2.898   3.463   3.987  0.4650  0.0274  0.3383
16065SOL    HW150512   2.972   3.418   4.027  0.9881 -0.1185 -0.7526
16065SOL    HW250513   2.935   3.506   3.910 -0.2721  1.2981  0.6713
16066SOL     OW50514   0.313   8.622   7.782 -0.2682 -0.1711  0.2605
16066SOL    HW150515   0.395   8.585   7.748 -0.4923  0.7397 -1.3824
16066SOL    HW250516   0.334   8.654   7.869  1.3582  0.7688 -0.4449
16067SOL     OW50517   9.033   1.270   5.854  0.2373  0.3359  0.1326
16067SOL    HW150518   9.085   1.343   5.886  1.9530 -0.7514 -0.0727
16067SOL    HW250519   9.003   1.297   5.767  2.0903  0.2457 -0.5645
16068SOL     OW50520   9.447   5.075   4.155  0.1409 -0.4903 -0.2924
16068SOL    HW150521   9.442   5.078   4.059  0.5735 -1.7774 -0.3688
16068SOL    HW250522   9.380   5.012   4.181 -1.2100  1.1512  0.4099
16069SOL     OW50523   6.931   9.963   4.968 -0.9916  0.4217  0.1178
16069SOL    HW150524   6.871  10.028   5.006 -1.4810  0.1730 -0.2194
16069SOL    HW250525   6.940   9.990   4.877  0.2969  1.1034  0.4172
16070SOL     OW50526   8.650  10.051   4.637 -0.2035 -0.7981 -0.1297
16070SOL    HW150527   8.649   9.996   4.558  1.9853 -0.0901 -0.7334
16070SOL    HW250528   8.643   9.989   4.709 -0.4360 -1.6341 -0.8500
16071SOL     OW50529   6.074   0.975   7.043 -0.3304  0.2195 -0.2737
16071SOL    HW150530   6.025   0.899   7.075  0.0879 -0.8316 -1.9978
16071SOL    HW250531   6.134   0.997   7.114  0.3367 -1.8042 -0.1402
16072SOL     OW50532   9.697   3.010   1.034  0.4286  0.4230 -0.1670
16072SOL    HW150533   9.728   3.007   1.125 -2.3230 -1.0661  0.8511
16072SOL    HW250534   9.702   2.919   1.004 -0.2786  0.6044 -0.8735
16073SOL     OW50535   8.399   9.856   3.122 -0.2812 -0.2034  0.0766
16073SOL    HW150536   8.457   9.933   3.120  0.5192 -0.7615  0.9236
16073SOL    HW250537   8.359   9.858   3.209 -0.5829 -0.5016 -0.0554
16074SOL     OW50538   5.042   0.272   9.823  0.1556  0.2247 -0.6615
16074SOL    HW150539   5.091   0.249   9.902 -0.6560  0.0940 -0.1866
16074SOL    HW250540   4.962   0.218   9.828 -0.7975  1.5969 -0.5974
16075SOL     OW50541   0.817   8.308   5.286  0.2047  0.4699 -0.0159
16075SOL    HW150542   0.809   8.340   5.196  1.9555 -1.7480 -1.0667
16075SOL    HW250543   0.754   8.360   5.336 -2.4991  0.2376 -2.8997
16076SOL     OW50544   7.294   3.370   8.468  0.5444  0.5413 -0.2579
16076SOL    HW150545   7.203   3.374   8.497  0.4913 -2.2694  0.2620
16076SOL    HW250546   7.291   3.323   8.385  1.4808  1.0555 -0.6022
16077SOL     OW50547   7.707   8.882   4.392 -1.1249 -0.2220 -0.7511
16077SOL    HW150548   7.710   8.804   4.447 -0.1882  0.5768  0.3588
16077SOL    HW250549   7.687   8.849   4.304  0.7810 -1.8690 -0.6172
16078SOL     OW50550   9.040   2.000   2.940  0.0941  0.1374 -0.1448
16078SOL    HW150551   9.114   1.988   2.881 -0.9480 -0.4265 -1.3941
16078SOL    HW250552   9.020   1.913   2.973  0.9957  0.5220  1.5022
16079SOL     OW50553   2.044   8.302   3.365  0.2810  0.4409 -0.8360
16079SOL    HW150554   1.984   8.228   3.377  0.7073  0.0032 -1.3289
16079SOL    HW250555   2.097   8.277   3.289 -0.5535  1.9107 -1.9327
16080SOL     OW50556  10.237   6.368   4.397  0.1440 -0.1540 -0.6567
16080SOL    HW150557  10.292   6.441   4.369  0.9775 -0.4535  0.1491
16080SOL    HW250558  10.297   6.309   4.442 -0.5950 -1.1513 -0.9454
16081SOL     OW50559   3.040   2.864   1.989 -0.6401 -0.0106  0.0155
16081SOL    HW150560   2.950   2.839   1.971 -0.8133  0.2074  0.5743
16081SOL    HW250561   3.042   2.886   2.082 -0.0731  0.2553 -0.0493
16082SOL     OW50562   6.123  10.097   9.196 -0.7037 -0.4027  0.3081
16082SOL    HW150563   6.198  10.138   9.239 -0.9755  0.2966  0.1265
16082SOL    HW250564   6.148  10.093   9.104 -0.6816 -0.6407  0.3245
16083SOL     OW50565   1.274   6.832   9.326  0.4028  0.3683  0.0235
16083SOL    HW150566   1.264   6.877   9.409  2.5413  1.4622 -0.2395
16083SOL    HW250567   1.247   6.896   9.260 -1.0078 -0.3938 -0.1690
16084SOL     OW50568   8.798   3.139   3.559 -0.4113 -0.0373  0.0740
16084SOL    HW150569   8.780   3.190   3.480 -0.1384  0.3414  0.2546
16084SOL    HW250570   8.725   3.158   3.617 -1.0229 -0.9273 -0.3781
16085SOL     OW50571   0.734   0.130   2.801 -0.2932 -0.2936  0.5535
16085SOL    HW150572   0.742   0.222   2.828  0.9080  0.2582 -1.4535
16085SOL    HW250573   0.645   0.122   2.768 -0.3773  0.1721  0.6618
16086SOL     OW50574  10.102   3.936   1.847 -0.2168 -0.4691 -0.3321
16086SOL    HW150575  10.180   3.945   1.793  1.4038 -0.8240  1.8036
16086SOL    HW250576  10.073   3.846   1.834  0.1500 -0.5469 -0.6118
16087SOL     OW50577   3.361   3.542   8.775 -0.2718 -0.2490  0.3160
16087SOL    HW150578   3.422   3.538   8.848  0.3561  0.2649 -0.1750
16087SOL    HW250579   3.374   3.628   8.736  0.1480 -0.8991 -1.0327
16088SOL     OW50580   0.384   5.457  10.124 -0.7381  0.7095 -0.5489
16088SOL    HW150581   0.429   5.457  10.040  0.0253  0.8914 -0.1459
16088SOL    HW250582   0.424   5.386  10.173 -2.0239 -0.2004 -0.7699
16089SOL     OW50583   9.438   5.062   2.337 -0.4129 -0.4253 -0.0248
16089SOL    HW150584   9.461   5.025   2.423 -0.4413  0.8123  0.5423
16089SOL    HW250585   9.379   5.135   2.358  0.2543  0.4292 -1.0318
16090SOL     OW50586   7.062   3.497   3.775 -0.1189 -0.2538  0.2044
16090SOL    HW150587   7.137   3.542   3.814 -1.3956  0.9949  1.3294
16090SOL    HW250588   7.007   3.567   3.740  0.1407 -1.2608 -2.4096
16091SOL     OW50589   3.671   7.556   2.734 -0.3872  0.7267  0.0839
16091SOL    HW150590   3.725   7.630   2.760 -0.0598  0.7511 -0.6350
16091SOL    HW250591   3.702   7.534   2.646 -1.2021  0.4226 -0.1350
16092SOL     OW50592   2.133   9.732   6.635 -0.4164 -0.4008 -0.3537
16092SOL    HW150593   2.165   9.643   6.620 -0.3967 -0.3962 -0.3418
16092SOL    HW250594   2.067   9.723   6.704  1.1055 -0.1313  1.2092
16093SOL     OW50595   2.266   7.276   7.076  0.3840  0.0797 -0.9421
16093SOL    HW150596   2.224   7.361   7.088  0.7526  0.3006 -1.2046
16093SOL    HW250597   2.290   7.273   6.984 -0.4273 -0.6846 -1.1369
16094SOL     OW50598   1.151   4.183   1.379 -0.0756 -0.4671  1.1091
16094SOL    HW150599   1.194   4.112   1.426 -1.0455 -0.2869  2.3420
16094SOL    HW250600   1.162   4.259   1.437  1.3074  0.5322 -0.3680
16095SOL     OW50601   2.010   6.905   1.271 -0.4618  0.2120  0.1038
16095SOL    HW150602   1.959   6.938   1.346 -0.0743 -0.6373  0.7632
16095SOL    HW250603   2.052   6.825   1.304 -0.2824 -0.1829 -1.0312
16096SOL     OW50604   9.644   8.838   8.707 -0.0374 -0.0467  0.0188
16096SOL    HW150605   9.590   8.904   8.750 -0.3447 -0.4432  0.2592
16096SOL    HW250606   9.733   8.871   8.714 -0.1194  0.0521  0.6738
16097SOL     OW50607   8.976   5.776   8.969  1.2394 -0.1424 -0.2682
16097SOL    HW150608   8.981   5.790   8.875  0.4323 -2.2256 -0.6672
16097SOL    HW250609   8.893   5.816   8.995  1.6871  0.8592 -0.3285
16098SOL     OW50610   2.397   9.912   2.998 -0.3612  0.7257  0.1122
16098SOL    HW150611   2.446   9.862   2.933 -1.0127  2.3042 -1.6733
16098SOL    HW250612   2.337   9.848   3.037  0.3677 -0.3562 -0.4878
16099SOL     OW50613   9.430   6.590   6.186 -0.0729 -0.3279 -0.1263
16099SOL    HW150614   9.361   6.656   6.196  0.5106  0.1244  1.1530
16099SOL    HW250615   9.429   6.569   6.092 -1.4095  0.2413 -0.2726
16100SOL     OW50616   5.161   4.360   7.237 -0.0147  0.4405 -0.2435
16100SOL    HW150617   5.194   4.450   7.228 -0.0780  0.5327  0.4150
16100SOL    HW250618   5.174   4.339   7.330 -0.8891  0.1190 -0.1854
16101SOL     OW50619   3.069   9.661   8.412 -0.7831  0.0396 -0.1529
16101SOL    HW150620   3.043   9.724   8.344 -1.5393  0.6005  0.6329
16101SOL    HW250621   2.995   9.659   8.473 -0.3439 -0.8596  0.3702
16102SOL     OW50622   0.338   9.230   7.225 -0.2997  0.0320  0.1333
16102SOL    HW150623   0.402   9.269   7.166  0.9246 -1.6328  0.2855
16102SOL    HW250624   0.384   9.223   7.309 -0.7250 -1.0573  0.2895
16103SOL     OW50625   4.952   7.678   5.414  0.2126 -0.4352 -0.3767
16103SOL    HW150626   5.032   7.730   5.403 -0.5502  1.0450  0.8509
16103SOL    HW250627   4.927   7.654   5.325  0.7428  1.0723 -0.9569
16104SOL     OW50628   8.364  10.478  10.067 -0.1427 -0.3392  0.0639
16104SOL    HW150629   8.330  10.549  10.012 -0.4715  0.4290  1.2052
16104SOL    HW250630   8.456  10.499  10.080 -0.5608  0.7714  1.6273
16105SOL     OW50631  10.443   6.017   5.286 -0.6005 -0.8833 -0.7961
16105SOL    HW150632  10.518   5.959   5.297  0.5984  0.8266  0.5685
16105SOL    HW250633  10.403   5.990   5.204  1.2480 -2.1380 -1.3320
16106SOL     OW50634   7.628   0.745   6.247 -0.3996  0.6281  0.1905
16106SOL    HW150635   7.565   0.675   6.266  0.2398 -0.0463 -0.1176
16106SOL    HW250636   7.661   0.771   6.334  0.0381 -0.1022  0.2492
16107SOL     OW50637   0.128   3.555   2.425 -0.3358  0.0005 -0.2858
16107SOL    HW150638   0.095   3.481   2.374 -1.8280  0.8059 -0.5331
16107SOL    HW250639   0.157   3.516   2.507 -0.3583 -0.9614 -0.7192
16108SOL     OW50640   1.389  10.531   7.487 -0.0802 -0.0063 -0.2105
16108SOL    HW150641   1.448  10.460   7.513 -0.0990 -1.0322 -2.6961
16108SOL    HW250642   1.446  10.596   7.447 -0.2662  0.6164  0.5200
16109SOL     OW50643   9.153   5.242   0.205 -0.1219  0.2667  0.6006
16109SOL    HW150644   9.183   5.187   0.277 -1.7711  0.1305  1.2337
16109SOL    HW250645   9.230   5.254   0.150  0.7583 -1.0319  1.4943
16110SOL     OW50646   7.583   0.898   8.124  0.0470  0.2592  0.5896
16110SOL    HW150647   7.639   0.822   8.141  0.2646  0.4274  0.6370
16110SOL    HW250648   7.498   0.873   8.158  0.2132  0.1789  0.9548
16111SOL     OW50649   5.762   9.333   4.141  0.1514  0.0040 -0.1051
16111SOL    HW150650   5.688   9.359   4.196  0.6352  0.6950  0.2416
16111SOL    HW250651   5.833   9.316   4.203 -0.1415 -2.2370 -0.3185
16112SOL     OW50652   8.394   6.729   2.489 -0.2597 -0.1364  0.4632
16112SOL    HW150653   8.391   6.810   2.439 -3.4246 -0.5426 -0.2117
16112SOL    HW250654   8.412   6.661   2.423  1.5517 -0.1142  0.8962
16113SOL     OW50655   0.001   1.321  10.525  0.4327 -0.2420  0.2120
16113SOL    HW150656   0.019   1.229  10.506 -1.3948 -0.6512  0.3108
16113SOL    HW250657   0.070   1.346  10.587  0.5143 -1.7598  0.7866
16114SOL     OW50658   9.374   0.059   5.804 -0.3881 -0.2435 -0.1721
16114SOL    HW150659   9.426   0.102   5.872  0.4269 -0.2504 -0.7682
16114SOL    HW250660   9.355   0.129   5.741 -0.7634 -0.3264 -0.1505
16115SOL     OW50661   4.567   1.271   5.024  0.2906 -0.7133 -0.2424
16115SOL    HW150662   4.562   1.357   4.981  0.4978 -1.8733 -2.7551
16115SOL    HW250663   4.514   1.281   5.103  1.5530  2.1609  0.3841
16116SOL     OW50664   1.843   9.742   9.340 -0.3034  0.3507 -0.6527
16116SOL    HW150665   1.895   9.737   9.420 -0.5016 -1.4707 -0.5907
16116SOL    HW250666   1.796   9.659   9.337 -1.4147  0.9858 -1.9288
16117SOL     OW50667   5.942   4.285   4.885 -0.2446  0.3380 -0.1595
16117SOL    HW150668   5.955   4.259   4.794  1.9635 -1.3998  0.5537
16117SOL    HW250669   5.926   4.379   4.881 -0.2798  0.2860 -2.3346
16118SOL     OW50670   7.901   6.261   2.506 -0.0005 -0.3870 -0.6352
16118SOL    HW150671   7.996   6.266   2.495 -0.1336 -0.3409 -1.9332
16118SOL    HW250672   7.876   6.180   2.461 -0.6078 -0.2905 -0.4855
16119SOL     OW50673   7.455   6.167   6.270 -0.3959 -0.1679 -0.1372
16119SOL    HW150674   7.548   6.165   6.249 -0.3866 -2.0316 -0.1021
16119SOL    HW250675   7.412   6.195   6.189  0.1168 -0.5336 -0.5380
16120SOL     OW50676   4.591  10.135   9.936  0.0233  0.2688 -0.7285
16120SOL    HW150677   4.643  10.083   9.875  0.7117  1.4141 -1.1471
16120SOL    HW250678   4.574  10.217   9.890  0.8386  1.2954  0.7061
16121SOL     OW50679   9.595   1.730   4.958  0.0937 -0.1821 -0.0177
16121SOL    HW150680   9.620   1.652   5.007  0.8246  0.4124  0.5859
16121SOL    HW250681   9.677   1.764   4.923 -0.2495  0.1761 -0.4898
16122SOL     OW50682   6.329   2.381   6.697 -0.1365  0.3418  0.3445
16122SOL    HW150683   6.421   2.374   6.723 -0.1296 -0.4842  0.1470
16122SOL    HW250684   6.280   2.367   6.778 -0.1603 -4.2109 -0.1911
16123SOL     OW50685   3.102   5.851   2.523 -0.2963  0.2170  0.0286
16123SOL    HW150686   3.030   5.817   2.577 -1.6046  2.7959  0.0517
16123SOL    HW250687   3.099   5.798   2.443 -1.4362 -0.5321  0.5358
16124SOL     OW50688   5.905   5.716   9.819 -0.3363 -0.1223 -0.0453
16124SOL    HW150689   5.979   5.754   9.773 -1.3366  0.5440 -1.1556
16124SOL    HW250690   5.892   5.773   9.895 -0.2031  0.2164 -0.2748
16125SOL     OW50691   4.389   3.662   6.620  0.0178 -0.2446 -0.3810
16125SOL    HW150692   4.427   3.585   6.577  0.8831 -0.3681  0.5524
16125SOL    HW250693   4.356   3.629   6.703  0.0452  0.3193 -0.1411
16126SOL     OW50694   8.085   9.197   6.135  0.3114  0.3404  0.1457
16126SOL    HW150695   8.075   9.266   6.201 -0.9949  2.4739 -2.0720
16126SOL    HW250696   8.030   9.227   6.062  1.0065 -2.2916 -1.5875
16127SOL     OW50697   8.617   0.953   3.098  0.5136 -0.4681 -0.3898
16127SOL    HW150698   8.636   1.026   3.158  0.7454 -0.2617 -0.7128
16127SOL    HW250699   8.696   0.943   3.046  0.9626 -1.8004  0.4996
16128SOL     OW50700  10.065   5.214   7.682 -0.0031 -0.4959 -0.5538
16128SOL    HW150701  10.124   5.140   7.696 -0.7755 -1.8363 -3.6458
16128SOL    HW250702   9.994   5.201   7.744  0.8720 -1.1691  0.3406
16129SOL     OW50703   4.197   1.819   4.642  0.0502  0.1554  0.3815
16129SOL    HW150704   4.271   1.851   4.591 -1.0608 -1.1598 -2.2595
16129SOL    HW250705   4.141   1.895   4.654  0.3007  0.4829 -0.4823
16130SOL     OW50706   1.865   3.597   7.070  0.0587  0.3842  0.4948
16130SOL    HW150707   1.887   3.681   7.109 -0.8324  0.6414  0.4620
16130SOL    HW250708   1.899   3.532   7.133  1.7301  0.7148 -0.0033
16131SOL     OW50709   2.388   0.184   9.530  0.0720 -0.3436  0.0643
16131SOL    HW150710   2.417   0.249   9.465 -0.1657  0.6499  0.9253
16131SOL    HW250711   2.459   0.182   9.595 -0.7231  0.4205  0.9914
16132SOL     OW50712   1.369   4.129   2.419  0.6883  0.4531 -0.2228
16132SOL    HW150713   1.324   4.044   2.419  2.6325 -0.6431  0.4353
16132SOL    HW250714   1.300   4.192   2.438 -0.7701 -0.9983 -0.4290
16133SOL     OW50715   1.004  10.093   4.855  0.0037  0.4090  0.3263
16133SOL    HW150716   0.927  10.120   4.906  0.5320 -0.0648  1.4174
16133SOL    HW250717   1.068  10.163   4.869 -0.1409  0.6915 -0.3916
16134SOL     OW50718   3.531   5.107   1.753  0.3239 -0.1280 -0.3620
16134SOL    HW150719   3.535   5.071   1.664  1.4449 -0.6735 -0.1069
16134SOL    HW250720   3.609   5.162   1.759  1.2039 -1.4535  0.8460
16135SOL     OW50721  10.212   2.642   1.551  0.3471  0.4547  0.2721
16135SOL    HW150722  10.160   2.565   1.572  1.5487 -0.5513 -0.3118
16135SOL    HW250723  10.299   2.622   1.586  1.0407  0.9324 -1.1177
16136SOL     OW50724   8.965   1.048   6.394 -0.5630  0.1234  0.2062
16136SOL    HW150725   9.027   0.983   6.426 -3.0192 -2.9192 -0.6611
16136SOL    HW250726   9.009   1.090   6.320  0.3591 -2.2343 -0.6757
16137SOL     OW50727   4.181   5.815   5.998 -0.6076  0.4606 -0.5119
16137SOL    HW150728   4.160   5.757   6.071 -0.5615  1.4554  0.3235
16137SOL    HW250729   4.276   5.824   6.001 -0.7896  3.2643  1.6026
16138SOL     OW50730   3.168   2.368   1.041 -0.2712 -0.2463 -0.3497
16138SOL    HW150731   3.260   2.391   1.054 -0.5186 -0.4458  2.3113
16138SOL    HW250732   3.166   2.320   0.958  1.9369  0.0904 -0.6454
16139SOL     OW50733   7.124   7.228   4.866  0.4357 -0.2196 -0.6050
16139SOL    HW150734   7.040   7.251   4.905  0.2459 -1.4854 -0.2475
16139SOL    HW250735   7.177   7.195   4.939  0.9564 -0.2303 -0.9765
16140SOL     OW50736   2.537   3.581   0.349 -0.1546  0.2319 -0.6601
16140SOL    HW150737   2.602   3.516   0.377 -1.4991 -0.6101  0.7170
16140SOL    HW250738   2.550   3.655   0.408 -0.8684 -0.2309  0.1098
16141SOL     OW50739   8.065   1.676   7.328  0.2371 -0.3047  0.1309
16141SOL    HW150740   8.052   1.754   7.381 -0.1109 -0.1508 -0.1738
16141SOL    HW250741   8.146   1.693   7.279 -1.3028  1.1262 -2.0862
16142SOL     OW50742   5.653   4.700   8.529  0.3227 -0.0198 -0.0666
16142SOL    HW150743   5.746   4.713   8.549  0.1165  1.5459 -0.0127
16142SOL    HW250744   5.614   4.787   8.537 -1.0832 -0.5804 -0.4860
16143SOL     OW50745   2.538   7.105   4.006 -0.1585  0.0146 -0.3816
16143SOL    HW150746   2.479   7.106   4.081 -1.5310 -2.3188 -1.3373
16143SOL    HW250747   2.481   7.117   3.930  0.8398 -0.3657 -1.2126
16144SOL     OW50748   5.651   3.184   1.911 -0.2519  0.2379 -0.6298
16144SOL    HW150749   5.729   3.215   1.865 -0.2401  1.0270 -0.0973
16144SOL    HW250750   5.639   3.246   1.982  0.5398 -1.7375  1.3234
16145SOL     OW50751   7.227   7.111   0.664 -0.1986  0.9769  0.3221
16145SOL    HW150752   7.157   7.085   0.604  0.4748 -1.8187  0.6047
16145SOL    HW250753   7.184   7.168   0.728 -1.6579  1.2548 -0.8466
16146SOL     OW50754   0.173   6.663   0.236 -0.4628 -0.4430  0.8956
16146SOL    HW150755   0.227   6.609   0.179  1.6508  2.1704  0.2643
16146SOL    HW250756   0.114   6.710   0.177 -0.4058 -0.0200  1.1689
16147SOL     OW50757   9.695   7.031   9.406 -0.2661  0.0226 -0.4494
16147SOL    HW150758   9.617   7.083   9.388 -0.6018 -0.3317 -0.0297
16147SOL    HW250759   9.745   7.034   9.324 -0.2237  1.0891 -0.3990
16148SOL     OW50760   2.657  10.309   8.229  0.4215 -0.1081  0.0208
16148SOL    HW150761   2.573  10.279   8.194 -0.4806  0.2292  1.7652
16148SOL    HW250762   2.636  10.392   8.273  1.7476  0.1798  0.1447
16149SOL     OW50763   2.412   9.693   8.028  0.7030 -0.4822  0.3978
16149SOL    HW150764   2.406   9.616   7.971 -1.8692  0.4910 -0.8353
16149SOL    HW250765   2.467   9.755   7.980 -1.2537  0.2414 -1.0446
16150SOL     OW50766   6.863   2.572   5.109 -0.0631 -0.4201  0.5054
16150SOL    HW150767   6.953   2.586   5.078 -0.8852 -0.4862 -2.1639
16150SOL    HW250768   6.858   2.477   5.125  0.3391 -0.4098  0.7044
16151SOL     OW50769   1.872   5.091   8.572 -0.9187 -0.0218 -0.1528
16151SOL    HW150770   1.957   5.063   8.604 -1.1576  0.9011  1.3894
16151SOL    HW250771   1.871   5.186   8.586 -0.8700  0.5875 -3.4208
16152SOL     OW50772   5.008   2.702   4.903  0.0294 -0.2865 -0.0316
16152SOL    HW150773   4.981   2.778   4.955  2.7114  1.1739 -0.5759
16152SOL    HW250774   5.047   2.642   4.967 -0.2702 -0.3036  0.1370
16153SOL     OW50775   0.512   3.555   1.109 -0.6468  0.0922 -0.7682
16153SOL    HW150776   0.579   3.499   1.070 -0.3779  0.9726 -1.6330
16153SOL    HW250777   0.528   3.641   1.070 -0.7916  0.8779  0.8210
16154SOL     OW50778   9.364   9.841   2.673 -0.5769  0.0721  0.2895
16154SOL    HW150779   9.406   9.883   2.598  0.1307  1.4783  1.4156
16154SOL    HW250780   9.372   9.747   2.656  3.1863  0.2161  0.4569
16155SOL     OW50781   3.637   5.154   0.586 -0.1690  0.5393 -0.2053
16155SOL    HW150782   3.697   5.228   0.595 -0.9869  1.0931  1.0328
16155SOL    HW250783   3.549   5.192   0.595 -0.5724 -0.8167  3.1236
16156SOL     OW50784   2.825   8.544   6.354  0.2212 -0.4417 -0.2699
16156SOL    HW150785   2.906   8.587   6.327  0.8296 -1.6137 -0.4025
16156SOL    HW250786   2.819   8.467   6.297 -1.8646  0.4976 -1.3831
16157SOL     OW50787   2.007   2.814   3.776  0.2252  0.0311 -0.2895
16157SOL    HW150788   1.979   2.895   3.732  0.4777 -0.4773 -1.4268
16157SOL    HW250789   2.076   2.779   3.719 -2.1882 -2.7828 -1.7544
16158SOL     OW50790  10.287   8.772   6.499 -0.4353 -0.1797  0.2559
16158SOL    HW150791  10.274   8.740   6.410  1.7674  1.7011 -0.8500
16158SOL    HW250792  10.245   8.859   6.499 -1.2679 -0.5536  1.4013
16159SOL     OW50793   6.633   7.543   3.396  0.1258  0.2070  0.5186
16159SOL    HW150794   6.706   7.597   3.366  0.0818  1.6180  2.7316
16159SOL    HW250795   6.557   7.576   3.348  0.2591  1.5590  1.1919
16160SOL     OW50796   5.191   4.425   3.303 -0.0599 -0.4297  0.0603
16160SOL    HW150797   5.284   4.438   3.284 -0.2503  0.0375 -0.5770
16160SOL    HW250798   5.149   4.422   3.217 -1.1167  2.9697  0.2863
16161SOL     OW50799   3.127   9.634  10.130  0.2010 -0.2590  0.2283
16161SOL    HW150800   3.072   9.700  10.088  2.9120  1.4138 -0.9664
16161SOL    HW250801   3.119   9.557  10.074  1.6674  1.0957 -2.0192
16162SOL     OW50802   2.197   3.678   3.573 -0.7973  0.0199  0.0558
16162SOL    HW150803   2.158   3.762   3.547 -1.5464 -0.0592  0.8820
16162SOL    HW250804   2.276   3.703   3.621 -1.5393  0.3216  1.1801
16163SOL     OW50805   1.667   8.080   3.607  0.6002  0.2370 -0.2643
16163SOL    HW150806   1.662   7.996   3.561  1.2516  0.8907 -1.5767
16163SOL    HW250807   1.719   8.061   3.685  2.4872 -0.2209 -1.5387
16164SOL     OW50808   7.626   3.393   7.755  0.3799  0.1135  0.6219
16164SOL    HW150809   7.663   3.319   7.706 -1.8976 -0.3567 -0.5469
16164SOL    HW250810   7.573   3.352   7.823  0.4827  0.7292  1.0774
16165SOL     OW50811   8.068   1.217   1.978 -0.6446 -0.3316  0.3475
16165SOL    HW150812   7.982   1.186   2.006  0.0864 -1.8025  1.0471
16165SOL    HW250813   8.107   1.143   1.932 -0.2464  0.7487 -1.1203
16166SOL     OW50814   2.807  10.396   7.780  0.3721  0.2713  0.2312
16166SOL    HW150815   2.901  10.380   7.780  0.7234  2.0969 -0.1531
16166SOL    HW250816   2.785  10.410   7.873  0.3759 -0.6416  0.3735
16167SOL     OW50817   9.214   8.468   4.188 -0.6293  0.1502  0.2701
16167SOL    HW150818   9.304   8.460   4.157 -0.6454  0.5019  0.1182
16167SOL    HW250819   9.217   8.541   4.250 -0.8570  0.3363  0.0639
16168SOL     OW50820   3.069  10.551   9.999  0.2180 -0.3760 -0.8482
16168SOL    HW150821   3.091  10.642  10.018 -0.1131 -0.3461 -0.6064
16168SOL    HW250822   3.144  10.519   9.948  1.0388 -0.4027  0.3197
16169SOL     OW50823   3.959   0.692   1.447  0.7532  0.3732  0.1448
16169SOL    HW150824   4.048   0.718   1.422  0.9353 -0.2375  0.1268
16169SOL    HW250825   3.959   0.694   1.543  0.7900  0.3650  0.1450
16170SOL     OW50826   2.265   3.656   7.372 -0.7131 -0.1422  0.3075
16170SOL    HW150827   2.330   3.588   7.352  0.0853  0.8938 -0.7843
16170SOL    HW250828   2.316   3.727   7.410 -1.5208 -0.0827  1.2935
16171SOL     OW50829   9.578   6.815   7.383 -0.4358  0.2632 -0.4121
16171SOL    HW150830   9.623   6.734   7.362  0.1586  0.5067 -0.0766
16171SOL    HW250831   9.647   6.881   7.388 -0.6780  0.4240  1.2419
16172SOL     OW50832   6.499   3.690   9.990  0.3505 -0.0342  0.6809
16172SOL    HW150833   6.436   3.759   9.969 -0.4887 -0.6614  1.0695
16172SOL    HW250834   6.446   3.623  10.034  0.8022 -1.6838 -1.1629
16173SOL     OW50835   6.917   7.883   7.510  0.2926  0.0531  0.0397
16173SOL    HW150836   6.937   7.812   7.449  0.4041  0.9187 -0.9460
16173SOL    HW250837   7.003   7.917   7.536  0.2714 -0.6974  1.1751
16174SOL     OW50838   0.417   2.429   8.758 -0.0176 -0.0927  0.2896
16174SOL    HW150839   0.432   2.455   8.667 -0.0734 -3.6498 -0.8998
16174SOL    HW250840   0.492   2.374   8.780 -0.3189  0.1889  2.2089
16175SOL     OW50841   2.332   1.855   8.568  0.4049 -0.0638 -0.5331
16175SOL    HW150842   2.288   1.939   8.580 -1.6190 -1.2788  1.0726
16175SOL    HW250843   2.274   1.805   8.511  0.3766 -1.2155  0.4667
16176SOL     OW50844   5.184   3.537   2.564  0.1699 -0.1530  0.1736
16176SOL    HW150845   5.168   3.484   2.642  0.4485  1.0714  1.0973
16176SOL    HW250846   5.110   3.598   2.561  2.2501  2.7526  2.0807
16177SOL     OW50847   9.357   8.354   8.995 -0.2431  0.3667  0.1249
16177SOL    HW150848   9.420   8.403   9.048  1.5996  0.7764 -2.2554
16177SOL    HW250849   9.358   8.266   9.033  2.0713  0.2726  0.0275
16178SOL     OW50850   0.935   4.722   2.604  0.6095  0.2308 -0.0610
16178SOL    HW150851   0.905   4.783   2.672  0.8180 -0.1363  0.3649
16178SOL    HW250852   0.858   4.710   2.548  0.6755  1.1819 -0.3796
16179SOL     OW50853   4.854   5.322   1.749 -0.3124  0.0925  0.5614
16179SOL    HW150854   4.874   5.381   1.822 -0.9763  0.0125  0.8185
16179SOL    HW250855   4.915   5.347   1.680  1.4096 -0.8564  1.6611
16180SOL     OW50856   6.474   8.230   2.811  0.2939 -0.0978  0.1103
16180SOL    HW150857   6.443   8.245   2.900 -0.9856  1.3324 -0.5245
16180SOL    HW250858   6.570   8.236   2.817  0.3821 -2.0458  1.6865
16181SOL     OW50859   8.167  10.388   8.296 -0.3252  0.0641 -0.2852
16181SOL    HW150860   8.260  10.365   8.304  0.1778  2.4470  2.1774
16181SOL    HW250861   8.125  10.346   8.371 -0.6189  1.3935  0.3330
16182SOL     OW50862   3.274   9.398   1.770  0.2549  0.2276  0.0335
16182SOL    HW150863   3.213   9.350   1.715 -0.2972  2.0919 -1.0511
16182SOL    HW250864   3.360   9.363   1.746 -0.0595  0.3488 -1.3727
16183SOL     OW50865   0.679   4.536   8.028  0.4943 -0.3447 -0.0209
16183SOL    HW150866   0.668   4.450   8.069 -1.5742  0.0584  0.3551
16183SOL    HW250867   0.716   4.516   7.942 -1.4932 -1.7961 -0.6144
16184SOL     OW50868   0.368   1.128   5.763 -0.2888 -0.5999 -0.6592
16184SOL    HW150869   0.432   1.135   5.693 -0.5489  3.4027 -0.7611
16184SOL    HW250870   0.417   1.149   5.843 -0.6738 -1.7095 -0.1063
16185SOL     OW50871   2.751   9.016   0.429  0.0438  0.5416 -0.2894
16185SOL    HW150872   2.663   8.989   0.405 -0.4138  0.8934  0.9373
16185SOL    HW250873   2.787   8.943   0.479  1.0037 -0.1972 -1.9507
16186SOL     OW50874   8.564   9.269   5.945 -0.8839  0.2789 -0.0732
16186SOL    HW150875   8.521   9.337   5.996  0.8054 -0.1847  2.1364
16186SOL    HW250876   8.612   9.217   6.010  3.0190  0.8014 -2.2190
16187SOL     OW50877   7.812   9.490   7.515  0.2867 -0.1438  0.7518
16187SOL    HW150878   7.748   9.519   7.581  0.1169  0.2790  0.4100
16187SOL    HW250879   7.767   9.421   7.467  0.0601  0.1865  0.4798
16188SOL     OW50880   5.067   4.823   8.490 -0.2609 -0.0874 -0.4467
16188SOL    HW150881   4.985   4.783   8.463 -0.3078 -0.7495  0.6116
16188SOL    HW250882   5.104   4.762   8.555  0.6873  0.5658 -0.3434
16189SOL     OW50883   9.160   0.385  10.355 -0.2104  0.0050  0.3053
16189SOL    HW150884   9.177   0.415  10.444  0.8113  0.4883 -0.0346
16189SOL    HW250885   9.099   0.312  10.365  0.5509 -0.4984  1.4621
16190SOL     OW50886   1.454   4.211   0.509 -0.2366 -0.1382  0.4389
16190SOL    HW150887   1.385   4.151   0.539  0.3254 -0.6602  0.6941
16190SOL    HW250888   1.493   4.245   0.590  2.2054 -2.5891  0.4264
16191SOL     OW50889   7.840   4.343   1.634  0.3949 -0.5935 -0.3188
16191SOL    HW150890   7.869   4.434   1.637 -1.0184 -0.1407  1.3733
16191SOL    HW250891   7.921   4.293   1.624  1.4370  0.7619  0.8767
16192SOL     OW50892   4.089   2.681   3.403  0.6236  0.1470  0.0603
16192SOL    HW150893   4.090   2.775   3.420 -1.4025  0.1397  0.4012
16192SOL    HW250894   4.182   2.658   3.395  1.2593  1.8070  1.8565
16193SOL     OW50895  10.113   3.684   0.794 -0.2811 -0.8327  0.1747
16193SOL    HW150896  10.127   3.705   0.702  0.1685 -2.4134 -0.1485
16193SOL    HW250897  10.179   3.618   0.814 -0.1280 -0.2379  1.7424
16194SOL     OW50898   9.290   6.825   7.003  0.2120 -0.2195  0.0130
16194SOL    HW150899   9.323   6.905   6.963  1.5181 -0.2439  0.9845
16194SOL    HW250900   9.288   6.844   7.097 -3.0031 -0.0693  0.0333
16195SOL     OW50901   5.456   2.776   9.866 -0.4551  0.4345 -0.0283
16195SOL    HW150902   5.389   2.771   9.934 -0.6365 -0.5549 -0.2793
16195SOL    HW250903   5.428   2.848   9.809 -1.8970 -0.6846 -0.7699
16196SOL     OW50904   3.138   8.548   4.430 -0.7554 -0.2512  0.8783
16196SOL    HW150905   3.061   8.601   4.452 -0.1449  0.3760  1.5357
16196SOL    HW250906   3.162   8.505   4.511  1.2260  1.7123  1.4454
16197SOL     OW50907   5.448   3.204   2.499  0.3562  0.5564  0.2283
16197SOL    HW150908   5.421   3.220   2.590 -1.4329 -0.8469 -0.0016
16197SOL    HW250909   5.464   3.291   2.463 -2.8438  1.4824  0.7723
16198SOL     OW50910  10.193   1.882   1.836 -0.3164 -0.1246 -0.5047
16198SOL    HW150911  10.200   1.954   1.899  0.6913 -0.2790 -0.4234
16198SOL    HW250912  10.151   1.811   1.884  0.5456 -0.2788  0.0402
16199SOL     OW50913   3.136   4.974   2.080  0.2385  0.0686  0.3909
16199SOL    HW150914   3.096   5.030   2.014  0.2168  0.9462  1.1342
16199SOL    HW250915   3.225   4.958   2.048  0.8962  2.1152  1.0771
16200SOL     OW50916   5.830   8.463   8.851 -0.2727  0.1714 -0.1697
16200SOL    HW150917   5.800   8.501   8.769  0.6289  0.5914 -0.3185
16200SOL    HW250918   5.760   8.402   8.876 -0.1849 -0.6040 -1.6762
16201SOL     OW50919   4.540   9.306   5.779 -0.2478  0.6248 -0.4704
16201SOL    HW150920   4.559   9.262   5.695 -0.4613 -1.2773  0.4274
16201SOL    HW250921   4.473   9.370   5.757  0.9295  1.4029 -2.0676
16202SOL     OW50922   5.381   3.399  10.038  0.6258 -0.0878  0.1320
16202SOL    HW150923   5.437   3.454  10.092 -0.4401 -1.2962  2.6322
16202SOL    HW250924   5.292   3.426  10.061  0.0816  0.6054 -2.4579
16203SOL     OW50925   8.935   5.934   5.627  0.6526  0.4839  0.6910
16203SOL    HW150926   8.867   5.872   5.652 -2.2071  3.2326  0.4709
16203SOL    HW250927   8.980   5.892   5.554 -1.5870 -1.0718  0.0840
16204SOL     OW50928   4.613   3.194  10.406  0.2404  0.7952  0.4775
16204SOL    HW150929   4.573   3.110  10.383  0.4931  0.6656  0.5088
16204SOL    HW250930   4.544   3.242  10.453  0.4152  0.2156  1.3374
16205SOL     OW50931  10.355   0.857   2.415  0.6552 -0.4705  0.3138
16205SOL    HW150932  10.399   0.863   2.500  1.0771  0.6722  0.0317
16205SOL    HW250933  10.279   0.801   2.431 -0.1003  0.9069  1.8033
16206SOL     OW50934   1.770   7.315   8.061  0.2354  0.0345  0.1209
16206SOL    HW150935   1.715   7.266   8.000 -1.1913  3.0809 -1.2915
16206SOL    HW250936   1.711   7.338   8.133  0.6152  0.4425  0.3058
16207SOL     OW50937   9.044   7.649   4.790 -0.6203 -0.1061 -0.5078
16207SOL    HW150938   9.061   7.669   4.698  0.9661 -2.5338 -0.8324
16207SOL    HW250939   8.964   7.595   4.789 -0.4835 -0.3103 -0.4921
16208SOL     OW50940   8.991   8.836   9.196 -0.2416  0.2919 -0.0237
16208SOL    HW150941   8.930   8.884   9.140 -0.4929  1.0046  0.8259
16208SOL    HW250942   9.001   8.892   9.273  1.0733 -0.0690  0.0893
16209SOL     OW50943   2.138   4.823   0.892 -0.4775 -0.3343  0.1877
16209SOL    HW150944   2.145   4.867   0.977 -0.9387  2.4786 -1.1012
16209SOL    HW250945   2.229   4.815   0.863 -0.4273  0.8293 -0.0222
16210SOL     OW50946   3.134   1.352   0.509  0.0676 -0.1904  0.2087
16210SOL    HW150947   3.227   1.331   0.508 -0.0017 -0.9587  2.5398
16210SOL    HW250948   3.090   1.269   0.487 -0.0639 -1.3097  3.8697
16211SOL     OW50949   3.244   3.131   5.408 -0.2863 -0.4560  0.3086
16211SOL    HW150950   3.233   3.108   5.316 -0.1427 -0.8144  0.3806
16211SOL    HW250951   3.339   3.134   5.421 -0.2968 -1.4587  0.7007
16212SOL     OW50952   9.449   7.965   6.673  0.1992  0.1491 -0.1299
16212SOL    HW150953   9.403   7.990   6.753  0.8250  0.7802  0.0407
16212SOL    HW250954   9.538   7.946   6.701  0.2280 -0.3697 -0.5632
16213SOL     OW50955   1.796   6.043   7.070  0.1573  0.5240  0.2512
16213SOL    HW150956   1.856   6.075   7.138  1.5755  3.6539 -2.2537
16213SOL    HW250957   1.833   5.959   7.043  1.1083  0.5266  1.4653
16214SOL     OW50958   1.826   4.082   6.415  0.1804  0.4012 -0.8831
16214SOL    HW150959   1.796   4.015   6.354 -0.3445 -0.9654  0.7963
16214SOL    HW250960   1.850   4.034   6.494 -1.3719  2.2711  0.8373
16215SOL     OW50961   1.846   5.975   0.147 -0.7463 -0.3002 -0.0907
16215SOL    HW150962   1.929   5.930   0.131 -0.1647  0.6650  0.1545
16215SOL    HW250963   1.825   5.956   0.238 -1.9204 -2.3233 -0.7207
16216SOL     OW50964   5.818   6.111   5.282  0.0452  0.0337 -0.8178
16216SOL    HW150965   5.860   6.073   5.205  0.7487 -1.7347  0.3475
16216SOL    HW250966   5.876   6.086   5.355 -1.1033  0.7659  0.3979
16217SOL     OW50967   2.886   6.459   2.513  0.3817 -0.0628  0.8470
16217SOL    HW150968   2.882   6.409   2.595 -1.2141 -1.1101  0.1896
16217SOL    HW250969   2.936   6.403   2.454  1.4963  0.6725  1.0755
16218SOL     OW50970   1.873   0.521   9.081  0.3021  0.0774  0.4453
16218SOL    HW150971   1.911   0.518   8.993 -0.6464  3.0887 -0.2105
16218SOL    HW250972   1.900   0.607   9.115 -2.2686  0.5168  1.6270
16219SOL     OW50973   9.411   1.565   8.171  0.2724  0.2624 -0.2744
16219SOL    HW150974   9.485   1.551   8.230 -0.5651  0.7364  0.9374
16219SOL    HW250975   9.344   1.505   8.203  0.2423 -0.4360 -1.5920
16220SOL     OW50976   8.493   2.598   5.972 -0.1463 -0.0996  0.5189
16220SOL    HW150977   8.573   2.569   5.929 -0.4748  0.5449 -0.5498
16220SOL    HW250978   8.509   2.689   5.994 -1.3130  0.6612 -1.5622
16221SOL     OW50979   8.640   7.625   4.969 -0.2302  0.2443  0.3780
16221SOL    HW150980   8.592   7.616   5.051  0.2931 -0.5042  0.6165
16221SOL    HW250981   8.688   7.542   4.961 -1.3995 -0.3154 -1.4024
16222SOL     OW50982   1.619   6.855   6.538  0.2184 -0.1904 -0.4563
16222SOL    HW150983   1.636   6.916   6.466 -1.8692  0.1672 -0.7130
16222SOL    HW250984   1.599   6.912   6.612  0.9481 -0.5691  0.0333
16223SOL     OW50985   8.880   5.226   6.351 -0.2789 -0.0585 -0.0703
16223SOL    HW150986   8.852   5.294   6.290 -0.6137 -0.5483 -0.4712
16223SOL    HW250987   8.820   5.153   6.335 -0.2407 -0.2639  0.7059
16224SOL     OW50988   8.787   1.385   5.401 -0.0233 -0.2067 -0.9831
16224SOL    HW150989   8.733   1.316   5.362 -0.5575 -0.2904 -0.1146
16224SOL    HW250990   8.822   1.433   5.326 -0.8273 -0.5228 -1.5705
16225SOL     OW50991   3.145   3.306  10.258  0.4059  0.0367 -0.3381
16225SOL    HW150992   3.231   3.347  10.255  0.4767 -0.0622  0.1853
16225SOL    HW250993   3.114   3.322  10.348 -0.6902  1.2327 -0.8862
16226SOL     OW50994   8.187   5.163   5.065  0.4554 -0.3647 -0.1968
16226SOL    HW150995   8.162   5.253   5.042 -1.6322 -1.2331 -1.5179
16226SOL    HW250996   8.109   5.125   5.103  1.1559 -1.7859 -0.1259
16227SOL     OW50997   3.271   5.425   0.250  0.1879  0.0558 -0.4154
16227SOL    HW150998   3.182   5.417   0.284  0.7447  2.1646  1.8219
16227SOL    HW250999   3.263   5.486   0.177 -0.0470  1.6606  0.8830
16228SOL     OW51000   2.315   8.800   3.944  0.1355  0.1797 -0.1263
16228SOL    HW151001   2.360   8.869   3.894  1.1233  0.6542  1.3556
16228SOL    HW251002   2.384   8.757   3.994 -0.5653 -1.5181 -0.5626
16229SOL     OW51003   0.878   7.983   3.947 -0.2778  0.9849 -0.1898
16229SOL    HW151004   0.843   8.072   3.944 -1.8948  0.3776 -3.3083
16229SOL    HW251005   0.921   7.971   3.863  0.6287 -0.9502  0.4886
16230SOL     OW51006   4.673   9.021   6.069 -0.4290 -0.3080  0.0200
16230SOL    HW151007   4.594   9.026   6.014  2.2325 -0.1285 -4.2446
16230SOL    HW251008   4.704   9.112   6.074 -0.6203 -0.3098  2.0418
16231SOL     OW51009   6.414   3.413   9.645 -0.4857  0.0520  0.6543
16231SOL    HW151010   6.326   3.429   9.612 -0.9096 -1.7270  0.8531
16231SOL    HW251011   6.420   3.318   9.654  2.5729 -0.2612 -2.5100
16232SOL     OW51012   1.880   3.967   5.246  0.9428  0.3230 -0.5721
16232SOL    HW151013   1.913   4.040   5.299  1.7952 -0.5493  0.1347
16232SOL    HW251014   1.803   4.003   5.202 -0.1835  0.9057  1.7060
16233SOL     OW51015   2.067   4.302   7.569 -0.0638 -0.2231  0.2120
16233SOL    HW151016   2.088   4.214   7.538  0.8511  0.7162 -2.1301
16233SOL    HW251017   2.048   4.351   7.489 -0.4062  1.7450  1.4306
16234SOL     OW51018   0.224  10.447   2.760 -0.5889 -0.4263  0.0334
16234SOL    HW151019   0.305  10.397   2.746  0.9262  2.0011 -0.5664
16234SOL    HW251020   0.178  10.399   2.829  2.1170 -1.0854  1.5262
16235SOL     OW51021   1.796   5.655   7.154 -0.2774  0.0193  0.1780
16235SOL    HW151022   1.863   5.630   7.217 -1.3400  0.8574  1.7264
16235SOL    HW251023   1.840   5.714   7.093  0.4224  0.4745  1.1038
16236SOL     OW51024   2.035   0.371   5.155 -0.3065 -0.8739  0.0845
16236SOL    HW151025   1.984   0.417   5.222 -1.1536 -1.0245 -0.4386
16236SOL    HW251026   2.125   0.375   5.187 -0.6305 -0.5463  1.0047
16237SOL     OW51027   0.248   3.588   8.458  0.6297 -0.3861 -0.4462
16237SOL    HW151028   0.254   3.515   8.519  0.5416  1.0682  1.4080
16237SOL    HW251029   0.155   3.609   8.453  0.8017  0.7012  0.4695
16238SOL     OW51030   0.750   2.437   7.971 -0.5645  0.3982 -0.1376
16238SOL    HW151031   0.717   2.480   8.050  0.5199 -0.1344  0.6423
16238SOL    HW251032   0.775   2.509   7.913  0.7394  0.8506  0.9363
16239SOL     OW51033   2.947   6.267   5.189 -0.3473 -0.4289 -0.2226
16239SOL    HW151034   2.893   6.335   5.149 -0.8860 -0.6551  0.1168
16239SOL    HW251035   3.019   6.255   5.127  0.5510  1.4604  0.3964
16240SOL     OW51036   7.706   7.855   9.068  1.0858  0.2540  0.7457
16240SOL    HW151037   7.722   7.880   8.978 -3.4055 -1.6725 -0.8923
16240SOL    HW251038   7.671   7.935   9.109 -0.8798  0.1746 -0.6057
16241SOL     OW51039   4.728   1.512   0.329 -0.0855 -1.0135  0.1710
16241SOL    HW151040   4.687   1.503   0.243  0.7398  1.4291 -0.5588
16241SOL    HW251041   4.809   1.461   0.323  0.4510 -0.0634 -0.8545
16242SOL     OW51042   7.475   8.788   3.727  0.0143 -0.7485  0.5907
16242SOL    HW151043   7.521   8.851   3.672 -2.3454  0.2244 -0.4385
16242SOL    HW251044   7.481   8.825   3.815 -0.5480  0.4907  0.1444
16243SOL     OW51045   2.824   1.724   4.311  0.2860 -0.3662 -0.1628
16243SOL    HW151046   2.783   1.657   4.365  0.6794  0.3403  1.0437
16243SOL    HW251047   2.752   1.762   4.261 -0.0145 -1.3208 -0.4808
16244SOL     OW51048   8.652   6.517   3.444  0.4165  0.0383 -0.1171
16244SOL    HW151049   8.722   6.519   3.378  0.2373  1.8728 -0.3031
16244SOL    HW251050   8.634   6.609   3.462  0.0874 -0.4047  2.1241
16245SOL     OW51051   5.879   3.743   3.295  0.2660 -0.3287  0.6803
16245SOL    HW151052   5.969   3.738   3.261  0.8161  0.1422  1.9904
16245SOL    HW251053   5.888   3.722   3.388 -0.7717  1.1300  1.1407
16246SOL     OW51054   4.059   8.679   7.849  0.1687 -0.4212 -0.1382
16246SOL    HW151055   3.980   8.625   7.849 -1.0814  1.3451 -0.5185
16246SOL    HW251056   4.041   8.748   7.912  1.0691  0.5033 -0.8672
16247SOL     OW51057   8.573   6.345   6.540 -0.1808 -0.3591  0.3690
16247SOL    HW151058   8.550   6.401   6.614 -2.7064 -0.3483 -0.3464
16247SOL    HW251059   8.632   6.399   6.487 -0.2685  0.5376  1.1577
16248SOL     OW51060   8.882   4.993   3.038  0.8473 -0.6874  0.1423
16248SOL    HW151061   8.838   4.945   2.968 -0.1582 -0.0754  0.3183
16248SOL    HW251062   8.897   5.080   3.001  2.2268 -0.9769 -0.0184
16249SOL     OW51063   6.200   8.593   1.239  0.1966  0.3529 -0.0140
16249SOL    HW151064   6.230   8.662   1.298 -0.6487  1.0097 -0.3182
16249SOL    HW251065   6.191   8.516   1.294  2.0746  0.2139  0.1434
16250SOL     OW51066   5.494   2.513   6.701  0.4429 -0.1336  0.2967
16250SOL    HW151067   5.489   2.449   6.629 -0.3978  0.3967 -0.1393
16250SOL    HW251068   5.529   2.464   6.775 -1.4014 -1.4659  0.3557
16251SOL     OW51069   6.447   9.668   7.951 -0.4101 -0.3972  0.1423
16251SOL    HW151070   6.377   9.724   7.985 -1.5795 -2.5916  1.6164
16251SOL    HW251071   6.402   9.604   7.897  0.6847 -0.8385 -0.2783
16252SOL     OW51072  10.581   3.205   7.864  0.2547  0.0435  0.1867
16252SOL    HW151073  10.609   3.297   7.872  0.2638  0.4842 -3.4742
16252SOL    HW251074  10.531   3.202   7.782  0.4940 -3.3069  0.0403
16253SOL     OW51075   8.177   2.534   5.333 -0.1320 -0.2095 -0.5674
16253SOL    HW151076   8.130   2.529   5.416 -0.6919 -1.6133 -0.9286
16253SOL    HW251077   8.111   2.566   5.270  0.3317  1.0037 -0.4621
16254SOL     OW51078   7.309   9.006   4.932 -0.2110 -0.0697 -0.3079
16254SOL    HW151079   7.355   9.072   4.984 -0.1185 -0.0776 -0.3809
16254SOL    HW251080   7.378   8.958   4.887 -0.3609  1.2726 -2.0868
16255SOL     OW51081   6.278   2.558   9.408  0.0884  0.3065  0.0067
16255SOL    HW151082   6.247   2.482   9.357 -0.5717  0.7747 -0.3068
16255SOL    HW251083   6.242   2.543   9.496  2.3353 -1.1857  0.7502
16256SOL     OW51084   5.373   9.250   2.542 -0.1435  0.5583 -0.4710
16256SOL    HW151085   5.394   9.331   2.494  2.3633 -0.1255 -0.6518
16256SOL    HW251086   5.448   9.237   2.600 -0.5777 -1.5555 -0.3314
16257SOL     OW51087   0.293   3.997  10.101  0.7825 -0.2407  0.2177
16257SOL    HW151088   0.250   4.081  10.082 -0.7738 -1.0541 -0.0537
16257SOL    HW251089   0.384   4.020  10.121  0.7287  1.3716 -1.1967
16258SOL     OW51090  10.421   4.302   0.150 -0.0410  0.0017  0.3928
16258SOL    HW151091  10.481   4.374   0.131 -0.2102 -0.2666 -1.2864
16258SOL    HW251092  10.388   4.321   0.238  1.2709  1.0076  0.6985
16259SOL     OW51093   0.978   9.315   2.833 -0.4147 -0.3132  0.3721
16259SOL    HW151094   0.968   9.338   2.740 -0.1174 -1.5651  0.0082
16259SOL    HW251095   0.893   9.337   2.872 -0.5222  0.2813 -0.1798
16260SOL     OW51096   7.370   0.964   8.511 -0.0042  0.4187 -0.2583
16260SOL    HW151097   7.382   0.942   8.604  0.6654  3.2373  0.4340
16260SOL    HW251098   7.419   0.897   8.464 -1.2853 -1.7477  1.3106
16261SOL     OW51099   5.753   4.918   5.881 -0.0762 -0.5630 -0.0205
16261SOL    HW151100   5.762   4.983   5.812  0.7048 -0.7568 -0.1104
16261SOL    HW251101   5.661   4.890   5.876 -0.5605  0.8882  0.3573
16262SOL     OW51102   7.695   8.766   4.115 -1.0538  0.1216  0.7792
16262SOL    HW151103   7.659   8.711   4.045 -0.6315  0.1642  0.5243
16262SOL    HW251104   7.790   8.755   4.107 -0.9445  1.1680  0.4829
16263SOL     OW51105   2.906   8.557   0.765  0.5633 -0.7846  0.0868
16263SOL    HW151106   2.957   8.529   0.842 -0.2441  1.0362  1.3528
16263SOL    HW251107   2.943   8.642   0.742 -0.5628 -0.3793 -0.2580
16264SOL     OW51108   6.639   8.839   5.667  0.3316  0.1078  0.5816
16264SOL    HW151109   6.669   8.849   5.758  2.3581  0.7857 -0.1091
16264SOL    HW251110   6.583   8.762   5.669  0.9738 -0.3602  2.2615
16265SOL     OW51111  10.217   2.009   7.071 -0.4523 -0.1093 -0.9905
16265SOL    HW151112  10.226   2.088   7.124  0.8791 -0.3047 -0.8848
16265SOL    HW251113  10.177   2.040   6.989  0.5774  0.8048 -1.1833
16266SOL     OW51114   0.854   7.875   8.213  0.4502 -0.0030  0.5658
16266SOL    HW151115   0.849   7.962   8.174 -0.0524  0.1656  0.9990
16266SOL    HW251116   0.827   7.887   8.303 -0.2274 -0.7190  0.4660
16267SOL     OW51117   6.133   7.223   2.897 -0.2760  0.1760 -0.0421
16267SOL    HW151118   6.168   7.268   2.975 -0.2660  0.0200  0.0430
16267SOL    HW251119   6.196   7.245   2.828 -0.9440  1.3346 -0.3022
16268SOL     OW51120   9.782   4.216   6.473 -0.0078  0.0000  0.3446
16268SOL    HW151121   9.743   4.176   6.550 -0.5430 -0.2861 -0.0678
16268SOL    HW251122   9.738   4.174   6.399  0.7187  0.0417 -0.1255
16269SOL     OW51123   3.217   1.849   0.634  0.6881 -0.4677 -0.4755
16269SOL    HW151124   3.194   1.759   0.615 -1.5001 -0.0237 -0.1782
16269SOL    HW251125   3.168   1.901   0.570  0.9508  0.5520  0.1184
16270SOL     OW51126   7.820   6.914   0.213 -0.2219 -1.0790  0.2378
16270SOL    HW151127   7.833   6.897   0.120 -2.1206  0.4610 -0.3841
16270SOL    HW251128   7.731   6.949   0.219 -0.0300 -0.8097  2.5956
16271SOL     OW51129   5.538   5.040   4.547 -0.0872  0.1872  0.1135
16271SOL    HW151130   5.606   5.038   4.613  1.2580  1.6095 -1.1416
16271SOL    HW251131   5.490   5.121   4.565 -1.8215 -1.0154  1.2641
16272SOL     OW51132  10.460   3.187   7.597 -0.1316  0.0737  0.0228
16272SOL    HW151133  10.485   3.271   7.560 -0.6630 -0.1647 -0.8991
16272SOL    HW251134  10.537   3.131   7.584  0.9375  0.8869  2.3105
16273SOL     OW51135   4.076   5.101   8.673  0.0795 -0.2488 -0.3240
16273SOL    HW151136   4.140   5.030   8.676 -0.7853 -1.1111 -1.6088
16273SOL    HW251137   4.034   5.092   8.588 -0.5826  1.3448 -0.1960
16274SOL     OW51138   6.976   2.877   6.540 -0.0815 -0.0866 -0.0732
16274SOL    HW151139   7.034   2.945   6.504 -0.7172 -0.7252 -2.5149
16274SOL    HW251140   7.024   2.842   6.615  1.5219  1.1425 -0.4505
16275SOL     OW51141   9.098   5.941   0.580  0.2838 -0.2981 -0.0517
16275SOL    HW151142   9.044   5.950   0.501  1.0125 -0.3547 -0.5758
16275SOL    HW251143   9.110   5.846   0.590 -1.3593 -0.4148  1.2368
16276SOL     OW51144   0.910   3.137   1.532 -0.1689 -0.2729  0.0986
16276SOL    HW151145   0.938   3.135   1.440 -1.4391 -2.0289 -0.2904
16276SOL    HW251146   0.826   3.183   1.530  0.5992  1.2330  0.6736
16277SOL     OW51147   1.892   4.133   2.162 -0.0627 -0.7863 -0.4616
16277SOL    HW151148   1.926   4.185   2.235 -2.0235  1.9897 -1.3411
16277SOL    HW251149   1.969   4.114   2.108  0.8317  1.1501  0.0202
16278SOL     OW51150   3.492   0.052   2.120  0.8107  0.0930 -0.0660
16278SOL    HW151151   3.463  -0.020   2.176  1.4680  1.2030  1.7817
16278SOL    HW251152   3.430   0.123   2.138  0.7364  0.3064 -1.1345
16279SOL     OW51153   7.280   2.814  10.366 -0.3646  0.0887  0.5517
16279SOL    HW151154   7.341   2.740  10.366 -2.3752 -1.8084 -2.8391
16279SOL    HW251155   7.334   2.890  10.342  1.6868 -0.1462  3.8279
16280SOL     OW51156   4.421   0.851   4.599  0.0843 -0.4521  0.2471
16280SOL    HW151157   4.423   0.792   4.523  1.2963 -0.4539  0.2711
16280SOL    HW251158   4.471   0.928   4.571 -0.2667 -0.0421  0.7254
16281SOL     OW51159  10.197   0.440   9.048  0.4882 -0.0883  0.0779
16281SOL    HW151160  10.265   0.494   9.086  0.8190 -0.4514  0.0022
16281SOL    HW251161  10.238   0.355   9.034  0.0491 -0.2836 -0.0506
16282SOL     OW51162   8.294   6.393   7.733  0.2949 -0.1751 -0.5949
16282SOL    HW151163   8.323   6.434   7.651 -1.3715  0.6652 -0.7979
16282SOL    HW251164   8.313   6.458   7.800 -2.3155  1.0239 -0.9120
16283SOL     OW51165   4.714   3.860   2.299 -0.3295 -0.8744  0.0573
16283SOL    HW151166   4.711   3.903   2.385 -0.5787 -1.6532  0.4437
16283SOL    HW251167   4.798   3.888   2.262  0.4937 -1.7376  1.1974
16284SOL     OW51168   6.076   8.765   1.643  0.5277  0.3776  0.5954
16284SOL    HW151169   6.067   8.679   1.602 -1.1744  0.6465  0.3676
16284SOL    HW251170   6.011   8.766   1.713  3.0567  0.0805  3.1859
16285SOL     OW51171   4.655   7.999   3.923 -0.4672 -0.4538  0.4021
16285SOL    HW151172   4.677   8.004   3.830  0.9299  0.9321  0.7695
16285SOL    HW251173   4.564   8.028   3.927 -1.4145 -2.9368 -0.7677
16286SOL     OW51174   9.513   8.250   6.471  0.1832  0.3706 -0.5656
16286SOL    HW151175   9.593   8.302   6.461  0.3818  0.2485  0.3625
16286SOL    HW251176   9.518   8.213   6.559 -1.5020  1.4104  0.0296
16287SOL     OW51177   7.496   1.019   7.735  0.2945  0.4267  0.2729
16287SOL    HW151178   7.478   1.055   7.822  1.3594  0.7041  0.3929
16287SOL    HW251179   7.465   0.928   7.740  2.1695 -0.2213  1.6600
16288SOL     OW51180   3.879   6.664   7.899  0.0712 -0.4058  0.0219
16288SOL    HW151181   3.810   6.681   7.963  0.3457  0.6315  0.0588
16288SOL    HW251182   3.960   6.669   7.950  0.3388  1.1186 -0.5039
16289SOL     OW51183   6.985   0.715   9.526 -0.7219 -0.4999  0.2589
16289SOL    HW151184   7.076   0.739   9.541 -0.6821 -0.8571  0.6141
16289SOL    HW251185   6.977   0.628   9.565 -1.5488  0.0703  1.4159
16290SOL     OW51186   4.207   8.026   1.997  0.2665  0.3753  0.0719
16290SOL    HW151187   4.287   8.063   2.036 -0.0545  0.7428  0.3887
16290SOL    HW251188   4.157   7.994   2.072 -1.0105  2.3482  0.1282
16291SOL     OW51189   7.144   4.298   6.131 -0.0819  0.0139  0.4361
16291SOL    HW151190   7.153   4.388   6.163  1.4140  0.2816 -0.6397
16291SOL    HW251191   7.105   4.250   6.204 -1.4987  1.6426  0.8196
16292SOL     OW51192   6.010   1.543   5.585 -0.1713 -0.0506 -0.1770
16292SOL    HW151193   6.102   1.569   5.592  0.3759 -2.0269  0.7429
16292SOL    HW251194   5.966   1.592   5.654 -0.3159  2.6187 -2.0192
16293SOL     OW51195   0.077   9.873  10.353  0.5574 -0.1580 -0.7081
16293SOL    HW151196   0.098   9.964  10.376 -0.6941  0.2260 -0.9617
16293SOL    HW251197   0.149   9.844  10.298  1.0935  0.6071 -0.4225
16294SOL     OW51198   0.074   1.746   8.528  0.0979 -0.3113  0.4357
16294SOL    HW151199   0.085   1.833   8.489 -0.4218 -0.1687  0.6029
16294SOL    HW251200   0.048   1.763   8.618  2.4215 -0.6314  1.2371
16295SOL     OW51201   1.118   1.109   2.000 -0.0813  0.1860  0.3585
16295SOL    HW151202   1.143   1.018   1.987 -1.0146 -0.3395  1.9794
16295SOL    HW251203   1.166   1.137   2.078 -1.9111  0.1743  1.5520
16296SOL     OW51204   5.067   7.399   3.697 -0.2978  0.2312  0.4092
16296SOL    HW151205   5.135   7.331   3.702  1.1875  1.2603 -2.8296
16296SOL    HW251206   5.099   7.459   3.629 -3.2412  2.2352  0.6370
16297SOL     OW51207   5.009   2.339   0.770 -0.3552 -0.1658  0.0679
16297SOL    HW151208   5.079   2.373   0.827 -2.1410  0.8577  1.7908
16297SOL    HW251209   4.959   2.280   0.826  1.0243 -3.7037 -2.1120
16298SOL     OW51210   0.017   5.635   7.811  0.2019 -0.0440 -0.2087
16298SOL    HW151211  -0.030   5.589   7.741  0.0664 -2.5641  1.3832
16298SOL    HW251212  -0.004   5.584   7.890  2.4081  1.1342  1.2265
16299SOL     OW51213   8.706   9.656   4.576 -0.2265 -0.0686  0.0436
16299SOL    HW151214   8.728   9.740   4.536 -0.9168 -0.0454 -0.3011
16299SOL    HW251215   8.621   9.633   4.539  0.9315 -2.0296 -1.6591
16300SOL     OW51216   1.781   0.419   4.524 -0.2318 -0.1792 -0.5947
16300SOL    HW151217   1.820   0.484   4.467  1.0575 -2.2080 -2.1752
16300SOL    HW251218   1.732   0.361   4.466 -1.5281 -0.5290  0.7703
16301SOL     OW51219   7.181   4.632   1.029 -0.4030 -0.4322  0.0700
16301SOL    HW151220   7.261   4.620   0.979 -0.4167  1.7744 -0.6134
16301SOL    HW251221   7.112   4.592   0.975 -0.3295  1.3825 -1.4835
16302SOL     OW51222   7.955   3.475  10.429 -0.0221  0.0988 -0.4493
16302SOL    HW151223   8.038   3.514  10.399 -0.3076  1.4715  0.4405
16302SOL    HW251224   7.889   3.542  10.410 -0.7634 -0.5422 -0.1716
16303SOL     OW51225   9.409   0.177   2.191  0.1964  0.2064 -0.1337
16303SOL    HW151226   9.338   0.240   2.198 -0.8887 -0.6286 -2.6055
16303SOL    HW251227   9.441   0.167   2.281 -2.3257  1.1497  0.9579
16304SOL     OW51228   0.763   1.470   8.941 -0.0857  0.1871  0.5936
16304SOL    HW151229   0.746   1.426   8.857 -0.9248  0.0779  0.8081
16304SOL    HW251230   0.799   1.401   8.997  1.1209  0.4209  0.1259
16305SOL     OW51231   4.857   5.807   1.716 -0.1637  0.0671 -0.0620
16305SOL    HW151232   4.870   5.787   1.808  0.5855 -0.4159 -0.2617
16305SOL    HW251233   4.836   5.901   1.714 -1.9141 -0.2839  0.7371
16306SOL     OW51234   1.872  10.503   7.450 -0.2125 -0.2456  0.4210
16306SOL    HW151235   1.820  10.452   7.387 -0.8748  0.9107  0.0015
16306SOL    HW251236   1.908  10.575   7.398 -0.3279  0.4313  1.2635
16307SOL     OW51237   6.385   5.731   4.836 -0.5968 -0.0592 -0.0215
16307SOL    HW151238   6.454   5.790   4.806 -0.0928 -0.3211  0.5987
16307SOL    HW251239   6.422   5.643   4.823  0.0575 -0.1762  2.2880
16308SOL     OW51240   7.583   6.761   2.380  0.0038 -0.1543  0.9156
16308SOL    HW151241   7.544   6.802   2.457  0.2616 -0.3714  1.1630
16308SOL    HW251242   7.666   6.726   2.411  1.8390  2.8215 -0.2266
16309SOL     OW51243   5.659   2.125   4.209  0.0067  0.0254  0.4776
16309SOL    HW151244   5.677   2.171   4.291  1.0640  1.6115 -0.6097
16309SOL    HW251245   5.573   2.156   4.183 -0.7945 -1.2498  1.4422
16310SOL     OW51246   1.121   0.555   0.124 -0.4145  0.0758  0.0475
16310SOL    HW151247   1.064   0.479   0.133 -1.3688  0.7347 -0.2626
16310SOL    HW251248   1.195   0.524   0.073 -1.7978 -0.1703 -1.9199
16311SOL     OW51249   6.751   8.372   0.444 -0.2462  0.5589  0.4024
16311SOL    HW151250   6.727   8.456   0.405  0.6044  1.4636  1.7339
16311SOL    HW251251   6.771   8.393   0.536  0.3530 -1.0363  0.6736
16312SOL     OW51252   4.514   0.226   5.052  0.2025  0.0978  0.5283
16312SOL    HW151253   4.439   0.212   5.111 -0.8114 -1.5752 -1.0229
16312SOL    HW251254   4.558   0.304   5.087 -2.8234  1.7835  0.9521
16313SOL     OW51255   0.998   0.094   9.370 -0.0445  0.0712 -0.7426
16313SOL    HW151256   0.970   0.116   9.459  0.1700  0.1691 -0.6959
16313SOL    HW251257   1.090   0.067   9.380  0.1264  0.5352 -0.9936
16314SOL     OW51258   7.098   4.232   4.204  0.1924 -0.7898 -0.4694
16314SOL    HW151259   7.042   4.224   4.281 -2.7228  2.9582 -1.8718
16314SOL    HW251260   7.186   4.214   4.237 -0.7002  1.5807  4.0711
16315SOL     OW51261   7.756   7.121   4.088  0.1757 -0.6468 -0.3749
16315SOL    HW151262   7.671   7.080   4.103 -0.9348  1.4993 -0.4238
16315SOL    HW251263   7.752   7.155   3.998 -0.3003  2.3210  0.6318
16316SOL     OW51264   8.428   8.120   0.088  0.3945  0.8867  0.4098
16316SOL    HW151265   8.477   8.043   0.118  0.6575  1.3714  1.2424
16316SOL    HW251266   8.386   8.091   0.007 -0.5093 -0.5122  1.3411
16317SOL     OW51267   1.260   9.511   5.500 -0.0298  0.1551 -0.6038
16317SOL    HW151268   1.177   9.513   5.547  0.4466  0.9025  0.2671
16317SOL    HW251269   1.275   9.602   5.475  0.4794  0.0143 -0.8221
16318SOL     OW51270   4.979   4.485   7.533 -0.2705 -0.5743 -0.2157
16318SOL    HW151271   5.062   4.448   7.563 -0.1904  0.1211  0.4406
16318SOL    HW251272   4.958   4.553   7.598  0.6806  2.0841 -2.4942
16319SOL     OW51273   4.236   9.998   8.488 -0.1998  0.3561 -0.2693
16319SOL    HW151274   4.262   9.986   8.579 -0.5579  2.8643  0.2378
16319SOL    HW251275   4.151  10.042   8.492 -0.1755  0.6170 -1.8065
16320SOL     OW51276   1.450   3.807   2.339 -0.3133  0.5719 -0.1141
16320SOL    HW151277   1.436   3.873   2.272 -0.9521 -0.9454 -1.5493
16320SOL    HW251278   1.362   3.778   2.364 -0.0757 -1.7051 -1.6095
16321SOL     OW51279   7.738   3.053  10.239 -0.1827  0.0575 -0.1661
16321SOL    HW151280   7.747   3.106  10.159  0.6165 -0.7980 -0.6583
16321SOL    HW251281   7.644   3.043  10.250 -0.3052 -0.6648 -1.5898
16322SOL     OW51282   9.451   3.447   8.098 -0.4677 -0.3201  0.3492
16322SOL    HW151283   9.407   3.372   8.057 -0.7597  0.3872 -0.6608
16322SOL    HW251284   9.535   3.412   8.127 -0.3685 -0.9167 -0.6007
16323SOL     OW51285   6.803   8.264   7.276  0.5127 -0.3606 -0.4031
16323SOL    HW151286   6.813   8.273   7.371 -1.0776 -0.8765 -0.1524
16323SOL    HW251287   6.768   8.349   7.248 -0.1121 -0.5956 -0.3449
16324SOL     OW51288   3.238   8.889  10.072  0.5663 -0.0305  0.0788
16324SOL    HW151289   3.164   8.949  10.065  0.4231 -0.2179  0.0037
16324SOL    HW251290   3.244   8.848   9.986  1.6279  1.0095 -0.3743
16325SOL     OW51291   1.924   6.244   8.550  0.2684 -0.1880  0.1651
16325SOL    HW151292   1.904   6.164   8.501 -1.7203  0.2326  0.2152
16325SOL    HW251293   1.904   6.222   8.641 -2.7367  0.9803 -0.0778
16326SOL     OW51294   7.167   2.656   0.877  0.5006 -0.4335 -0.1441
16326SOL    HW151295   7.175   2.657   0.972 -0.9488  0.4906  0.0039
16326SOL    HW251296   7.255   2.638   0.845  0.8312 -1.6980  1.3827
16327SOL     OW51297   3.654   3.077   9.983 -0.7644 -0.0010  0.1212
16327SOL    HW151298   3.598   3.042  10.053  1.1954 -1.9835  0.8077
16327SOL    HW251299   3.691   3.157  10.020 -1.8312  0.4372  0.2818
16328SOL     OW51300   4.219   3.853   1.175  0.3739  0.2631 -0.0102
16328SOL    HW151301   4.221   3.853   1.080 -1.6253 -0.8600 -0.1050
16328SOL    HW251302   4.133   3.890   1.198  0.0117 -1.2213  1.2583
16329SOL     OW51303   0.069   3.897   9.324  0.1046  0.4130  0.2341
16329SOL    HW151304   0.024   3.968   9.278 -0.6838 -0.5981 -0.6113
16329SOL    HW251305  -0.001   3.840   9.356  0.7134  0.1660  1.1605
16330SOL     OW51306   9.723   7.082   7.397  0.7062 -0.3410  0.0611
16330SOL    HW151307   9.729   7.085   7.492 -0.5078 -1.2418  0.1916
16330SOL    HW251308   9.670   7.158   7.374  2.0167  0.5737 -0.0225
16331SOL     OW51309   1.290   8.006   9.131 -0.2029  0.5726  0.7026
16331SOL    HW151310   1.335   8.036   9.052 -1.4424  0.2735 -0.1392
16331SOL    HW251311   1.269   7.914   9.114  2.9880 -0.7902  2.9812
16332SOL     OW51312   1.856   0.294   9.948  0.8891 -0.4233 -0.0595
16332SOL    HW151313   1.849   0.204   9.917  0.0227 -0.0475 -1.0042
16332SOL    HW251314   1.944   0.321   9.925  0.4628 -0.3535 -1.6865
16333SOL     OW51315   0.742   6.863  10.281 -0.2288 -0.0160  1.2163
16333SOL    HW151316   0.825   6.853  10.327  0.5791  2.8752  0.6100
16333SOL    HW251317   0.710   6.774  10.270  4.4919 -1.7722 -1.6222
16334SOL     OW51318   3.437   6.772   1.622 -0.1721 -0.6492 -0.5213
16334SOL    HW151319   3.512   6.817   1.660  1.3552 -2.6219 -1.0259
16334SOL    HW251320   3.420   6.817   1.540 -1.3266  1.4942  0.7943
16335SOL     OW51321   8.402   8.618   0.942  0.1779 -0.1865  0.1075
16335SOL    HW151322   8.497   8.610   0.937  0.6164  2.6945  1.3845
16335SOL    HW251323   8.378   8.671   0.867 -0.1792  0.3946  0.6188
16336SOL     OW51324   9.696   9.687   2.798  0.0895 -0.2904 -0.0345
16336SOL    HW151325   9.674   9.776   2.825  2.1121  0.6822 -1.2738
16336SOL    HW251326   9.636   9.631   2.846 -1.4491  1.7627  0.5657
16337SOL     OW51327   1.539   0.335   5.764  0.3549  0.7116  0.1438
16337SOL    HW151328   1.536   0.240   5.775  0.9745  0.6933  0.1527
16337SOL    HW251329   1.626   0.361   5.794  0.3882  1.2220 -0.3672
16338SOL     OW51330   4.144   6.206   5.825 -0.7214  0.1272 -1.0340
16338SOL    HW151331   4.072   6.165   5.872 -0.5033 -0.7572 -1.4361
16338SOL    HW251332   4.122   6.299   5.821 -2.0343 -0.1956 -1.5004
16339SOL     OW51333   8.302   9.084   1.970 -0.0296 -0.1250  0.3781
16339SOL    HW151334   8.270   9.050   2.053  2.2344 -1.0749  0.9512
16339SOL    HW251335   8.320   9.177   1.986  1.8956 -0.6294  1.5260
16340SOL     OW51336   3.416   7.344   5.213 -0.2210  0.3202  0.4116
16340SOL    HW151337   3.482   7.412   5.227  0.6903 -0.2424 -0.9754
16340SOL    HW251338   3.458   7.263   5.240 -0.7819  0.1082  0.6662
16341SOL     OW51339   1.631   1.665   4.180 -0.4639  0.0666  0.1178
16341SOL    HW151340   1.705   1.670   4.241 -0.4082 -0.3573  0.0894
16341SOL    HW251341   1.564   1.721   4.218 -0.3233  0.0320  0.4170
16342SOL     OW51342   8.141   9.967   7.676  0.7972 -0.2394 -0.4083
16342SOL    HW151343   8.084   9.911   7.623  1.3187  1.5015 -3.0123
16342SOL    HW251344   8.228   9.930   7.664  0.5859 -1.6643  1.8829
16343SOL     OW51345   6.828  10.475   9.824  0.6909  0.3074 -0.4400
16343SOL    HW151346   6.838  10.567   9.800  1.7106 -0.0318 -1.4056
16343SOL    HW251347   6.906  10.432   9.789  0.6548 -0.7909  0.7393
16344SOL     OW51348   1.811   7.672   7.951 -0.4601  0.8183 -0.2486
16344SOL    HW151349   1.812   7.723   7.870 -0.2180  1.9261  0.4319
16344SOL    HW251350   1.720   7.648   7.964 -0.6159  1.2969 -0.4490
16345SOL     OW51351   1.576   5.201   4.660  0.5850  0.2833  0.2446
16345SOL    HW151352   1.607   5.242   4.579  0.8366  0.5365  0.4696
16345SOL    HW251353   1.600   5.262   4.729  1.1065 -0.3071  0.5998
16346SOL     OW51354   5.703   2.205   8.083 -0.1970  0.6334  0.2546
16346SOL    HW151355   5.665   2.145   8.018  1.3331 -0.2794  0.1692
16346SOL    HW251356   5.636   2.212   8.151 -1.2078  0.4117 -0.6806
16347SOL     OW51357  10.522   2.010   8.523 -0.3502  0.8153 -1.0476
16347SOL    HW151358  10.439   1.982   8.484 -1.4358  1.1890  0.8877
16347SOL    HW251359  10.498   2.078   8.586  0.9675 -1.2555  1.9250
16348SOL     OW51360   9.454  10.225   3.079  0.4434 -0.6452 -0.1828
16348SOL    HW151361   9.400  10.268   3.146  0.2154 -0.0744 -0.7205
16348SOL    HW251362   9.490  10.148   3.123 -0.6652 -0.9430  0.2490
16349SOL     OW51363   3.178   8.227   5.822  0.4774 -0.7250  0.4194
16349SOL    HW151364   3.259   8.231   5.772  0.8016  0.1519  0.9898
16349SOL    HW251365   3.194   8.164   5.891  0.2884 -1.3662 -0.1080
16350SOL     OW51366   5.996   3.479   5.591 -0.7383  0.2088  0.8688
16350SOL    HW151367   5.952   3.402   5.555  1.6028 -1.0211  0.4528
16350SOL    HW251368   6.027   3.527   5.514  1.4378 -0.7043  1.1147
16351SOL     OW51369   0.752   3.684   8.313  0.3617  0.4589 -0.5749
16351SOL    HW151370   0.826   3.734   8.279  1.7673 -0.9008  0.3227
16351SOL    HW251371   0.702   3.659   8.235  1.7502  0.0600 -1.3695
16352SOL     OW51372   3.682   0.141   7.218  0.6577 -0.4756 -0.6371
16352SOL    HW151373   3.767   0.184   7.229 -1.1372  3.0610  1.5060
16352SOL    HW251374   3.634   0.197   7.158 -1.9099  1.0490  2.5018
16353SOL     OW51375   4.940   7.262   4.263  0.1609 -0.4986 -0.1610
16353SOL    HW151376   4.918   7.188   4.208  1.8535 -0.1818 -1.3657
16353SOL    HW251377   5.027   7.289   4.233 -0.0620  1.4687  0.7716
16354SOL     OW51378   4.896   8.853   9.811  0.6234  0.3053  0.1420
16354SOL    HW151379   4.829   8.826   9.749  1.0831  0.3356 -0.3704
16354SOL    HW251380   4.882   8.947   9.822 -0.4104  0.0421  1.2454
16355SOL     OW51381   3.856   4.224   1.576 -0.5026 -0.0654  0.4769
16355SOL    HW151382   3.893   4.205   1.662 -0.7069 -2.6158  0.0553
16355SOL    HW251383   3.765   4.197   1.582 -0.2641 -1.2673 -0.8207
16356SOL     OW51384  10.568   5.178   8.757  0.1632 -0.4191 -0.1206
16356SOL    HW151385  10.572   5.137   8.671  1.0541 -0.0718 -0.2540
16356SOL    HW251386  10.646   5.233   8.761 -0.3429  0.2668  0.5566
16357SOL     OW51387   1.251   8.025   4.281 -0.1799 -0.3542  0.7790
16357SOL    HW151388   1.199   7.964   4.228 -1.3937  0.8868  0.4889
16357SOL    HW251389   1.248   7.988   4.369 -1.8603 -0.1468  0.8332
16358SOL     OW51390   9.918   3.362   4.854  0.3359  0.0516  0.4085
16358SOL    HW151391   9.881   3.387   4.939  0.2170 -1.2778  0.7748
16358SOL    HW251392   9.843   3.329   4.805  0.7095 -0.9732  0.4992
16359SOL     OW51393   0.142   5.643   6.395  0.4841  0.2017  0.4479
16359SOL    HW151394   0.154   5.737   6.382  0.6663  0.0592 -0.4331
16359SOL    HW251395   0.229   5.606   6.380  0.0960 -0.2653 -0.7418
16360SOL     OW51396   0.789   3.925   3.978 -0.5937  0.0383  0.1666
16360SOL    HW151397   0.753   3.992   3.920 -2.6352 -2.1913 -1.3254
16360SOL    HW251398   0.849   3.875   3.923  0.7141  0.4088  1.1950
16361SOL     OW51399   4.179   0.114   1.317  0.4049 -0.3419 -0.0151
16361SOL    HW151400   4.096   0.120   1.269  0.6465 -2.5412 -0.7963
16361SOL    HW251401   4.245   0.143   1.254  0.2619  1.8488  0.7485
16362SOL     OW51402   3.186   5.780   9.073  0.4333  0.6320 -0.6126
16362SOL    HW151403   3.168   5.719   9.145  0.1444 -3.1793 -3.5989
16362SOL    HW251404   3.281   5.778   9.063  0.3126 -0.8285 -1.7847
16363SOL     OW51405   4.977   7.937   5.162  0.1084 -0.0185  0.0786
16363SOL    HW151406   4.962   7.927   5.068 -0.8885  0.5131  0.1752
16363SOL    HW251407   4.891   7.927   5.201  0.3501  0.8690  0.8498
16364SOL     OW51408   8.063   7.149   9.841  0.0237  0.3057  0.6829
16364SOL    HW151409   8.148   7.183   9.867  0.3812 -0.8409  1.0827
16364SOL    HW251410   8.028   7.108   9.920 -0.6191  0.2057  0.3576
16365SOL     OW51411   1.599   5.765   5.315  0.5689 -0.6158  0.2512
16365SOL    HW151412   1.583   5.681   5.358  0.6250 -0.3716  0.7616
16365SOL    HW251413   1.569   5.752   5.225 -0.4746 -0.8402  0.6123
16366SOL     OW51414   4.183   3.050   5.401 -0.2056 -0.2192 -0.1735
16366SOL    HW151415   4.214   2.962   5.379 -0.8180 -0.0861 -1.7046
16366SOL    HW251416   4.106   3.035   5.456 -0.3395 -0.6571 -0.4696
16367SOL     OW51417   2.396   6.590   2.439  0.3558 -0.0940  0.0398
16367SOL    HW151418   2.418   6.683   2.439  0.9699 -0.2381 -0.0123
16367SOL    HW251419   2.427   6.557   2.355 -1.4603  0.0106 -0.7274
16368SOL     OW51420  10.005   6.971   5.672  0.1469  0.2267 -0.1476
16368SOL    HW151421  10.018   6.957   5.578  0.5554 -1.2224  0.0998
16368SOL    HW251422  10.092   6.995   5.705  0.5295 -1.4917  0.1967
16369SOL     OW51423   8.650   7.650   3.395 -0.2331  0.1139  0.0568
16369SOL    HW151424   8.578   7.701   3.433  0.1615  1.5451 -1.0453
16369SOL    HW251425   8.728   7.705   3.408  0.3369 -0.5500 -0.4853
16370SOL     OW51426   1.429   1.638   5.371 -0.3576  0.4120  0.1056
16370SOL    HW151427   1.360   1.605   5.313 -1.2199  1.4912  0.4755
16370SOL    HW251428   1.388   1.710   5.418  0.6711  0.2839  1.2492
16371SOL     OW51429   3.482   0.356   3.858  0.0210 -0.0294  0.1389
16371SOL    HW151430   3.504   0.313   3.941  0.9853 -2.3232 -1.2136
16371SOL    HW251431   3.393   0.328   3.839  0.3224 -0.7415 -0.2854
16372SOL     OW51432   4.331   0.834   6.972 -0.1307 -0.2815  0.0506
16372SOL    HW151433   4.394   0.872   6.911 -0.0914  0.2309  0.4077
16372SOL    HW251434   4.293   0.909   7.017  0.3257 -0.6856  1.1335
16373SOL     OW51435   0.496   4.077   5.452  0.3187 -0.1999 -0.5244
16373SOL    HW151436   0.518   4.006   5.392  0.0751  0.9487 -2.0228
16373SOL    HW251437   0.575   4.131   5.455 -0.4506  1.0547 -1.7497
16374SOL     OW51438   4.784   0.349   6.429  0.1414 -0.1112 -0.3948
16374SOL    HW151439   4.804   0.433   6.387  2.6392  0.0260  0.9165
16374SOL    HW251440   4.817   0.283   6.368 -1.0781 -0.1776 -1.0353
16375SOL     OW51441   4.378   2.781   2.197  0.6297 -0.1810  0.6207
16375SOL    HW151442   4.473   2.775   2.183  0.7284  0.9219  0.7016
16375SOL    HW251443   4.355   2.869   2.167 -0.4237 -0.5367  0.3460
16376SOL     OW51444   8.951   8.847  10.397 -0.5765  0.8383 -0.5813
16376SOL    HW151445   9.028   8.808  10.439 -0.9959  0.4903 -0.1243
16376SOL    HW251446   8.986   8.896  10.323  0.0569  0.4434 -0.5469
16377SOL     OW51447   0.709   7.295   8.923 -0.3436  0.8004 -0.7283
16377SOL    HW151448   0.752   7.379   8.908  1.0216  0.1655 -0.5560
16377SOL    HW251449   0.773   7.230   8.893 -0.4077 -0.2533  1.2250
16378SOL     OW51450  10.179   1.871   9.622 -0.7938  0.3555 -0.2010
16378SOL    HW151451  10.140   1.795   9.579  2.3823 -0.6710 -1.5489
16378SOL    HW251452  10.134   1.876   9.707 -0.8992 -3.3148  0.1346
16379SOL     OW51453   2.791   6.207   9.887  0.2647  0.3360 -0.2599
16379SOL    HW151454   2.786   6.114   9.865 -2.2596  0.0755  1.0961
16379SOL    HW251455   2.808   6.208   9.982  0.0917  1.2506 -0.2358
16380SOL     OW51456  10.501   7.299   5.409 -0.1836 -0.1138  0.3214
16380SOL    HW151457  10.500   7.211   5.371  0.4171 -0.4404  1.0330
16380SOL    HW251458  10.490   7.357   5.335 -2.0723 -0.8146 -0.0206
16381SOL     OW51459   0.557   7.129   6.842  0.1406 -0.1972 -0.1548
16381SOL    HW151460   0.553   7.055   6.781  0.4201 -1.0542  0.8184
16381SOL    HW251461   0.467   7.161   6.848 -0.3345 -1.5973  0.7272
16382SOL     OW51462   9.650   3.704   7.220  0.4333 -0.2940 -0.4808
16382SOL    HW151463   9.674   3.794   7.239 -1.4062  0.1175  0.0805
16382SOL    HW251464   9.562   3.710   7.182 -0.5055 -1.9700  1.2706
16383SOL     OW51465   2.141   7.644  10.402  0.8119  1.2315 -0.2756
16383SOL    HW151466   2.113   7.557  10.372 -0.1870  0.2182  3.1502
16383SOL    HW251467   2.220   7.662  10.351 -0.2335 -0.5853 -2.7820
16384SOL     OW51468   1.680   9.519   2.613  0.0742 -0.1360  0.2533
16384SOL    HW151469   1.752   9.494   2.671  0.7964  0.1413 -0.5057
16384SOL    HW251470   1.650   9.602   2.648 -1.6659 -1.4592  2.1768
16385SOL     OW51471   8.508   3.188   8.767 -0.3756 -0.2755  0.4058
16385SOL    HW151472   8.534   3.161   8.679  0.5528  0.1277  0.5466
16385SOL    HW251473   8.590   3.201   8.814 -0.8528 -0.0351  1.2001
16386SOL     OW51474   2.536   5.334   2.002 -0.8426 -0.2285  0.0691
16386SOL    HW151475   2.578   5.420   1.992 -1.6370  0.3160  1.1918
16386SOL    HW251476   2.586   5.291   2.072 -3.2143  1.2191  2.8897
16387SOL     OW51477   1.795   8.210   0.319  0.6082 -0.2778  0.6224
16387SOL    HW151478   1.705   8.188   0.345  0.5030 -0.1030  0.4078
16387SOL    HW251479   1.844   8.208   0.401  0.1841  0.7270  0.9278
16388SOL     OW51480   0.913   5.633   2.247 -0.2213  0.1762 -0.0675
16388SOL    HW151481   0.943   5.678   2.326  1.0055  2.2836 -1.6339
16388SOL    HW251482   0.849   5.692   2.208 -0.5929 -0.6899 -0.8229
16389SOL     OW51483   4.997   3.786   6.053 -0.3417 -0.4463  0.4301
16389SOL    HW151484   5.039   3.720   5.997 -1.9450 -1.8654  0.8550
16389SOL    HW251485   4.908   3.754   6.066 -0.4658  0.6249  2.5768
16390SOL     OW51486   2.864   7.654   4.331  0.3919 -0.2025 -0.3380
16390SOL    HW151487   2.947   7.634   4.290  1.0047 -0.2297  0.8641
16390SOL    HW251488   2.860   7.597   4.407  0.4896  1.5717  1.0763
16391SOL     OW51489   8.647   8.377   6.683 -0.0154 -0.3188 -0.1998
16391SOL    HW151490   8.557   8.388   6.712 -0.5754  0.9083 -2.2206
16391SOL    HW251491   8.699   8.387   6.763 -1.6030 -0.4101  0.9028
16392SOL     OW51492   5.292   4.499   6.308  0.0735 -0.2954  0.4383
16392SOL    HW151493   5.205   4.531   6.333  0.6436 -0.5726  3.0612
16392SOL    HW251494   5.347   4.577   6.306  0.2025 -0.3722  0.8988
16393SOL     OW51495   4.702   3.469   7.873 -0.0028  0.1015 -0.0304
16393SOL    HW151496   4.736   3.479   7.784 -0.4758 -1.8482 -0.4804
16393SOL    HW251497   4.779   3.480   7.929  0.9554 -1.7652 -0.8887
16394SOL     OW51498   1.743   8.229   9.087 -0.2322  0.6415  0.0335
16394SOL    HW151499   1.671   8.234   9.150 -0.9845 -0.2704 -0.7166
16394SOL    HW251500   1.749   8.137   9.064  0.0806  0.9326 -1.1554
16395SOL     OW51501   0.513   9.403   7.070 -0.0698 -0.0190  0.5731
16395SOL    HW151502   0.584   9.368   7.015  0.6278 -0.9434  2.0077
16395SOL    HW251503   0.542   9.492   7.091 -0.2623  0.2866 -0.3844
16396SOL     OW51504   5.254   0.480   0.537  0.2883 -0.5866 -0.1648
16396SOL    HW151505   5.302   0.404   0.569  1.5894 -0.5792 -1.9591
16396SOL    HW251506   5.169   0.446   0.510  0.4408 -1.1772  0.0924
16397SOL     OW51507   1.327   1.322   9.363  0.2164  0.0072  0.5146
16397SOL    HW151508   1.271   1.300   9.437  1.0625 -1.9308  0.6492
16397SOL    HW251509   1.273   1.304   9.286  0.3347 -1.0224  0.6553
16398SOL     OW51510   5.325   6.559   3.278  0.2126 -0.5315 -0.0042
16398SOL    HW151511   5.348   6.509   3.200 -0.3489 -0.4997 -0.1955
16398SOL    HW251512   5.246   6.516   3.311 -0.0845  0.0240  0.0169
16399SOL     OW51513   5.343   6.013   1.025  0.5660 -0.0099 -0.3027
16399SOL    HW151514   5.419   5.956   1.031 -0.4983 -1.3980  0.4325
16399SOL    HW251515   5.347   6.067   1.104 -0.6215 -1.9454  1.1553
16400SOL     OW51516   1.546  10.222   6.262 -0.0318 -0.0950 -0.3269
16400SOL    HW151517   1.636  10.217   6.292  0.3975  1.4811 -1.2312
16400SOL    HW251518   1.530  10.316   6.249 -1.9382 -0.3123  0.2188
16401SOL     OW51519   4.472   8.370   8.252  0.0866 -0.0337  0.0799
16401SOL    HW151520   4.396   8.327   8.214 -0.2871  0.8878 -0.2319
16401SOL    HW251521   4.485   8.325   8.336 -0.0981 -0.9528 -0.3634
16402SOL     OW51522   4.999   6.094  10.193  0.1959  0.1334 -0.7051
16402SOL    HW151523   4.932   6.050  10.141 -0.1991  0.3113 -0.3566
16402SOL    HW251524   5.078   6.091  10.139  0.9458 -3.3879  0.3424
16403SOL     OW51525   7.093   0.177   3.411 -0.1405 -0.0271 -0.0381
16403SOL    HW151526   7.129   0.093   3.441 -0.7029  0.0956  1.0337
16403SOL    HW251527   7.010   0.186   3.458 -0.3237  0.9049 -0.5157
16404SOL     OW51528  10.000   3.666   1.735  0.1119  0.0580  0.0651
16404SOL    HW151529   9.917   3.620   1.742  0.2767 -0.4006 -0.8419
16404SOL    HW251530  10.050   3.616   1.671  2.0742 -1.1476  2.3710
16405SOL     OW51531   9.436   2.558   2.113  0.2645 -0.5184  0.1308
16405SOL    HW151532   9.496   2.497   2.071  1.2251  0.1002  0.5808
16405SOL    HW251533   9.390   2.505   2.179 -0.4188 -1.2187 -0.8830
16406SOL     OW51534   1.459   7.969   8.895 -0.4373 -0.2652 -0.1210
16406SOL    HW151535   1.512   8.041   8.860 -0.8595  1.0517  1.7651
16406SOL    HW251536   1.521   7.896   8.904  0.4025  0.3700 -0.5673
16407SOL     OW51537   6.220   4.050   3.157 -0.2802  0.1202  0.2047
16407SOL    HW151538   6.148   4.110   3.139 -1.5307 -2.1232 -3.0722
16407SOL    HW251539   6.274   4.052   3.078  0.5736 -1.7828  0.6819
16408SOL     OW51540   3.591   6.914   4.791  0.0031  0.7431  1.1169
16408SOL    HW151541   3.508   6.910   4.838  0.1120 -0.4825  1.2514
16408SOL    HW251542   3.651   6.864   4.846  0.0999 -0.8516 -0.3557
16409SOL     OW51543   3.493   0.422   8.084  0.8302  0.6708 -0.1831
16409SOL    HW151544   3.557   0.350   8.084  0.7290  0.5466  1.6089
16409SOL    HW251545   3.444   0.410   8.003 -0.5067 -2.4957  0.9628
16410SOL     OW51546   9.321   1.318   6.425  0.1960 -0.0415 -0.0705
16410SOL    HW151547   9.253   1.276   6.477 -0.2322 -2.9355 -2.6660
16410SOL    HW251548   9.397   1.261   6.434  0.6049  0.2681 -1.3320
16411SOL     OW51549   5.897   6.622   8.622  0.3473 -0.2521  0.3202
16411SOL    HW151550   5.836   6.682   8.579 -0.1663 -0.4415  0.7781
16411SOL    HW251551   5.946   6.678   8.682  1.4963  0.1283 -0.9298
16412SOL     OW51552   5.001   2.956   7.938  0.1304 -0.0229 -0.5857
16412SOL    HW151553   5.023   2.863   7.937 -0.1756 -0.1110  0.0490
16412SOL    HW251554   5.015   2.983   8.029 -0.0480  0.4902 -0.7044
16413SOL     OW51555   1.762   1.093   9.946  0.0740 -0.9059  0.3205
16413SOL    HW151556   1.783   1.179   9.908  0.5935 -0.6603  1.1245
16413SOL    HW251557   1.672   1.075   9.917 -0.2138  0.1277  0.5260
16414SOL     OW51558   9.747   9.228   2.564  0.1879 -0.8312 -0.4761
16414SOL    HW151559   9.769   9.147   2.610  0.4867  0.0340  0.9991
16414SOL    HW251560   9.773   9.213   2.473 -0.2511 -2.5550 -0.3397
16415SOL     OW51561   1.054   6.661   5.582  1.3726 -0.3654  0.0917
16415SOL    HW151562   1.054   6.638   5.675  0.9046  0.3519  0.2774
16415SOL    HW251563   0.982   6.609   5.545  1.3637 -0.4240  0.1909
16416SOL     OW51564   8.820   4.001   5.585 -0.4459  0.0765  0.4242
16416SOL    HW151565   8.864   4.082   5.610 -0.0840  0.0692 -0.1796
16416SOL    HW251566   8.890   3.936   5.580 -0.2312  0.3830 -1.9966
16417SOL     OW51567   8.714   0.960   9.394  0.3698 -0.2434 -0.2711
16417SOL    HW151568   8.725   0.982   9.486  1.5159  0.2764 -0.5234
16417SOL    HW251569   8.693   0.866   9.395 -1.9382  0.2170  0.6324
16418SOL     OW51570   1.155   6.711   6.884  0.4859 -0.4607  0.3118
16418SOL    HW151571   1.066   6.734   6.861  0.1430 -1.5248  0.5094
16418SOL    HW251572   1.168   6.624   6.846  0.3093 -1.7610  2.9758
16419SOL     OW51573   2.513   4.011   2.920  0.1700  0.5908  0.1095
16419SOL    HW151574   2.469   4.087   2.884 -1.1045 -0.7464 -1.2762
16419SOL    HW251575   2.442   3.952   2.946  1.0821  0.4808  2.6867
16420SOL     OW51576   3.693   7.392   6.886 -0.3693  0.0278 -0.8755
16420SOL    HW151577   3.631   7.458   6.856 -0.1608  0.6222 -0.0231
16420SOL    HW251578   3.663   7.311   6.845 -0.0405  0.8069 -2.7442
16421SOL     OW51579  10.298   5.785   3.018  0.2790  0.1485 -0.1909
16421SOL    HW151580  10.258   5.728   3.083 -0.5269  1.5657  0.6069
16421SOL    HW251581  10.252   5.765   2.936  0.4112 -0.7318 -0.0595
16422SOL     OW51582   9.082   0.817   3.388 -0.1107 -0.2362  0.1024
16422SOL    HW151583   9.079   0.908   3.418 -0.9811  0.6309 -2.3295
16422SOL    HW251584   9.065   0.765   3.466 -1.8716  1.8015  1.1722
16423SOL     OW51585   4.721   8.960   4.604 -0.0050 -0.4204 -0.4206
16423SOL    HW151586   4.684   9.030   4.657 -5.6391 -1.9955 -1.6136
16423SOL    HW251587   4.714   8.992   4.514 -0.6701 -1.6466 -0.8282
16424SOL     OW51588   8.493  10.323   6.539 -0.5865  0.0799  0.0638
16424SOL    HW151589   8.403  10.322   6.506 -0.3257  0.7851 -0.6869
16424SOL    HW251590   8.524  10.412   6.523  0.8926 -0.6590 -1.4652
16425SOL     OW51591   0.561   0.215   4.269 -0.8252 -0.7465 -0.7012
16425SOL    HW151592   0.575   0.242   4.360 -1.4173 -2.2764 -0.1125
16425SOL    HW251593   0.572   0.295   4.218  1.4825 -0.1880  0.4964
16426SOL     OW51594   7.890   7.846   8.614 -0.2276 -0.1893  0.0609
16426SOL    HW151595   7.959   7.899   8.574 -1.8784  2.1642  0.1715
16426SOL    HW251596   7.930   7.809   8.692  0.8113  1.4242  0.3213
16427SOL     OW51597  10.239   3.948   4.368 -1.0334 -0.0435  0.1889
16427SOL    HW151598  10.270   4.035   4.393 -1.0778 -0.0195  0.1605
16427SOL    HW251599  10.195   3.915   4.445  0.4711 -0.7435  0.7926
16428SOL     OW51600   1.498   9.877   6.846 -0.6532  0.5143  0.4099
16428SOL    HW151601   1.505   9.785   6.871 -1.2806  0.6387  1.0946
16428SOL    HW251602   1.586   9.901   6.817 -0.9331 -0.8374 -1.7612
16429SOL     OW51603   4.583   0.622   5.256  0.0150 -0.3749 -0.3102
16429SOL    HW151604   4.502   0.605   5.303  0.1213 -2.3204 -0.7746
16429SOL    HW251605   4.593   0.718   5.260  0.0885 -0.4087  3.6345
16430SOL     OW51606   0.333   4.738   6.269 -0.1874 -0.3353 -0.2189
16430SOL    HW151607   0.260   4.767   6.325  0.7849  0.1600  0.8359
16430SOL    HW251608   0.400   4.805   6.280  1.2562 -1.8177  0.5079
16431SOL     OW51609   1.070   2.987   5.418  0.0636 -0.1302  0.0030
16431SOL    HW151610   1.059   3.011   5.510  0.8675 -1.1388  0.3746
16431SOL    HW251611   1.001   3.036   5.372  0.0468  0.8649  1.0489
16432SOL     OW51612   7.505   1.931   6.612 -0.6469 -0.2008  0.1152
16432SOL    HW151613   7.414   1.904   6.620 -0.7241 -0.4512 -1.3053
16432SOL    HW251614   7.524   1.923   6.518  1.3725 -1.8705  0.6014
16433SOL     OW51615   1.595   7.698   5.207  0.1045 -0.1437  0.8365
16433SOL    HW151616   1.642   7.614   5.204 -1.1108 -0.8264  0.3648
16433SOL    HW251617   1.543   7.694   5.287 -1.1764 -0.5450  0.0189
16434SOL     OW51618   9.231   8.337   5.753  0.8526 -0.0111 -0.4785
16434SOL    HW151619   9.231   8.305   5.844 -0.7559 -1.3265 -0.8863
16434SOL    HW251620   9.206   8.429   5.760  1.1608  0.0177  0.4383
16435SOL     OW51621   3.063   1.576   2.177 -0.0669  0.2745 -0.1193
16435SOL    HW151622   3.112   1.583   2.095  1.0072 -0.9365  0.3835
16435SOL    HW251623   3.061   1.665   2.212  0.3530  0.6214 -0.9646
16436SOL     OW51624   3.341   7.710   8.799  0.3758  0.1504  0.2668
16436SOL    HW151625   3.432   7.681   8.799  0.3515 -0.0936  2.1218
16436SOL    HW251626   3.345   7.803   8.819  0.2127 -0.0537  1.3218
16437SOL     OW51627  10.002   4.147   7.292 -0.4636 -0.3538  0.5693
16437SOL    HW151628  10.080   4.091   7.301  0.3227  0.8314  1.4681
16437SOL    HW251629   9.948   4.123   7.367  1.3610  2.2404  2.9510
16438SOL     OW51630   7.231   4.454   5.624 -0.0405  0.2603 -0.1968
16438SOL    HW151631   7.190   4.514   5.562  1.6840  2.2612  0.4794
16438SOL    HW251632   7.164   4.439   5.690 -1.1090 -0.0335 -1.2975
16439SOL     OW51633   0.781   8.049   6.325 -0.5680  0.5560  0.1533
16439SOL    HW151634   0.711   8.114   6.321  0.4034  1.7828  1.5891
16439SOL    HW251635   0.845   8.079   6.261 -0.0701  1.1244  0.8921
16440SOL     OW51636   0.092   0.873   8.479 -0.1434  0.0037 -0.1624
16440SOL    HW151637   0.162   0.836   8.425  0.8019 -0.4043  1.2874
16440SOL    HW251638   0.101   0.968   8.468  1.4707  0.0243  0.9452
16441SOL     OW51639   3.999   5.859   5.009  0.2321  0.3645 -0.3633
16441SOL    HW151640   4.058   5.799   5.054 -0.2245 -0.7395 -1.2003
16441SOL    HW251641   4.044   5.944   5.013  1.2923 -0.2004  0.0827
16442SOL     OW51642   5.552   9.322   6.453 -0.1528  0.6253 -0.3634
16442SOL    HW151643   5.518   9.346   6.539  2.1867  0.2637  0.7586
16442SOL    HW251644   5.505   9.241   6.431 -1.0117  0.8864  0.4207
16443SOL     OW51645   1.717  10.008   7.662  0.4982  0.1029 -0.3327
16443SOL    HW151646   1.778  10.030   7.732  0.4007  0.8861 -0.4857
16443SOL    HW251647   1.724   9.913   7.653  0.5678 -0.0026  0.6846
16444SOL     OW51648   0.134   7.799   6.391  0.4192 -0.3831  0.0607
16444SOL    HW151649   0.046   7.794   6.353  0.1757  0.2932  0.5311
16444SOL    HW251650   0.149   7.892   6.406  1.1337 -0.5134  0.1870
16445SOL     OW51651   2.656   8.619   7.052 -0.1352 -0.2202 -0.0658
16445SOL    HW151652   2.730   8.663   7.094 -0.9543  1.2869 -0.1355
16445SOL    HW251653   2.582   8.632   7.112 -0.8924  0.3879 -1.0949
16446SOL     OW51654  10.417   3.944   5.194 -0.1183 -0.1080 -0.0701
16446SOL    HW151655  10.371   3.885   5.252 -0.7036  1.0868  0.7131
16446SOL    HW251656  10.381   4.031   5.213  0.7311  0.5195 -1.1564
16447SOL     OW51657   7.429   9.980   6.405  0.0713 -0.9282 -0.4771
16447SOL    HW151658   7.427   9.986   6.501  0.3134 -1.3501 -0.4426
16447SOL    HW251659   7.406  10.068   6.375 -1.6672 -1.1862 -0.0438
16448SOL     OW51660   5.003   9.694   1.168  0.0069  0.1656  0.9707
16448SOL    HW151661   4.940   9.699   1.241  0.8521 -0.6974  1.7897
16448SOL    HW251662   4.999   9.603   1.140  0.1743  0.3440  0.3666
16449SOL     OW51663   4.906   0.443   4.004 -0.0321 -0.3426  0.0042
16449SOL    HW151664   4.917   0.370   4.066  1.3437  0.5612  0.8698
16449SOL    HW251665   4.873   0.515   4.057 -0.9168 -0.1787 -0.7517
16450SOL     OW51666   6.549  10.528   1.264  0.4219 -0.0199 -0.2102
16450SOL    HW151667   6.590  10.496   1.184 -0.4833 -0.7562 -0.4078
16450SOL    HW251668   6.521  10.449   1.310 -0.3651  0.4314  0.1174
16451SOL     OW51669   3.772   1.217  10.393 -0.0704 -0.0267 -0.0415
16451SOL    HW151670   3.796   1.254  10.478  0.0550 -0.7096  0.2259
16451SOL    HW251671   3.846   1.162  10.369 -0.8290 -1.2092  0.2315
16452SOL     OW51672   6.875   0.171   8.654  0.1667  0.1988  0.6364
16452SOL    HW151673   6.930   0.112   8.704 -1.3837  0.7588  3.1451
16452SOL    HW251674   6.936   0.235   8.618  1.4335 -0.7373  1.0475
16453SOL     OW51675   2.676   2.767   0.058  0.3682 -0.1041  0.1206
16453SOL    HW151676   2.610   2.704   0.028 -0.1666  1.4874 -2.3153
16453SOL    HW251677   2.632   2.814   0.129  0.2252 -1.3992  0.9278
16454SOL     OW51678   0.952   9.994   2.764 -0.4345  0.4712 -0.0123
16454SOL    HW151679   1.035  10.021   2.725 -0.3593  0.6453  0.2704
16454SOL    HW251680   0.893   9.984   2.689 -0.8994  2.8733 -0.0661
16455SOL     OW51681   6.872   1.294   6.035  0.1920 -0.1897 -0.0055
16455SOL    HW151682   6.805   1.235   5.999 -0.2417  0.3515 -0.0956
16455SOL    HW251683   6.832   1.332   6.113 -0.2826  1.4308 -0.9845
16456SOL     OW51684   6.762   7.087   7.202 -0.1821 -0.2035  0.1826
16456SOL    HW151685   6.786   7.165   7.152 -0.0578  0.3648  1.0882
16456SOL    HW251686   6.803   7.014   7.156 -0.1533  0.2887 -0.5789
16457SOL     OW51687   4.714   2.018   1.238 -0.2142 -0.0174  0.3668
16457SOL    HW151688   4.658   1.943   1.259 -0.0289 -0.8997 -1.9562
16457SOL    HW251689   4.653   2.083   1.203 -0.2391  0.5497  1.4238
16458SOL     OW51690   4.689   8.710   5.691  0.2881  0.4350 -0.1052
16458SOL    HW151691   4.604   8.741   5.721  0.9811  2.3312  0.0440
16458SOL    HW251692   4.682   8.710   5.595 -0.0799 -0.0360 -0.0807
16459SOL     OW51693   2.575   6.546   3.341  0.0593  0.7106 -0.0075
16459SOL    HW151694   2.484   6.567   3.319  0.9091  4.5172 -0.6587
16459SOL    HW251695   2.571   6.507   3.428 -2.1853  1.0554  0.0946
16460SOL     OW51696   6.153   6.513   3.932 -0.1142 -0.0235  0.2680
16460SOL    HW151697   6.147   6.597   3.978  3.2677  0.2118  0.5268
16460SOL    HW251698   6.122   6.532   3.843  0.5946  1.5684  0.3190
16461SOL     OW51699  10.193   8.417   6.564  0.3845 -0.0132  0.2738
16461SOL    HW151700  10.231   8.456   6.643  0.8107  1.1694 -0.4900
16461SOL    HW251701  10.101   8.441   6.567  0.1239 -1.0281  1.0200
16462SOL     OW51702   5.767   2.756   0.295  0.3515 -0.1475  0.7376
16462SOL    HW151703   5.850   2.708   0.290  0.0429 -0.5830 -0.5448
16462SOL    HW251704   5.763   2.788   0.385  2.0313  0.1036  0.7446
16463SOL     OW51705   1.682   1.991   6.658 -0.1368  0.0295  0.6143
16463SOL    HW151706   1.597   1.949   6.644 -0.5811  0.5328  1.7249
16463SOL    HW251707   1.731   1.972   6.578 -1.2413 -0.3890  0.0113
16464SOL     OW51708   6.720   6.109   0.528 -0.0249  0.1349  0.0455
16464SOL    HW151709   6.678   6.029   0.559  0.3871 -0.7512 -1.5418
16464SOL    HW251710   6.785   6.130   0.594 -0.3836 -0.6434  0.6558
16465SOL     OW51711   9.369   2.419   2.348  0.4133  0.4162  0.1427
16465SOL    HW151712   9.419   2.397   2.427 -1.1971 -0.5277  0.9459
16465SOL    HW251713   9.323   2.499   2.372 -0.1131  0.1026  0.1910
16466SOL     OW51714   2.694   5.000   9.929 -0.5500  0.6757 -0.2237
16466SOL    HW151715   2.771   4.980   9.876  0.8836  0.3311  1.8650
16466SOL    HW251716   2.698   5.095   9.944 -0.7783  0.7243 -0.4575
16467SOL     OW51717   1.499   7.107   7.075  0.2992 -0.0080  0.0547
16467SOL    HW151718   1.445   7.037   7.038  1.1908 -0.8057  0.2433
16467SOL    HW251719   1.582   7.065   7.097  0.9813  1.1916 -0.1588
16468SOL     OW51720  10.549   9.033   3.953  0.6510  0.0883  0.7443
16468SOL    HW151721  10.468   8.982   3.947  0.5645  0.0432  1.9948
16468SOL    HW251722  10.562   9.068   3.865 -1.7103  1.5581  0.8836
16469SOL     OW51723   4.840   7.518   4.328 -0.2729  0.2461 -0.6680
16469SOL    HW151724   4.861   7.428   4.304  0.5760  0.5772 -1.2290
16469SOL    HW251725   4.747   7.528   4.309 -1.1647 -1.3841  2.1987
16470SOL     OW51726   4.307   6.515   2.308 -0.6314 -0.7843 -0.5324
16470SOL    HW151727   4.386   6.468   2.331 -0.5653 -0.7143 -0.6154
16470SOL    HW251728   4.285   6.484   2.220 -0.2462 -0.2188 -0.8402
16471SOL     OW51729   8.043   9.777   4.863  0.2254  0.0259  0.0031
16471SOL    HW151730   8.037   9.728   4.781 -2.5556 -1.1184  0.7838
16471SOL    HW251731   8.000   9.861   4.844  0.1336  0.0066  0.1271
16472SOL     OW51732   7.289   8.973   5.414 -0.0904  0.1560 -0.0067
16472SOL    HW151733   7.359   8.995   5.353  0.3384  0.6223  0.6260
16472SOL    HW251734   7.225   8.925   5.362  0.4274  0.2315 -0.7310
16473SOL     OW51735   6.341   3.673   1.144  0.1284 -0.0299 -0.0590
16473SOL    HW151736   6.344   3.735   1.070  2.4265  1.9162  1.5256
16473SOL    HW251737   6.270   3.613   1.121 -1.1412  2.1752 -2.5125
16474SOL     OW51738   4.017   5.429   6.501  0.4985  0.3242  0.1517
16474SOL    HW151739   4.090   5.381   6.541  0.4851  0.7654  0.7048
16474SOL    HW251740   4.039   5.521   6.514  0.9175  0.5096 -1.5910
16475SOL     OW51741   1.443   2.028   5.488 -0.1725 -0.2004 -0.8869
16475SOL    HW151742   1.506   1.955   5.491 -0.4523 -0.4221  0.0451
16475SOL    HW251743   1.358   1.985   5.472 -0.3036 -0.0569 -0.5785
16476SOL     OW51744   9.526   6.194   0.450 -0.2971  0.5184  0.2836
16476SOL    HW151745   9.589   6.123   0.449  0.9890  1.6212 -0.1706
16476SOL    HW251746   9.484   6.191   0.364  0.4887  0.9216 -0.1231
16477SOL     OW51747   6.217   1.379   2.293  0.0350 -0.5753  0.3510
16477SOL    HW151748   6.256   1.295   2.319  0.3510 -0.7998 -0.7885
16477SOL    HW251749   6.271   1.409   2.219  0.2244  0.8745  1.0388
16478SOL     OW51750   5.399   1.044   3.668 -0.1340 -0.1059  0.4755
16478SOL    HW151751   5.446   1.112   3.716  0.3022 -0.4034  0.4828
16478SOL    HW251752   5.436   0.962   3.701 -2.5722 -0.4996  2.5110
16479SOL     OW51753   8.471   0.120   5.916  0.4913 -0.3559  0.4130
16479SOL    HW151754   8.390   0.154   5.956  0.2410  0.4409 -0.7369
16479SOL    HW251755   8.443   0.046   5.863  0.7829 -1.2162  1.4217
16480SOL     OW51756   7.029   1.566   5.301 -0.5183 -0.0028 -0.7629
16480SOL    HW151757   6.989   1.558   5.214 -0.9305 -0.0356 -0.5756
16480SOL    HW251758   7.087   1.642   5.294 -0.3746 -0.1442 -1.1312
16481SOL     OW51759   2.738   0.535  10.333  0.3166  0.5564  0.3658
16481SOL    HW151760   2.659   0.487  10.359 -0.3927  1.2989 -0.3259
16481SOL    HW251761   2.791   0.540  10.412 -0.3722  0.1019  0.8646
16482SOL     OW51762   8.767   4.268   2.148  0.2692 -0.4081  0.2836
16482SOL    HW151763   8.832   4.265   2.219 -0.9908 -0.8262  1.4771
16482SOL    HW251764   8.816   4.298   2.072  2.2374 -2.1937  0.7277
16483SOL     OW51765   4.243   3.988   3.556  0.0750 -0.1400 -0.0351
16483SOL    HW151766   4.307   4.050   3.521 -0.0217  0.4101  0.7410
16483SOL    HW251767   4.179   3.978   3.485  0.4674  0.1014 -0.4313
16484SOL     OW51768   4.804   5.513   1.200 -0.2693  0.1886 -0.0027
16484SOL    HW151769   4.784   5.523   1.293  0.8774 -0.0029  0.2816
16484SOL    HW251770   4.838   5.599   1.174 -0.1498  0.1009 -0.1325
16485SOL     OW51771  10.578   9.958   2.656 -0.0415 -0.0899 -0.0790
16485SOL    HW151772  10.495   9.917   2.684  0.6439 -1.4627  0.0118
16485SOL    HW251773  10.646   9.899   2.688  1.0331  1.3288  0.3888
16486SOL     OW51774   3.305   1.572   3.525 -0.5881  0.0070 -0.5208
16486SOL    HW151775   3.238   1.527   3.577 -1.7413 -1.3834 -3.0040
16486SOL    HW251776   3.380   1.512   3.527 -0.6964 -0.1306 -0.6494
16487SOL     OW51777   5.775   9.608   3.451  0.3344  0.1546 -0.6263
16487SOL    HW151778   5.690   9.612   3.406  0.1310  0.3805 -0.2290
16487SOL    HW251779   5.766   9.537   3.514  0.0842  0.8275  0.1174
16488SOL     OW51780   5.282   0.955   8.876  0.2158  0.1687  0.2783
16488SOL    HW151781   5.210   0.925   8.821 -0.7561 -0.3706  1.7931
16488SOL    HW251782   5.244   0.963   8.963  1.5066  1.8021  0.7394
16489SOL     OW51783   4.218   9.014   4.285 -0.4628  0.3041  0.4348
16489SOL    HW151784   4.254   9.082   4.228  0.7378 -0.0969  0.6848
16489SOL    HW251785   4.279   9.010   4.359 -0.8544 -0.6086  0.7211
16490SOL     OW51786   4.323   1.227   2.601 -0.4057  0.1433 -0.5135
16490SOL    HW151787   4.363   1.280   2.533 -2.6040 -0.1209 -2.1509
16490SOL    HW251788   4.277   1.290   2.657  2.3086  0.4746  1.5312
16491SOL     OW51789   1.011   9.454   0.908 -0.6588  0.5467  0.0234
16491SOL    HW151790   0.943   9.432   0.844 -0.1412 -1.3110  0.0554
16491SOL    HW251791   0.994   9.398   0.983  2.2111 -1.8120 -0.8811
16492SOL     OW51792   3.024   3.223   1.536  0.8110 -0.6699 -0.3819
16492SOL    HW151793   3.009   3.225   1.442 -0.6865 -3.4486 -0.3071
16492SOL    HW251794   3.009   3.313   1.565 -1.2967 -0.2608 -2.4382
16493SOL     OW51795   7.687   0.138  10.212 -0.3487  0.2426  0.1798
16493SOL    HW151796   7.607   0.134  10.264 -0.8148  2.2437 -0.3065
16493SOL    HW251797   7.751   0.180  10.270  0.1714 -0.7283  0.3279
16494SOL     OW51798   0.037   0.138   5.260 -0.2145  0.2491 -0.2692
16494SOL    HW151799  -0.025   0.208   5.238 -0.4969  0.2626  0.5478
16494SOL    HW251800   0.120   0.184   5.277  0.1176  0.2053 -1.6576
16495SOL     OW51801   2.049  10.315   9.509  0.0651  0.4875 -0.2699
16495SOL    HW151802   1.967  10.354   9.540  0.4712  0.2839  1.1332
16495SOL    HW251803   2.105  10.390   9.490  0.5084  0.6522  1.4939
16496SOL     OW51804   6.265   9.267   5.628 -0.2964 -0.5116  0.1834
16496SOL    HW151805   6.253   9.325   5.553  1.3106 -0.1155  0.1934
16496SOL    HW251806   6.205   9.195   5.612 -0.7173  0.0669 -0.9722
16497SOL     OW51807   5.533   3.196   0.427 -0.3036 -0.1323  0.2788
16497SOL    HW151808   5.492   3.155   0.502 -1.6905 -2.4552 -1.5935
16497SOL    HW251809   5.609   3.141   0.407  0.0599  0.4595 -0.0082
16498SOL     OW51810   9.728   6.518   7.025  0.2011 -0.1532 -0.1311
16498SOL    HW151811   9.803   6.512   6.966  0.8402 -0.7064  0.6915
16498SOL    HW251812   9.704   6.610   7.026  1.5541  0.2156  0.3824
16499SOL     OW51813   8.817   4.695   2.749  0.3495  0.2035 -0.0645
16499SOL    HW151814   8.867   4.625   2.791 -0.0583  0.4940  0.9342
16499SOL    HW251815   8.749   4.650   2.700  1.3716 -0.1827 -1.1839
16500SOL     OW51816   5.868   4.442   5.916 -0.0680 -0.2165  0.3077
16500SOL    HW151817   5.927   4.474   5.848 -0.3786 -1.4432 -0.5676
16500SOL    HW251818   5.917   4.374   5.962 -0.9013 -1.5126 -0.6722
16501SOL     OW51819   2.471   1.974   3.711 -0.0852 -0.3943  0.4573
16501SOL    HW151820   2.408   1.914   3.751 -0.5529  0.9370  1.7817
16501SOL    HW251821   2.437   2.061   3.731  2.7641  0.4223  2.2442
16502SOL     OW51822   6.218   8.370   7.285 -0.0170  0.4534  0.4230
16502SOL    HW151823   6.174   8.320   7.216  0.1721  0.1013  0.5618
16502SOL    HW251824   6.269   8.436   7.237  1.6819 -1.0262  0.1253
16503SOL     OW51825   8.102   9.425   6.393 -0.2663  0.1683  0.1008
16503SOL    HW151826   8.192   9.392   6.391 -0.4399 -0.5377  1.8964
16503SOL    HW251827   8.105   9.497   6.456 -0.7719  0.8400 -0.6235
16504SOL     OW51828   2.313   6.547   9.011  0.6700 -0.6340 -0.0725
16504SOL    HW151829   2.232   6.554   8.961  1.4948 -0.5705 -1.4684
16504SOL    HW251830   2.319   6.628   9.060  0.8899  0.3038 -1.5787
16505SOL     OW51831   3.847   5.002   9.393 -0.6757 -0.0920 -0.8838
16505SOL    HW151832   3.780   4.980   9.457  2.1636 -0.6315  2.1592
16505SOL    HW251833   3.865   5.095   9.408 -0.1667 -0.1581 -1.0734
16506SOL     OW51834   7.003   7.233   1.600 -0.0635 -0.4326  0.0711
16506SOL    HW151835   7.058   7.163   1.565  0.5700  0.5565 -0.9738
16506SOL    HW251836   6.998   7.214   1.694  0.2002 -1.7913 -0.1656
16507SOL     OW51837   9.115   5.104   6.401  0.7641 -0.7904 -0.2073
16507SOL    HW151838   9.057   5.028   6.390  1.4892 -1.0206 -3.1024
16507SOL    HW251839   9.059   5.180   6.383 -0.0290 -0.4595  2.9414
16508SOL     OW51840   1.870   9.340   8.479  0.1558 -0.5907  0.1090
16508SOL    HW151841   1.906   9.323   8.566  0.6014  0.1006  0.0635
16508SOL    HW251842   1.945   9.335   8.420 -0.1910 -1.3594 -0.2827
16509SOL     OW51843   6.600   1.500   0.558 -0.0554 -0.5541 -0.1026
16509SOL    HW151844   6.648   1.477   0.637  0.0187 -1.7755 -0.4765
16509SOL    HW251845   6.576   1.415   0.520  1.2527 -0.0495 -2.1978
16510SOL     OW51846   2.585   9.560   8.717 -0.3282  0.4987  0.5622
16510SOL    HW151847   2.574   9.594   8.628  1.2227 -0.6488 -0.1156
16510SOL    HW251848   2.609   9.468   8.705  0.9287  0.5696  2.1247
16511SOL     OW51849  10.403   4.014   1.241 -1.1997  0.1261  0.1400
16511SOL    HW151850  10.450   4.098   1.235  1.0621 -0.9798  1.2618
16511SOL    HW251851  10.386   3.989   1.150  2.6700 -0.5783 -0.5313
16512SOL     OW51852   5.211   0.904   4.209  0.0751  0.5592 -0.1723
16512SOL    HW151853   5.180   0.814   4.211 -1.4725  0.9977 -1.5013
16512SOL    HW251854   5.302   0.898   4.180  0.8933 -0.6942  2.3756
16513SOL     OW51855   6.758   0.944   7.634  0.0907 -0.4264 -0.0353
16513SOL    HW151856   6.788   0.993   7.557 -0.7944  0.5303  0.1962
16513SOL    HW251857   6.663   0.939   7.623 -0.6379  3.0507  2.7476
16514SOL     OW51858   9.730   7.400   4.941 -0.1466  0.7220 -0.4239
16514SOL    HW151859   9.808   7.344   4.944  0.3472  1.4273  0.1376
16514SOL    HW251860   9.657   7.339   4.955  0.4341  0.2829  0.8837
16515SOL     OW51861   7.046   2.205   2.500 -0.2041 -0.6723  0.1559
16515SOL    HW151862   6.962   2.170   2.528 -1.2988 -0.0800 -2.2020
16515SOL    HW251863   7.051   2.185   2.407  3.3290 -2.6957  0.5930
16516SOL     OW51864   0.907   3.601   4.307 -0.2962  0.2765  0.1824
16516SOL    HW151865   0.868   3.569   4.389  1.5257  0.7905  1.3146
16516SOL    HW251866   0.832   3.613   4.248 -1.6820  0.0128  1.8006
16517SOL     OW51867   0.380   2.605   1.257  0.3487 -0.2526  0.0885
16517SOL    HW151868   0.292   2.568   1.271  0.3821 -0.7963 -0.9905
16517SOL    HW251869   0.390   2.606   1.162  0.9124  1.2629  0.1460
16518SOL     OW51870   3.265   8.945   6.280  0.5165  0.0295  0.5335
16518SOL    HW151871   3.172   8.961   6.265  0.0342 -0.9752  2.1741
16518SOL    HW251872   3.277   8.852   6.259  0.7548 -0.2714  1.8697
16519SOL     OW51873   4.336   9.597   4.539 -0.4274 -0.2552 -0.4463
16519SOL    HW151874   4.360   9.514   4.579  1.3912  0.6101  0.3807
16519SOL    HW251875   4.345   9.582   4.445  0.3076 -0.8685 -0.2825
16520SOL     OW51876   0.839   3.485   3.816 -0.1559  0.4075 -0.2895
16520SOL    HW151877   0.899   3.411   3.823  0.2860  0.7610 -0.3251
16520SOL    HW251878   0.760   3.456   3.862  0.2481  0.1565  0.2550
16521SOL     OW51879   5.440   8.231   6.101  0.6969  0.2427 -0.3377
16521SOL    HW151880   5.457   8.325   6.091 -0.3200  0.3935 -0.7837
16521SOL    HW251881   5.516   8.188   6.061  0.5707  0.8809 -1.2950
16522SOL     OW51882   0.539   6.959   4.837  0.2842 -0.2282 -0.0471
16522SOL    HW151883   0.628   6.929   4.852  1.3664  2.3604 -0.6464
16522SOL    HW251884   0.514   6.918   4.754  0.6225 -1.5533  0.4922
16523SOL     OW51885   7.585   5.569   2.638 -0.3317 -0.5602 -0.0046
16523SOL    HW151886   7.584   5.552   2.732 -0.6086  0.9111  0.2792
16523SOL    HW251887   7.660   5.628   2.625 -0.6756 -0.2507 -0.6020
16524SOL     OW51888   3.689   2.641   1.295  0.6380  0.1804  0.3990
16524SOL    HW151889   3.696   2.737   1.297 -0.1885  0.2638  0.0154
16524SOL    HW251890   3.679   2.621   1.202  1.2375 -0.3207  0.4385
16525SOL     OW51891   6.270   4.652   4.448 -0.2386 -0.1323 -0.1252
16525SOL    HW151892   6.217   4.729   4.427  2.3833  1.5035 -1.1420
16525SOL    HW251893   6.331   4.683   4.516  1.2120 -1.1387 -0.9263
16526SOL     OW51894   6.731   2.428   8.299  0.3810 -0.2465 -0.0836
16526SOL    HW151895   6.725   2.365   8.227 -0.3631 -0.3691  0.0764
16526SOL    HW251896   6.799   2.490   8.271  2.0713 -1.8189  0.3106
16527SOL     OW51897   1.196   7.889   8.158 -0.2942  0.0022 -0.2754
16527SOL    HW151898   1.135   7.899   8.232 -0.8462  0.0087 -0.7189
16527SOL    HW251899   1.212   7.978   8.128 -0.6973 -0.0425 -0.6475
16528SOL     OW51900   0.779   0.098   1.649 -0.2480 -0.1874 -0.1885
16528SOL    HW151901   0.858   0.056   1.615  0.2271 -0.1603  0.8415
16528SOL    HW251902   0.725   0.026   1.682 -0.1724 -0.1269  0.0720
16529SOL     OW51903   5.611   5.613   7.368 -0.8269  0.2961  0.6068
16529SOL    HW151904   5.582   5.587   7.280 -0.7480  2.1776 -0.0314
16529SOL    HW251905   5.530   5.625   7.417 -0.9714  1.1762  0.1725
16530SOL     OW51906   1.488   2.747   6.997  0.2665  0.5061  0.3353
16530SOL    HW151907   1.427   2.696   7.051  1.4708  0.4006  1.6585
16530SOL    HW251908   1.503   2.693   6.920 -2.2254  1.0766 -0.6455
16531SOL     OW51909   4.105   0.858   3.173  0.2623 -0.2962 -0.5442
16531SOL    HW151910   4.160   0.862   3.251 -0.1003 -0.8643 -0.2482
16531SOL    HW251911   4.064   0.944   3.167  0.0030 -0.3700  0.1128
16532SOL     OW51912   3.845   6.460   8.479 -0.0927 -0.3084  0.0777
16532SOL    HW151913   3.882   6.380   8.442  0.8071 -0.2240  0.7449
16532SOL    HW251914   3.801   6.432   8.559  0.5634 -0.0970  0.5218
16533SOL     OW51915   2.571   6.009  10.126 -0.3295  0.5426 -0.2086
16533SOL    HW151916   2.666   6.006  10.118 -0.3497 -0.6755 -0.2808
16533SOL    HW251917   2.539   5.950  10.058 -1.0307 -0.4587  0.9281
16534SOL     OW51918   5.262   7.237   7.577 -0.1252  0.4941  0.0003
16534SOL    HW151919   5.183   7.227   7.523 -0.4749 -0.5562  0.6771
16534SOL    HW251920   5.316   7.162   7.554 -0.6879 -0.4909  1.7684
16535SOL     OW51921   6.140   1.621   1.760 -0.3527 -0.0299 -0.2755
16535SOL    HW151922   6.120   1.546   1.816  3.1775 -0.0896  1.1353
16535SOL    HW251923   6.134   1.587   1.671 -3.3133 -0.6706  0.0529
16536SOL     OW51924   5.536   8.877   5.124 -0.9217 -0.3855  0.1965
16536SOL    HW151925   5.539   8.958   5.074 -1.1603  0.0817  0.9211
16536SOL    HW251926   5.616   8.831   5.099 -0.7926  0.0612 -0.2334
16537SOL     OW51927   8.573   3.556   1.918  0.4728 -0.2497  0.3383
16537SOL    HW151928   8.559   3.470   1.878  1.3351 -0.4858  0.5077
16537SOL    HW251929   8.635   3.599   1.858 -2.6573  1.7095 -1.7574
16538SOL     OW51930   0.817   5.145   1.072  0.1640 -0.4982 -0.1005
16538SOL    HW151931   0.762   5.135   0.994  0.2933  0.0020 -0.2560
16538SOL    HW251932   0.759   5.120   1.145 -0.5702  0.9094 -0.1702
16539SOL     OW51933   4.903   8.282   3.119 -0.1258  0.2588 -0.9420
16539SOL    HW151934   4.975   8.288   3.182  0.0674 -1.2156 -0.9786
16539SOL    HW251935   4.839   8.346   3.150  0.3686  0.2241  0.2225
16540SOL     OW51936   4.362   5.710   1.953  0.2597  0.2797 -0.1195
16540SOL    HW151937   4.268   5.692   1.952  0.7927 -3.7067 -3.0221
16540SOL    HW251938   4.368   5.804   1.969 -4.2003  0.7737 -0.0738
16541SOL     OW51939   9.534   5.893  10.081 -0.5455 -0.0892  0.2533
16541SOL    HW151940   9.545   5.823  10.016  0.0815  0.1276  0.1135
16541SOL    HW251941   9.442   5.888  10.107 -0.9461  0.1432 -1.0347
16542SOL     OW51942   6.411   6.907   1.283  0.7580  0.3745 -0.2214
16542SOL    HW151943   6.491   6.925   1.331 -0.3899  2.2535  1.1175
16542SOL    HW251944   6.341   6.940   1.339 -0.8364  0.3867 -2.0921
16543SOL     OW51945   7.629   0.739   3.569  0.5313  0.1098  0.3402
16543SOL    HW151946   7.640   0.685   3.648  0.4299  1.1661  1.1077
16543SOL    HW251947   7.699   0.711   3.510  0.9405 -0.3316  1.0215
16544SOL     OW51948   0.913   1.530   8.029  0.6677  0.9132  0.1319
16544SOL    HW151949   1.000   1.545   8.066  1.9427 -3.6176 -0.4887
16544SOL    HW251950   0.930   1.509   7.937 -1.0196 -0.3034  0.0610
16545SOL     OW51951   8.115   4.089   5.857  0.2566 -0.6111 -0.1183
16545SOL    HW151952   8.120   4.047   5.771  0.6315  1.6012 -1.2542
16545SOL    HW251953   8.172   4.166   5.849 -1.2610  0.7561  1.4200
16546SOL     OW51954   1.905   9.067   2.778 -0.2402 -0.9133  0.2182
16546SOL    HW151955   1.880   9.122   2.703 -0.3570 -2.2794 -0.7920
16546SOL    HW251956   1.998   9.086   2.791  0.0812 -1.4819 -1.0434
16547SOL     OW51957   1.166   5.825   4.734 -0.6002 -0.5201  0.5673
16547SOL    HW151958   1.162   5.878   4.655 -0.3690 -0.1650  0.7890
16547SOL    HW251959   1.130   5.740   4.709 -1.3170 -0.1419  0.3050
16548SOL     OW51960   3.249   3.247   7.220 -0.0938 -0.0508 -0.3489
16548SOL    HW151961   3.327   3.223   7.271 -1.6017 -2.2159  1.1075
16548SOL    HW251962   3.274   3.231   7.129  1.0407 -1.1136  0.1242
16549SOL     OW51963   2.272   7.485   0.017 -0.0665  0.8529  0.3177
16549SOL    HW151964   2.215   7.494  -0.059 -0.1318  2.7341  0.5321
16549SOL    HW251965   2.219   7.442   0.083  0.1114 -1.1582 -0.7807
16550SOL     OW51966   6.337   3.108   8.535 -0.0058 -0.0878  0.3588
16550SOL    HW151967   6.425   3.143   8.519  0.1069  0.7505  2.4654
16550SOL    HW251968   6.316   3.059   8.456  2.7859 -1.2268  0.2144
16551SOL     OW51969   0.682   2.722   3.248  0.2940  0.2294  0.5467
16551SOL    HW151970   0.655   2.794   3.191 -0.3610 -0.3917  0.0523
16551SOL    HW251971   0.724   2.659   3.189 -0.8343 -0.6493  0.6449
16552SOL     OW51972   4.088   3.821   5.014 -0.3128 -0.6093  0.3315
16552SOL    HW151973   4.062   3.806   5.104 -0.2322 -2.8616  0.0505
16552SOL    HW251974   4.182   3.800   5.012  0.5763  2.8435  0.3823
16553SOL     OW51975   5.452   1.976   5.583  0.0139 -0.6997 -0.2177
16553SOL    HW151976   5.396   2.053   5.579 -1.2883 -1.1781  4.0209
16553SOL    HW251977   5.498   1.974   5.499 -2.2228  2.8474 -1.6919
16554SOL     OW51978   0.223   4.920   3.437 -0.2839  0.6204  0.1300
16554SOL    HW151979   0.151   4.897   3.378 -0.7503 -3.9010  2.0036
16554SOL    HW251980   0.181   4.928   3.523  1.1698  0.0845  0.9114
16555SOL     OW51981   5.240   3.287   4.283 -0.0549  1.0330 -0.2017
16555SOL    HW151982   5.178   3.273   4.211  0.0348 -0.1412 -0.0668
16555SOL    HW251983   5.185   3.294   4.361 -0.0191 -2.6867  0.3410
16556SOL     OW51984   7.214   8.779   6.885 -0.3628 -0.3964 -0.3820
16556SOL    HW151985   7.277   8.717   6.847 -0.3449  0.1147 -1.2034
16556SOL    HW251986   7.250   8.865   6.864 -0.2288 -0.0897  1.0189
16557SOL     OW51987   8.639   0.805   2.244  0.2735 -0.0459  0.3324
16557SOL    HW151988   8.585   0.759   2.179  1.8192 -0.5233 -0.6596
16557SOL    HW251989   8.668   0.884   2.199  0.4813  0.1632  0.8306
16558SOL     OW51990   7.165   4.686   5.457  0.5311  0.3818 -0.1367
16558SOL    HW151991   7.153   4.625   5.384  0.5562  0.0157  0.1617
16558SOL    HW251992   7.096   4.751   5.445  0.0943 -0.0686 -0.0896
16559SOL     OW51993  10.151   4.661   0.282 -0.3195 -0.0009 -0.5758
16559SOL    HW151994  10.128   4.709   0.362  0.0365 -0.4755 -0.1825
16559SOL    HW251995  10.117   4.715   0.211  1.9230  1.9565 -0.2927
16560SOL     OW51996   8.440  10.520   8.113  0.1598  0.4002  0.3633
16560SOL    HW151997   8.509  10.565   8.064 -1.0490  1.4299 -0.4596
16560SOL    HW251998   8.443  10.559   8.200  0.4020  0.6660  0.2373
16561SOL     OW51999   0.769   0.375   0.424  1.1029  0.7856  0.6041
16561SOL    HW152000   0.790   0.367   0.517 -1.0873  0.8877  1.1736
16561SOL    HW252001   0.693   0.317   0.412  1.4303  0.6587 -1.1639
16562SOL     OW52002   6.623   6.330  10.234 -0.2135 -0.3190  0.0940
16562SOL    HW152003   6.562   6.388  10.280  1.4640  1.4808  0.2138
16562SOL    HW252004   6.654   6.270  10.302 -1.2708 -0.7611  0.1987
16563SOL     OW52005   5.918   7.031   6.219  0.6067  0.4034  0.1593
16563SOL    HW152006   5.943   6.940   6.232  0.5974  0.5885  1.7010
16563SOL    HW252007   5.956   7.055   6.135  1.2438 -0.8053  0.0826
16564SOL     OW52008   3.262   3.458   0.244 -0.2069 -0.5114 -0.1951
16564SOL    HW152009   3.353   3.432   0.254  0.2024  1.2114  0.8974
16564SOL    HW252010   3.212   3.387   0.285  0.8527  0.1643  2.5049
16565SOL     OW52011   7.156   3.787   7.422  0.4860  0.2611  0.0454
16565SOL    HW152012   7.136   3.716   7.484 -0.4248 -1.7074 -2.3389
16565SOL    HW252013   7.231   3.756   7.372  1.8900  2.2809  0.7563
16566SOL     OW52014   7.854   2.338   8.681  0.1660  0.3990 -0.1411
16566SOL    HW152015   7.892   2.289   8.608  1.7046  0.0900  0.8269
16566SOL    HW252016   7.787   2.280   8.717 -1.5611  1.0840 -2.0767
16567SOL     OW52017   8.704   9.010   3.910 -0.2815  0.1358  0.1371
16567SOL    HW152018   8.745   8.968   3.834 -0.0395  0.2844  0.1822
16567SOL    HW252019   8.690   9.100   3.882  1.4863  0.6897  0.8699
16568SOL     OW52020   9.416   5.611   9.295  0.3465  0.2111 -0.1269
16568SOL    HW152021   9.454   5.561   9.223  0.0036  0.8975 -0.8020
16568SOL    HW252022   9.361   5.677   9.252 -0.4124  0.1929  0.7827
16569SOL     OW52023  10.343   8.084   8.662 -0.2291  0.2049  0.3631
16569SOL    HW152024  10.355   8.061   8.570 -0.3970  0.1862  0.3459
16569SOL    HW252025  10.430   8.114   8.691 -0.4654  1.3706 -0.1167
16570SOL     OW52026   7.846   5.289  10.193 -0.1557 -0.0231  0.4789
16570SOL    HW152027   7.910   5.360  10.197  0.6029 -0.6156 -0.4895
16570SOL    HW252028   7.833   5.262  10.284 -2.2594  2.8532  1.1692
16571SOL     OW52029   4.422   3.684   6.106 -0.1825 -0.4930 -0.7029
16571SOL    HW152030   4.424   3.671   6.201 -1.8876 -0.5071 -0.6427
16571SOL    HW252031   4.504   3.645   6.075  1.0875  0.7385  0.8899
16572SOL     OW52032   5.596   5.361   1.965 -0.0751  0.5148  0.3608
16572SOL    HW152033   5.683   5.394   1.942  0.0473 -0.4565 -0.6275
16572SOL    HW252034   5.558   5.430   2.020  1.5551  0.6711  1.3539
16573SOL     OW52035   0.146   6.303   9.042  0.0254  0.7359 -0.1782
16573SOL    HW152036   0.146   6.214   9.005 -0.6420 -0.6669  2.8665
16573SOL    HW252037   0.238   6.325   9.051  0.2143 -0.0781 -0.0534
16574SOL     OW52038   5.150   3.095   9.974 -0.3984 -0.0784 -0.4669
16574SOL    HW152039   5.181   3.120  10.061  0.4025 -0.0376 -0.7595
16574SOL    HW252040   5.111   3.175   9.938 -3.6367 -0.7842  1.0264
16575SOL     OW52041   9.027   8.896   8.087 -0.5852 -0.3446 -0.6395
16575SOL    HW152042   9.043   8.849   8.004  0.7120 -1.2292  0.0695
16575SOL    HW252043   9.091   8.859   8.147 -1.5237  0.2812  0.7802
16576SOL     OW52044   8.227   7.675   0.059 -0.1259  0.1227  0.4068
16576SOL    HW152045   8.320   7.677   0.036 -0.3771 -0.9615 -0.8610
16576SOL    HW252046   8.199   7.587   0.034 -1.7531  0.8173 -0.3639
16577SOL     OW52047  10.354   7.359   9.370 -0.1106 -0.1071 -0.1346
16577SOL    HW152048  10.351   7.272   9.331  2.7456 -1.0047  1.3654
16577SOL    HW252049  10.409   7.349   9.448  0.0756  2.9767  0.2707
16578SOL     OW52050   9.938   2.966   8.551 -0.4977 -0.2588  0.2947
16578SOL    HW152051   9.909   2.879   8.580 -0.8961 -0.3973 -0.4894
16578SOL    HW252052  10.015   2.948   8.496 -1.7441 -0.3337 -1.5342
16579SOL     OW52053   8.004   6.961  10.124 -0.2689 -0.2104  0.5458
16579SOL    HW152054   8.030   6.869  10.124  0.2817 -0.0574  0.2481
16579SOL    HW252055   8.047   6.997  10.202  0.9570  0.1820 -0.2740
16580SOL     OW52056   6.190   6.446   7.223 -0.7026  0.6404 -0.3190
16580SOL    HW152057   6.173   6.540   7.231 -0.0982  0.9428 -2.2512
16580SOL    HW252058   6.249   6.427   7.296 -1.9207  1.4254  0.9476
16581SOL     OW52059   6.654   8.472   4.291  0.3625 -0.0247 -0.0543
16581SOL    HW152060   6.707   8.519   4.355  0.9106  0.3712 -0.7904
16581SOL    HW252061   6.598   8.540   4.253  0.5494 -0.1226 -0.5067
16582SOL     OW52062   3.461   9.408   5.563  0.5689  0.3184 -0.3003
16582SOL    HW152063   3.468   9.429   5.656  0.6806  0.2400 -0.2912
16582SOL    HW252064   3.369   9.423   5.542  0.0288 -1.7771  0.3396
16583SOL     OW52065   5.030   2.051   8.448  0.0205  0.2507 -0.8722
16583SOL    HW152066   5.010   2.005   8.367  0.1354 -2.4442  0.4939
16583SOL    HW252067   4.954   2.035   8.504  1.2786 -0.8519  0.6406
16584SOL     OW52068   7.749   4.745   8.508 -0.0866  0.2595  0.3257
16584SOL    HW152069   7.769   4.651   8.502  0.2984  0.3947 -0.7598
16584SOL    HW252070   7.687   4.760   8.436  1.2650  1.1853 -0.6844
16585SOL     OW52071   8.805   1.394   6.232  0.8499 -1.2057 -0.2530
16585SOL    HW152072   8.769   1.450   6.301  0.7578 -1.3553 -0.1819
16585SOL    HW252073   8.847   1.456   6.172 -0.0305 -0.9749 -0.6487
16586SOL     OW52074   4.441   8.543   8.568 -0.0575  0.3730 -0.1095
16586SOL    HW152075   4.491   8.616   8.533 -0.4435 -0.2219 -1.9956
16586SOL    HW252076   4.357   8.546   8.522  0.0942 -1.4967 -0.5895
16587SOL     OW52077   8.127   2.580   4.701 -0.0077 -0.1143 -0.1560
16587SOL    HW152078   8.100   2.530   4.778  1.8634 -1.3938 -0.2635
16587SOL    HW252079   8.110   2.521   4.627 -0.0135  0.3592 -0.5399
16588SOL     OW52080   7.526   6.014   8.731  0.2499  0.1799  0.3313
16588SOL    HW152081   7.439   5.977   8.720  0.9299 -1.9535  1.4886
16588SOL    HW252082   7.517   6.076   8.804  0.0218 -1.3547  1.6501
16589SOL     OW52083   6.618   8.605   7.994 -0.1188  0.4240  0.0385
16589SOL    HW152084   6.662   8.520   7.988 -1.5275 -0.2660 -1.3367
16589SOL    HW252085   6.655   8.657   7.923 -0.8038  0.1738 -0.5143
16590SOL     OW52086   6.252   9.000   0.661  0.1490  0.3030  0.3527
16590SOL    HW152087   6.200   9.069   0.703 -1.3137  0.6115 -1.7926
16590SOL    HW252088   6.310   9.047   0.602  0.4572 -0.2239  0.2314
16591SOL     OW52089   3.250   9.147   0.955 -0.5577  0.0777 -0.3906
16591SOL    HW152090   3.251   9.062   0.997  0.1928  0.7899  1.0962
16591SOL    HW252091   3.320   9.143   0.890 -0.0788 -0.2092  0.1456
16592SOL     OW52092   3.956   3.175   8.430 -0.2613 -0.0634 -0.2861
16592SOL    HW152093   3.936   3.146   8.341  1.6942 -2.2384 -0.1328
16592SOL    HW252094   3.994   3.262   8.419  0.0968 -0.3611 -1.6189
16593SOL     OW52095   9.614   1.391   3.750 -0.3414  0.5085  0.1594
16593SOL    HW152096   9.539   1.450   3.759 -0.2445  0.8949 -1.2840
16593SOL    HW252097   9.683   1.446   3.714  0.2695 -0.1171  0.3654
16594SOL     OW52098   4.141   5.278   4.042 -0.0949  0.0822 -0.3194
16594SOL    HW152099   4.193   5.243   3.970  0.1097 -0.9326  0.2940
16594SOL    HW252100   4.133   5.371   4.024  3.1661  0.5912  0.2943
16595SOL     OW52101   9.020   2.454   9.967 -0.1535  0.3017  0.4465
16595SOL    HW152102   9.051   2.478   9.879  1.7493 -0.8836  0.7467
16595SOL    HW252103   9.035   2.532  10.020  2.4484 -0.2029  0.5734
16596SOL     OW52104  10.280   6.316   6.021 -0.0946  0.2596  0.1301
16596SOL    HW152105  10.320   6.399   5.996  0.6290 -0.0486  0.2313
16596SOL    HW252106  10.213   6.340   6.084  0.4175  0.7390  0.5086
16597SOL     OW52107  10.223   9.089   6.202 -0.5668 -0.2941  0.0423
16597SOL    HW152108  10.200   9.089   6.294  0.2900 -1.5514  0.2685
16597SOL    HW252109  10.152   9.139   6.160  0.0567  2.0653  1.5906
16598SOL     OW52110   6.225   0.773   0.907  0.3367  0.8667 -0.3479
16598SOL    HW152111   6.220   0.852   0.961 -1.9732  0.6219 -0.1136
16598SOL    HW252112   6.190   0.703   0.962  0.0672  0.1596 -1.3770
16599SOL     OW52113   1.401   7.300   6.019 -0.8616 -0.3048 -0.8680
16599SOL    HW152114   1.402   7.396   6.017 -1.2888 -0.2961 -2.4534
16599SOL    HW252115   1.329   7.277   5.960 -1.2456 -1.6076  0.0704
16600SOL     OW52116   3.705   4.273   5.290 -0.0878  0.2391 -0.0480
16600SOL    HW152117   3.729   4.349   5.238  1.6423 -0.5978 -0.5367
16600SOL    HW252118   3.783   4.251   5.340 -0.5032 -1.2790 -0.0014
16601SOL     OW52119   6.927   3.699   3.461  0.2183 -0.5043  0.4085
16601SOL    HW152120   6.834   3.720   3.474  0.3268  0.6673 -0.5921
16601SOL    HW252121   6.928   3.604   3.446 -1.0443 -0.2604 -1.4920
16602SOL     OW52122   1.255   5.169   3.886  0.5732 -0.1339 -0.4460
16602SOL    HW152123   1.167   5.158   3.922  0.1632  1.7669 -0.7584
16602SOL    HW252124   1.308   5.196   3.960  1.4604 -3.2272  0.2110
16603SOL     OW52125   7.535   0.215   9.469 -0.4296 -0.0398 -0.1665
16603SOL    HW152126   7.518   0.129   9.433  0.8260 -0.3039 -0.1914
16603SOL    HW252127   7.456   0.266   9.450 -1.0301 -1.0699 -0.4785
16604SOL     OW52128   4.142   8.554   6.680  1.0175  0.3473 -0.9302
16604SOL    HW152129   4.057   8.597   6.678  0.8989  0.3415  1.2701
16604SOL    HW252130   4.196   8.603   6.617  0.1851  2.1524 -0.2993
16605SOL     OW52131   2.108   3.974   4.355  0.3864  0.2866  0.5669
16605SOL    HW152132   2.094   4.064   4.326  0.0575  0.1355  0.2621
16605SOL    HW252133   2.042   3.922   4.310  1.4300 -0.3191 -0.3351
16606SOL     OW52134   4.817   6.329   3.264 -0.3397  0.0094 -0.1818
16606SOL    HW152135   4.821   6.415   3.304 -0.5011 -0.1669  0.2172
16606SOL    HW252136   4.735   6.292   3.296  0.4038 -0.8514  0.7902
16607SOL     OW52137   1.949   1.959   1.867  0.4308 -0.2377  0.2445
16607SOL    HW152138   1.873   1.908   1.893 -1.0290  1.2037 -0.9783
16607SOL    HW252139   1.920   2.050   1.872  2.2122  0.3798  0.1350
16608SOL     OW52140   8.440   1.995   5.346  0.2948 -0.4873  0.1154
16608SOL    HW152141   8.404   1.912   5.378  0.2748 -0.3173  0.5475
16608SOL    HW252142   8.513   1.970   5.289  0.4979 -0.7921  0.5071
16609SOL     OW52143   1.655   8.929   8.212 -0.1978  0.3796 -0.1808
16609SOL    HW152144   1.562   8.909   8.221  0.0633 -0.4332  0.8790
16609SOL    HW252145   1.698   8.878   8.281  1.0683  0.5061 -0.8339
16610SOL     OW52146   0.243   2.918   6.789  0.2049  0.0747  0.0467
16610SOL    HW152147   0.203   3.001   6.764  2.4581  0.8081 -1.4209
16610SOL    HW252148   0.311   2.902   6.723 -0.1836 -3.0044  0.2239
16611SOL     OW52149  10.158   0.774   5.061 -0.9023 -0.7694  0.0601
16611SOL    HW152150  10.252   0.756   5.055 -0.7377 -0.3951  1.2315
16611SOL    HW252151  10.149   0.832   5.136 -2.3951 -3.5149  2.2167
16612SOL     OW52152   0.771   6.566   7.026 -0.1476  0.2485  0.2248
16612SOL    HW152153   0.706   6.507   7.063 -1.6917  0.0857 -2.4732
16612SOL    HW252154   0.782   6.635   7.091  0.4332 -2.0501  2.7056
16613SOL     OW52155   3.768   9.804   4.964 -0.4915 -0.1279  0.0275
16613SOL    HW152156   3.816   9.805   4.881  1.2584  0.0899  1.0144
16613SOL    HW252157   3.709   9.729   4.956  0.7968 -1.0958 -0.7814
16614SOL     OW52158   2.918   5.354   0.888  0.4430  0.1155  0.1908
16614SOL    HW152159   2.848   5.406   0.928  0.1498 -0.8250  0.9517
16614SOL    HW252160   2.931   5.281   0.949  1.6868 -0.0413 -0.2373
16615SOL     OW52161   0.508   4.579   2.221  0.5336  0.1389  0.5799
16615SOL    HW152162   0.418   4.607   2.234  0.8741 -0.0165  4.3203
16615SOL    HW252163   0.509   4.487   2.247  1.9481  0.5003  1.9706
16616SOL     OW52164   5.690   6.065   2.628  0.5336 -0.1695  0.3821
16616SOL    HW152165   5.654   6.025   2.548  1.4259  1.7515 -1.0522
16616SOL    HW252166   5.647   6.017   2.699 -1.0613 -1.2980 -1.2261
16617SOL     OW52167   7.666   3.096   6.711 -0.8454  0.1497  0.2431
16617SOL    HW152168   7.762   3.091   6.713 -0.8800 -0.5228  0.4509
16617SOL    HW252169   7.646   3.186   6.735 -0.2764  0.1950  0.5563
16618SOL     OW52170   3.015   6.773   9.596 -0.0679 -0.0412 -0.0656
16618SOL    HW152171   3.050   6.693   9.634 -0.7837 -0.9625 -1.2801
16618SOL    HW252172   2.985   6.825   9.671  2.3551  0.0928  0.9022
16619SOL     OW52173   7.759   8.251   7.669  0.7796  0.1389 -0.1767
16619SOL    HW152174   7.801   8.326   7.711 -0.6652  1.6795 -1.3669
16619SOL    HW252175   7.832   8.198   7.637  1.9259  2.3987 -1.6035
16620SOL     OW52176   5.363   2.671   8.714 -0.0081 -0.2425 -0.2797
16620SOL    HW152177   5.315   2.701   8.791  0.6058  0.1971 -0.0579
16620SOL    HW252178   5.314   2.596   8.682 -0.9886  0.3467 -0.2095
16621SOL     OW52179   8.444   7.693   8.726  0.0192 -0.0724 -0.0043
16621SOL    HW152180   8.532   7.663   8.749  0.4442 -2.0880 -3.6300
16621SOL    HW252181   8.457   7.783   8.695  0.8192 -0.3466 -0.5003
16622SOL     OW52182   9.496   5.670   8.242 -0.2951  0.1896  0.0728
16622SOL    HW152183   9.524   5.745   8.188  0.7813  0.8929  1.5447
16622SOL    HW252184   9.543   5.595   8.205 -2.0514 -0.0035 -1.9762
16623SOL     OW52185   5.764   9.604   6.668  0.0312 -0.2887 -0.3460
16623SOL    HW152186   5.737   9.580   6.580 -1.4367 -2.5817  0.6219
16623SOL    HW252187   5.798   9.693   6.660  0.4150 -0.6095 -3.2710
16624SOL     OW52188   2.703   0.025   8.622 -0.5135 -0.1005 -0.1652
16624SOL    HW152189   2.776   0.064   8.671  1.1400 -1.8626 -1.0503
16624SOL    HW252190   2.638   0.004   8.689 -0.1134  1.2816  0.7032
16625SOL     OW52191   3.943   8.329   5.338  0.1811 -0.1856  0.1416
16625SOL    HW152192   3.993   8.410   5.337  1.8991 -1.1870 -0.8794
16625SOL    HW252193   3.951   8.295   5.249  0.0025 -1.7390  0.6800
16626SOL     OW52194   5.362   5.420   2.789  0.1403  0.2369  0.5791
16626SOL    HW152195   5.446   5.378   2.811 -0.6223 -0.9105  1.4340
16626SOL    HW252196   5.373   5.511   2.818  0.6873 -0.1889  1.7925
16627SOL     OW52197   6.455   0.927   1.812 -0.1400 -0.1111 -0.7106
16627SOL    HW152198   6.371   0.971   1.795 -0.4454 -0.1813  0.5051
16627SOL    HW252199   6.432   0.854   1.870  0.7449 -0.2257 -0.4910
16628SOL     OW52200   3.188   7.276   7.962  0.0984 -0.2191  0.2016
16628SOL    HW152201   3.187   7.184   7.935 -0.3121  0.2661 -1.5861
16628SOL    HW252202   3.222   7.275   8.051  2.6062 -1.9058 -0.6585
16629SOL     OW52203   9.248   5.296   2.826 -0.6164  0.0602  0.2816
16629SOL    HW152204   9.207   5.241   2.759 -0.1102  0.2739 -0.2101
16629SOL    HW252205   9.265   5.379   2.782  0.1628  0.0407  0.5325
16630SOL     OW52206   5.098   6.076   8.665  0.2884 -0.6754  0.2602
16630SOL    HW152207   5.102   5.993   8.712 -1.1487 -0.1389  1.4155
16630SOL    HW252208   5.084   6.051   8.573  0.4057 -1.7145  0.5105
16631SOL     OW52209   7.946   7.815   5.104  0.1844  0.7063 -0.1576
16631SOL    HW152210   7.935   7.826   5.198 -0.9603 -0.8116 -0.0877
16631SOL    HW252211   8.026   7.762   5.095  0.0492  0.4837 -0.0298
16632SOL     OW52212   3.848   7.602   6.673  0.5367 -0.1576 -0.5810
16632SOL    HW152213   3.777   7.662   6.651  1.7600  0.7245 -2.3792
16632SOL    HW252214   3.925   7.658   6.683  1.1767 -1.1729  0.4551
16633SOL     OW52215   4.364   5.803   4.754 -0.3868 -0.2076  0.2830
16633SOL    HW152216   4.398   5.782   4.667 -0.1212 -0.2026  0.3834
16633SOL    HW252217   4.298   5.735   4.771  1.1598 -1.6096  1.0102
16634SOL     OW52218   0.806   2.691   4.966 -0.4392 -0.1127  0.2906
16634SOL    HW152219   0.764   2.674   5.050  0.5383  1.0326  1.0530
16634SOL    HW252220   0.898   2.709   4.988 -0.3051  0.8594 -0.9378
16635SOL     OW52221   4.929   3.643   3.538 -0.0083 -0.4441  0.0420
16635SOL    HW152222   4.970   3.714   3.489 -0.7303 -0.3602 -0.4520
16635SOL    HW252223   4.891   3.684   3.615  1.3430 -0.6121  0.8222
16636SOL     OW52224   9.366   3.761   7.168  0.5281 -0.2296  0.2180
16636SOL    HW152225   9.369   3.768   7.263  0.0801  1.0692  0.1522
16636SOL    HW252226   9.280   3.796   7.143  0.5733 -0.7020 -0.6548
16637SOL     OW52227   7.768   5.672  10.295 -0.2331 -0.7217  0.1886
16637SOL    HW152228   7.794   5.714  10.377 -0.6848 -0.0968  0.0192
16637SOL    HW252229   7.704   5.732  10.257 -0.5515 -1.3495 -0.2798
16638SOL     OW52230   2.037   4.775   9.004  0.3716  0.0223  0.4721
16638SOL    HW152231   2.102   4.735   9.062  1.3067  0.5308 -0.1846
16638SOL    HW252232   2.050   4.729   8.920 -0.9280 -0.6785  0.6353
16639SOL     OW52233   4.337   6.151   9.331  0.8976 -0.0101 -0.6408
16639SOL    HW152234   4.362   6.122   9.243  0.0004 -1.3053 -0.5010
16639SOL    HW252235   4.248   6.184   9.321  1.0647  0.5528 -0.3461
16640SOL     OW52236   9.398   9.677   8.112  0.1557  0.2493 -0.0262
16640SOL    HW152237   9.434   9.737   8.046 -0.7139  1.5487  0.6468
16640SOL    HW252238   9.442   9.594   8.094  0.8859  0.8909 -1.4308
16641SOL     OW52239   4.078   1.816   5.188  0.0296  0.2368  0.0756
16641SOL    HW152240   4.080   1.721   5.204  2.0773  0.5719  2.3702
16641SOL    HW252241   4.139   1.829   5.115 -0.7249 -0.2284 -0.6602
16642SOL     OW52242   7.645   8.551   8.952 -0.1689 -0.5032  0.2916
16642SOL    HW152243   7.666   8.560   8.859  0.5017  1.9341  0.5970
16642SOL    HW252244   7.673   8.463   8.975  1.0891 -0.6078 -1.4700
16643SOL     OW52245   2.343   2.197   5.147 -0.1691 -0.2476 -0.3054
16643SOL    HW152246   2.428   2.229   5.178  0.6709 -2.3914 -0.2184
16643SOL    HW252247   2.312   2.139   5.216 -1.4589  0.0513 -0.5991
16644SOL     OW52248   5.250   8.828   9.957 -0.1798 -0.1537  0.5008
16644SOL    HW152249   5.344   8.831   9.979  0.9229 -0.5137 -3.4424
16644SOL    HW252250   5.226   8.920   9.944  0.2750 -0.1815 -0.6440
16645SOL     OW52251   3.797   2.076   8.184 -0.0031 -0.3658 -0.5311
16645SOL    HW152252   3.739   2.118   8.247  0.3860 -1.0041  0.2865
16645SOL    HW252253   3.884   2.086   8.222  0.4710  0.7518 -1.8326
16646SOL     OW52254   6.248   1.344   8.266  0.3298  0.0285  0.1749
16646SOL    HW152255   6.202   1.392   8.197  1.7010  1.2377  0.0347
16646SOL    HW252256   6.186   1.339   8.338 -1.3660 -1.7929 -1.3049
16647SOL     OW52257   2.277   3.846   2.960 -0.2997 -0.4751 -0.2543
16647SOL    HW152258   2.200   3.857   2.905 -0.0737 -0.8765 -0.6558
16647SOL    HW252259   2.314   3.762   2.934  0.4722 -0.1247 -0.3191
16648SOL     OW52260   0.920   2.777   4.200  0.4288  0.0048 -0.2788
16648SOL    HW152261   0.982   2.750   4.267 -0.5381 -0.4102  0.4753
16648SOL    HW252262   0.834   2.766   4.241 -0.1181  1.5428 -0.9344
16649SOL     OW52263   2.158   5.169   3.573 -0.0696 -0.3391  0.0127
16649SOL    HW152264   2.209   5.219   3.509  0.1592 -0.9008 -0.2507
16649SOL    HW252265   2.126   5.093   3.524 -1.1768  0.0079  0.1667
16650SOL     OW52266   7.204   5.438   1.851  0.2096 -0.0182  0.1397
16650SOL    HW152267   7.229   5.353   1.814  1.4136 -0.2525  1.4281
16650SOL    HW252268   7.264   5.501   1.812  1.1036 -0.1817  1.2058
16651SOL     OW52269  10.283   6.855   1.247 -0.2003  0.1673  0.2755
16651SOL    HW152270  10.303   6.937   1.292 -0.1689  0.8011 -0.8538
16651SOL    HW252271  10.360   6.800   1.263 -0.8699 -0.2544  2.3425
16652SOL     OW52272   3.519   4.612   4.689 -0.3315  0.0694 -0.1893
16652SOL    HW152273   3.571   4.572   4.619 -0.2021 -0.5945  0.2773
16652SOL    HW252274   3.506   4.541   4.753  0.2634  0.8839  0.8623
16653SOL     OW52275   3.932   0.925   0.298 -0.1086 -0.1042 -0.5223
16653SOL    HW152276   3.865   0.857   0.305  0.9605 -1.1556 -0.3797
16653SOL    HW252277   3.926   0.972   0.381 -1.6255  0.7571 -1.0620
16654SOL     OW52278   6.838   2.185   6.145 -0.6240 -1.0263 -0.1928
16654SOL    HW152279   6.811   2.273   6.173  2.7372 -0.0688  0.3820
16654SOL    HW252280   6.857   2.195   6.052  1.5230 -0.5660  0.2375
16655SOL     OW52281   8.719   3.026   5.024  0.2368 -0.3869 -0.3535
16655SOL    HW152282   8.661   3.077   4.967  0.3445  0.0634 -0.0667
16655SOL    HW252283   8.708   2.936   4.995 -2.3543 -0.6462  1.1837
16656SOL     OW52284   3.338   2.193  10.456  0.1001 -0.2866  0.0455
16656SOL    HW152285   3.319   2.266  10.396 -2.4756 -1.5858 -0.8563
16656SOL    HW252286   3.392   2.133  10.404  1.1587  0.3679  0.3675
16657SOL     OW52287   4.066   8.618   2.622  0.5813 -0.2774  0.3658
16657SOL    HW152288   3.971   8.621   2.614  0.6236 -0.5349 -0.2495
16657SOL    HW252289   4.085   8.666   2.703  0.0990  1.7430 -0.6742
16658SOL     OW52290   3.290   5.161   6.682  0.3089 -0.1895 -0.0152
16658SOL    HW152291   3.219   5.113   6.725  0.5350 -0.8774 -0.3944
16658SOL    HW252292   3.369   5.114   6.706  0.3062 -1.7095 -2.5817
16659SOL     OW52293   5.964   5.306   5.696  0.0763  0.1118  0.0662
16659SOL    HW152294   6.023   5.334   5.627  0.8849 -0.8283  0.3611
16659SOL    HW252295   6.016   5.246   5.750 -1.8755 -3.2009 -1.3625
16660SOL     OW52296   4.742  10.462   4.776 -0.1091 -0.3498  0.3222
16660SOL    HW152297   4.763  10.504   4.693  1.4450 -0.7208  0.5040
16660SOL    HW252298   4.700  10.531   4.828  1.5738  0.7471  0.2864
16661SOL     OW52299   1.532   8.252   2.486 -0.2060  0.0711  0.5890
16661SOL    HW152300   1.495   8.173   2.526  0.1302 -0.2898  0.1985
16661SOL    HW252301   1.551   8.310   2.559 -1.1781  0.1044  0.8307
16662SOL     OW52302   3.961   6.904   2.610  0.8292 -0.0581 -0.0702
16662SOL    HW152303   4.006   6.824   2.582  0.1035 -0.2543 -0.6841
16662SOL    HW252304   4.031   6.970   2.616  1.1420 -0.2323 -1.4992
16663SOL     OW52305   1.146   5.235   7.209 -0.3769  0.0173  0.4529
16663SOL    HW152306   1.074   5.228   7.271 -0.7459 -0.4255 -0.0236
16663SOL    HW252307   1.108   5.273   7.130 -0.2559 -0.8570 -0.0468
16664SOL     OW52308   8.592   4.519   2.285 -0.3562 -0.2888  0.2037
16664SOL    HW152309   8.644   4.476   2.354 -1.2830 -1.0183  0.4667
16664SOL    HW252310   8.532   4.451   2.255 -2.5889  1.0566  1.3514
16665SOL     OW52311   5.832   4.576   9.225 -0.1171 -0.6889 -0.7201
16665SOL    HW152312   5.778   4.568   9.146 -1.6334 -0.4165  0.2535
16665SOL    HW252313   5.790   4.518   9.289  0.7657 -0.4858  0.0710
16666SOL     OW52314   7.477   9.757   0.289  0.3876 -0.2455 -0.0860
16666SOL    HW152315   7.421   9.729   0.361  1.0387  0.3628  0.6814
16666SOL    HW252316   7.440   9.841   0.261  0.1585 -0.4618 -0.4425
16667SOL     OW52317   1.864  10.525   8.539  0.7053  0.4658  0.3286
16667SOL    HW152318   1.844  10.618   8.541 -3.2559 -0.1704 -0.7945
16667SOL    HW252319   1.805  10.486   8.603  2.2503 -1.3463  0.7605
16668SOL     OW52320   0.696   6.913   1.894 -0.0428  0.3226  0.6343
16668SOL    HW152321   0.640   6.927   1.818 -0.6274  0.5732  1.1022
16668SOL    HW252322   0.636   6.888   1.964  0.4824  0.1386  1.0249
16669SOL     OW52323  10.479   2.025  10.034 -0.2404  0.6081  0.0102
16669SOL    HW152324  10.469   2.069  10.118 -2.4547 -0.0215  0.1357
16669SOL    HW252325  10.443   1.938  10.048 -1.6480  0.8383 -1.8615
16670SOL     OW52326   6.033   8.130   0.360 -0.1142 -0.3637  0.2670
16670SOL    HW152327   6.117   8.105   0.321 -0.1292  0.0804 -0.0608
16670SOL    HW252328   6.022   8.070   0.433 -0.1122 -1.2643 -0.4497
16671SOL     OW52329   3.354   2.448   1.643 -0.3356 -0.0140  0.3411
16671SOL    HW152330   3.440   2.455   1.600  0.1952  0.0682  1.3883
16671SOL    HW252331   3.367   2.489   1.729 -1.5090  0.2572  0.3971
16672SOL     OW52332   9.701  10.546   4.240 -0.2778  0.5758 -0.7299
16672SOL    HW152333   9.655  10.566   4.158  2.1862 -1.6393 -2.8368
16672SOL    HW252334   9.673  10.458   4.263  2.1556 -0.5599 -1.6985
16673SOL     OW52335   2.305   1.581   3.482 -0.2802  0.5903 -0.0428
16673SOL    HW152336   2.286   1.668   3.446  1.5438  1.0353 -0.0374
16673SOL    HW252337   2.380   1.595   3.540  1.2638 -1.2529 -1.4739
16674SOL     OW52338   5.526   4.906   0.047  0.1122  0.2182  0.4695
16674SOL    HW152339   5.490   4.983   0.091  0.1243  1.0865 -0.9785
16674SOL    HW252340   5.486   4.907  -0.039 -1.3735 -2.5065  1.0300
16675SOL     OW52341   1.806   3.568   0.186 -0.0369 -0.3191 -0.3681
16675SOL    HW152342   1.841   3.504   0.247  2.5027 -0.1373 -1.5464
16675SOL    HW252343   1.867   3.641   0.189 -0.8902  0.5124 -1.7256
16676SOL     OW52344   2.083   8.721   4.876  0.0177 -0.2606  0.2116
16676SOL    HW152345   2.144   8.683   4.812 -0.4711 -2.2968  0.8702
16676SOL    HW252346   1.996   8.701   4.842 -0.3747  2.6931 -0.7554
16677SOL     OW52347   5.095   4.279   1.616 -0.0637  0.4573  0.3261
16677SOL    HW152348   5.174   4.304   1.568 -0.1888 -1.0597 -0.7459
16677SOL    HW252349   5.024   4.292   1.553 -0.2412 -1.4229  0.0608
16678SOL     OW52350   4.571   1.567   6.386 -0.4995  0.1306  0.2949
16678SOL    HW152351   4.494   1.623   6.385 -1.0503 -0.6071 -0.6498
16678SOL    HW252352   4.595   1.561   6.479 -2.3934 -0.6942  0.7923
16679SOL     OW52353   9.153   7.278   1.737  0.0936 -0.2454 -0.4701
16679SOL    HW152354   9.236   7.247   1.773  0.6031 -0.9893 -2.2129
16679SOL    HW252355   9.177   7.324   1.656 -0.8411  2.8914  0.8594
16680SOL     OW52356   7.081  10.105   0.062 -0.6068  0.3352 -0.0834
16680SOL    HW152357   7.110  10.182   0.111  0.6593  0.7316 -1.3816
16680SOL    HW252358   7.023  10.059   0.123 -0.2519  1.5457  1.2458
16681SOL     OW52359   2.579   5.075  10.438 -0.2620  0.7284 -0.3102
16681SOL    HW152360   2.497   5.048  10.396 -0.0846 -2.1422  0.9975
16681SOL    HW252361   2.635   5.103  10.366 -1.7288  0.9834 -1.4107
16682SOL     OW52362   5.379   6.142   1.876 -0.0579  0.2542 -0.1280
16682SOL    HW152363   5.416   6.074   1.933 -0.6723 -1.0936 -1.2609
16682SOL    HW252364   5.367   6.217   1.933  0.7765 -0.5357  1.1522
16683SOL     OW52365   9.722   9.771   1.714 -0.1758 -0.1653  0.4801
16683SOL    HW152366   9.723   9.853   1.763 -1.6044 -0.6395  1.3524
16683SOL    HW252367   9.630   9.747   1.709  0.1046 -1.0551 -0.9246
16684SOL     OW52368   0.611   1.275   1.250  0.3489 -0.5275  0.0951
16684SOL    HW152369   0.557   1.288   1.172  1.0104 -0.7454 -0.4085
16684SOL    HW252370   0.553   1.232   1.313 -0.2165 -0.2576 -0.2348
16685SOL     OW52371   6.276   7.787   2.904  0.4812 -0.2447 -0.0517
16685SOL    HW152372   6.364   7.759   2.926  0.8088  1.4281  0.8590
16685SOL    HW252373   6.226   7.777   2.985  0.2261  0.3421 -0.1339
16686SOL     OW52374  10.330   8.448   6.951  0.3534  0.3925  0.0468
16686SOL    HW152375  10.286   8.487   7.026  0.1869 -1.3916  0.9300
16686SOL    HW252376  10.333   8.518   6.886 -1.2001  1.4258  1.0150
16687SOL     OW52377   5.513   1.614  10.466 -0.1119  0.4949 -0.6160
16687SOL    HW152378   5.574   1.600  10.539  0.9973 -0.1793 -1.6253
16687SOL    HW252379   5.484   1.704  10.476  1.0466  0.8323 -0.0829
16688SOL     OW52380   4.817   1.878   5.782  0.1807 -0.0756 -0.4096
16688SOL    HW152381   4.802   1.950   5.843 -0.5640  0.3945 -1.1355
16688SOL    HW252382   4.869   1.917   5.712 -1.5344  0.1854 -1.5910
16689SOL     OW52383   8.252   9.469   9.455 -0.1752 -0.3039 -0.0335
16689SOL    HW152384   8.340   9.435   9.475 -0.0487 -0.2199 -0.4492
16689SOL    HW252385   8.196   9.425   9.519  0.1064 -0.6859 -0.0393
16690SOL     OW52386   0.259   4.526   5.776  0.0273 -0.6409 -0.0325
16690SOL    HW152387   0.284   4.434   5.775  0.9266 -0.4062 -0.0528
16690SOL    HW252388   0.324   4.570   5.721 -1.5720 -0.2659 -1.7261
16691SOL     OW52389   8.523   0.775   7.018  0.0323  0.2731  0.0769
16691SOL    HW152390   8.551   0.792   7.108 -0.2826 -3.5957  1.0904
16691SOL    HW252391   8.428   0.762   7.025  0.0313 -0.2432 -0.7528
16692SOL     OW52392   8.677   4.823   4.643 -0.1033  0.2491  0.1400
16692SOL    HW152393   8.669   4.913   4.611 -1.1614  0.2736  0.4491
16692SOL    HW252394   8.606   4.813   4.706 -0.7667 -1.1953 -0.7914
16693SOL     OW52395   0.711   0.548   7.409  0.0346 -0.1751  0.1510
16693SOL    HW152396   0.786   0.602   7.381  1.5638 -2.6444 -0.8611
16693SOL    HW252397   0.635   0.603   7.392  1.5236  2.1532  0.4631
16694SOL     OW52398   8.991   0.218   5.062 -0.0759  0.4547 -0.2537
16694SOL    HW152399   8.984   0.128   5.094  1.2628  0.6170  0.6008
16694SOL    HW252400   9.041   0.264   5.130 -1.3345  2.0335 -0.3356
16695SOL     OW52401   7.894   9.145   8.057  0.2538  0.2137 -0.3989
16695SOL    HW152402   7.938   9.195   8.126 -0.4904  0.6921 -0.2502
16695SOL    HW252403   7.961   9.129   7.991  0.6634  0.8660 -0.1459
16696SOL     OW52404   5.033   1.072   2.075  0.4730 -0.5051 -0.1692
16696SOL    HW152405   4.974   0.999   2.056 -0.0129 -0.2610  0.3464
16696SOL    HW252406   5.010   1.138   2.010  1.9258 -1.3330 -1.5878
16697SOL     OW52407   9.387   3.695  10.379 -0.6293  0.6562  0.2498
16697SOL    HW152408   9.425   3.727  10.461  2.6732  1.6989 -1.4785
16697SOL    HW252409   9.339   3.769  10.343  1.0263  1.4548 -0.4090
16698SOL     OW52410   1.741   1.843   8.191  0.3913 -0.1830 -0.1770
16698SOL    HW152411   1.745   1.805   8.279 -0.9656 -1.5137 -0.6423
16698SOL    HW252412   1.648   1.852   8.173  0.6158 -0.7134 -1.7827
16699SOL     OW52413   1.482   0.011   7.897 -0.0586 -0.4139  0.2752
16699SOL    HW152414   1.474  -0.082   7.917  0.0901  0.0013  2.5438
16699SOL    HW252415   1.547   0.044   7.960 -0.2170  1.2457 -0.3702
16700SOL     OW52416   8.789   6.091   5.348  0.4267  0.6329 -0.2467
16700SOL    HW152417   8.779   6.137   5.431 -0.6697 -1.7881  1.0635
16700SOL    HW252418   8.855   6.023   5.366 -0.3925 -0.4312 -1.0777
16701SOL     OW52419   2.480   2.510   4.937 -0.3701 -0.1720 -0.3026
16701SOL    HW152420   2.509   2.528   5.026 -0.4645  0.4149 -0.3876
16701SOL    HW252421   2.556   2.530   4.882 -0.3157 -0.5182 -0.3573
16702SOL     OW52422   9.577   4.125   0.250  0.9360 -0.5556  0.6093
16702SOL    HW152423   9.571   4.191   0.182 -1.4466 -1.4898 -0.1837
16702SOL    HW252424   9.660   4.081   0.234  1.3556  0.5643 -0.4068
16703SOL     OW52425   8.652   6.935   8.596  0.5818 -0.1837  0.2537
16703SOL    HW152426   8.744   6.949   8.617  0.1411  0.3364  1.9392
16703SOL    HW252427   8.617   6.888   8.671 -0.7147  0.3600  0.0154
16704SOL     OW52428   9.393   7.486   3.323 -0.0904 -0.5668 -0.3741
16704SOL    HW152429   9.328   7.548   3.358  0.1616 -1.4200  1.7410
16704SOL    HW252430   9.344   7.434   3.259 -1.3130 -0.6945  0.6312
16705SOL     OW52431   9.261   0.004   7.532 -0.0282  0.5352 -0.5955
16705SOL    HW152432   9.315   0.058   7.589 -2.1078  0.5931  1.4661
16705SOL    HW252433   9.182  -0.012   7.583 -0.6120 -2.2289 -2.1818
16706SOL     OW52434   0.500   9.202   6.579 -0.4446 -0.1583 -0.1555
16706SOL    HW152435   0.556   9.125   6.584 -0.9694 -0.7170 -2.2085
16706SOL    HW252436   0.440   9.184   6.508 -2.5919  0.8890  1.2908
16707SOL     OW52437   5.414   9.822   2.377 -0.1670 -0.3104 -0.3510
16707SOL    HW152438   5.415   9.875   2.457 -1.9493  0.9083 -1.0748
16707SOL    HW252439   5.336   9.767   2.384  0.5555 -1.4013 -0.5436
16708SOL     OW52440   9.308   3.662   2.423 -0.1852 -0.1307  0.4674
16708SOL    HW152441   9.224   3.699   2.396 -0.0347  0.4513  0.7771
16708SOL    HW252442   9.292   3.567   2.429 -0.8162 -0.0225  0.5281
16709SOL     OW52443  10.144   4.713   5.603 -0.4646 -0.3745  1.0148
16709SOL    HW152444  10.174   4.635   5.650 -0.1990 -0.8406  0.0950
16709SOL    HW252445  10.187   4.786   5.647  0.9665 -0.9231  0.5629
16710SOL     OW52446   0.619   7.246   1.272 -0.4750  0.7332 -0.4859
16710SOL    HW152447   0.558   7.264   1.201 -2.6340 -2.7924  0.2428
16710SOL    HW252448   0.603   7.316   1.336 -2.0368  1.2104 -1.3372
16711SOL     OW52449   6.622   0.341   9.343 -0.4972  0.0136 -0.8277
16711SOL    HW152450   6.588   0.410   9.285  0.3147 -0.0207 -1.3651
16711SOL    HW252451   6.553   0.275   9.344 -0.7157  0.2260 -1.3921
16712SOL     OW52452   6.892   0.966   1.411  0.0548  0.0767 -0.1322
16712SOL    HW152453   6.797   0.973   1.412 -0.0506 -1.0103 -0.4849
16712SOL    HW252454   6.923   1.056   1.418 -0.9940  0.4406  0.0808
16713SOL     OW52455   2.905   1.138   0.514  0.6530 -0.3720 -0.8196
16713SOL    HW152456   2.840   1.194   0.556  0.3905 -1.4878  0.3240
16713SOL    HW252457   2.863   1.108   0.433  0.9359  1.3234 -1.6317
16714SOL     OW52458   3.606   5.269   5.304  0.1722  0.2394  0.3940
16714SOL    HW152459   3.649   5.349   5.276 -1.9259  1.7088  1.0713
16714SOL    HW252460   3.619   5.267   5.399 -1.6309  1.0596  0.7139
16715SOL     OW52461  10.385   6.080   6.509  0.0719  0.3085  0.3588
16715SOL    HW152462  10.312   6.122   6.554  0.0469  0.2670  0.3571
16715SOL    HW252463  10.345   6.016   6.451 -0.0037  1.6956 -1.1720
16716SOL     OW52464   6.014   1.453   1.959 -0.1083  0.1002 -0.2877
16716SOL    HW152465   6.083   1.442   2.023  0.7834  1.8355 -0.8843
16716SOL    HW252466   5.936   1.472   2.011  0.5585  1.2943  0.3256
16717SOL     OW52467   5.912   2.383   4.044  0.2903 -0.5838 -0.0307
16717SOL    HW152468   5.859   2.431   4.107  0.2421 -0.8262  0.1113
16717SOL    HW252469   5.851   2.357   3.976  0.2154 -0.9132  0.1616
16718SOL     OW52470   1.916   0.565   2.711 -0.3003  0.1745 -0.4537
16718SOL    HW152471   1.838   0.585   2.660 -0.2086 -1.6509 -1.3930
16718SOL    HW252472   1.984   0.550   2.646  0.4144  0.0804  0.2940
16719SOL     OW52473   4.507   0.663   2.187  0.5460  0.7376 -0.7088
16719SOL    HW152474   4.429   0.674   2.133 -0.2656  1.0855  0.5140
16719SOL    HW252475   4.476   0.623   2.268  1.4545  1.8161  0.2127
16720SOL     OW52476   4.586   6.079   1.405 -0.3389 -0.0939  0.6468
16720SOL    HW152477   4.496   6.049   1.414 -1.0095  1.5095 -0.3581
16720SOL    HW252478   4.608   6.064   1.313 -0.0211  0.6232  0.5953
16721SOL     OW52479   9.408   5.578   5.451  0.2760  0.1594 -0.1417
16721SOL    HW152480   9.438   5.669   5.444 -1.4374  0.6822 -1.2881
16721SOL    HW252481   9.325   5.584   5.498 -0.7229 -0.5735 -1.7352
16722SOL     OW52482   9.921   7.237   1.594  0.4699 -0.4160  0.1716
16722SOL    HW152483   9.831   7.205   1.590  0.3299 -0.0931  0.5880
16722SOL    HW252484   9.927   7.282   1.679  0.3186  1.6606 -0.8503
16723SOL     OW52485   0.240   9.165   1.784  0.2131  0.2622  0.7913
16723SOL    HW152486   0.149   9.168   1.812  0.2759  0.0936  1.0157
16723SOL    HW252487   0.277   9.088   1.829 -0.1583 -1.1378 -1.1780
16724SOL     OW52488   1.253   3.549   6.490  0.0954  0.0174  0.3674
16724SOL    HW152489   1.205   3.619   6.446 -0.1016  0.3716  1.1230
16724SOL    HW252490   1.296   3.593   6.564  0.5024 -0.5419  0.4709
16725SOL     OW52491   6.969   5.101   9.064 -0.0792 -0.3917  0.2845
16725SOL    HW152492   6.910   5.092   9.140 -0.2925 -1.9098 -0.0238
16725SOL    HW252493   6.950   5.188   9.029 -1.4650 -0.4661  0.7768
16726SOL     OW52494   0.460   7.325   1.036 -0.3339 -0.1158 -0.0248
16726SOL    HW152495   0.441   7.414   1.008  2.1955  0.5924  0.2400
16726SOL    HW252496   0.376   7.280   1.034 -1.3524  1.7182 -2.1273
16727SOL     OW52497   9.970   8.191   7.846 -0.0184  1.3932 -0.0425
16727SOL    HW152498  10.040   8.226   7.791 -0.3553  0.5608 -1.0326
16727SOL    HW252499   9.935   8.118   7.796  0.5108 -0.2396  1.8586
16728SOL     OW52500   9.007   1.306   4.459 -0.3373  0.3742 -0.3655
16728SOL    HW152501   9.041   1.217   4.457  2.6385  1.3991 -1.4078
16728SOL    HW252502   9.058   1.350   4.527 -1.3125  1.4610 -0.3033
16729SOL     OW52503   7.901   9.022   0.576  0.4492 -0.5597  0.5486
16729SOL    HW152504   7.916   9.110   0.541 -1.7467 -0.1871  0.4296
16729SOL    HW252505   7.931   9.027   0.666 -1.2000  0.8658  1.0719
16730SOL     OW52506   5.034   1.213   2.319 -0.6532 -0.3037  0.2315
16730SOL    HW152507   5.071   1.188   2.234 -0.3441 -1.6107  0.7338
16730SOL    HW252508   5.039   1.134   2.372 -0.2349  0.6661  1.6984
16731SOL     OW52509  10.462   3.165   4.486 -0.0609  0.1903 -0.5891
16731SOL    HW152510  10.534   3.225   4.507  0.5754 -0.5892 -0.5139
16731SOL    HW252511  10.456   3.168   4.390 -0.6644  1.0808 -0.5434
16732SOL     OW52512   8.911   1.742   7.732  0.1157 -0.0044 -0.5408
16732SOL    HW152513   8.908   1.836   7.715 -0.2504  0.2490  0.7687
16732SOL    HW252514   8.873   1.733   7.820  3.9643 -0.9037  1.2252
16733SOL     OW52515   0.985   0.051   3.851 -0.2152 -0.1314  0.1528
16733SOL    HW152516   1.010   0.137   3.887  2.1679 -0.2698 -0.9514
16733SOL    HW252517   0.933   0.072   3.774  0.3956  0.3530 -0.1428
16734SOL     OW52518   0.127   2.861   8.441  0.0547 -0.2856  0.0689
16734SOL    HW152519   0.177   2.817   8.372 -1.5540 -1.2325 -0.5295
16734SOL    HW252520   0.092   2.939   8.398 -0.8023 -0.7839 -0.1514
16735SOL     OW52521   5.889   4.130   3.699  0.8070  0.5450 -0.0315
16735SOL    HW152522   5.940   4.208   3.718  0.7733  0.9536 -1.4941
16735SOL    HW252523   5.800   4.164   3.682  1.0710  0.3661 -1.9302
16736SOL     OW52524   2.526   2.839   3.729  0.0983  0.5244 -0.4960
16736SOL    HW152525   2.617   2.821   3.752 -0.0481  0.0350 -0.2692
16736SOL    HW252526   2.494   2.897   3.798 -0.2355 -0.6521  0.3874
16737SOL     OW52527   1.042   8.450   7.165 -0.1019  0.2219  0.1905
16737SOL    HW152528   1.010   8.459   7.255 -1.7155 -0.9168 -0.2408
16737SOL    HW252529   0.996   8.374   7.130  0.9161  0.3104 -1.4375
16738SOL     OW52530   6.151   0.596   1.722 -0.4224 -0.4169 -0.4801
16738SOL    HW152531   6.192   0.587   1.636  2.0393  2.1217  0.2794
16738SOL    HW252532   6.222   0.581   1.785 -1.2356  1.4181  0.9908
16739SOL     OW52533   2.198   2.712   6.373  0.2483  0.0042 -0.3136
16739SOL    HW152534   2.115   2.705   6.419 -0.7574 -1.6197 -2.2083
16739SOL    HW252535   2.232   2.798   6.396 -1.4830  0.3034  1.2671
16740SOL     OW52536   0.804   5.567   5.619 -0.6438 -0.2571 -0.2690
16740SOL    HW152537   0.725   5.574   5.673  1.4367  2.0230  2.7534
16740SOL    HW252538   0.855   5.645   5.640  1.8705 -0.9349 -3.1602
16741SOL     OW52539  10.579   9.195   1.848  0.3070 -0.2588 -0.1815
16741SOL    HW152540  10.493   9.233   1.826  0.6749 -0.6827 -2.6359
16741SOL    HW252541  10.560   9.135   1.920 -0.9532  1.6388  1.1756
16742SOL     OW52542   9.332   4.869   2.826  0.5317 -0.2839  0.2873
16742SOL    HW152543   9.267   4.835   2.889  0.7756 -0.5768  0.3812
16742SOL    HW252544   9.378   4.938   2.874  0.7173 -0.5068  0.4294
16743SOL     OW52545   1.421   8.930   7.843 -0.1374  0.1384  0.4441
16743SOL    HW152546   1.349   8.970   7.795  0.2594  0.3879  0.0413
16743SOL    HW252547   1.391   8.842   7.866 -0.3660  0.0555 -0.1791
16744SOL     OW52548   8.899   9.568   8.648 -0.5243 -0.3625 -0.1600
16744SOL    HW152549   8.933   9.645   8.694  0.3084 -0.4419 -0.6281
16744SOL    HW252550   8.832   9.533   8.707 -2.1144  1.6356 -0.6272
16745SOL     OW52551   7.770   7.638   6.586 -0.2488 -0.0074  0.1743
16745SOL    HW152552   7.814   7.563   6.628  0.4641  0.5438  0.4410
16745SOL    HW252553   7.678   7.627   6.608 -0.1001 -0.6228  0.5120
16746SOL     OW52554   5.136   0.523   8.348  0.0506  0.1677  0.7041
16746SOL    HW152555   5.098   0.568   8.423 -1.1000  0.4123  0.0064
16746SOL    HW252556   5.152   0.592   8.284  1.8847  0.0952  1.0338
16747SOL     OW52557   7.616   2.516   1.794  0.4688  0.0170 -0.0947
16747SOL    HW152558   7.665   2.596   1.816  3.1071 -0.8180 -2.3037
16747SOL    HW252559   7.554   2.544   1.727  0.5167  0.4208  0.0271
16748SOL     OW52560   5.322  10.426   5.924  0.0234 -0.0174 -0.0395
16748SOL    HW152561   5.312  10.454   5.833 -2.0203  2.0068  0.6780
16748SOL    HW252562   5.273  10.345   5.930 -0.1433  0.0317 -0.6708
16749SOL     OW52563   2.461  10.328   5.040  0.1149 -0.0116  0.3892
16749SOL    HW152564   2.472  10.279   4.958 -0.2745 -0.9154  0.8653
16749SOL    HW252565   2.532  10.296   5.096  0.3624  0.5853  0.4215
16750SOL     OW52566   3.747  10.170   8.786 -1.0335  0.4693  0.1903
16750SOL    HW152567   3.705  10.128   8.712  0.3105 -0.4448 -0.0862
16750SOL    HW252568   3.678  10.179   8.852 -1.5921 -1.2682 -0.1214
16751SOL     OW52569   3.057   0.092   5.052 -0.1537 -0.1672  0.1564
16751SOL    HW152570   3.030   0.057   5.137 -1.3449 -0.3373 -0.2753
16751SOL    HW252571   3.105   0.020   5.010  1.1003  0.1606  0.9553
16752SOL     OW52572   6.223   4.351   5.595  0.6417  0.0667 -0.4834
16752SOL    HW152573   6.133   4.349   5.627  0.1985 -1.3156 -1.7141
16752SOL    HW252574   6.276   4.342   5.674 -0.2395  1.4700  0.3300
16753SOL     OW52575   4.259   6.658   7.831 -0.2270 -0.6655  0.6507
16753SOL    HW152576   4.351   6.658   7.856  0.2937  2.2070 -0.8025
16753SOL    HW252577   4.212   6.687   7.909  0.4119  0.1676  0.7423
16754SOL     OW52578   4.495   2.851   6.148  0.4641 -0.0656  0.5651
16754SOL    HW152579   4.422   2.806   6.189  0.3807 -0.1637  0.3123
16754SOL    HW252580   4.494   2.939   6.187 -1.1821  0.6953 -1.0193
16755SOL     OW52581   8.396   7.737   5.879 -0.2902 -0.0087  0.2306
16755SOL    HW152582   8.390   7.831   5.892 -1.1364  0.0282 -0.3651
16755SOL    HW252583   8.309   7.710   5.851  0.5784 -0.5298 -2.2707
16756SOL     OW52584   8.947   0.127   0.490  0.2358 -0.3622 -0.0194
16756SOL    HW152585   8.944   0.038   0.526 -1.1267  0.1263  1.1835
16756SOL    HW252586   8.974   0.182   0.564  0.7892  0.2759 -0.6774
16757SOL     OW52587   6.126   1.733   2.194  0.3149  0.2673  0.1966
16757SOL    HW152588   6.118   1.694   2.107 -0.1950  2.2711 -0.7087
16757SOL    HW252589   6.054   1.796   2.199  0.7269  0.6665  1.8288
16758SOL     OW52590   5.047   6.016   7.412 -0.2731 -0.5411 -0.1334
16758SOL    HW152591   4.991   5.999   7.336  0.0640  0.0727 -0.5255
16758SOL    HW252592   5.047   5.933   7.460 -0.2048 -1.0539 -0.9853
16759SOL     OW52593   1.838  10.198   7.489  0.2328  0.2586  0.3085
16759SOL    HW152594   1.868  10.267   7.548 -0.5198  0.6445  0.2620
16759SOL    HW252595   1.807  10.129   7.547  0.3121  0.2708  0.3653
16760SOL     OW52596   0.954   1.234   1.802  0.0269  0.0135 -0.1591
16760SOL    HW152597   1.006   1.225   1.882  0.0673  0.0682 -0.1793
16760SOL    HW252598   0.920   1.323   1.805 -0.3612 -0.1386  0.0325
16761SOL     OW52599  10.446   9.665   7.960 -0.2227 -0.2441 -0.4167
16761SOL    HW152600  10.411   9.733   8.018  0.4355 -1.1978  1.1736
16761SOL    HW252601  10.374   9.602   7.951 -0.7661  0.5397 -1.7295
16762SOL     OW52602   9.500   1.337   9.964  0.3195 -0.0627  0.8304
16762SOL    HW152603   9.442   1.413   9.969  0.4546  0.1121 -0.2357
16762SOL    HW252604   9.447   1.269   9.923  1.7591  1.0319 -3.2532
16763SOL     OW52605   0.015   8.143   4.658 -1.0532 -0.0250 -0.4331
16763SOL    HW152606  -0.074   8.120   4.630 -0.5817 -0.6744 -1.4531
16763SOL    HW252607   0.064   8.062   4.649 -0.3481  0.3287  0.1442
16764SOL     OW52608   2.472   3.263   3.508 -0.1952 -0.1296  0.0060
16764SOL    HW152609   2.469   3.339   3.450  3.9079  0.6450  0.5102
16764SOL    HW252610   2.400   3.278   3.570 -1.5879  1.5590 -1.8673
16765SOL     OW52611   2.982   7.706   3.569 -0.4685  0.6791  0.8823
16765SOL    HW152612   2.937   7.677   3.648 -1.5510 -0.8254 -0.2310
16765SOL    HW252613   2.914   7.708   3.501  0.9616 -1.3189 -0.7783
16766SOL     OW52614   4.235   6.857   5.399  0.5103 -0.0195 -0.6731
16766SOL    HW152615   4.181   6.931   5.427 -1.2794 -1.8952  1.1773
16766SOL    HW252616   4.191   6.823   5.321 -0.9392 -1.3586  0.6573
16767SOL     OW52617   0.514   2.894   8.366 -0.1311 -0.5080 -0.4709
16767SOL    HW152618   0.466   2.942   8.434  0.2846  2.0452 -1.8220
16767SOL    HW252619   0.448   2.873   8.300 -0.2771 -1.6743  0.0334
16768SOL     OW52620   7.534  10.052   2.157  0.2299  0.3624  0.5757
16768SOL    HW152621   7.470  10.061   2.227  0.2277  1.5746  0.4416
16768SOL    HW252622   7.598  10.121   2.174 -0.4102  1.4842 -1.2542
16769SOL     OW52623   7.968   0.641   5.707 -0.4052  0.0027 -0.3368
16769SOL    HW152624   7.990   0.611   5.619 -1.8307 -1.4804 -0.2340
16769SOL    HW252625   8.002   0.573   5.765  0.1732  0.7736  0.2528
16770SOL     OW52626   4.929   1.164  10.385 -0.3041 -0.2057  0.2002
16770SOL    HW152627   4.992   1.227  10.419  2.5566 -1.7106 -1.8638
16770SOL    HW252628   4.937   1.172  10.290 -1.2608 -2.3129 -0.1016
16771SOL     OW52629   7.410  10.535   6.649  0.0910 -0.0531 -0.0474
16771SOL    HW152630   7.360  10.513   6.727 -0.5979 -0.2079 -0.5234
16771SOL    HW252631   7.462  10.456   6.631 -0.5542 -0.4187 -0.3550
16772SOL     OW52632   5.200   3.841   6.631 -0.6733 -0.1974  0.0586
16772SOL    HW152633   5.169   3.848   6.541 -1.4957  1.3604  0.4235
16772SOL    HW252634   5.130   3.794   6.677  0.0864 -1.6622 -0.2506
16773SOL     OW52635   6.101   5.860   4.485  0.0642  0.0980 -0.0173
16773SOL    HW152636   6.111   5.807   4.405  1.1729  0.4368 -0.1169
16773SOL    HW252637   6.069   5.945   4.454  1.8035  0.6909 -0.2827
16774SOL     OW52638   8.645   4.211   8.462 -0.0391 -0.3166 -0.2858
16774SOL    HW152639   8.710   4.147   8.435  0.2438  0.4351 -1.4476
16774SOL    HW252640   8.561   4.170   8.442  0.0862 -0.9091  0.3511
16775SOL     OW52641   1.221   3.052   7.295 -0.5388 -0.0355  0.8256
16775SOL    HW152642   1.128   3.037   7.279 -0.0036  0.1893 -4.0942
16775SOL    HW252643   1.264   2.973   7.262  1.0832  0.8224  0.8070
16776SOL     OW52644   3.185   3.540   4.329  0.3960  0.1145 -0.3487
16776SOL    HW152645   3.160   3.540   4.236 -2.3099  0.4316  0.2762
16776SOL    HW252646   3.184   3.632   4.354  1.0159  0.0249  0.0220
16777SOL     OW52647   5.650   0.970   4.813  0.3853 -0.1765  0.5259
16777SOL    HW152648   5.627   0.990   4.904  0.1770  0.6370  0.3003
16777SOL    HW252649   5.566   0.952   4.771  0.5740 -1.7195  0.7522
16778SOL     OW52650   9.996   8.469   6.785 -0.3713 -0.0060  0.6106
16778SOL    HW152651   9.990   8.523   6.864  0.0113  0.9593 -0.0088
16778SOL    HW252652  10.060   8.401   6.807  1.6935  1.7346  0.3183
16779SOL     OW52653   1.271   4.647   9.596 -0.6423  0.7812  0.2494
16779SOL    HW152654   1.325   4.580   9.637 -0.2796  1.3460  0.7007
16779SOL    HW252655   1.195   4.655   9.654 -0.4612  1.0920  0.4431
16780SOL     OW52656   4.470  10.382   8.467 -0.4290  0.2406  0.2059
16780SOL    HW152657   4.393  10.348   8.512 -1.1690  2.2567  0.5726
16780SOL    HW252658   4.436  10.415   8.384  0.2782 -0.0482 -0.2050
16781SOL     OW52659   9.274   3.464   1.273  0.2813 -0.1010  0.3485
16781SOL    HW152660   9.220   3.516   1.332  1.6032 -0.6620  2.1748
16781SOL    HW252661   9.274   3.376   1.312  0.5404 -0.7008 -0.9601
16782SOL     OW52662   1.357   4.783   3.635 -0.3512  0.6943  0.0376
16782SOL    HW152663   1.342   4.760   3.544  0.0781 -1.3871  0.4454
16782SOL    HW252664   1.383   4.876   3.633 -0.2508  0.6534 -1.9372
16783SOL     OW52665   7.642   4.625   6.724  0.5119 -0.4493 -0.3758
16783SOL    HW152666   7.713   4.657   6.669 -1.3666  2.4832 -1.3767
16783SOL    HW252667   7.587   4.574   6.664 -0.4795  1.0448 -0.7869
16784SOL     OW52668   6.567   8.432   8.688  0.3222 -0.4549  0.6511
16784SOL    HW152669   6.608   8.445   8.602  0.5431 -0.1093  0.8065
16784SOL    HW252670   6.508   8.358   8.675  0.5758 -0.5966  0.2785
16785SOL     OW52671   2.944   0.063   8.428  0.0346 -0.4713 -0.0025
16785SOL    HW152672   2.954   0.077   8.522  1.8224  0.7864 -0.3153
16785SOL    HW252673   2.913   0.147   8.395  0.9922 -0.3780 -0.7084
16786SOL     OW52674   1.494   5.105   5.011 -0.2896  0.1284 -0.3477
16786SOL    HW152675   1.403   5.102   4.980 -1.1014  0.2511  1.8261
16786SOL    HW252676   1.490   5.070   5.100  1.6267  1.1140  0.1875
16787SOL     OW52677   3.847   5.813   0.509  0.1076  0.0017  0.2536
16787SOL    HW152678   3.822   5.779   0.423  0.2380 -0.0854  0.2507
16787SOL    HW252679   3.847   5.737   0.566 -0.4303  0.1330  0.4345
16788SOL     OW52680   2.141   3.271   6.336  0.2000  0.7248 -0.4206
16788SOL    HW152681   2.047   3.286   6.321 -0.0641 -0.6824 -0.2935
16788SOL    HW252682   2.157   3.184   6.302  1.3400  0.6984  0.1358
16789SOL     OW52683   1.443   4.726   4.349  0.3339 -0.4464  0.1409
16789SOL    HW152684   1.396   4.689   4.275  0.1166  2.1323 -1.1363
16789SOL    HW252685   1.400   4.810   4.365  1.6667 -0.0269  1.8828
16790SOL     OW52686   1.232   1.575   6.145  0.0583  0.3473  0.4587
16790SOL    HW152687   1.240   1.510   6.215  0.9056  0.5114  0.5181
16790SOL    HW252688   1.141   1.605   6.152 -0.2937 -0.6868  0.5500
16791SOL     OW52689   1.859   4.784   3.090 -0.3471 -0.0147 -0.0257
16791SOL    HW152690   1.803   4.715   3.126 -0.1503  0.1272  0.5744
16791SOL    HW252691   1.948   4.754   3.107 -0.2198 -0.3816 -1.2549
16792SOL     OW52692   1.013   6.967   9.723  0.0740  0.2237 -0.1841
16792SOL    HW152693   1.045   7.057   9.732 -3.0521  1.5804 -1.3822
16792SOL    HW252694   0.966   6.966   9.640 -0.6880 -2.3019  0.1896
16793SOL     OW52695   7.178   5.933  10.408  0.3725  0.0114 -0.4320
16793SOL    HW152696   7.205   5.895  10.492 -1.6756  0.6018  0.5640
16793SOL    HW252697   7.093   5.892  10.390  0.0899  1.0137 -1.4493
16794SOL     OW52698   5.577   1.623   8.181 -0.1227 -0.8797 -0.3335
16794SOL    HW152699   5.539   1.571   8.110 -0.7553  0.3205 -0.8983
16794SOL    HW252700   5.524   1.702   8.183  1.3141  0.1048 -0.0246
16795SOL     OW52701   4.403   2.715   0.723 -0.3905  0.1739 -0.3638
16795SOL    HW152702   4.465   2.662   0.674  1.5631  1.7227  0.2910
16795SOL    HW252703   4.338   2.741   0.659  0.2159 -0.6195 -1.3326
16796SOL     OW52704  10.482   6.968   3.668  0.0288 -0.0155  0.6438
16796SOL    HW152705  10.535   6.964   3.748  0.9575  0.6606  0.0750
16796SOL    HW252706  10.499   6.885   3.624  1.6663  0.6878 -0.1583
16797SOL     OW52707   8.740   5.134   1.081  0.1568  0.5132  0.1308
16797SOL    HW152708   8.681   5.193   1.127  0.0403  0.9606 -0.5825
16797SOL    HW252709   8.785   5.086   1.151 -1.9203 -0.7304  0.6919
16798SOL     OW52710   4.013   6.453   0.419  0.7291  0.4877  0.0937
16798SOL    HW152711   4.041   6.371   0.378  1.5298  1.6459 -1.8240
16798SOL    HW252712   4.087   6.512   0.407 -0.6288  2.1323 -0.5229
16799SOL     OW52713   4.808  10.037   9.359  0.0638  0.2802 -0.9468
16799SOL    HW152714   4.728   9.984   9.352 -0.8208  1.0721  1.8286
16799SOL    HW252715   4.804  10.096   9.284 -1.7554  0.0098 -1.1060
16800SOL     OW52716   3.734   0.201   5.678 -0.2795 -0.3346  0.0238
16800SOL    HW152717   3.642   0.173   5.672 -0.3059 -0.1566 -0.4275
16800SOL    HW252718   3.747   0.257   5.602  0.9146 -2.3928 -1.3944
16801SOL     OW52719   0.341   3.748   9.997  0.3529 -0.4308  0.0944
16801SOL    HW152720   0.259   3.733   9.950 -0.0078  1.1577  0.1587
16801SOL    HW252721   0.333   3.837  10.031  3.3082  0.9628 -2.4324
16802SOL     OW52722   2.002   0.259   9.619 -0.1106 -0.5482 -0.1185
16802SOL    HW152723   1.949   0.198   9.671  1.0399 -0.0680  1.6963
16802SOL    HW252724   1.971   0.346   9.644 -0.1573 -0.3176 -0.9442
16803SOL     OW52725   4.476   3.115   2.409  0.2945 -0.5674  0.6867
16803SOL    HW152726   4.566   3.096   2.437  0.9395 -0.2161 -1.0423
16803SOL    HW252727   4.422   3.054   2.461  1.7405 -2.5122  0.0402
16804SOL     OW52728   7.781   8.892   7.968 -0.1479 -0.0076  0.2418
16804SOL    HW152729   7.810   8.977   8.001  0.6342 -0.2845  0.2870
16804SOL    HW252730   7.851   8.864   7.908  0.2971 -1.2567  1.2989
16805SOL     OW52731   0.434   3.696   9.238  0.1629 -0.0649  0.4976
16805SOL    HW152732   0.437   3.668   9.330 -1.4771 -0.4397  0.4737
16805SOL    HW252733   0.362   3.646   9.201  0.8895 -0.0242 -1.0532
16806SOL     OW52734   9.082   2.673   9.666 -0.1372 -0.7934  0.6422
16806SOL    HW152735   9.074   2.737   9.737  1.2613  1.1564 -0.8490
16806SOL    HW252736   8.992   2.648   9.646 -0.6750  0.1360  1.7535
16807SOL     OW52737   8.418   5.302  10.374  0.2131  0.4611  0.3415
16807SOL    HW152738   8.507   5.313  10.406  0.3051  0.8170 -0.0318
16807SOL    HW252739   8.365   5.299  10.454  0.3765  1.9165  0.5356
16808SOL     OW52740   8.364   8.980   8.418  0.1523 -0.0820  0.1293
16808SOL    HW152741   8.450   9.020   8.403 -0.1816  1.0468  1.0577
16808SOL    HW252742   8.352   8.984   8.513 -1.2884  0.5705 -0.0476
16809SOL     OW52743   7.726   0.682   0.455  0.0063 -0.8195  0.2183
16809SOL    HW152744   7.693   0.732   0.380 -0.1267 -0.7952  0.2923
16809SOL    HW252745   7.791   0.623   0.417 -0.9008 -1.6356 -0.1045
16810SOL     OW52746  10.350   8.074   3.668 -0.3198  0.6561  1.0117
16810SOL    HW152747  10.320   8.165   3.659 -0.7213  0.4575  0.2422
16810SOL    HW252748  10.402   8.059   3.589 -0.4905  0.1290  1.0002
16811SOL     OW52749   8.609  10.089  10.548  0.0279  0.6186 -0.3654
16811SOL    HW152750   8.656  10.091  10.465  1.5941  1.9698  0.4739
16811SOL    HW252751   8.662  10.031  10.604 -2.0769 -1.9031 -0.8187
16812SOL     OW52752   4.654   1.494  10.031 -0.1747 -0.8420  0.2309
16812SOL    HW152753   4.623   1.492  10.121 -2.3368 -1.1847 -0.4584
16812SOL    HW252754   4.609   1.568   9.991  1.9770  0.3272 -0.2255
16813SOL     OW52755   7.512  10.556   9.388  0.9144 -0.5223 -0.0122
16813SOL    HW152756   7.581  10.505   9.345 -0.3907 -1.9521 -0.4718
16813SOL    HW252757   7.484  10.502   9.462 -2.5766 -2.0747 -2.2126
16814SOL     OW52758   2.064   9.757   0.504 -0.4260 -0.3262  0.2851
16814SOL    HW152759   2.066   9.749   0.599 -0.1757 -1.2004  0.2142
16814SOL    HW252760   2.055   9.851   0.488 -1.6341 -0.2619  1.1827
16815SOL     OW52761   3.350   9.611   1.558 -0.0270  0.0561  0.4088
16815SOL    HW152762   3.429   9.591   1.506 -0.4517 -0.3615 -0.0807
16815SOL    HW252763   3.277   9.586   1.502 -0.5046 -0.1941  1.1329
16816SOL     OW52764   3.182   0.591   4.359 -0.4910  0.0680 -0.3978
16816SOL    HW152765   3.183   0.504   4.397 -0.6947  1.7480  3.9538
16816SOL    HW252766   3.098   0.629   4.385 -0.1322  1.8165 -1.5509
16817SOL     OW52767   0.793   9.155   5.991  0.1279  0.1968 -0.2782
16817SOL    HW152768   0.819   9.211   5.918  0.5034  2.4326  1.4578
16817SOL    HW252769   0.860   9.086   5.994  2.9129  2.7291  0.7050
16818SOL     OW52770   9.753   4.205   0.474 -0.0653  0.3570 -0.0392
16818SOL    HW152771   9.688   4.199   0.404  0.2008  0.1961 -0.2738
16818SOL    HW252772   9.707   4.173   0.552 -0.2923  0.3240 -0.1837
16819SOL     OW52773   2.563   2.985   1.610 -0.5016  0.0311  0.2950
16819SOL    HW152774   2.515   3.004   1.529  0.3106  2.3068  0.2732
16819SOL    HW252775   2.652   3.013   1.592  0.0229 -0.7382  1.5411
16820SOL     OW52776   6.671   3.211   0.761  0.0705 -0.6481 -0.2516
16820SOL    HW152777   6.735   3.172   0.702  0.4800 -0.9169  0.3711
16820SOL    HW252778   6.648   3.142   0.822  0.0647 -0.2119  0.2493
16821SOL     OW52779   8.073   1.114   1.579  0.2964 -0.1450  0.2551
16821SOL    HW152780   8.107   1.167   1.651 -0.4121 -0.7770  1.0686
16821SOL    HW252781   7.985   1.089   1.607 -0.1260 -0.1172 -0.9829
16822SOL     OW52782   2.558   4.593   8.086  0.0692  0.1330 -0.0656
16822SOL    HW152783   2.558   4.503   8.054  0.1435 -0.2587  1.0042
16822SOL    HW252784   2.598   4.588   8.173 -1.1403  0.9906  0.5773
16823SOL     OW52785   4.762   9.647   5.638 -0.7550  0.1738 -0.5760
16823SOL    HW152786   4.680   9.657   5.590 -0.5151  0.7675 -0.8599
16823SOL    HW252787   4.750   9.699   5.717  0.2396  2.2952 -1.7443
16824SOL     OW52788   4.822   3.923  10.300  0.3950  0.5092  0.3705
16824SOL    HW152789   4.830   3.942  10.393  1.1747  1.3610  0.1410
16824SOL    HW252790   4.793   4.005  10.261  1.8361  0.7092 -0.3647
16825SOL     OW52791   0.985   1.127   4.312 -0.6085  0.2300  0.0654
16825SOL    HW152792   1.039   1.132   4.233 -0.7414  0.3595 -0.0159
16825SOL    HW252793   0.998   1.211   4.355  0.3061 -0.2252  0.7306
16826SOL     OW52794   4.494   3.384   3.676 -0.0985 -0.8058  0.6716
16826SOL    HW152795   4.428   3.362   3.741 -0.4310  0.4457  0.7876
16826SOL    HW252796   4.472   3.473   3.649  1.9692 -0.0578  1.2547
16827SOL     OW52797   8.870   2.385   3.702  0.0939  0.3229 -0.2441
16827SOL    HW152798   8.876   2.474   3.667  0.5753 -0.3284 -1.9540
16827SOL    HW252799   8.827   2.395   3.786 -0.5586  2.0979 -0.7359
16828SOL     OW52800   0.971   1.675   8.928 -0.4042  0.1612  0.5703
16828SOL    HW152801   0.925   1.752   8.892 -0.1052 -0.3057 -0.8705
16828SOL    HW252802   0.907   1.604   8.922  0.1819 -0.3027 -0.6764
16829SOL     OW52803   4.846   0.320   5.847  0.0269 -1.0344 -0.8405
16829SOL    HW152804   4.772   0.262   5.831 -0.3461 -1.3644  1.6810
16829SOL    HW252805   4.811   0.388   5.905  1.4676 -0.6946 -0.3194
16830SOL     OW52806   7.300   1.492   1.140 -0.1115  0.0569 -0.2514
16830SOL    HW152807   7.363   1.552   1.181  0.0523 -1.2117  1.4424
16830SOL    HW252808   7.319   1.498   1.046  0.7663  1.6530 -0.0098
16831SOL     OW52809   9.428   5.525   5.897 -0.6063 -0.0971  0.5829
16831SOL    HW152810   9.487   5.557   5.965 -0.0420 -1.7617  0.9166
16831SOL    HW252811   9.382   5.452   5.938 -0.4856 -0.9270 -0.6994
16832SOL     OW52812   6.973   5.156   5.234 -0.2724  0.2884  0.2749
16832SOL    HW152813   6.926   5.110   5.304 -1.1153 -0.8108 -0.9445
16832SOL    HW252814   7.048   5.099   5.215 -0.6528  0.0122 -0.4303
16833SOL     OW52815   8.927   4.219   2.370 -0.4875 -0.1236  0.5248
16833SOL    HW152816   8.916   4.300   2.419 -2.6382 -0.9240  1.5126
16833SOL    HW252817   8.953   4.154   2.435  0.3078 -0.4305 -0.0863
16834SOL     OW52818   9.174   1.782   7.816 -0.3795 -0.3265  0.1967
16834SOL    HW152819   9.171   1.813   7.906  0.0329  0.2817  0.0105
16834SOL    HW252820   9.082   1.773   7.790 -0.5768  1.8898 -0.0994
16835SOL     OW52821   2.205   1.537   7.464 -0.2406  0.1380  0.2568
16835SOL    HW152822   2.174   1.458   7.509 -1.3542  0.8335  0.7443
16835SOL    HW252823   2.299   1.522   7.454  0.1150 -0.0544  2.9093
16836SOL     OW52824   6.983   7.663   4.118  0.2948  0.5449  0.3876
16836SOL    HW152825   6.964   7.611   4.196 -0.5565 -0.2958 -0.3491
16836SOL    HW252826   6.898   7.683   4.080  0.6787 -1.5532 -1.8765
16837SOL     OW52827   3.514   9.697   8.230  0.0053  0.2092 -0.1889
16837SOL    HW152828   3.579   9.656   8.172 -2.4782  0.0512 -3.1176
16837SOL    HW252829   3.538   9.790   8.230  1.8466 -0.1994  1.1913
16838SOL     OW52830   2.829   8.370   3.548  0.2686 -0.5757 -0.7362
16838SOL    HW152831   2.746   8.355   3.593 -0.8700 -0.0082 -2.5298
16838SOL    HW252832   2.871   8.439   3.598 -1.2309  0.4661 -0.8454
16839SOL     OW52833   5.202   8.876   6.726 -0.3866  0.1862  0.0021
16839SOL    HW152834   5.297   8.871   6.716 -0.3802  1.6721 -1.0448
16839SOL    HW252835   5.167   8.814   6.662 -0.1347 -0.6365  0.6473
16840SOL     OW52836   2.258   2.809   2.774 -0.0284 -0.4104 -0.5075
16840SOL    HW152837   2.248   2.793   2.680  2.7999 -0.5573 -0.8540
16840SOL    HW252838   2.332   2.869   2.780  0.3436 -1.0166  1.6873
16841SOL     OW52839   8.546   2.804   4.196 -0.2953 -0.8114  0.1442
16841SOL    HW152840   8.491   2.876   4.164  1.1587  0.0905 -0.4392
16841SOL    HW252841   8.565   2.752   4.118  1.1026 -0.0981 -0.0269
16842SOL     OW52842   5.855   7.471   3.915 -0.0552  0.0601 -0.3590
16842SOL    HW152843   5.899   7.398   3.958  0.1667 -0.0340 -0.7373
16842SOL    HW252844   5.776   7.485   3.966 -0.0621 -0.3991 -0.2405
16843SOL     OW52845   9.007   5.473   3.890 -0.2996  0.0771 -0.6871
16843SOL    HW152846   9.058   5.402   3.929 -0.7602 -0.2371 -0.6580
16843SOL    HW252847   8.917   5.455   3.915 -0.4352  0.6035 -0.7888
16844SOL     OW52848   4.842   6.816   2.107  0.4569  0.3630  0.5355
16844SOL    HW152849   4.867   6.737   2.059  0.6376  0.2977  0.7356
16844SOL    HW252850   4.920   6.871   2.104  0.6711  0.1132  1.2566
16845SOL     OW52851   5.178   2.463   3.058  0.0918  0.2791  0.5073
16845SOL    HW152852   5.169   2.407   3.135 -0.0840 -0.5048 -0.0687
16845SOL    HW252853   5.243   2.529   3.084 -0.4119  0.3913  1.5219
16846SOL     OW52854   7.792   7.885   6.443  0.2530  0.3460 -0.0349
16846SOL    HW152855   7.855   7.842   6.385  1.1191  1.2096  0.2415
16846SOL    HW252856   7.780   7.824   6.516  0.8240  0.2027 -0.0576
16847SOL     OW52857   0.403   4.537   4.281  0.3064  0.5273 -0.1602
16847SOL    HW152858   0.414   4.615   4.335 -0.4847  0.5747 -0.0567
16847SOL    HW252859   0.459   4.471   4.323 -0.8292  0.3582  1.1651
16848SOL     OW52860   3.806   3.033   0.178 -0.0360 -0.6711  0.3969
16848SOL    HW152861   3.873   2.992   0.232  0.2774 -3.1995 -1.7087
16848SOL    HW252862   3.742   2.964   0.161 -0.9419  0.4591 -1.1263
16849SOL     OW52863   5.517   1.726   4.638  0.6187  0.4091  0.6044
16849SOL    HW152864   5.534   1.639   4.673 -2.3073 -0.6391 -0.2542
16849SOL    HW252865   5.526   1.716   4.543 -0.2314  0.8843  0.4624
16850SOL     OW52866  10.100   8.634   8.895  0.1775  0.2263  0.2386
16850SOL    HW152867  10.171   8.698   8.891  2.0952 -1.7056  1.1508
16850SOL    HW252868  10.089   8.616   8.988  0.5537 -1.6082 -0.0253
16851SOL     OW52869   5.937   7.397   1.611  0.1111  0.3648 -0.3062
16851SOL    HW152870   5.893   7.371   1.530 -2.8635  2.2272  0.5627
16851SOL    HW252871   5.908   7.333   1.676 -1.3202  1.5225  0.2422
16852SOL     OW52872   2.021   9.644   3.919 -0.3356  0.2479 -0.7507
16852SOL    HW152873   2.079   9.587   3.970  0.7978  1.9300 -0.0835
16852SOL    HW252874   2.025   9.608   3.831  0.0807 -0.9012 -0.2912
16853SOL     OW52875   9.238   9.749   4.086 -0.0093 -0.1617 -0.7134
16853SOL    HW152876   9.181   9.758   4.010  0.3453 -0.4542 -1.0156
16853SOL    HW252877   9.272   9.837   4.102  1.6406 -0.4738 -2.2409
16854SOL     OW52878   4.878   3.668   8.304 -0.2235  0.2880  0.3467
16854SOL    HW152879   4.824   3.593   8.279 -1.3129  0.5224  1.8001
16854SOL    HW252880   4.884   3.661   8.400  0.4448  1.5363  0.4119
16855SOL     OW52881   2.894   2.958   2.954 -0.6325 -0.5265 -0.1325
16855SOL    HW152882   2.920   3.032   3.009  0.5773 -1.5634  0.7792
16855SOL    HW252883   2.818   2.920   2.999 -1.8923  0.7120 -1.1442
16856SOL     OW52884   9.840   2.507   4.071  0.4743  0.4207  0.6646
16856SOL    HW152885   9.879   2.435   4.020 -0.0991  0.2531  0.4601
16856SOL    HW252886   9.889   2.507   4.153  1.6492  0.9138 -0.0101
16857SOL     OW52887   4.563   3.433   4.818  0.1475 -0.2587 -0.1771
16857SOL    HW152888   4.645   3.481   4.831 -0.0241 -0.4065  1.8612
16857SOL    HW252889   4.590   3.345   4.791  0.5691  0.1790 -1.2182
16858SOL     OW52890  10.320   8.202   4.645 -0.6144  0.3475 -0.1333
16858SOL    HW152891  10.285   8.121   4.682 -0.3322  1.2632  2.3113
16858SOL    HW252892  10.243   8.256   4.628 -0.8198 -0.4427 -1.9636
16859SOL     OW52893  10.326   8.844   7.010  0.0685  0.4356  0.1232
16859SOL    HW152894  10.398   8.785   7.033 -1.0695 -0.9860  0.1735
16859SOL    HW252895  10.252   8.813   7.062 -1.3678  0.0066 -2.0519
16860SOL     OW52896   2.758   2.659   7.531  0.7492 -0.4600  0.2354
16860SOL    HW152897   2.686   2.695   7.478 -0.6984 -0.3369  2.1691
16860SOL    HW252898   2.762   2.567   7.507  0.6356 -0.2429 -0.6388
16861SOL     OW52899   1.788   9.466   6.089 -0.0763 -0.2261  0.4783
16861SOL    HW152900   1.834   9.466   6.172  0.5613  2.0176  0.1961
16861SOL    HW252901   1.703   9.504   6.108 -0.0409  0.0125  0.1864
16862SOL     OW52902   1.275  10.029   3.907  0.1284 -0.2684 -0.3328
16862SOL    HW152903   1.245  10.021   3.817  2.1385  1.3021 -1.2252
16862SOL    HW252904   1.334   9.954   3.919  0.4141 -0.0833 -0.5742
16863SOL     OW52905  10.237   9.190   2.272 -0.5870  0.0951 -0.2447
16863SOL    HW152906  10.205   9.279   2.263  0.8152  0.5032 -1.5122
16863SOL    HW252907  10.217   9.147   2.189 -1.0875 -0.7323  0.2831
16864SOL     OW52908   0.714   6.737   1.379  0.0828 -0.5499 -0.0442
16864SOL    HW152909   0.678   6.652   1.403 -0.7928 -0.1324  0.1693
16864SOL    HW252910   0.650   6.774   1.319 -0.5670  0.7923  1.3944
16865SOL     OW52911   5.758   1.304   6.279 -0.2398  0.1488  0.8330
16865SOL    HW152912   5.704   1.365   6.229  0.2017 -1.1034 -1.2819
16865SOL    HW252913   5.716   1.299   6.365 -1.2456  2.0969  0.5035
16866SOL     OW52914   9.231   1.083   8.685  0.5551  0.2369  0.2563
16866SOL    HW152915   9.178   1.043   8.616  1.2230 -0.4502  0.1200
16866SOL    HW252916   9.170   1.135   8.736 -0.8056 -2.4237  1.5796
16867SOL     OW52917   2.436   3.319   5.933  0.2487  0.6318  0.3846
16867SOL    HW152918   2.407   3.403   5.896  1.6926 -0.0246 -2.5100
16867SOL    HW252919   2.370   3.256   5.905  1.6646  0.0231 -1.8175
16868SOL     OW52920   1.844   3.258   1.020  0.3722  0.0545 -0.4386
16868SOL    HW152921   1.903   3.292   1.087 -0.7963 -0.6471  1.0093
16868SOL    HW252922   1.894   3.262   0.939  1.9432  0.6502  0.5253
16869SOL     OW52923   7.905   4.830   5.065 -0.7264  0.0559 -0.2134
16869SOL    HW152924   7.848   4.867   4.998 -1.6036 -1.0456 -0.1018
16869SOL    HW252925   7.946   4.906   5.106  0.4046  0.7360 -2.4602
16870SOL     OW52926   0.712   0.127   5.070  0.2761 -0.2645 -0.2169
16870SOL    HW152927   0.752   0.042   5.051 -0.4298 -0.7521  0.3784
16870SOL    HW252928   0.620   0.116   5.044 -0.0117  0.0342  0.6389
16871SOL     OW52929   2.750   3.408  10.562  0.5337 -0.0942 -0.1067
16871SOL    HW152930   2.846   3.415  10.567  0.5083 -0.4675  1.2036
16871SOL    HW252931   2.718   3.484  10.611  0.1813 -0.7090  0.6399
16872SOL     OW52932   1.731   8.549   0.367 -0.3327  0.3377 -0.8977
16872SOL    HW152933   1.740   8.511   0.454  0.7923  3.9228  0.7497
16872SOL    HW252934   1.798   8.504   0.315  0.5915 -0.2948  0.7474
16873SOL     OW52935   5.422   6.450   5.599  0.3294  0.8559 -0.1862
16873SOL    HW152936   5.388   6.362   5.605 -0.8375  1.2156 -1.2299
16873SOL    HW252937   5.424   6.482   5.689 -0.7653  0.3219  0.0337
16874SOL     OW52938   9.391   2.689   0.498  0.8000  0.1692 -0.0151
16874SOL    HW152939   9.340   2.645   0.430  1.0917 -0.4332  0.1563
16874SOL    HW252940   9.333   2.691   0.574  0.7448  0.1931 -0.0576
16875SOL     OW52941  10.477  10.340   0.034  0.4071  0.2097 -0.5844
16875SOL    HW152942  10.569  10.367   0.036  0.1816  1.1380 -1.8480
16875SOL    HW252943  10.429  10.420   0.011 -0.7577 -0.1887  0.3882
16876SOL     OW52944   4.036   7.263   6.400 -0.5392 -0.0459  0.9022
16876SOL    HW152945   4.041   7.167   6.401 -1.8833 -0.1325  1.0625
16876SOL    HW252946   4.006   7.284   6.312 -0.2320  0.2276  0.8636
16877SOL     OW52947   4.044   3.352   3.788 -0.1440  0.0864  0.2877
16877SOL    HW152948   3.999   3.267   3.779 -0.9453  0.6666 -1.8194
16877SOL    HW252949   4.132   3.329   3.818  0.0899 -1.6340 -1.4874
16878SOL     OW52950   7.282   0.360   6.732 -0.2463 -0.3951 -0.1812
16878SOL    HW152951   7.240   0.310   6.802  0.5622 -0.6070  0.1628
16878SOL    HW252952   7.209   0.398   6.682 -0.8345 -0.6067  0.5072
16879SOL     OW52953  10.597   6.261   5.321 -0.3853  0.5466 -0.3626
16879SOL    HW152954  10.611   6.354   5.339  0.8441  0.5241 -1.1128
16879SOL    HW252955  10.535   6.259   5.249  0.4860  0.8248 -1.1319
16880SOL     OW52956   4.740   3.398   5.168 -0.6264 -0.6275 -0.0613
16880SOL    HW152957   4.652   3.427   5.191 -0.5454  0.2125 -0.7493
16880SOL    HW252958   4.782   3.475   5.131  1.4398 -0.1450  2.9806
16881SOL     OW52959   6.374   1.730   1.916  0.1039 -0.3559  0.0665
16881SOL    HW152960   6.348   1.704   1.828 -1.0277 -4.1530  1.2972
16881SOL    HW252961   6.463   1.762   1.907 -0.0888 -0.3631 -2.4890
16882SOL     OW52962   0.706   5.181   1.993  0.2700 -0.0932 -0.0369
16882SOL    HW152963   0.710   5.149   2.083  1.6537  0.6770  0.2052
16882SOL    HW252964   0.793   5.163   1.958 -0.1373 -0.0440 -1.1100
16883SOL     OW52965  10.223   0.782   0.943 -0.0064  0.3790  0.1505
16883SOL    HW152966  10.221   0.799   1.037 -0.3823 -1.6598  0.5687
16883SOL    HW252967  10.132   0.787   0.915  0.2546  2.4809 -0.4512
16884SOL     OW52968   3.075   7.039   5.113  0.0527 -0.2410 -0.5983
16884SOL    HW152969   3.123   7.122   5.113  0.9498 -0.7141  1.0455
16884SOL    HW252970   3.062   7.018   5.206 -1.3100 -1.2955 -0.9934
16885SOL     OW52971  10.242   5.118   7.259  0.1032 -0.1092 -0.0532
16885SOL    HW152972  10.265   5.061   7.333  0.9873 -2.2239 -1.8356
16885SOL    HW252973  10.178   5.068   7.209  0.6326  0.6081 -1.5021
16886SOL     OW52974   7.334   3.092   3.889 -0.0933  0.5173 -0.4888
16886SOL    HW152975   7.356   3.153   3.959  1.4816 -0.6168  0.0692
16886SOL    HW252976   7.272   3.031   3.928 -1.1247  1.3214 -0.8395
16887SOL     OW52977   1.767   6.170   5.257 -0.2418 -0.0666 -0.1817
16887SOL    HW152978   1.736   6.255   5.227 -0.0375 -0.4739 -1.6082
16887SOL    HW252979   1.708   6.107   5.216  1.0410 -0.7245 -1.0791
16888SOL     OW52980   0.487   9.071   0.514 -0.0723  0.3400 -0.6340
16888SOL    HW152981   0.491   9.163   0.484 -2.4120  0.6066 -0.3252
16888SOL    HW252982   0.510   9.020   0.436  1.0045  1.1594 -0.8819
16889SOL     OW52983   1.981   1.025  10.488  0.3503 -0.6920  0.6107
16889SOL    HW152984   1.969   0.954  10.550  2.0387 -2.0577 -0.5401
16889SOL    HW252985   1.948   0.990  10.405 -1.6427  1.0087  0.5791
16890SOL     OW52986   6.709   5.646   9.614 -0.3067  0.2287  0.0448
16890SOL    HW152987   6.803   5.626   9.614 -0.2115  0.6646 -0.2914
16890SOL    HW252988   6.690   5.667   9.706 -0.2269 -0.5300  0.2416
16891SOL     OW52989   0.653   1.347   1.657 -0.0671 -0.3161 -0.0126
16891SOL    HW152990   0.593   1.317   1.725  0.6268 -0.7101  0.4443
16891SOL    HW252991   0.670   1.270   1.603 -1.7638  0.3286 -1.5636
16892SOL     OW52992   5.443   0.409   5.176  0.1804  0.0638 -0.7311
16892SOL    HW152993   5.367   0.440   5.126 -0.2644 -1.2024 -0.8871
16892SOL    HW252994   5.405   0.374   5.256  0.7397  0.6215 -0.2191
16893SOL     OW52995   8.511  10.357   7.247  0.4913 -0.2337  0.3309
16893SOL    HW152996   8.504  10.435   7.302  1.6605  0.4120 -0.3866
16893SOL    HW252997   8.465  10.380   7.166 -0.0795 -0.6939  0.5161
16894SOL     OW52998   6.758   4.460   3.693 -0.0801 -0.7104 -0.1611
16894SOL    HW152999   6.688   4.455   3.758 -0.3367  0.6755 -0.2857
16894SOL    HW253000   6.753   4.550   3.660  0.2268 -1.2830 -1.8909
16895SOL     OW53001   6.478   2.493   5.926 -0.6267  0.1576 -0.2756
16895SOL    HW153002   6.560   2.512   5.881 -1.8947  1.3089 -2.2669
16895SOL    HW253003   6.454   2.405   5.895 -0.3201 -0.0395  0.0416
16896SOL     OW53004   6.486   0.753   2.071  0.2390 -0.5449  0.2325
16896SOL    HW153005   6.405   0.749   2.122 -0.2762 -1.1775 -0.6139
16896SOL    HW253006   6.506   0.662   2.050 -0.0914 -0.2492 -1.5108
16897SOL     OW53007   8.096   7.057   3.199 -0.3272  0.2256  0.1455
16897SOL    HW153008   8.174   7.110   3.186 -1.4029  1.9223  0.2277
16897SOL    HW253009   8.107   7.018   3.286  0.2547  0.7481  0.3115
16898SOL     OW53010   0.987   1.210   7.205  0.4871 -0.1371  0.5237
16898SOL    HW153011   0.933   1.189   7.129  1.5705  0.1881 -0.3682
16898SOL    HW253012   1.017   1.300   7.189  0.4863  0.0400  1.4868
16899SOL     OW53013   4.810   2.904   3.626 -0.4528 -0.4247 -0.0532
16899SOL    HW153014   4.842   2.994   3.633  1.4623 -1.0532 -0.0409
16899SOL    HW253015   4.763   2.902   3.542 -0.5272  0.5765 -0.0484
16900SOL     OW53016  10.038   0.264   6.256 -0.2864 -0.1643  0.2447
16900SOL    HW153017  10.095   0.245   6.331  1.2109 -1.3295 -1.1218
16900SOL    HW253018  10.024   0.180   6.214 -2.1318  0.2856 -0.1321
16901SOL     OW53019   8.591   4.420   2.010  0.3741 -0.0442  0.0080
16901SOL    HW153020   8.658   4.356   2.031 -0.3233 -1.1261 -0.9382
16901SOL    HW253021   8.605   4.491   2.072  0.4600 -1.5910  1.8455
16902SOL     OW53022   8.354   3.847   4.891  0.3409 -0.3589  0.1462
16902SOL    HW153023   8.409   3.904   4.944  0.3876  0.0229 -0.3140
16902SOL    HW253024   8.368   3.760   4.928 -0.2049  0.0053  1.2581
16903SOL     OW53025   2.154   6.316   0.021 -0.0371 -0.1820 -0.0546
16903SOL    HW153026   2.210   6.242  -0.001 -1.2568 -0.9011 -0.8667
16903SOL    HW253027   2.071   6.276   0.047 -0.5906  0.8878 -0.1076
16904SOL     OW53028   0.555   7.076   8.985  0.1383 -0.1430  0.3479
16904SOL    HW153029   0.558   7.075   9.080  1.0054 -1.6613  0.3366
16904SOL    HW253030   0.630   7.128   8.958  0.6603 -0.8155  0.4919
16905SOL     OW53031   1.344   3.773   6.189  0.4413  0.2667  0.4028
16905SOL    HW153032   1.409   3.753   6.256  1.1629  2.0518  0.2929
16905SOL    HW253033   1.310   3.860   6.213 -1.7357 -0.4850  0.3053
16906SOL     OW53034   8.818   7.187   0.618 -0.0938 -0.4532 -0.5393
16906SOL    HW153035   8.850   7.097   0.628  1.2690  0.2382  2.2748
16906SOL    HW253036   8.731   7.185   0.657  0.8000 -0.1557  1.5818
16907SOL     OW53037   1.062   3.398   3.950  0.1607 -0.0238  0.1590
16907SOL    HW153038   1.067   3.483   3.993  0.6004 -0.5020  1.1003
16907SOL    HW253039   1.124   3.403   3.878 -1.4658  1.2134 -1.2540
16908SOL     OW53040   9.401   7.202   7.091 -0.0201  0.1605 -0.5204
16908SOL    HW153041   9.308   7.194   7.112  0.2910  0.6407  1.1623
16908SOL    HW253042   9.403   7.264   7.018 -1.1847 -2.1090 -2.6615
16909SOL     OW53043   1.092   7.925   0.807  0.0300 -0.0150  0.2714
16909SOL    HW153044   1.142   7.981   0.747  1.2757 -0.8177  0.5230
16909SOL    HW253045   1.130   7.838   0.796  0.5757 -0.1225  2.5182
16910SOL     OW53046   5.833   4.748  10.550 -0.0496 -0.2027  0.3507
16910SOL    HW153047   5.738   4.757  10.549 -0.0487  0.2034 -2.1910
16910SOL    HW253048   5.853   4.712  10.637 -2.5502 -0.9369  0.6923
16911SOL     OW53049   9.696   4.702   7.807 -0.1071 -0.0588  0.0133
16911SOL    HW153050   9.663   4.751   7.883 -0.4314  0.8074 -0.6607
16911SOL    HW253051   9.758   4.639   7.844 -0.3257  0.2839  1.0057
16912SOL     OW53052   9.392   3.019   8.000  0.6829 -0.1669 -0.3006
16912SOL    HW153053   9.434   3.008   8.085  2.0081  1.1430 -0.7633
16912SOL    HW253054   9.350   3.105   8.004 -2.0707 -1.4161  0.1471
16913SOL     OW53055   2.207   0.626  10.339  0.1056  0.4425 -0.3401
16913SOL    HW153056   2.258   0.557  10.295 -0.0089 -0.0508  0.2784
16913SOL    HW253057   2.225   0.705  10.288  2.6696  0.6199  0.7063
16914SOL     OW53058   0.261   2.267   9.106  0.2509  0.5223  0.9081
16914SOL    HW153059   0.288   2.232   9.022  1.1503 -1.3856  1.9300
16914SOL    HW253060   0.314   2.346   9.117 -1.5166  2.1241 -1.2578
16915SOL     OW53061   1.495   9.284   4.038 -0.4345  0.2911  0.5929
16915SOL    HW153062   1.536   9.361   4.077 -0.7780 -0.7565  3.2345
16915SOL    HW253063   1.557   9.255   3.971  0.4305  1.9421  0.6379
16916SOL     OW53064   6.580   9.700   0.805 -0.1556 -0.6942 -0.3106
16916SOL    HW153065   6.674   9.709   0.797 -0.1216  0.4458  0.9610
16916SOL    HW253066   6.547   9.704   0.715  0.9923 -1.0092 -0.7533
16917SOL     OW53067   6.301   3.751   8.609  0.0903  0.4971  0.7467
16917SOL    HW153068   6.233   3.714   8.666  1.0589 -1.5730  0.6395
16917SOL    HW253069   6.270   3.733   8.521 -0.0385  1.1362  0.6551
16918SOL     OW53070   8.996   4.751   1.819  0.6943  0.1526 -0.0959
16918SOL    HW153071   9.001   4.821   1.754  3.3805 -0.7797 -1.0461
16918SOL    HW253072   8.939   4.685   1.780  0.0913  0.7592 -0.2618
16919SOL     OW53073   4.374   3.939   6.652  0.2881 -0.5699  0.3535
16919SOL    HW153074   4.311   3.968   6.586  0.4995  1.6344  1.0563
16919SOL    HW253075   4.374   3.843   6.645 -0.7272 -0.4584 -1.8566
16920SOL     OW53076   2.354   9.503   0.184  0.1865  0.7271 -0.4268
16920SOL    HW153077   2.270   9.490   0.228  1.5447 -0.4872  1.9886
16920SOL    HW253078   2.341   9.465   0.097 -1.7916  0.7238 -0.1885
16921SOL     OW53079   6.539   7.176   2.932 -0.0706 -0.4926  0.1259
16921SOL    HW153080   6.559   7.135   2.847 -1.2265 -0.1257 -0.3437
16921SOL    HW253081   6.459   7.226   2.916 -0.8437 -1.1700  1.6806
16922SOL     OW53082   1.052   3.306   9.902 -0.1896  0.0380 -0.3981
16922SOL    HW153083   1.076   3.224   9.860 -1.2502 -0.7351  0.4489
16922SOL    HW253084   1.134   3.342   9.936  0.5308  0.1853 -2.2167
16923SOL     OW53085   3.989   0.131   0.162 -0.2378  0.2229  0.6242
16923SOL    HW153086   3.963   0.130   0.070  0.6478 -1.7297  0.3419
16923SOL    HW253087   3.981   0.222   0.188 -0.9877  0.7436 -1.2419
16924SOL     OW53088   2.818   8.014   4.882 -0.9079 -0.2714  0.1794
16924SOL    HW153089   2.786   8.051   4.799  0.2545  0.0714 -0.1318
16924SOL    HW253090   2.874   7.941   4.856  0.5551  0.6725  0.5825
16925SOL     OW53091   5.736   1.372   3.660  0.2797 -1.0924  0.2748
16925SOL    HW153092   5.730   1.390   3.754 -0.2984  0.6606 -0.0754
16925SOL    HW253093   5.714   1.455   3.617 -0.3053 -2.0790 -1.4361
16926SOL     OW53094   1.847   0.006   1.740 -0.7706 -0.5820  0.4250
16926SOL    HW153095   1.778  -0.043   1.693 -0.7199 -1.1580  0.9367
16926SOL    HW253096   1.809   0.023   1.826 -1.2217  1.2760 -0.0981
16927SOL     OW53097   8.801   9.922   9.533 -0.0650  0.1253 -0.0705
16927SOL    HW153098   8.781   9.956   9.445 -2.2813 -0.3450  0.1911
16927SOL    HW253099   8.766   9.989   9.592 -2.0932 -1.2553  0.4256
16928SOL     OW53100   6.096   1.398   3.178  0.0896 -0.5402  0.5032
16928SOL    HW153101   6.123   1.397   3.270 -0.4039 -0.0946  0.6571
16928SOL    HW253102   6.178   1.394   3.129  0.8406  4.0479  0.9131
16929SOL     OW53103   8.997   1.747   5.498  0.1225  0.1766  0.2098
16929SOL    HW153104   9.027   1.721   5.585 -0.1001 -1.4147 -0.1558
16929SOL    HW253105   9.055   1.702   5.438  0.6793  1.7712 -0.5061
16930SOL     OW53106   4.509   4.029  10.311 -0.6765 -0.1841 -0.2575
16930SOL    HW153107   4.490   4.089  10.383  1.1949 -0.8607  0.8789
16930SOL    HW253108   4.594   4.058  10.278  1.3100 -3.2268  1.6324
16931SOL     OW53109   2.409   5.534   6.225  0.0812  0.5374 -0.5791
16931SOL    HW153110   2.426   5.620   6.186  0.3327  0.3008 -0.9890
16931SOL    HW253111   2.457   5.473   6.170  1.1118  0.2863  0.5514
16932SOL     OW53112   7.831   8.350   6.448  0.4094  0.0877  0.2657
16932SOL    HW153113   7.818   8.368   6.355 -0.8125  0.0756  0.4191
16932SOL    HW253114   7.854   8.257   6.452  1.7257  0.3873 -0.1174
16933SOL     OW53115   5.653   1.197   0.759 -0.2450 -0.2805 -0.2439
16933SOL    HW153116   5.619   1.167   0.844  0.8198  0.6587  0.5576
16933SOL    HW253117   5.577   1.196   0.701 -1.3670  0.5009  1.1376
16934SOL     OW53118   6.579   9.555  10.496 -0.0646  0.3855  0.5994
16934SOL    HW153119   6.553   9.506  10.417 -0.1476 -0.3519  1.0764
16934SOL    HW253120   6.522   9.631  10.496  0.0927  0.5103 -0.1798
16935SOL     OW53121   6.778   3.370   7.560 -0.2203 -0.0836  0.3699
16935SOL    HW153122   6.707   3.326   7.608 -0.5383 -0.1037 -0.1084
16935SOL    HW253123   6.784   3.457   7.600  0.3344 -0.5149  1.2428
16936SOL     OW53124   6.296   7.719   1.331 -0.3327 -0.0120 -0.0043
16936SOL    HW153125   6.287   7.814   1.336 -0.5849 -0.1071  2.7287
16936SOL    HW253126   6.268   7.688   1.417 -0.3296 -2.5818 -0.8631
16937SOL     OW53127   6.164   7.189   2.503  0.2467 -0.7559  0.0789
16937SOL    HW153128   6.133   7.262   2.448 -0.0606 -0.4160  0.6907
16937SOL    HW253129   6.258   7.204   2.511  0.1182 -0.1491  0.5806
16938SOL     OW53130  10.550   4.870   6.689  0.5322  0.5272  0.2898
16938SOL    HW153131  10.582   4.792   6.735  0.2834  0.4160  0.2765
16938SOL    HW253132  10.535   4.840   6.599 -0.0529  0.4596  0.4085
16939SOL     OW53133   8.626   9.538   7.062  0.4650 -0.8989 -0.1230
16939SOL    HW153134   8.631   9.589   6.981 -2.2169 -0.2220  0.0331
16939SOL    HW253135   8.665   9.595   7.129  1.7447 -1.0365 -0.7227
16940SOL     OW53136   0.228   6.786   3.437  0.1303  1.0053  0.3518
16940SOL    HW153137   0.211   6.811   3.346  2.3129  2.1808  0.2086
16940SOL    HW253138   0.315   6.745   3.435  0.4618  1.5618  1.9774
16941SOL     OW53139   6.401   8.776   5.890 -0.5789  0.6472  0.2744
16941SOL    HW153140   6.345   8.854   5.892  1.0458  2.0378 -2.6577
16941SOL    HW253141   6.370   8.726   5.815  1.7606  1.2698 -1.2075
16942SOL     OW53142   2.106   1.665   5.503  0.1687  0.2602  0.6871
16942SOL    HW153143   2.025   1.640   5.548  0.0241  0.2269  0.4092
16942SOL    HW253144   2.102   1.618   5.419  0.9848 -0.6057  1.1206
16943SOL     OW53145   4.618   5.500   9.135  0.4170  0.6521  0.2957
16943SOL    HW153146   4.525   5.520   9.122  0.5254  1.0166  0.0663
16943SOL    HW253147   4.619   5.408   9.162 -0.1961  1.2402  2.5877
16944SOL     OW53148  10.123   5.232   9.407 -0.5462  0.1380  0.2790
16944SOL    HW153149  10.070   5.261   9.481  0.6649  0.6652  0.9615
16944SOL    HW253150  10.173   5.309   9.381  0.0032 -0.3798 -0.2461
16945SOL     OW53151   2.935   4.273   0.920 -0.1271 -0.1626  0.3916
16945SOL    HW153152   2.926   4.306   1.009  1.0866 -0.9118  0.8094
16945SOL    HW253153   2.845   4.266   0.888 -0.5173  1.6281  0.9746
16946SOL     OW53154   3.079   7.100  10.179  0.5851 -0.4367  0.3144
16946SOL    HW153155   3.105   7.171  10.120 -1.0609  0.0456  0.1200
16946SOL    HW253156   2.987   7.084  10.157 -0.6302  0.8782  3.8254
16947SOL     OW53157   5.211   8.257   3.970 -0.2967 -0.2732  0.3443
16947SOL    HW153158   5.171   8.319   3.909  1.4465  0.8306  0.2574
16947SOL    HW253159   5.222   8.306   4.051 -0.5591 -1.0468  0.8592
16948SOL     OW53160   9.425   1.297   7.280 -0.0319 -0.8901  0.2755
16948SOL    HW153161   9.367   1.294   7.204 -2.2977 -1.9399  1.9411
16948SOL    HW253162   9.418   1.388   7.311 -0.1956 -0.8192  0.0381
16949SOL     OW53163   3.315   7.044   0.123 -0.1768  0.6661  0.6849
16949SOL    HW153164   3.301   7.103   0.197  0.3791  1.0015  0.5240
16949SOL    HW253165   3.258   6.969   0.142 -0.1734  0.8281  1.3597
16950SOL     OW53166   2.229   8.941   0.038  0.3258 -0.3574  0.0685
16950SOL    HW153167   2.273   8.915  -0.042 -1.0178 -1.4624 -0.3543
16950SOL    HW253168   2.172   8.867   0.059 -0.9484  0.7942  0.8391
16951SOL     OW53169   9.900   2.375   6.694  0.0968 -0.3766 -0.1563
16951SOL    HW153170   9.880   2.463   6.664  1.0189 -0.4635 -1.1175
16951SOL    HW253171   9.874   2.319   6.620  1.8053 -0.6603 -0.5941
16952SOL     OW53172   9.535   0.854   4.073  0.1293 -0.3791  0.0924
16952SOL    HW153173   9.451   0.836   4.116 -0.6008 -0.1299 -1.1960
16952SOL    HW253174   9.588   0.894   4.142 -0.8644 -0.3651  0.8798
16953SOL     OW53175   4.306   4.996   6.349  0.1771 -0.1371  0.0899
16953SOL    HW153176   4.294   5.062   6.418 -1.7365  1.2751 -1.4735
16953SOL    HW253177   4.362   5.039   6.284 -0.6494 -0.1947 -0.6911
16954SOL     OW53178   5.862   9.145   0.955  0.0095  0.8637 -0.2125
16954SOL    HW153179   5.865   9.237   0.985  0.1668  0.9614 -0.5309
16954SOL    HW253180   5.941   9.106   0.993  1.2909  1.4771 -2.0876
16955SOL     OW53181  10.322   4.557   1.340 -0.2354  1.2404  0.4695
16955SOL    HW153182  10.330   4.646   1.373 -0.4479  0.6950  2.1167
16955SOL    HW253183  10.279   4.509   1.412  0.6013 -0.3525 -0.0529
16956SOL     OW53184   8.930   6.751   7.290  0.2703  0.1586  0.0605
16956SOL    HW153185   8.871   6.749   7.366  0.5550 -1.4118  0.2646
16956SOL    HW253186   8.958   6.660   7.279  0.2724  0.3596 -1.9040
16957SOL     OW53187   2.753  10.336   8.528 -0.0144  0.0356  0.1719
16957SOL    HW153188   2.676  10.292   8.492  1.0202 -1.2205 -0.6058
16957SOL    HW253189   2.731  10.429   8.527 -1.2661 -0.2557 -0.6634
16958SOL     OW53190   7.340   4.491   2.818  0.0129  0.2743 -0.5831
16958SOL    HW153191   7.323   4.399   2.838  1.0205 -0.1172 -1.4318
16958SOL    HW253192   7.277   4.539   2.872  1.4786 -0.7479  2.2460
16959SOL     OW53193   1.910   1.464   6.913 -0.5211  0.0835  0.2027
16959SOL    HW153194   1.875   1.375   6.918  1.5051 -0.7951 -0.0665
16959SOL    HW253195   1.857   1.514   6.975 -2.0024 -1.1837  0.0231
16960SOL     OW53196   9.276   8.225   1.628  0.3459  0.2694 -0.4898
16960SOL    HW153197   9.313   8.225   1.716  0.4201 -2.1945 -0.4616
16960SOL    HW253198   9.352   8.226   1.570  0.4886 -2.2119 -0.4437
16961SOL     OW53199   4.298   0.687  10.441 -0.0721 -0.3669  0.1971
16961SOL    HW153200   4.204   0.679  10.454 -0.4046  0.5507 -1.3398
16961SOL    HW253201   4.307   0.743  10.363  1.7449  1.9307  1.8903
16962SOL     OW53202   1.136   7.264   8.393 -0.0143 -0.3112  0.2197
16962SOL    HW153203   1.213   7.208   8.383 -0.5442 -0.9208 -0.7750
16962SOL    HW253204   1.153   7.316   8.471  1.0938 -0.9201  0.4081
16963SOL     OW53205   1.953   3.270   3.000 -0.6039 -0.0936  0.4360
16963SOL    HW153206   1.973   3.355   2.961  0.5709 -0.1791  0.8242
16963SOL    HW253207   2.026   3.214   2.974 -1.2179 -0.9028  0.4395
16964SOL     OW53208   2.179   5.191   3.831 -0.2958 -0.4397 -0.5777
16964SOL    HW153209   2.086   5.173   3.846  0.1851 -1.5026  1.4802
16964SOL    HW253210   2.188   5.193   3.735 -2.1951 -1.6170 -0.8288
16965SOL     OW53211   0.855   7.784   0.842 -0.2605  0.1547  0.1010
16965SOL    HW153212   0.884   7.740   0.762 -0.6400 -0.1642  0.1315
16965SOL    HW253213   0.921   7.851   0.859 -0.1692  0.2088 -0.4660
16966SOL     OW53214   6.879   5.773   2.816  0.1727 -0.1822 -0.1685
16966SOL    HW153215   6.896   5.696   2.869  0.0885 -0.7876 -1.0072
16966SOL    HW253216   6.928   5.758   2.735 -1.3227 -0.2296 -1.1020
16967SOL     OW53217  10.019   9.448  10.352  0.6121  0.8044 -0.0777
16967SOL    HW153218   9.983   9.529  10.388 -1.3903 -0.5309  1.1130
16967SOL    HW253219  10.020   9.387  10.426  0.5057 -0.7423 -1.3037
16968SOL     OW53220   7.835   8.249   5.566  0.1534  0.2609  0.6687
16968SOL    HW153221   7.860   8.311   5.634  0.7983  0.1260  0.5650
16968SOL    HW253222   7.835   8.163   5.610 -2.1899  0.4600  1.1850
16969SOL     OW53223   5.682   7.456   1.044  0.6088 -0.2000 -0.2733
16969SOL    HW153224   5.655   7.399   1.117  0.0330  0.9738  0.4472
16969SOL    HW253225   5.604   7.466   0.991  0.2592  1.1713  0.4602
16970SOL     OW53226   9.093   3.687   6.642  0.8994 -0.4487  0.4407
16970SOL    HW153227   9.060   3.710   6.729  0.0397  1.3820 -0.3250
16970SOL    HW253228   9.025   3.716   6.581  1.6553 -1.3287 -0.8854
16971SOL     OW53229   5.978   3.494   1.927 -0.3839 -0.1858  0.2418
16971SOL    HW153230   5.952   3.554   1.997 -0.2591  1.3483 -0.9748
16971SOL    HW253231   6.061   3.457   1.957 -0.6360 -0.0257  1.1731
16972SOL     OW53232   8.945   5.779   4.406 -0.0776  0.2012 -0.0983
16972SOL    HW153233   8.951   5.870   4.380  0.3933  0.3490  0.4834
16972SOL    HW253234   8.988   5.776   4.492  0.6305 -0.7009 -0.4624
16973SOL     OW53235   0.340   9.772   4.286  0.4305  0.3173  0.6707
16973SOL    HW153236   0.285   9.699   4.257 -0.1737  1.5214 -1.3768
16973SOL    HW253237   0.408   9.730   4.340  1.3580 -2.0905 -2.1019
16974SOL     OW53238   6.016   5.960   7.826 -0.2981 -0.2543 -0.0608
16974SOL    HW153239   5.998   6.041   7.777  1.4920 -1.9097 -3.8639
16974SOL    HW253240   6.109   5.964   7.846 -0.1501 -1.4071 -0.4427
16975SOL     OW53241   8.552   7.415   8.454  0.6008 -0.5050  0.3808
16975SOL    HW153242   8.616   7.344   8.457  0.4614 -0.6114  1.3394
16975SOL    HW253243   8.604   7.494   8.445  0.8301 -0.6384  0.5369
16976SOL     OW53244   2.177   4.921   0.154 -0.3866 -0.4732  0.8107
16976SOL    HW153245   2.187   5.000   0.208 -0.3570  1.1854 -1.4871
16976SOL    HW253246   2.082   4.910   0.145 -0.6100  2.5899 -3.1461
16977SOL     OW53247   8.118   2.635   7.264 -0.2583  0.9813  0.0362
16977SOL    HW153248   8.165   2.591   7.335 -0.6510  0.2028 -0.1783
16977SOL    HW253249   8.154   2.597   7.184  0.7009  2.3793 -0.2189
16978SOL     OW53250   1.719  10.075   4.687  0.5385 -0.0080  0.1317
16978SOL    HW153251   1.726  10.134   4.612  0.8987 -0.6707 -0.3716
16978SOL    HW253252   1.810  10.057   4.712  0.4268 -0.0774  0.4990
16979SOL     OW53253   0.572   8.526   7.092  0.3931  0.1280  0.6464
16979SOL    HW153254   0.483   8.538   7.058 -0.2924 -0.7992  2.0194
16979SOL    HW253255   0.581   8.593   7.159  0.1158 -0.7742  1.6108
16980SOL     OW53256   6.928   8.705   4.660  0.6764 -0.1750  0.1930
16980SOL    HW153257   6.903   8.742   4.745 -0.3934 -2.1256  0.7893
16980SOL    HW253258   7.011   8.661   4.677 -0.0274 -1.4088  0.4960
16981SOL     OW53259   5.144   5.015   2.847 -0.2655  0.0693  0.2303
16981SOL    HW153260   5.194   5.069   2.787  0.0899 -1.0380 -0.4936
16981SOL    HW253261   5.090   5.077   2.896 -0.5793  1.0000 -1.2298
16982SOL     OW53262  10.480   2.369   5.416 -0.1034  0.4082 -0.0512
16982SOL    HW153263  10.545   2.299   5.428 -1.1280 -0.2962  1.7362
16982SOL    HW253264  10.529   2.441   5.376  1.4436 -0.5924 -0.0353
16983SOL     OW53265   7.679   7.413   1.608  0.4523 -0.2292 -0.1874
16983SOL    HW153266   7.761   7.429   1.655  0.3171 -2.7295  1.0336
16983SOL    HW253267   7.642   7.335   1.650 -3.0596  1.3400 -0.0064
16984SOL     OW53268   5.145   4.348   2.978  0.0473 -0.2489  0.3396
16984SOL    HW153269   5.240   4.339   2.993  0.5961  1.5654 -1.6808
16984SOL    HW253270   5.123   4.433   3.015 -0.6347 -0.2622 -0.0294
16985SOL     OW53271   0.069   3.046   8.256  0.2516 -0.4543 -0.1819
16985SOL    HW153272   0.112   3.112   8.202  0.4056 -1.3525 -1.1963
16985SOL    HW253273   0.016   2.995   8.194 -1.0563 -0.3475  0.8011
16986SOL     OW53274   3.685   5.252   9.921  0.0515 -0.1780  0.3603
16986SOL    HW153275   3.594   5.279   9.927  0.0476 -0.2692  0.7210
16986SOL    HW253276   3.728   5.325   9.876 -0.0015  0.3502  1.1271
16987SOL     OW53277   8.296   6.705   3.861 -0.1025 -0.1659 -0.4331
16987SOL    HW153278   8.242   6.686   3.784  0.5701 -0.4440 -0.8468
16987SOL    HW253279   8.235   6.700   3.934 -0.8608  0.5852 -0.9822
16988SOL     OW53280   7.002   1.236   3.862 -0.1964  0.1069 -0.0505
16988SOL    HW153281   7.011   1.289   3.941  0.3187 -1.2054  0.8073
16988SOL    HW253282   7.012   1.298   3.790  1.4883  1.0315  0.9109
16989SOL     OW53283   5.721   1.831   6.325  0.4300  0.0427 -0.1725
16989SOL    HW153284   5.698   1.833   6.232  1.5961  0.2782 -0.4739
16989SOL    HW253285   5.813   1.859   6.327 -0.0749  1.7994  1.2048
16990SOL     OW53286  10.366  10.101   5.775  0.0055 -0.8687 -0.4306
16990SOL    HW153287  10.316  10.152   5.710  0.5568 -0.1892 -0.3350
16990SOL    HW253288  10.402  10.167   5.834  1.2469 -1.3186 -0.6592
16991SOL     OW53289   4.040   0.599   9.438  0.7173  0.0830  0.0802
16991SOL    HW153290   4.005   0.610   9.527  0.7132 -0.6917  0.1870
16991SOL    HW253291   3.991   0.661   9.385  1.3093  1.1618  0.7649
16992SOL     OW53292   8.853   2.644   8.638  0.1775 -0.0773 -0.1735
16992SOL    HW153293   8.761   2.648   8.614 -0.2722 -0.1870  1.4462
16992SOL    HW253294   8.854   2.655   8.733  1.9054  0.8908 -0.2587
16993SOL     OW53295   4.075   7.565   9.427 -0.0596  0.3061  0.0771
16993SOL    HW153296   4.013   7.492   9.421 -0.7079  0.9214 -1.4745
16993SOL    HW253297   4.038   7.623   9.494 -2.3639  1.6217 -2.1128
16994SOL     OW53298   7.058   5.055  10.595 -0.4348 -0.1366  0.1217
16994SOL    HW153299   7.142   5.022  10.627 -0.3785 -1.5731 -1.3599
16994SOL    HW253300   7.080   5.111  10.521 -0.7662 -1.9852 -1.4839
16995SOL     OW53301   6.297   1.525   8.589 -0.3838 -0.3019  0.7154
16995SOL    HW153302   6.389   1.501   8.577 -0.5062 -0.7227  0.5798
16995SOL    HW253303   6.290   1.553   8.680 -0.1424 -0.3730  0.7557
16996SOL     OW53304   1.686   5.560   9.023 -0.3441  0.3811 -0.1032
16996SOL    HW153305   1.666   5.525   9.110  1.0743 -3.7898 -1.2585
16996SOL    HW253306   1.602   5.586   8.988 -1.3764 -0.7487  1.3990
16997SOL     OW53307   1.464   0.430   8.514 -0.0818 -0.0689  0.6004
16997SOL    HW153308   1.491   0.355   8.566 -0.4290 -0.0449  0.8167
16997SOL    HW253309   1.483   0.405   8.423  1.6207  0.3489  0.8117
16998SOL     OW53310   6.053   2.143   5.651  0.5706 -0.2706  0.3026
16998SOL    HW153311   6.107   2.163   5.575 -1.4661  0.5252 -1.0348
16998SOL    HW253312   5.999   2.222   5.663 -0.0296 -0.8692  1.7928
16999SOL     OW53313   2.232   2.678   4.372  0.3174  0.8793 -0.3841
16999SOL    HW153314   2.270   2.763   4.349  0.9987  0.6538 -0.1041
16999SOL    HW253315   2.304   2.629   4.412  0.0474  0.0127 -0.9326
17000SOL     OW53316   9.899   9.370   5.400  0.4263 -0.7357  0.6790
17000SOL    HW153317   9.872   9.299   5.343  1.1727 -0.6208  0.1725
17000SOL    HW253318   9.995   9.364   5.404  0.4374 -0.3135  1.3536
17001SOL     OW53319   4.913   7.214  10.442 -0.3614 -0.4855  0.1980
17001SOL    HW153320   4.931   7.270  10.518  0.9826  1.0146 -1.1606
17001SOL    HW253321   4.821   7.191  10.451 -0.1120 -0.8504  2.5781
17002SOL     OW53322   5.124   6.571   3.849  0.7805 -0.4723  0.5669
17002SOL    HW153323   5.166   6.654   3.870  0.8960  0.2426 -2.0487
17002SOL    HW253324   5.195   6.518   3.812  0.1359 -0.5776 -0.5611
17003SOL     OW53325   0.086   9.126   4.167  0.1053  0.6454 -0.0881
17003SOL    HW153326   0.041   9.081   4.096  1.2153 -1.6645  0.5870
17003SOL    HW253327   0.019   9.183   4.205 -1.8000 -1.3527 -0.2362
17004SOL     OW53328   8.563   7.006   1.220  0.6079  0.3052  0.0432
17004SOL    HW153329   8.534   6.987   1.131 -0.8069  0.7157  0.3969
17004SOL    HW253330   8.597   7.096   1.215 -0.4380  0.7159  0.1236
17005SOL     OW53331  10.134   0.983   6.435 -0.2535  0.0461  0.5910
17005SOL    HW153332  10.183   0.983   6.352  0.0383 -0.4058  0.7598
17005SOL    HW253333  10.043   0.969   6.409 -0.0774 -0.7644  0.3892
17006SOL     OW53334   8.405   2.756   4.948 -0.3985  0.3144 -0.2121
17006SOL    HW153335   8.317   2.778   4.979 -0.4444  0.7449 -0.6590
17006SOL    HW253336   8.427   2.676   4.996 -0.1398  1.4033  1.5818
17007SOL     OW53337   6.431   8.713   3.064  0.2898 -0.0873 -0.5614
17007SOL    HW153338   6.492   8.656   3.017 -1.0195 -1.4086 -0.7182
17007SOL    HW253339   6.348   8.666   3.062 -1.3991  2.6456 -2.3926
17008SOL     OW53340   8.384   7.711   9.669 -0.0574 -0.1411 -0.0593
17008SOL    HW153341   8.340   7.796   9.662  1.3706  0.5182 -1.7493
17008SOL    HW253342   8.390   7.694   9.763 -1.9448  0.7437  0.2763
17009SOL     OW53343   3.022   2.362   5.794 -0.1767  0.0450 -0.1245
17009SOL    HW153344   3.060   2.392   5.877  0.6663  0.4496 -0.6486
17009SOL    HW253345   2.983   2.278   5.815  0.5282 -0.1249  0.5650
17010SOL     OW53346  10.452   2.303   0.795  0.7917 -0.1179 -0.5475
17010SOL    HW153347  10.417   2.368   0.855  0.7476 -0.5368 -0.1170
17010SOL    HW253348  10.419   2.219   0.827  1.5852 -0.4434 -0.5654
17011SOL     OW53349   2.886   0.679   9.625 -0.4463  0.0007  0.2159
17011SOL    HW153350   2.963   0.718   9.583  0.3321 -1.1086  0.5700
17011SOL    HW253351   2.825   0.663   9.554  0.4009 -0.8082 -0.3548
17012SOL     OW53352   3.708   7.073   6.436  0.0343 -0.2964  0.1604
17012SOL    HW153353   3.755   7.133   6.493 -3.1974  0.3064  2.4703
17012SOL    HW253354   3.699   7.120   6.353  3.0121 -0.3381 -0.2915
17013SOL     OW53355   9.548   2.249   6.835  0.1002  0.9304  0.0306
17013SOL    HW153356   9.486   2.194   6.884 -0.2225  1.3810  0.1376
17013SOL    HW253357   9.508   2.336   6.835  0.6253  1.1773 -0.1015
17014SOL     OW53358   7.356  10.195   4.532 -0.1274  0.8128  0.0189
17014SOL    HW153359   7.432  10.145   4.503  0.3567  1.2278  0.5582
17014SOL    HW253360   7.367  10.281   4.493 -0.4389  0.8149 -0.0737
17015SOL     OW53361   0.030  10.163   4.143  0.1017 -1.0446  0.0678
17015SOL    HW153362  -0.054  10.147   4.184 -0.7051 -0.7429 -1.3781
17015SOL    HW253363   0.091  10.106   4.189 -0.7051 -0.6039  1.7347
17016SOL     OW53364   5.361   8.326   7.798  0.0019 -0.4778 -0.1650
17016SOL    HW153365   5.340   8.400   7.741  0.4007 -1.0024 -1.0172
17016SOL    HW253366   5.454   8.310   7.783 -0.0544 -1.0795  0.0913
17017SOL     OW53367   1.567   4.701   5.967 -0.1354 -0.4883 -0.6359
17017SOL    HW153368   1.606   4.718   6.053 -0.4892  1.8877 -0.8839
17017SOL    HW253369   1.641   4.674   5.912  0.5698  0.5561 -0.2311
17018SOL     OW53370  10.578   3.034   1.546  0.2172 -0.5758 -0.3809
17018SOL    HW153371  10.491   3.015   1.511 -0.9309  1.8310  0.9475
17018SOL    HW253372  10.588   2.974   1.620 -2.1305  1.6837  1.9846
17019SOL     OW53373   9.067   3.798   2.337  0.3931  0.6183  0.1236
17019SOL    HW153374   9.034   3.872   2.285 -1.0336 -0.7742 -1.0221
17019SOL    HW253375   8.991   3.767   2.386  1.3090  0.7521  1.6905
17020SOL     OW53376   4.779   1.327   2.640 -0.1666  0.1415  0.3591
17020SOL    HW153377   4.691   1.299   2.664  0.3413 -1.6884  0.1907
17020SOL    HW253378   4.838   1.273   2.693  0.8790 -0.1201 -1.0043
17021SOL     OW53379   1.356   5.629   7.822  0.1572 -0.5282  0.1069
17021SOL    HW153380   1.410   5.674   7.758 -1.2755  0.7764 -0.2433
17021SOL    HW253381   1.302   5.569   7.770  0.0103 -0.5296  0.2602
17022SOL     OW53382   0.449   4.446   7.614  0.3591 -0.4046 -0.1349
17022SOL    HW153383   0.442   4.529   7.661  0.5153 -0.8842  0.7553
17022SOL    HW253384   0.399   4.384   7.667  0.7261 -1.0104 -0.4838
17023SOL     OW53385   5.906   1.307   5.676  0.0084  0.2158 -0.0525
17023SOL    HW153386   5.932   1.387   5.631 -1.7683 -0.1598 -1.8944
17023SOL    HW253387   5.965   1.240   5.643  0.8332  0.5356  0.7218
17024SOL     OW53388   9.749   4.205   3.651 -0.3522  0.2242  0.0305
17024SOL    HW153389   9.765   4.154   3.572 -2.0217  1.2981 -1.0418
17024SOL    HW253390   9.770   4.145   3.723  0.4359 -1.0159 -1.1967
17025SOL     OW53391   4.761   2.045   6.222  0.3165  0.6981 -0.4524
17025SOL    HW153392   4.833   1.984   6.237  1.4740  2.3111  0.8223
17025SOL    HW253393   4.683   1.996   6.246  1.2420 -0.2096  0.8496
17026SOL     OW53394   8.715   6.259   8.986 -0.3257 -0.2179  0.0166
17026SOL    HW153395   8.726   6.351   9.010 -0.7327  0.1655 -1.2095
17026SOL    HW253396   8.746   6.211   9.063  0.2340  0.9282  0.5397
17027SOL     OW53397   1.679   9.414   9.984 -0.4836  0.5673  0.3164
17027SOL    HW153398   1.584   9.413   9.987 -0.4803  0.3981  0.3997
17027SOL    HW253399   1.702   9.506   9.973 -0.6800  0.5234 -0.5203
17028SOL     OW53400   4.703  10.267   8.189  0.0236  0.3398  0.1145
17028SOL    HW153401   4.654  10.268   8.271 -0.4425  1.7916 -0.1599
17028SOL    HW253402   4.780  10.321   8.207 -0.4152  1.2130 -0.5925
17029SOL     OW53403   9.487   2.984   2.602 -0.1680 -0.3206  0.5337
17029SOL    HW153404   9.529   2.923   2.541 -0.9246 -0.2587 -0.0775
17029SOL    HW253405   9.481   3.065   2.552  0.2462  0.0692  1.1146
17030SOL     OW53406   2.981   3.465   1.648 -0.3192  0.0275  0.4390
17030SOL    HW153407   2.983   3.479   1.743 -1.9134 -1.4797  0.7474
17030SOL    HW253408   2.888   3.456   1.627 -0.0002  0.6058 -1.3277
17031SOL     OW53409   0.738   8.458   5.033 -0.0025 -0.1241 -0.9058
17031SOL    HW153410   0.653   8.435   5.069  0.0387 -0.8012 -1.2261
17031SOL    HW253411   0.744   8.408   4.952  0.6450  0.0192 -0.9528
17032SOL     OW53412  10.108   6.026   6.807  0.6073  0.3595 -0.3641
17032SOL    HW153413  10.039   5.970   6.843 -0.8315  0.9858 -1.9889
17032SOL    HW253414  10.157   5.969   6.747  0.2331  0.4001 -0.7127
17033SOL     OW53415   5.472   0.495   3.336  0.2129  0.6888 -0.6335
17033SOL    HW153416   5.532   0.544   3.280 -0.2330  0.8077 -1.0067
17033SOL    HW253417   5.449   0.418   3.284 -0.5989  1.0527 -0.8152
17034SOL     OW53418  10.073   4.196   8.411  0.1814 -0.1326 -0.5184
17034SOL    HW153419  10.011   4.149   8.466 -0.6913  1.1262 -0.3860
17034SOL    HW253420  10.082   4.282   8.453 -1.6991  1.4786 -3.0964
17035SOL     OW53421   5.961   0.289   6.627  0.1606  0.2247 -0.6104
17035SOL    HW153422   5.924   0.296   6.539  1.0371  1.8839 -0.8955
17035SOL    HW253423   6.036   0.231   6.617 -0.6186 -0.7992 -0.6300
17036SOL     OW53424   5.798   3.788   5.891  0.3381  0.0969  0.2190
17036SOL    HW153425   5.807   3.760   5.982  0.6959  0.8384  0.4217
17036SOL    HW253426   5.703   3.790   5.876  0.2397  0.8413  0.8659
17037SOL     OW53427   2.858   6.327   8.073 -0.2754  0.7072  0.3054
17037SOL    HW153428   2.910   6.365   8.003 -0.4385  2.3570  1.0297
17037SOL    HW253429   2.922   6.305   8.141 -0.2027 -0.1929 -0.0384
17038SOL     OW53430   5.394   3.850   6.803  0.4974 -0.6663 -0.4406
17038SOL    HW153431   5.359   3.805   6.880  0.2669 -0.8019 -0.6200
17038SOL    HW253432   5.320   3.854   6.743  0.5022  0.0097 -0.4077
17039SOL     OW53433   8.918   4.525   4.374 -0.1054 -0.0834 -0.1888
17039SOL    HW153434   8.964   4.442   4.386  1.7096  0.9339  0.2832
17039SOL    HW253435   8.927   4.545   4.281  1.2508  0.5439  0.0569
17040SOL     OW53436   7.697   6.439   6.904  0.3557  0.2555  0.3151
17040SOL    HW153437   7.731   6.478   6.824  1.2999  2.6166  1.7706
17040SOL    HW253438   7.772   6.436   6.964 -0.5030 -0.7234  1.4077
17041SOL     OW53439  10.486   9.903   6.550  0.0823 -0.1341  0.3248
17041SOL    HW153440  10.472   9.878   6.642  1.5185 -0.0595  0.5804
17041SOL    HW253441  10.543   9.834   6.515 -0.3363 -0.0819 -0.4763
17042SOL     OW53442  10.261   9.729   4.616  0.1779 -0.2640 -0.2597
17042SOL    HW153443  10.233   9.701   4.529 -1.5301  0.0555  0.1622
17042SOL    HW253444  10.188   9.706   4.673  1.0896 -0.0551  1.0253
17043SOL     OW53445   8.453   7.385  10.444 -0.5691 -0.4336 -0.0969
17043SOL    HW153446   8.496   7.304  10.473 -1.2117 -0.7425 -0.0001
17043SOL    HW253447   8.487   7.399  10.355 -1.2538 -1.3995 -0.5296
17044SOL     OW53448   4.737   6.372  10.483 -0.1138 -0.0470  0.1759
17044SOL    HW153449   4.766   6.292  10.526  0.4378  0.3357  0.5398
17044SOL    HW253450   4.709   6.345  10.396  2.0935 -0.3295 -0.4913
17045SOL     OW53451   3.501   2.914   7.769  0.7586  0.0088  0.7695
17045SOL    HW153452   3.501   2.944   7.860  2.0087 -0.2943  0.8781
17045SOL    HW253453   3.467   2.824   7.774 -0.1836  0.3475  0.7888
17046SOL     OW53454   8.741   8.753   6.689  0.5236  0.0807 -1.2325
17046SOL    HW153455   8.770   8.717   6.773 -0.9040  0.0553 -0.7108
17046SOL    HW253456   8.659   8.799   6.710  1.3190  2.0754 -2.2019
17047SOL     OW53457   4.099   9.243   2.722  0.1174 -0.0576 -0.1667
17047SOL    HW153458   4.172   9.234   2.661 -0.2796 -0.3595 -0.6020
17047SOL    HW253459   4.077   9.153   2.747 -0.3699  0.0101 -0.3507
17048SOL     OW53460   7.766   6.895   2.899  0.7598  0.6638 -0.2345
17048SOL    HW153461   7.694   6.952   2.924  0.7744  1.4667 -1.8957
17048SOL    HW253462   7.845   6.945   2.921  0.7966  0.3672  0.3110
17049SOL     OW53463   0.960   6.187   8.169  0.2808 -0.3587 -0.2823
17049SOL    HW153464   0.959   6.210   8.076  0.1876  2.6038  0.3609
17049SOL    HW253465   0.870   6.199   8.199  0.5931  0.1781  0.4844
17050SOL     OW53466   9.968   9.545   7.134  0.3231 -0.1091  0.2047
17050SOL    HW153467  10.062   9.562   7.132  0.2186  0.4838 -2.3599
17050SOL    HW253468   9.945   9.524   7.043 -1.9579 -0.6494  0.8391
17051SOL     OW53469   1.982   9.213   1.107 -0.0635 -0.6013 -0.0422
17051SOL    HW153470   2.059   9.159   1.125 -0.2991 -0.4083  1.7063
17051SOL    HW253471   1.940   9.223   1.192 -1.0912  0.7172 -0.6793
17052SOL     OW53472   5.706   8.736   3.564  0.1227 -0.5620 -0.1389
17052SOL    HW153473   5.741   8.821   3.541 -1.1708 -0.0274 -0.2216
17052SOL    HW253474   5.772   8.697   3.622  0.1592  1.0329  0.9551
17053SOL     OW53475   0.928   7.435   0.214 -0.0222 -0.0865  0.6685
17053SOL    HW153476   0.987   7.444   0.139  0.7735 -1.5181  1.0829
17053SOL    HW253477   0.850   7.394   0.178 -0.4256  0.9510  0.2988
17054SOL     OW53478   2.492   1.384   9.558  0.3373  0.2973 -0.2299
17054SOL    HW153479   2.411   1.413   9.600 -0.2387 -1.1449 -0.2833
17054SOL    HW253480   2.560   1.436   9.600 -0.5450  1.0772  0.2905
17055SOL     OW53481   2.216   1.836   0.320  0.4697  0.4143 -0.3884
17055SOL    HW153482   2.128   1.856   0.289  0.2717 -0.7765 -0.6584
17055SOL    HW253483   2.205   1.759   0.376  1.3037  0.4311 -0.1813
17056SOL     OW53484   2.404   5.290  10.013 -0.2033 -0.0630  0.3759
17056SOL    HW153485   2.400   5.201  10.048 -0.3812  0.0900  0.7533
17056SOL    HW253486   2.331   5.295   9.951  1.2013 -0.9158 -1.4330
17057SOL     OW53487   4.896   0.171   0.694 -0.4915  0.0550 -0.2836
17057SOL    HW153488   4.806   0.149   0.671 -0.7507 -1.6482  1.9400
17057SOL    HW253489   4.922   0.101   0.755  2.6735 -0.0297 -1.5690
17058SOL     OW53490   3.282   2.737   9.353  0.7043  0.4544 -0.4050
17058SOL    HW153491   3.198   2.751   9.308 -0.0796 -0.8748  0.5687
17058SOL    HW253492   3.343   2.715   9.283  0.1200  0.9628 -1.0891
17059SOL     OW53493   3.767   4.751   5.130 -0.1403 -0.2962 -0.2390
17059SOL    HW153494   3.790   4.772   5.040 -2.1447  0.3653 -0.6507
17059SOL    HW253495   3.802   4.824   5.181  1.9199 -1.1906 -0.3084
17060SOL     OW53496   5.186   6.925   2.350 -0.1750 -0.4949 -0.1958
17060SOL    HW153497   5.278   6.949   2.340  0.3616 -1.5161  1.8071
17060SOL    HW253498   5.185   6.865   2.425 -2.4404 -0.7099 -0.3411
17061SOL     OW53499  10.545   1.235   6.219  0.3931  0.3572  0.3761
17061SOL    HW153500  10.534   1.155   6.270  0.4010 -0.1935 -0.4724
17061SOL    HW253501  10.603   1.210   6.147 -0.7182  0.7667 -0.6811
17062SOL     OW53502   6.102   3.298   4.611  0.0073  0.1723 -0.2267
17062SOL    HW153503   6.169   3.307   4.679 -1.7071 -0.8432  1.7146
17062SOL    HW253504   6.132   3.225   4.557  1.4578  1.0659 -0.6909
17063SOL     OW53505   7.518   2.417   5.419  0.4349  0.9361  0.2146
17063SOL    HW153506   7.577   2.383   5.352 -0.8570  1.4240 -1.2137
17063SOL    HW253507   7.449   2.351   5.426  0.9778  0.4925  1.6849
17064SOL     OW53508   2.928   6.686   1.787  0.1989 -0.0039  0.7496
17064SOL    HW153509   2.913   6.773   1.824  1.1798  0.7619 -0.5460
17064SOL    HW253510   2.842   6.657   1.757  0.2629  1.9618 -1.7063
17065SOL     OW53511   3.117   6.642   8.430  0.1509 -0.6821 -0.2601
17065SOL    HW153512   3.176   6.712   8.460 -0.5278 -0.1208 -0.2288
17065SOL    HW253513   3.057   6.629   8.503 -0.5576 -0.3700 -0.7770
17066SOL     OW53514   6.790   2.386   0.038  0.4846  0.5400  0.3125
17066SOL    HW153515   6.846   2.348  -0.029  0.0064 -0.1171  0.2733
17066SOL    HW253516   6.777   2.316   0.101 -0.2598  0.6877  0.3391
17067SOL     OW53517   5.755   6.082  10.592 -0.0842 -0.1378  0.2908
17067SOL    HW153518   5.833   6.089  10.647 -1.4168  3.5179  2.0969
17067SOL    HW253519   5.693   6.032  10.645  0.0233 -0.2837  0.2765
17068SOL     OW53520   1.291   0.250   8.744  0.1148 -0.3172 -0.2437
17068SOL    HW153521   1.283   0.201   8.826 -0.5554 -1.3725 -0.9114
17068SOL    HW253522   1.383   0.240   8.719  0.0398 -1.0478 -0.2501
17069SOL     OW53523   9.678   6.614   5.099 -0.2118  0.0786  0.0229
17069SOL    HW153524   9.584   6.605   5.084 -0.1270  0.2459 -0.6079
17069SOL    HW253525   9.717   6.535   5.061 -0.0311  0.3469 -0.3592
17070SOL     OW53526   3.028  10.069   9.932 -0.4466  0.2522 -0.7826
17070SOL    HW153527   2.945  10.118   9.935  0.1790  1.4158 -1.6130
17070SOL    HW253528   3.069  10.098   9.851  0.5774 -0.6584 -0.5990
17071SOL     OW53529   7.518   3.754   1.308 -0.0028 -0.2082 -0.3038
17071SOL    HW153530   7.603   3.795   1.293 -0.3220  0.6334  0.1211
17071SOL    HW253531   7.539   3.668   1.345  0.6569  0.2259  0.3585
17072SOL     OW53532   2.187  10.094   9.389  0.1058  0.4450 -0.9127
17072SOL    HW153533   2.122  10.024   9.388  1.3479 -0.7624 -0.5592
17072SOL    HW253534   2.137  10.173   9.409 -1.3240 -0.3371 -1.2396
17073SOL     OW53535   9.335   7.158   1.886  0.5114  0.1122 -0.1594
17073SOL    HW153536   9.416   7.138   1.838  0.3341 -2.4523  0.4650
17073SOL    HW253537   9.365   7.185   1.973  0.7180  1.0022 -0.4948
17074SOL     OW53538   4.005   2.443   2.101 -0.5627 -0.1398 -0.2158
17074SOL    HW153539   3.969   2.449   2.189 -1.9322  0.0500 -0.7529
17074SOL    HW253540   4.019   2.349   2.087  0.1187 -0.1275  0.3701
17075SOL     OW53541   5.744   1.773   1.944  0.2965 -0.3214 -0.2576
17075SOL    HW153542   5.801   1.781   1.867  0.1457  2.5545 -0.1706
17075SOL    HW253543   5.794   1.812   2.015 -0.2164 -1.4775  0.7731
17076SOL     OW53544   5.936   5.508   6.848 -0.0355  0.3081 -0.3070
17076SOL    HW153545   5.924   5.527   6.755  1.1150  1.7153 -0.2175
17076SOL    HW253546   6.031   5.501   6.859 -0.0215  1.9331  1.0335
17077SOL     OW53547   5.098   5.334   9.271 -0.8595 -0.4526 -0.5978
17077SOL    HW153548   5.010   5.334   9.234 -0.7857 -0.8490 -0.7831
17077SOL    HW253549   5.092   5.277   9.348 -0.5892 -1.0982 -1.0496
17078SOL     OW53550   7.220   3.222   7.719 -0.2191  0.0509 -0.5850
17078SOL    HW153551   7.239   3.316   7.719  0.0011  0.0924 -3.7133
17078SOL    HW253552   7.295   3.181   7.676 -0.9677 -1.3895 -0.6059
17079SOL     OW53553   4.315   9.145   9.996 -0.3947 -0.2544  0.5281
17079SOL    HW153554   4.303   9.065   9.946 -2.5703  0.9459 -1.0154
17079SOL    HW253555   4.409   9.165   9.987  0.5268 -3.1976  2.0624
17080SOL     OW53556   5.838   9.339   8.607 -0.2217 -0.0237 -0.1058
17080SOL    HW153557   5.784   9.375   8.678  0.7095  0.5785  0.3174
17080SOL    HW253558   5.809   9.386   8.529 -1.8342 -1.2687 -0.3262
17081SOL     OW53559   0.914   3.073   3.236 -0.7318  0.8324  0.1344
17081SOL    HW153560   0.930   3.000   3.176 -0.6481 -0.2308  1.3889
17081SOL    HW253561   0.997   3.121   3.239 -0.3770  0.2212  0.2623
17082SOL     OW53562   6.733  10.472   8.089 -0.6982  0.1650  0.3729
17082SOL    HW153563   6.808  10.442   8.037 -0.0305  0.4946  1.1312
17082SOL    HW253564   6.748  10.565   8.102 -0.1090 -0.1591  2.3350
17083SOL     OW53565   6.566   2.958   9.085  0.0724  0.3008 -0.0113
17083SOL    HW153566   6.498   2.967   9.018  0.9410 -2.3458 -1.4073
17083SOL    HW253567   6.645   2.995   9.044  0.4445 -0.6898 -0.2276
17084SOL     OW53568   7.442   8.778   5.526 -0.2928 -1.0787 -0.4186
17084SOL    HW153569   7.487   8.779   5.442  0.7359  0.0718  0.1187
17084SOL    HW253570   7.361   8.825   5.511 -0.7136 -1.9651 -1.0512
17085SOL     OW53571   8.084   3.340   5.719 -0.5389  0.4285  0.7491
17085SOL    HW153572   8.072   3.247   5.703  0.0490  0.5630 -0.6011
17085SOL    HW253573   8.008   3.382   5.678 -1.1616  0.5090  1.9533
17086SOL     OW53574   3.146   8.385   3.708 -0.1192 -0.8816 -0.1327
17086SOL    HW153575   3.077   8.451   3.712 -0.8991 -1.6847 -0.1898
17086SOL    HW253576   3.198   8.409   3.632 -0.4880 -0.4209 -0.2422
17087SOL     OW53577   0.439   3.322   0.225  0.1337  0.0297 -0.0440
17087SOL    HW153578   0.407   3.360   0.144 -3.2752 -0.2144  1.0298
17087SOL    HW253579   0.532   3.306   0.209  0.2740  2.6943 -2.7938
17088SOL     OW53580   1.586   9.619   6.809  0.4777 -0.1727  0.0166
17088SOL    HW153581   1.603   9.623   6.714  0.9470 -0.2934  0.0912
17088SOL    HW253582   1.666   9.580   6.845  1.1396  1.7546  0.7038
17089SOL     OW53583   9.153   2.087   4.503  0.4008  0.6117 -0.0259
17089SOL    HW153584   9.248   2.081   4.514  0.7653  3.6756 -0.7591
17089SOL    HW253585   9.134   2.180   4.501 -2.7174  0.0994  0.4452
17090SOL     OW53586   8.016   8.097   2.547  0.4607  0.2193  0.0209
17090SOL    HW153587   8.026   8.015   2.596 -0.2706  0.5336  0.7067
17090SOL    HW253588   8.050   8.076   2.460 -0.1463 -0.9554  0.0423
17091SOL     OW53589   5.278  10.173   2.260  0.2339  0.3800  0.0214
17091SOL    HW153590   5.241  10.242   2.204  0.7137  0.8395  0.2702
17091SOL    HW253591   5.331  10.220   2.325  0.2050 -0.1948  0.4641
17092SOL     OW53592   2.046   9.970   2.517  0.0046 -0.3597  0.0903
17092SOL    HW153593   1.970   9.967   2.459 -0.0763 -2.2697  0.2547
17092SOL    HW253594   2.044  10.059   2.554 -1.0257  0.2580 -1.3471
17093SOL     OW53595   5.892   0.332   5.839 -0.2408  0.1573  0.3873
17093SOL    HW153596   5.960   0.268   5.859 -1.1897 -0.6725  1.0509
17093SOL    HW253597   5.811   0.291   5.869 -0.8822  1.6547  0.7921
17094SOL     OW53598   6.697   0.222   1.879 -0.0975 -0.5533  0.2863
17094SOL    HW153599   6.634   0.171   1.829  0.0959 -0.4155 -0.1015
17094SOL    HW253600   6.772   0.164   1.891  0.9622  0.2693 -1.8902
17095SOL     OW53601   2.570   9.468   5.574  0.3130  0.1062 -0.1190
17095SOL    HW153602   2.547   9.400   5.638 -0.3398 -0.2413 -0.7109
17095SOL    HW253603   2.624   9.530   5.623  2.3467 -1.6773  0.0158
17096SOL     OW53604   4.496   3.170   8.676  0.2457  0.0831  0.4650
17096SOL    HW153605   4.446   3.232   8.624 -0.2853  0.6265  1.5780
17096SOL    HW253606   4.477   3.084   8.638 -0.8321  0.3797  0.3202
17097SOL     OW53607   8.459   2.840   6.868 -0.1644 -0.2053 -0.1965
17097SOL    HW153608   8.364   2.826   6.866  0.1254 -2.4886 -0.8507
17097SOL    HW253609   8.483   2.833   6.960 -0.5234 -0.6502 -0.1334
17098SOL     OW53610   2.827   1.747  10.342  0.0373  0.3398 -0.5113
17098SOL    HW153611   2.854   1.714  10.427  4.2577 -0.3375 -1.8947
17098SOL    HW253612   2.829   1.843  10.351  1.5088  0.2902 -0.0694
17099SOL     OW53613   6.597   5.393   5.165 -0.4368 -0.6052  0.1190
17099SOL    HW153614   6.649   5.473   5.163  0.6759 -1.2919 -1.7939
17099SOL    HW253615   6.638   5.339   5.233  3.2037 -2.1408 -2.9224
17100SOL     OW53616   5.710   7.201   4.494 -0.0663  0.0538  0.2303
17100SOL    HW153617   5.648   7.201   4.421  0.3992  1.0562 -0.1925
17100SOL    HW253618   5.655   7.191   4.572 -0.6719  0.0091 -0.1928
17101SOL     OW53619   3.843   7.911   6.678  0.1227  0.1962  0.1156
17101SOL    HW153620   3.869   7.995   6.715 -1.6706  1.4605 -1.3518
17101SOL    HW253621   3.860   7.920   6.584 -0.7799 -0.7950 -0.1634
17102SOL     OW53622   8.249   4.085  10.376  0.0579  0.5037 -0.6594
17102SOL    HW153623   8.231   4.146  10.447  1.5675 -0.0823  0.2754
17102SOL    HW253624   8.164   4.045  10.356 -0.3438  0.4383  1.0498
17103SOL     OW53625   5.126   8.103   5.638 -0.7924  0.0371  0.0232
17103SOL    HW153626   5.119   8.095   5.543 -0.4392  1.2551 -0.1285
17103SOL    HW253627   5.209   8.062   5.661 -1.3102 -1.0862 -0.0684
17104SOL     OW53628   6.790   0.159   0.357 -0.1966  0.8120 -0.0740
17104SOL    HW153629   6.822   0.203   0.278  1.0066 -0.4684 -0.3259
17104SOL    HW253630   6.868   0.146   0.411 -1.1058  2.3665  1.7313
17105SOL     OW53631   9.374   2.724   6.878  0.0165 -0.1950  0.2909
17105SOL    HW153632   9.425   2.663   6.930  0.5570  0.0666  0.0713
17105SOL    HW253633   9.331   2.780   6.943 -1.2461 -1.3928  0.5289
17106SOL     OW53634   5.535  10.140  10.154  0.3473  0.1050 -0.0857
17106SOL    HW153635   5.528  10.164  10.247 -0.9829 -0.7172  0.0632
17106SOL    HW253636   5.484  10.207  10.108 -1.2364 -0.9288  0.0779
17107SOL     OW53637   5.589   2.750   1.941  0.0983  0.4104 -0.4751
17107SOL    HW153638   5.619   2.665   1.974  0.9926  0.7932 -0.2555
17107SOL    HW253639   5.494   2.742   1.935  0.1828 -0.6433 -0.5650
17108SOL     OW53640   9.306   4.460   9.925 -0.4182  0.2836 -0.2736
17108SOL    HW153641   9.225   4.412   9.942 -0.3587  0.4129  0.4155
17108SOL    HW253642   9.323   4.508  10.006  1.5022 -1.4281  0.4548
17109SOL     OW53643   2.635   6.062   0.597 -0.5767 -0.5236  0.4060
17109SOL    HW153644   2.578   6.139   0.590 -0.5735 -0.1073  3.4877
17109SOL    HW253645   2.583   5.990   0.562 -2.4896  0.1100  1.7773
17110SOL     OW53646   6.504   9.551   7.094 -0.6740 -0.0850 -0.1431
17110SOL    HW153647   6.581   9.506   7.060 -2.1925 -1.1800 -2.3031
17110SOL    HW253648   6.517   9.551   7.189  2.5600  0.9158 -0.4585
17111SOL     OW53649   0.642   5.682   1.819  0.0055 -0.0748 -0.2172
17111SOL    HW153650   0.702   5.743   1.862 -0.0013  0.4078 -0.8814
17111SOL    HW253651   0.559   5.695   1.864  0.2879 -0.4420  0.4240
17112SOL     OW53652   4.532   9.945   5.410 -0.0514 -0.0689  0.1461
17112SOL    HW153653   4.439   9.926   5.398 -0.3962  1.1469  0.6537
17112SOL    HW253654   4.555   9.905   5.494 -0.0324 -0.6525 -0.1378
17113SOL     OW53655   2.230   3.443   4.395  0.7480 -0.2526  0.4157
17113SOL    HW153656   2.248   3.377   4.328  0.6341 -0.3627  0.4920
17113SOL    HW253657   2.314   3.486   4.410  0.6419  0.1852 -0.2352
17114SOL     OW53658   7.985   0.877   1.937  1.1083  0.0105 -0.5580
17114SOL    HW153659   7.926   0.913   1.870 -0.1165 -3.1487 -1.3569
17114SOL    HW253660   8.072   0.904   1.909  0.3240  2.2312 -1.0557
17115SOL     OW53661   4.641  10.299   0.531  0.9129  0.2135  0.3387
17115SOL    HW153662   4.612  10.347   0.453  1.4439  0.6291  0.3848
17115SOL    HW253663   4.717  10.249   0.501  0.3179 -0.6739  0.2741
17116SOL     OW53664   3.756   5.534   3.322  0.7388 -0.7724 -0.2979
17116SOL    HW153665   3.849   5.558   3.323  0.2120  1.7131 -1.9604
17116SOL    HW253666   3.756   5.442   3.295  2.6930 -0.3647 -1.9782
17117SOL     OW53667   8.098   4.926   6.280  0.2939  0.1220 -0.0975
17117SOL    HW153668   8.080   4.838   6.314  0.3615  0.4092  0.7139
17117SOL    HW253669   8.155   4.966   6.346 -0.9679  1.3043  0.3407
17118SOL     OW53670   3.580   9.671   7.750  0.2629 -0.0948  0.3222
17118SOL    HW153671   3.506   9.711   7.795 -0.9992 -0.9527 -0.8907
17118SOL    HW253672   3.623   9.616   7.816 -0.2633  0.2972  0.9962
17119SOL     OW53673   0.761   0.987   7.151  0.3040 -0.5186  0.4033
17119SOL    HW153674   0.828   1.024   7.093  0.7243 -0.5711  0.8473
17119SOL    HW253675   0.683   0.978   7.096 -0.0100  1.6205  0.4081
17120SOL     OW53676   3.240   5.814   4.205 -0.0848 -0.2683 -0.1178
17120SOL    HW153677   3.315   5.843   4.153 -0.1345 -0.9567 -0.5927
17120SOL    HW253678   3.170   5.803   4.141 -1.2509  2.3918  0.5723
17121SOL     OW53679   1.588   6.761   7.626  0.5275  0.0044 -0.7576
17121SOL    HW153680   1.501   6.791   7.650  1.1565  1.7677 -0.5451
17121SOL    HW253681   1.635   6.840   7.601  2.2286 -0.8261 -0.3817
17122SOL     OW53682  10.072   4.105   9.202 -1.2369 -0.8996  0.4399
17122SOL    HW153683  10.016   4.055   9.261 -0.8591 -2.0074 -0.0932
17122SOL    HW253684  10.145   4.045   9.182 -0.8279 -0.1757 -0.3175
17123SOL     OW53685   7.813   5.763   1.882  0.1215 -0.6944  0.1295
17123SOL    HW153686   7.820   5.779   1.976 -0.4952 -1.1932  0.2695
17123SOL    HW253687   7.888   5.809   1.844 -1.2147  2.0316  0.5426
17124SOL     OW53688   0.126   7.478   2.715  0.0447  0.0603  0.2088
17124SOL    HW153689   0.183   7.416   2.668  0.8247 -0.1555  1.3861
17124SOL    HW253690   0.155   7.564   2.684 -0.9033 -0.1288 -1.2810
17125SOL     OW53691   7.507   6.611   5.780  0.1834  0.3645  0.1453
17125SOL    HW153692   7.419   6.649   5.780  1.0045  2.3986  0.4820
17125SOL    HW253693   7.516   6.572   5.693 -1.4485 -0.9321  0.5150
17126SOL     OW53694   2.131   9.592   7.985 -0.4836  0.1644  0.1730
17126SOL    HW153695   2.187   9.669   7.996 -0.5593  0.2243  0.1373
17126SOL    HW253696   2.189   9.526   7.948 -1.0066  0.9793 -2.2919
17127SOL     OW53697   9.501   9.842   7.920  0.5030  0.5466  0.5642
17127SOL    HW153698   9.449   9.811   7.847 -1.3251  1.6360  1.3322
17127SOL    HW253699   9.506   9.937   7.908 -1.5509  1.0413  2.8237
17128SOL     OW53700   6.551   5.402   6.381  0.4836 -0.2649  0.0665
17128SOL    HW153701   6.502   5.324   6.406  1.3582 -0.4683  1.2511
17128SOL    HW253702   6.640   5.370   6.366  0.5335  0.2885 -0.8281
17129SOL     OW53703   0.124   4.159   4.439 -0.0969  0.3265  0.9108
17129SOL    HW153704   0.179   4.081   4.448 -0.8375 -0.1552  1.3952
17129SOL    HW253705   0.164   4.223   4.498  1.4316  0.8757 -0.6438
17130SOL     OW53706   6.006   9.309  10.235 -0.1343  0.3715 -0.1543
17130SOL    HW153707   5.993   9.268  10.321 -0.7359 -1.6531 -1.1479
17130SOL    HW253708   5.932   9.277  10.183  0.6254  0.9610 -1.6309
17131SOL     OW53709   1.966   8.028   3.349  0.2155 -0.4338 -0.2974
17131SOL    HW153710   1.994   8.005   3.260 -0.0497  0.2693 -0.5651
17131SOL    HW253711   1.876   8.060   3.338  1.1008  2.2945 -0.1777
17132SOL     OW53712   0.557   0.001   1.435 -1.1997 -0.5103  0.1441
17132SOL    HW153713   0.570   0.079   1.489 -1.4631 -0.5682  0.2940
17132SOL    HW253714   0.559   0.034   1.345 -0.0009 -0.5244  0.1547
17133SOL     OW53715   5.375   0.396   4.632  0.1988 -0.2635 -0.1381
17133SOL    HW153716   5.398   0.358   4.547 -1.7742  1.8735 -1.7613
17133SOL    HW253717   5.303   0.341   4.663  0.1617 -0.3866 -0.4323
17134SOL     OW53718   3.006   6.212   1.354 -0.0431  0.7002 -0.5510
17134SOL    HW153719   3.058   6.159   1.414 -0.2994  0.2820 -0.6954
17134SOL    HW253720   3.064   6.284   1.330 -0.3590  1.5818  1.1682
17135SOL     OW53721   0.258   4.595   3.429 -0.6459 -0.6678  0.8400
17135SOL    HW153722   0.334   4.557   3.474 -0.2799 -1.0522 -0.0855
17135SOL    HW253723   0.296   4.654   3.364 -1.1563 -0.5058  0.6897
17136SOL     OW53724   6.695   8.670   6.849 -0.2227  0.0612 -0.2829
17136SOL    HW153725   6.662   8.620   6.924 -0.5337  0.3101 -0.2524
17136SOL    HW253726   6.617   8.703   6.805 -0.0289  0.2980 -0.4561
17137SOL     OW53727   3.762   7.835   0.379  0.3464 -0.0091  0.2643
17137SOL    HW153728   3.783   7.756   0.430 -0.3243  0.4357  1.2655
17137SOL    HW253729   3.725   7.896   0.444  1.9089  1.5799 -0.2508
17138SOL     OW53730   0.105  10.546   5.712 -0.0303  0.4460 -0.5194
17138SOL    HW153731   0.068  10.579   5.794 -1.0372  1.0951 -1.2073
17138SOL    HW253732   0.028  10.528   5.657  0.6349  0.5031 -1.4945
17139SOL     OW53733   8.480   5.045   2.899  0.4164 -0.3277  0.4256
17139SOL    HW153734   8.558   5.007   2.859  0.6809 -0.7433  1.2956
17139SOL    HW253735   8.497   5.139   2.900  1.2553 -0.4684  1.2701
17140SOL     OW53736   3.137   8.811   2.017  0.2367 -0.0259 -0.3093
17140SOL    HW153737   3.150   8.795   1.923  0.1206  1.3138 -0.5810
17140SOL    HW253738   3.221   8.789   2.057  0.9985  1.3919 -1.0406
17141SOL     OW53739   9.459   2.988   9.364 -0.6971  0.9726 -0.9018
17141SOL    HW153740   9.404   3.060   9.333  0.0279  2.4559  1.1063
17141SOL    HW253741   9.410   2.949   9.436  0.7740  2.2954  0.8923
17142SOL     OW53742   7.887   9.073   3.688  0.3896 -0.0909 -0.3069
17142SOL    HW153743   7.958   9.031   3.738  0.6540  0.4858 -0.1925
17142SOL    HW253744   7.929   9.108   3.610  0.2558  0.3492 -0.1865
17143SOL     OW53745   6.497   0.134   0.149 -0.0501 -0.6126  0.1738
17143SOL    HW153746   6.435   0.135   0.076  2.1950 -0.7025 -1.8946
17143SOL    HW253747   6.504   0.226   0.176 -0.9832 -0.5944  0.3805
17144SOL     OW53748   8.266   8.745   4.833  0.0309 -0.6392  0.0599
17144SOL    HW153749   8.272   8.840   4.828 -1.6360 -0.2701  3.0986
17144SOL    HW253750   8.216   8.720   4.755  1.6568  0.7346 -1.5225
17145SOL     OW53751   6.513   2.097   7.442 -0.1104  0.5653  0.7413
17145SOL    HW153752   6.445   2.162   7.424 -0.2537  0.2285  0.0395
17145SOL    HW253753   6.465   2.016   7.459  0.1015  0.3891  0.5159
17146SOL     OW53754   2.541   7.048   2.809 -0.3498  0.2439 -0.4811
17146SOL    HW153755   2.538   7.081   2.900 -0.9024  0.2643 -0.5056
17146SOL    HW253756   2.453   7.016   2.792  0.0422 -0.7637 -0.6491
17147SOL     OW53757   8.944   3.349   8.881 -0.0609  0.0032  0.4094
17147SOL    HW153758   9.021   3.398   8.911  0.8316  0.7816 -2.8341
17147SOL    HW253759   8.980   3.280   8.825 -1.6606 -0.2934 -0.3030
17148SOL     OW53760   9.060  10.252   2.664 -0.5755 -0.4295 -0.5315
17148SOL    HW153761   9.096  10.328   2.620 -1.5897  0.4585  0.1142
17148SOL    HW253762   8.966  10.257   2.647 -0.7839 -0.9356  0.4077
17149SOL     OW53763   4.623   2.211   5.285  0.1619 -0.5325  0.4368
17149SOL    HW153764   4.586   2.201   5.198  0.9101  3.2404 -0.5208
17149SOL    HW253765   4.550   2.193   5.345 -0.2348 -3.6891 -0.8217
17150SOL     OW53766  10.012   6.934   6.582 -1.0546  0.4118 -0.5466
17150SOL    HW153767   9.993   7.027   6.595 -0.2956  0.3066  1.8922
17150SOL    HW253768  10.094   6.932   6.533 -1.7326  0.9798 -1.7476
17151SOL     OW53769   5.642   8.928   4.551  0.3455  0.1641 -0.8922
17151SOL    HW153770   5.666   8.995   4.487  0.5324 -0.3990 -1.4121
17151SOL    HW253771   5.633   8.848   4.501  3.0067 -0.8640  0.0868
17152SOL     OW53772   3.137   1.520   5.157  0.4513 -0.1019  0.1232
17152SOL    HW153773   3.164   1.534   5.066 -0.6504 -1.3448 -0.4249
17152SOL    HW253774   3.162   1.430   5.176  3.8896  1.0970  2.2796
17153SOL     OW53775   6.157   9.615  10.491  0.6891 -0.1201  0.1871
17153SOL    HW153776   6.070   9.637  10.524 -0.8953 -2.0911 -2.3309
17153SOL    HW253777   6.179   9.532  10.534  0.8022 -0.2330 -0.0880
17154SOL     OW53778   2.198   0.236  10.282  0.0376 -0.0528  0.0959
17154SOL    HW153779   2.232   0.317  10.243 -1.1694  0.3454 -0.1819
17154SOL    HW253780   2.270   0.203  10.335  1.1067  0.3348 -1.0709
17155SOL     OW53781   8.689   3.854   0.641 -0.2371 -0.3316  0.0463
17155SOL    HW153782   8.752   3.836   0.571 -1.2005 -2.5823 -0.3332
17155SOL    HW253783   8.636   3.775   0.646 -1.9469  0.8318  1.5101
17156SOL     OW53784   6.285   5.427   2.423 -0.1418  0.0179 -0.4036
17156SOL    HW153785   6.301   5.345   2.469  1.1188  0.8306  0.6828
17156SOL    HW253786   6.336   5.420   2.342 -2.2520 -1.3575 -1.7072
17157SOL     OW53787   1.447   2.118   7.938  0.1668 -0.6212 -0.4245
17157SOL    HW153788   1.386   2.184   7.904  1.8123  1.6483  0.7650
17157SOL    HW253789   1.421   2.037   7.894 -2.0401  0.7600 -1.8865
17158SOL     OW53790   8.952   2.131   3.644  0.1874 -0.7925 -0.4437
17158SOL    HW153791   9.020   2.120   3.578  3.0909  2.1030  1.7392
17158SOL    HW253792   8.931   2.225   3.640  0.0925 -0.6379  2.3455
17159SOL     OW53793   8.593   6.128  10.355  0.3084 -0.1839  0.4711
17159SOL    HW153794   8.639   6.123  10.439 -0.7755  1.4542  1.2196
17159SOL    HW253795   8.647   6.185  10.301 -1.6465  3.4722  2.0463
17160SOL     OW53796   1.263   0.109  10.452  0.3900 -0.9123  0.0696
17160SOL    HW153797   1.354   0.100  10.480  0.4844  0.6658  0.3651
17160SOL    HW253798   1.222   0.027  10.477  1.7422 -1.6645 -0.1105
17161SOL     OW53799   7.839   0.003   0.710  0.0753  0.6122  0.1154
17161SOL    HW153800   7.845  -0.050   0.789 -1.7443 -0.2738 -0.2832
17161SOL    HW253801   7.904  -0.036   0.651 -1.4733 -1.5667 -0.3133
17162SOL     OW53802   2.097   3.678   4.457 -0.2485 -0.3176 -0.2100
17162SOL    HW153803   2.031   3.662   4.389 -1.8020 -0.9407  1.3945
17162SOL    HW253804   2.133   3.592   4.476 -1.0770 -0.4095  0.9854
17163SOL     OW53805   8.344   6.069   1.336 -0.3076 -0.3001  0.0061
17163SOL    HW153806   8.423   6.122   1.325 -0.2552 -0.0933  1.2131
17163SOL    HW253807   8.275   6.119   1.291 -0.0009  0.1544  0.0307
17164SOL     OW53808   7.431   9.316   5.417 -0.5257  0.4530 -0.7046
17164SOL    HW153809   7.363   9.318   5.350 -0.2275  0.6244 -1.0058
17164SOL    HW253810   7.462   9.225   5.417 -2.0922 -0.1378  0.8082
17165SOL     OW53811   2.093   9.654   4.790  0.2333 -0.3942  0.4818
17165SOL    HW153812   1.998   9.657   4.799  0.2960 -0.4045  1.2856
17165SOL    HW253813   2.110   9.579   4.733 -0.2429 -0.3168  0.2363
17166SOL     OW53814   4.011   4.653  10.012  1.1044  0.1645 -0.0448
17166SOL    HW153815   4.033   4.745  10.022 -0.1936  0.6595 -1.2856
17166SOL    HW253816   4.094   4.611   9.991  1.7884  0.9631  0.9729
17167SOL     OW53817   8.593   5.794   6.104  0.0682 -0.5267 -0.0084
17167SOL    HW153818   8.534   5.720   6.085 -0.2504 -0.4677  0.7380
17167SOL    HW253819   8.536   5.860   6.144  0.9133 -1.1697  2.4542
17168SOL     OW53820   3.709   8.921   6.855 -0.0320 -0.2296  0.3427
17168SOL    HW153821   3.732   9.009   6.826  2.2379 -0.1041  2.2294
17168SOL    HW253822   3.652   8.934   6.931  0.2715 -0.3854  0.5987
17169SOL     OW53823   7.149   7.563   3.699 -0.0894  0.0779  0.3871
17169SOL    HW153824   7.180   7.576   3.789 -0.8250 -1.6744  0.9541
17169SOL    HW253825   7.057   7.590   3.701  0.4996  2.3103 -0.4898
17170SOL     OW53826   9.959   3.045   0.946  1.2300  0.0183  0.1645
17170SOL    HW153827   9.994   3.046   1.035 -0.5002 -0.4187  0.9029
17170SOL    HW253828   9.865   3.028   0.958  1.1089 -0.9441 -1.7929
17171SOL     OW53829   8.414   8.008   6.605 -0.3804 -0.1928  0.0303
17171SOL    HW153830   8.397   8.033   6.696 -0.3618 -1.2297  0.3304
17171SOL    HW253831   8.495   7.958   6.609  0.7337  1.4301 -0.8493
17172SOL     OW53832   0.059   6.449   3.463 -0.2251 -0.2501 -0.3419
17172SOL    HW153833   0.015   6.375   3.503 -1.7521  0.6973 -0.1816
17172SOL    HW253834   0.053   6.520   3.527 -1.0224  0.7321 -1.4455
17173SOL     OW53835   1.973   4.695   1.090  0.3710  0.0089  0.6561
17173SOL    HW153836   1.942   4.604   1.081  0.0521 -0.4352  4.4200
17173SOL    HW253837   2.024   4.711   1.011 -2.7101 -2.0512 -2.0058
17174SOL     OW53838   3.474   3.908   6.426  0.6416  0.0912 -0.5946
17174SOL    HW153839   3.537   3.914   6.353  0.0009  2.0814 -1.0582
17174SOL    HW253840   3.428   3.992   6.424 -0.6961 -0.5583  0.9583
17175SOL     OW53841   9.081   4.942   2.074 -0.5213  0.1276 -0.1246
17175SOL    HW153842   9.072   4.850   2.050  1.2995 -0.1377  0.0819
17175SOL    HW253843   9.140   4.978   2.008 -2.2419  1.5284 -1.0124
17176SOL     OW53844   7.402   6.373   9.674  0.1180 -0.5882 -0.3124
17176SOL    HW153845   7.392   6.389   9.580 -1.4875 -0.1125 -0.0968
17176SOL    HW253846   7.394   6.460   9.714 -2.4483 -1.0725  0.4448
17177SOL     OW53847   4.742   1.160   8.096  0.2213  0.4908 -0.2014
17177SOL    HW153848   4.750   1.211   8.176 -0.5930  0.7700 -0.2949
17177SOL    HW253849   4.771   1.219   8.026 -1.7680  1.2553 -0.4504
17178SOL     OW53850  10.352   7.201   0.723 -0.4711 -0.4161  0.1286
17178SOL    HW153851  10.375   7.144   0.797 -1.9428  0.0801  1.0253
17178SOL    HW253852  10.397   7.283   0.741  0.2096 -0.7061 -0.2212
17179SOL     OW53853   5.129   4.444   9.278  0.1302  0.1531  0.1903
17179SOL    HW153854   5.178   4.478   9.353 -1.2958  0.2710  1.1061
17179SOL    HW253855   5.132   4.349   9.289  0.3991  0.1492  0.0834
17180SOL     OW53856   6.153  10.440   6.706  0.2250  0.4895  0.3951
17180SOL    HW153857   6.219  10.473   6.645  0.7044 -2.4260 -0.8017
17180SOL    HW253858   6.202  10.426   6.788  0.4717  0.7223  0.2917
17181SOL     OW53859   4.563   6.907   3.914 -0.3647 -0.2660 -0.2477
17181SOL    HW153860   4.547   7.001   3.912  1.9264  0.1922 -1.0741
17181SOL    HW253861   4.558   6.880   3.822 -0.3740 -0.8278 -0.0889
17182SOL     OW53862  10.385   6.585   2.281 -0.8231  0.5888 -0.4149
17182SOL    HW153863  10.408   6.659   2.337 -3.2581  0.5841  0.6936
17182SOL    HW253864  10.400   6.617   2.192  2.0223  0.9787  0.1075
17183SOL     OW53865   2.595   1.017   5.810  0.0733  0.5309 -1.2224
17183SOL    HW153866   2.602   0.925   5.835 -3.4290 -0.1328 -2.0721
17183SOL    HW253867   2.597   1.016   5.715  1.7335  1.5919 -1.2205
17184SOL     OW53868   6.651   0.552   4.886 -0.3544  0.1063  0.3860
17184SOL    HW153869   6.700   0.612   4.829  0.5575  0.3006  1.3474
17184SOL    HW253870   6.615   0.609   4.953  0.6229 -0.4153  1.3810
17185SOL     OW53871   8.210   9.951   2.435  0.4569 -0.0553 -0.0154
17185SOL    HW153872   8.197   9.970   2.528  0.8000 -1.3941  0.3297
17185SOL    HW253873   8.121   9.947   2.400  0.2808 -0.5422  0.4740
17186SOL     OW53874   2.276   1.685   4.784  0.3669  0.2474  0.0735
17186SOL    HW153875   2.301   1.633   4.708 -1.3960 -0.5497  0.0050
17186SOL    HW253876   2.235   1.623   4.844  0.6001  1.0975  1.1420
17187SOL     OW53877   3.183   3.868   4.779  0.0930 -0.1759 -0.1678
17187SOL    HW153878   3.179   3.936   4.712 -1.2791  2.3665  2.2521
17187SOL    HW253879   3.243   3.904   4.845 -0.9335 -1.1509  1.3548
17188SOL     OW53880   0.142   1.279   2.017  0.4445 -0.3279  0.1684
17188SOL    HW153881   0.071   1.216   2.019 -0.1508  0.3499  0.7552
17188SOL    HW253882   0.146   1.315   2.106  0.6604  0.5823 -0.1956
17189SOL     OW53883   6.459   7.765   4.521 -0.3110  0.1039  0.6778
17189SOL    HW153884   6.456   7.700   4.592  0.5796 -0.6585  0.0427
17189SOL    HW253885   6.552   7.774   4.501 -0.5616  0.1215 -0.5475
17190SOL     OW53886   7.056   3.265   5.610 -0.0603 -0.3616 -0.1478
17190SOL    HW153887   7.002   3.265   5.531  1.2596 -0.7789 -1.0881
17190SOL    HW253888   7.119   3.195   5.595  2.2459  1.5881 -0.1894
17191SOL     OW53889   7.062   9.235   3.925  0.0054  0.4617  0.2602
17191SOL    HW153890   6.993   9.169   3.930 -0.6359  1.0884 -0.0690
17191SOL    HW253891   7.123   9.211   3.994 -0.1485 -0.5468  0.0638
17192SOL     OW53892   5.075   9.501   7.359 -0.6161  0.1001  0.2938
17192SOL    HW153893   5.110   9.431   7.414 -0.5247  0.7556  1.0882
17192SOL    HW253894   5.109   9.482   7.272  0.2417 -0.2736  0.7002
17193SOL     OW53895   9.207   8.503   6.171  0.6708  0.9400 -0.3741
17193SOL    HW153896   9.224   8.593   6.145 -1.5219  2.1003  1.8073
17193SOL    HW253897   9.234   8.499   6.263  0.2916 -0.4971 -0.2995
17194SOL     OW53898   3.812   6.021   3.053  0.0389 -0.3876  0.3323
17194SOL    HW153899   3.803   6.090   2.987  0.8537 -1.5434 -1.0303
17194SOL    HW253900   3.722   6.002   3.079 -0.2193  0.9440  0.5015
17195SOL     OW53901   6.279   2.774   0.752 -0.1181  0.0736 -0.0090
17195SOL    HW153902   6.298   2.862   0.718 -1.4844  1.2384  1.9943
17195SOL    HW253903   6.275   2.718   0.675  4.9617  0.8010 -1.1104
17196SOL     OW53904   8.633   1.700   2.276 -0.2213  0.6704 -0.0161
17196SOL    HW153905   8.687   1.743   2.209 -0.4606  1.4413  0.2886
17196SOL    HW253906   8.554   1.674   2.229 -0.1588  0.7258 -0.1547
17197SOL     OW53907   7.734   2.747   4.821  0.2277 -0.0565  0.3937
17197SOL    HW153908   7.754   2.783   4.907  0.3724 -1.4697  0.9790
17197SOL    HW253909   7.734   2.652   4.834 -3.7094 -0.3108 -0.2382
17198SOL     OW53910  10.180   5.532   4.743 -0.2868  0.4743  0.0672
17198SOL    HW153911  10.202   5.461   4.803 -2.1103 -1.2885 -1.1823
17198SOL    HW253912  10.252   5.594   4.751  1.9812 -2.0158  0.4646
17199SOL     OW53913   4.706   3.768   0.731  0.2210 -0.0543  0.1035
17199SOL    HW153914   4.674   3.808   0.812 -1.2313 -0.2482 -0.3399
17199SOL    HW253915   4.647   3.694   0.716  1.4749 -1.0021 -0.2833
17200SOL     OW53916   4.178  10.178   9.464 -0.0655  0.2687  0.4199
17200SOL    HW153917   4.216  10.158   9.549  0.9799 -1.2077 -0.3681
17200SOL    HW253918   4.107  10.240   9.484  0.1157 -0.0851  2.3536
17201SOL     OW53919   7.358   6.569   3.671  0.6198  0.1295 -0.4101
17201SOL    HW153920   7.411   6.608   3.740 -1.5470  0.5908  1.1336
17201SOL    HW253921   7.366   6.630   3.598 -0.5449  2.1615  1.0243
17202SOL     OW53922   9.028  10.261   3.732 -0.4370 -1.0002  0.3675
17202SOL    HW153923   9.070  10.272   3.818 -1.1639  1.7870  0.4345
17202SOL    HW253924   8.936  10.282   3.747 -0.6501 -0.8477 -1.0296
17203SOL     OW53925   9.105   9.198   3.264 -0.5160 -0.5151 -0.1734
17203SOL    HW153926   9.169   9.220   3.197 -1.0473  2.1966  0.0936
17203SOL    HW253927   9.151   9.210   3.347 -0.9470  0.0835 -0.0091
17204SOL     OW53928   2.828   2.764   6.342 -0.3438 -0.4156 -0.5390
17204SOL    HW153929   2.881   2.686   6.327 -3.0332 -2.6330  0.5966
17204SOL    HW253930   2.810   2.763   6.436 -0.1565  1.8488 -0.4150
17205SOL     OW53931   2.347   6.004   9.700 -0.2842  0.3891 -0.3123
17205SOL    HW153932   2.253   5.985   9.708 -0.0081 -2.0393 -1.6589
17205SOL    HW253933   2.351   6.087   9.652 -1.7237  0.8702  0.3509
17206SOL     OW53934   2.973   6.192   0.155 -0.3086  0.0923  0.4606
17206SOL    HW153935   2.913   6.206   0.229 -1.1820  0.5680 -0.3222
17206SOL    HW253936   2.993   6.280   0.123 -0.6151 -0.1487 -0.4069
17207SOL     OW53937   1.175   7.268   3.437 -0.0440  0.6011 -0.4967
17207SOL    HW153938   1.123   7.309   3.506  0.3803 -0.2826  0.3656
17207SOL    HW253939   1.117   7.266   3.361 -1.7898 -1.5730  0.7901
17208SOL     OW53940   4.916   1.941   9.887 -0.0634 -0.2166  0.2310
17208SOL    HW153941   4.822   1.958   9.873 -0.0330  0.0844  0.3970
17208SOL    HW253942   4.960   2.013   9.842  0.3106 -2.8766 -4.3111
17209SOL     OW53943   2.703   3.047   8.229  0.3495 -0.2731 -0.1732
17209SOL    HW153944   2.688   3.133   8.191 -0.7321 -0.4099 -0.0924
17209SOL    HW253945   2.708   2.988   8.153 -1.5462 -0.5072 -0.1751
17210SOL     OW53946   8.957   7.102   8.308 -0.0984  0.0777 -0.4219
17210SOL    HW153947   9.052   7.106   8.301 -0.0098 -1.6750 -0.5892
17210SOL    HW253948   8.926   7.114   8.218 -0.0164  0.0609 -0.4522
17211SOL     OW53949   9.197   0.212   1.254 -0.2560  0.6422  0.1835
17211SOL    HW153950   9.143   0.272   1.202 -0.7053  0.2561  0.1968
17211SOL    HW253951   9.198   0.251   1.342 -1.7045 -0.0728  0.5473
17212SOL     OW53952  10.475   2.655   1.542 -0.5267  0.4746 -0.3448
17212SOL    HW153953  10.556   2.689   1.580 -0.6461 -1.2744  1.6760
17212SOL    HW253954  10.500   2.572   1.500 -1.0192  0.6599 -1.0309
17213SOL     OW53955   4.784   2.636   7.586 -0.2874 -0.3373  0.4306
17213SOL    HW153956   4.872   2.599   7.583 -0.2815 -0.2358 -1.7284
17213SOL    HW253957   4.727   2.562   7.607  0.0290 -1.0019 -0.9727
17214SOL     OW53958   0.630  10.536   6.577 -0.0095  0.2017  0.2996
17214SOL    HW153959   0.622  10.602   6.646  0.7652  0.9940 -0.3431
17214SOL    HW253960   0.645  10.586   6.497  1.3612 -0.7476 -0.0871
17215SOL     OW53961   3.867   3.192   5.441 -0.6287 -0.0820 -0.2114
17215SOL    HW153962   3.784   3.222   5.479 -0.3414 -0.3080  0.6398
17215SOL    HW253963   3.881   3.248   5.365  0.9191  3.4681  2.3983
17216SOL     OW53964   8.942   9.781   3.200  0.3791  0.0777  0.2633
17216SOL    HW153965   8.916   9.726   3.275  1.7310 -0.3830  0.4338
17216SOL    HW253966   8.895   9.863   3.213 -1.1015 -0.7590  0.4250
17217SOL     OW53967   3.786   5.872  10.034 -0.3035  0.5010 -0.7929
17217SOL    HW153968   3.818   5.957  10.061 -1.2701  0.5154  0.3658
17217SOL    HW253969   3.716   5.851  10.095 -0.1204 -1.1096 -1.0751
17218SOL     OW53970   4.812   6.907   6.115  0.1020 -0.5423 -0.2401
17218SOL    HW153971   4.840   6.995   6.142  0.7053 -0.7384 -0.2142
17218SOL    HW253972   4.848   6.849   6.182 -0.3790 -0.8022 -0.2045
17219SOL     OW53973   3.551  10.127   6.005  0.0287  0.4352 -0.1918
17219SOL    HW153974   3.550  10.088   5.917  0.4932  1.3768 -0.6263
17219SOL    HW253975   3.464  10.108   6.041  0.0760 -0.5679 -0.5753
17220SOL     OW53976   7.624   5.643   0.829 -0.1109  0.1026  0.4177
17220SOL    HW153977   7.592   5.577   0.767  0.5336  1.0742 -1.0061
17220SOL    HW253978   7.677   5.593   0.892  1.2419 -0.6661 -1.2339
17221SOL     OW53979   0.698   1.444   8.200 -0.7927 -0.0720  0.1987
17221SOL    HW153980   0.772   1.469   8.145 -0.5313  0.6788  0.8617
17221SOL    HW253981   0.673   1.357   8.170 -0.3575  0.1320 -0.7775
17222SOL     OW53982   8.331   7.828   3.710  0.2168 -0.5023  0.0271
17222SOL    HW153983   8.400   7.871   3.660 -0.0974 -1.3446 -1.1821
17222SOL    HW253984   8.259   7.891   3.712 -0.2038 -0.8729 -1.6301
17223SOL     OW53985   4.442   6.766   0.901 -0.3428 -0.0862 -0.4223
17223SOL    HW153986   4.513   6.704   0.885 -1.1395 -0.9731 -0.5927
17223SOL    HW253987   4.483   6.835   0.953  0.5937 -0.6831 -0.3279
17224SOL     OW53988  10.422   5.760   5.830  0.1553 -0.0991 -0.0440
17224SOL    HW153989  10.504   5.775   5.783  0.2302 -0.0332  0.1081
17224SOL    HW253990  10.358   5.814   5.783 -0.2707 -1.7644 -1.4978
17225SOL     OW53991   9.892   0.798   2.021  0.6749  0.1933  0.0847
17225SOL    HW153992   9.905   0.834   1.933 -1.2029  1.1471  0.1669
17225SOL    HW253993   9.866   0.873   2.075  1.1549 -0.4965  1.3228
17226SOL     OW53994   9.091   4.100   6.887  0.5192  0.5660  0.3405
17226SOL    HW153995   9.090   4.026   6.825  2.6943  1.3325 -0.7376
17226SOL    HW253996   9.024   4.160   6.854  2.5364  1.6117 -2.2795
17227SOL     OW53997   5.913   5.048   6.072 -0.3279 -0.9176  0.0492
17227SOL    HW153998   5.965   5.104   6.014  1.7935 -1.6057  1.1851
17227SOL    HW253999   5.859   4.995   6.013  1.2001 -1.0606 -1.2712
17228SOL     OW54000   4.907   2.919   8.596 -0.5896  0.3872  0.4149
17228SOL    HW154001   4.889   3.013   8.606 -1.1087  0.4161 -0.6192
17228SOL    HW254002   4.946   2.893   8.679 -0.6596  1.4702  0.8051
17229SOL     OW54003   3.116   6.022   9.166  0.1955  0.3509 -0.2602
17229SOL    HW154004   3.120   5.927   9.150  1.0302  0.4621 -0.7334
17229SOL    HW254005   3.166   6.035   9.247  0.6598  0.4718 -0.5660
17230SOL     OW54006   8.306   3.475  10.049 -0.1196  0.0169 -0.0027
17230SOL    HW154007   8.326   3.481   9.956 -2.0778  1.9195 -0.3596
17230SOL    HW254008   8.211   3.481  10.054  0.0317  2.3368  2.2107
17231SOL     OW54009   3.653   2.628   7.179  0.4661  0.2162  0.1898
17231SOL    HW154010   3.579   2.670   7.222  0.9052 -0.1845  1.3527
17231SOL    HW254011   3.711   2.700   7.155  0.2038  0.4440  0.2320
17232SOL     OW54012   6.693   1.711   1.038  0.8024 -0.2840 -0.0682
17232SOL    HW154013   6.788   1.724   1.047  0.6083  0.2551  1.5655
17232SOL    HW254014   6.657   1.800   1.040  0.2032 -0.5264  0.1915
17233SOL     OW54015  10.562   0.552   3.306 -0.6389 -0.3810 -0.0818
17233SOL    HW154016  10.475   0.548   3.345 -0.0055 -0.4392  1.3855
17233SOL    HW254017  10.578   0.464   3.271 -1.2168 -0.3215 -0.5072
17234SOL     OW54018   7.515   0.751   8.415 -0.0041  0.0263  0.0504
17234SOL    HW154019   7.489   0.736   8.324  0.1405  2.0625 -0.3787
17234SOL    HW254020   7.593   0.697   8.427  1.3820  1.4554 -1.8232
17235SOL     OW54021   2.121  10.179   6.033  0.9082  0.0965  0.0583
17235SOL    HW154022   2.192  10.119   6.007  2.2493  2.0264 -0.9893
17235SOL    HW254023   2.161  10.237   6.097  0.3098  1.2573 -0.5874
17236SOL     OW54024   1.415   7.604   9.815 -0.0800  1.2748 -0.6626
17236SOL    HW154025   1.446   7.661   9.885  0.4780  0.4133 -0.1789
17236SOL    HW254026   1.484   7.538   9.806 -1.1088  0.1453 -0.5712
17237SOL     OW54027   3.257   1.552   6.869 -0.1505  0.6789 -0.0789
17237SOL    HW154028   3.267   1.615   6.941 -1.1221  0.7458  0.0139
17237SOL    HW254029   3.279   1.602   6.790 -1.9457  1.4926 -0.1251
17238SOL     OW54030   8.018   0.454   2.978  0.3715  0.2998  0.3367
17238SOL    HW154031   7.968   0.491   2.906  0.9825 -2.3362 -1.5977
17238SOL    HW254032   8.108   0.451   2.947  0.5204 -1.6513  0.8106
17239SOL     OW54033   4.334   7.910   1.311 -0.1698  0.4013  0.3098
17239SOL    HW154034   4.334   7.996   1.270  0.5396  0.7614  1.0315
17239SOL    HW254035   4.271   7.918   1.383 -0.9848 -0.0519 -0.3419
17240SOL     OW54036   2.133   3.190   8.197 -0.2882  0.1344  0.3636
17240SOL    HW154037   2.089   3.121   8.146 -1.1499 -0.8956  2.3568
17240SOL    HW254038   2.081   3.195   8.277  0.2382  2.6051  0.6019
17241SOL     OW54039   2.704   3.126   5.837 -0.0859 -0.6353  0.0163
17241SOL    HW154040   2.664   3.078   5.765  1.1287  0.0765 -1.1765
17241SOL    HW254041   2.635   3.184   5.869 -0.0702  0.5258 -1.9486
17242SOL     OW54042   6.158   0.391   2.621 -0.6743  0.1159 -0.3595
17242SOL    HW154043   6.234   0.384   2.679 -0.4213  0.0826 -0.6966
17242SOL    HW254044   6.194   0.383   2.533 -1.0705  0.0852 -0.5192
17243SOL     OW54045   5.198   8.919   4.446 -0.0382 -0.3220 -0.0042
17243SOL    HW154046   5.293   8.933   4.450 -0.2353  1.0938  0.1636
17243SOL    HW254047   5.180   8.861   4.520  0.4765  0.8809  1.1090
17244SOL     OW54048   3.457   9.835   3.999 -0.0749  0.7510  0.4743
17244SOL    HW154049   3.458   9.866   4.090 -1.2189  0.8505  0.4694
17244SOL    HW254050   3.395   9.762   3.999  0.0337  0.6515 -0.1954
17245SOL     OW54051   4.206   5.472   0.322  0.7759  0.0550  0.1747
17245SOL    HW154052   4.203   5.479   0.227 -1.2211 -0.0202  0.2037
17245SOL    HW254053   4.263   5.397   0.338  0.0181 -0.8139 -1.0247
17246SOL     OW54054   1.800   6.517   0.402 -0.6964 -0.2323  0.1017
17246SOL    HW154055   1.894   6.518   0.380 -0.9880  0.3949 -1.2336
17246SOL    HW254056   1.760   6.467   0.331 -1.5286  0.6518 -0.0677
17247SOL     OW54057   3.834   4.160   2.723  0.3803 -0.0821  0.0619
17247SOL    HW154058   3.787   4.234   2.763  2.4327  0.8153  0.9486
17247SOL    HW254059   3.853   4.189   2.633 -0.4673 -0.3384 -0.2108
17248SOL     OW54060   4.995   0.821   0.287  0.2654 -0.0325 -0.5101
17248SOL    HW154061   4.968   0.759   0.354  1.2013  1.8369  1.7585
17248SOL    HW254062   5.088   0.801   0.271 -0.2264 -1.1966 -2.1812
17249SOL     OW54063   8.613   9.334   8.503  0.9122 -0.5907  0.1639
17249SOL    HW154064   8.626   9.390   8.579 -0.9196 -1.1559  0.9489
17249SOL    HW254065   8.568   9.391   8.439  3.0505  0.0861 -0.8309
17250SOL     OW54066   1.823   0.742   0.891 -0.2068  0.2867  0.2409
17250SOL    HW154067   1.917   0.733   0.877 -0.1445 -2.8008  1.8794
17250SOL    HW254068   1.795   0.805   0.825  2.9134  1.0110 -0.5512
17251SOL     OW54069   2.626   4.212   7.182  0.6642 -0.1148  0.0577
17251SOL    HW154070   2.580   4.128   7.187 -0.0664  0.2092 -0.8564
17251SOL    HW254071   2.563   4.272   7.143  0.2894  1.5484  2.9315
17252SOL     OW54072   4.922   1.643   1.132  0.0553  0.2279  0.2924
17252SOL    HW154073   4.896   1.690   1.211 -1.6520  0.8889 -0.5982
17252SOL    HW254074   4.846   1.650   1.074  0.8028 -1.2650 -0.9530
17253SOL     OW54075   6.279   1.445   0.204  1.2416 -0.2499  0.5891
17253SOL    HW154076   6.326   1.366   0.230  0.3714 -1.2480 -0.7103
17253SOL    HW254077   6.248   1.426   0.115 -1.9145  0.1584  1.4860
17254SOL     OW54078   6.855  10.460   7.454 -0.2973  0.3871 -0.2345
17254SOL    HW154079   6.765  10.475   7.426 -0.1207  1.5666 -0.2260
17254SOL    HW254080   6.898  10.545   7.444  0.9082 -0.2399 -0.5623
17255SOL     OW54081   7.291   1.801   0.920 -0.0744  0.1346 -1.0826
17255SOL    HW154082   7.341   1.721   0.937 -0.9680 -0.3740 -0.7639
17255SOL    HW254083   7.297   1.851   1.001  0.1060  0.1692 -1.1190
17256SOL     OW54084   7.376   1.763   2.384  0.8448 -0.0850 -0.2213
17256SOL    HW154085   7.331   1.821   2.445 -1.2723 -1.5792 -0.2534
17256SOL    HW254086   7.395   1.817   2.308 -2.2243  0.3309 -0.7839
17257SOL     OW54087   7.538   1.305   0.195  0.0970  0.0346 -0.8186
17257SOL    HW154088   7.485   1.263   0.127  0.8388  0.1445 -1.4729
17257SOL    HW254089   7.626   1.309   0.159  0.6215 -0.3435  0.3438
17258SOL     OW54090   0.956   6.284   6.303 -0.3779  0.1318  0.0065
17258SOL    HW154091   0.883   6.246   6.352 -0.8747 -1.3311 -1.7701
17258SOL    HW254092   1.014   6.320   6.371 -2.0793  0.1790  1.5304
17259SOL     OW54093   5.243   2.049   2.355  0.4438  0.5294  0.2582
17259SOL    HW154094   5.216   1.997   2.431 -1.8095  2.0473  0.5944
17259SOL    HW254095   5.184   2.124   2.356  0.4761  0.7010 -2.9146
17260SOL     OW54096   7.539   5.502   0.293 -0.4288 -0.4804  0.5514
17260SOL    HW154097   7.548   5.414   0.255  0.4453 -0.0659 -0.2489
17260SOL    HW254098   7.615   5.550   0.259 -2.1157  1.2802 -0.9866
17261SOL     OW54099  10.321  10.042   7.526  0.3355 -0.0232 -0.1416
17261SOL    HW154100  10.371  10.124   7.525  2.4035 -1.2049 -0.0147
17261SOL    HW254101  10.322  10.014   7.618  2.3949 -1.7005 -0.6037
17262SOL     OW54102   5.953   4.586   4.915 -0.2137 -0.3035  0.6771
17262SOL    HW154103   5.912   4.646   4.978 -1.3424  0.3340 -0.6086
17262SOL    HW254104   5.986   4.643   4.846 -0.3751 -1.0871 -0.0613
17263SOL     OW54105   6.510   2.128   9.274 -0.1868  0.1654 -0.4698
17263SOL    HW154106   6.566   2.203   9.293 -0.4532  0.5171 -1.0321
17263SOL    HW254107   6.455   2.118   9.352 -1.0535  1.3905 -0.8936
17264SOL     OW54108   1.891   1.404   2.668  0.2235 -0.7636 -0.3109
17264SOL    HW154109   1.926   1.366   2.748  1.1762  0.2427 -0.2277
17264SOL    HW254110   1.967   1.440   2.623 -0.3214 -1.1683 -1.5956
17265SOL     OW54111  10.350   3.948   2.499 -0.2492 -0.2577  0.2299
17265SOL    HW154112  10.366   3.996   2.580  0.2972  0.2080 -0.1448
17265SOL    HW254113  10.275   3.992   2.459  0.1141  0.1472 -0.0069
17266SOL     OW54114   8.917   4.006   4.178  0.4565  0.0228 -0.4383
17266SOL    HW154115   8.852   3.940   4.203  1.0506 -0.1447  0.7663
17266SOL    HW254116   8.869   4.089   4.178 -0.0143 -0.2508 -0.6981
17267SOL     OW54117   7.076   2.577   9.506 -0.1643  0.3921  0.0263
17267SOL    HW154118   7.063   2.644   9.573  0.3072  0.5836 -0.0675
17267SOL    HW254119   7.030   2.610   9.429  1.0390  1.1719 -0.3763
17268SOL     OW54120   8.847   4.160   3.167  0.3175 -0.6611 -0.3374
17268SOL    HW154121   8.832   4.162   3.261 -1.2857 -0.7844 -0.5552
17268SOL    HW254122   8.771   4.205   3.130  0.1546 -1.9355 -1.6455
17269SOL     OW54123   7.885   2.398   2.701  0.2317  0.4226  0.0272
17269SOL    HW154124   7.939   2.339   2.753  0.9028  1.1189  0.1310
17269SOL    HW254125   7.945   2.466   2.672  0.0823 -0.3474 -2.3468
17270SOL     OW54126   8.736   3.877   4.345  0.3459  0.0230 -0.1401
17270SOL    HW154127   8.747   3.784   4.325  0.2139 -0.4014  1.6393
17270SOL    HW254128   8.698   3.879   4.433 -1.1786  1.7372 -0.7739
17271SOL     OW54129   6.177   5.812  10.456 -0.2523  0.5392 -0.3824
17271SOL    HW154130   6.242   5.752  10.418 -0.4692 -0.4692  0.7762
17271SOL    HW254131   6.132   5.849  10.380 -0.2169 -0.8932 -1.1480
17272SOL     OW54132   1.857   1.787   0.454 -0.5303 -0.0420 -0.8190
17272SOL    HW154133   1.797   1.861   0.465  1.3245  1.4550 -0.0475
17272SOL    HW254134   1.918   1.816   0.386  0.6917 -0.5295  0.0381
17273SOL     OW54135   5.025   3.406   7.713 -0.0368 -0.0636 -0.1605
17273SOL    HW154136   4.976   3.482   7.682  1.0968 -0.0464 -2.0649
17273SOL    HW254137   4.999   3.335   7.654 -1.3952 -1.3489  1.8369
17274SOL     OW54138   2.507   1.475   0.368  0.0807  0.0737 -0.2727
17274SOL    HW154139   2.563   1.405   0.333 -0.6034 -0.1098 -1.0505
17274SOL    HW254140   2.526   1.551   0.312 -0.2273  0.0876 -0.3638
17275SOL     OW54141   3.175   5.448   5.683  0.0265  0.3462  0.0263
17275SOL    HW154142   3.221   5.371   5.716 -1.2795 -0.5131 -0.1040
17275SOL    HW254143   3.238   5.490   5.624  1.1757  0.0454  0.9913
17276SOL     OW54144   4.729   1.504   2.245  0.6413  0.4553 -0.1045
17276SOL    HW154145   4.703   1.414   2.225  0.2219  0.5546 -0.0264
17276SOL    HW254146   4.760   1.501   2.335  3.2655 -0.1458 -0.9467
17277SOL     OW54147   7.873   9.900   5.910 -0.1348 -0.2606 -0.1418
17277SOL    HW154148   7.930   9.830   5.877  0.2445 -0.2183  0.4015
17277SOL    HW254149   7.831   9.862   5.987  1.7705  0.8013  1.5062
17278SOL     OW54150   6.211   3.671   3.725 -0.0095 -0.0075 -0.3456
17278SOL    HW154151   6.140   3.731   3.702  0.0041  0.9542  1.8564
17278SOL    HW254152   6.171   3.610   3.787  1.1438  0.8826  1.3595
17279SOL     OW54153   5.166   1.977   6.430  0.1685  0.2854 -0.4013
17279SOL    HW154154   5.175   1.884   6.452 -1.1054  0.5265  1.3733
17279SOL    HW254155   5.253   2.014   6.447  2.0874 -1.2072 -5.3370
17280SOL     OW54156   6.532   5.369   3.777 -0.1229 -0.5925 -0.1230
17280SOL    HW154157   6.454   5.422   3.761 -0.8841 -1.9427 -1.1278
17280SOL    HW254158   6.497   5.287   3.813  1.0380 -0.3379  1.7072
17281SOL     OW54159   1.465   7.512   8.228  0.0326  0.1515 -0.4056
17281SOL    HW154160   1.417   7.565   8.164  0.9815  0.1137 -1.1711
17281SOL    HW254161   1.453   7.422   8.197 -0.6482  0.0018  0.2624
17282SOL     OW54162   6.206   7.771   5.212 -0.2142 -0.0703 -0.8038
17282SOL    HW154163   6.151   7.792   5.288 -1.1051 -2.1517 -0.8016
17282SOL    HW254164   6.148   7.783   5.136  0.9518  2.9781 -1.3398
17283SOL     OW54165   6.810   9.868   6.324 -0.1513 -0.7899  0.0400
17283SOL    HW154166   6.823   9.958   6.356 -1.9540 -0.0940 -1.0578
17283SOL    HW254167   6.851   9.868   6.238 -0.5963 -0.8561 -0.1740
17284SOL     OW54168   0.033   2.170   9.309 -0.7774 -0.1600 -0.1427
17284SOL    HW154169   0.101   2.223   9.268 -1.2225  1.0595  0.6405
17284SOL    HW254170   0.072   2.140   9.391 -0.7640 -0.4922 -0.2684
17285SOL     OW54171  10.048   0.239  10.503  0.3069 -0.8073  0.8629
17285SOL    HW154172   9.984   0.297  10.462  0.0306 -2.0346 -0.5788
17285SOL    HW254173  10.127   0.292  10.511 -0.4620  0.2977  1.3194
17286SOL     OW54174  10.370   1.267   0.036 -0.3170 -0.0095 -0.0258
17286SOL    HW154175  10.459   1.280   0.004 -0.5410  1.3745 -0.1714
17286SOL    HW254176  10.378   1.204   0.107  0.8088  0.2736  0.1096
17287SOL     OW54177   6.296   3.358   4.140  0.3833 -1.0392 -0.6238
17287SOL    HW154178   6.327   3.283   4.191  0.8986  0.2655  1.0670
17287SOL    HW254179   6.295   3.326   4.049  0.0330 -3.2439  0.0926
17288SOL     OW54180   9.955   9.225   3.544  0.4381  0.9412  0.0173
17288SOL    HW154181   9.936   9.307   3.498 -1.4847  0.8347  0.5600
17288SOL    HW254182   9.872   9.200   3.585  1.3384 -0.5610  1.0183
17289SOL     OW54183   7.968   9.026   1.707  0.1532  0.2710  0.6069
17289SOL    HW154184   8.059   9.002   1.723  0.5440  2.0566  1.2247
17289SOL    HW254185   7.958   9.112   1.747 -1.1371  1.2221 -1.5852
17290SOL     OW54186   0.411   6.704   2.968  0.1960 -0.1626 -0.0492
17290SOL    HW154187   0.340   6.653   3.004  0.6418 -1.1843 -0.5691
17290SOL    HW254188   0.451   6.748   3.043  0.3375 -1.2685  0.5406
17291SOL     OW54189   7.149  10.331   0.196  0.3172  0.2402 -0.8234
17291SOL    HW154190   7.147  10.387   0.273  1.1886 -1.4270  0.4596
17291SOL    HW254191   7.167  10.392   0.123 -0.9523  1.8940  0.1745
17292SOL     OW54192   1.597   5.588   7.296 -0.4109 -0.0755 -0.7142
17292SOL    HW154193   1.527   5.619   7.238 -0.2027  0.9058 -0.4633
17292SOL    HW254194   1.672   5.576   7.237 -0.8051 -1.2547 -1.0047
17293SOL     OW54195   9.417   0.786   0.740 -0.5017  0.3119  0.4472
17293SOL    HW154196   9.389   0.877   0.733 -0.8858  0.1283 -0.5619
17293SOL    HW254197   9.369   0.741   0.671  1.3308 -0.2461 -0.5189
17294SOL     OW54198   8.663   4.675   9.809  0.4750 -0.3117  0.5341
17294SOL    HW154199   8.693   4.656   9.898  2.1133  2.6508  0.7405
17294SOL    HW254200   8.736   4.652   9.753 -0.0809 -0.9838  0.0742
17295SOL     OW54201   9.595   2.263   8.681 -0.2880  0.0381  0.1284
17295SOL    HW154202   9.521   2.323   8.674 -0.4148 -0.2108 -0.9151
17295SOL    HW254203   9.584   2.221   8.766 -0.8387  0.6495  0.3739
17296SOL     OW54204   5.323   6.797   3.928 -0.3685  0.0224 -0.0591
17296SOL    HW154205   5.407   6.774   3.888 -0.0223  0.9636  0.0808
17296SOL    HW254206   5.320   6.746   4.009  0.3972  0.4918  0.2780
17297SOL     OW54207   0.455   2.395   8.139 -0.4646  0.1784  0.6637
17297SOL    HW154208   0.429   2.376   8.049 -1.8797  1.3596  0.7918
17297SOL    HW254209   0.483   2.310   8.174  1.4047 -0.0857 -1.2611
17298SOL     OW54210   7.258   5.668   9.655 -0.2969 -0.3502 -0.0853
17298SOL    HW154211   7.258   5.737   9.588 -0.4908 -0.7940 -0.5471
17298SOL    HW254212   7.308   5.597   9.616  1.9526  0.3746  1.2963
17299SOL     OW54213   0.569   7.883  10.265  0.2089 -0.4901 -0.1297
17299SOL    HW154214   0.657   7.860  10.234  0.3289 -0.7112  0.3749
17299SOL    HW254215   0.537   7.945  10.199  0.4097 -1.0525 -0.7712
17300SOL     OW54216   6.048   0.914   8.227  0.2154  0.4425 -0.0220
17300SOL    HW154217   6.028   0.933   8.135  0.9862  0.4698 -0.1986
17300SOL    HW254218   6.144   0.909   8.229  0.2671  1.6339  1.0286
17301SOL     OW54219   2.138   7.217   0.417 -0.2485 -0.2260  0.1647
17301SOL    HW154220   2.159   7.267   0.495 -1.8209 -1.6518  1.5994
17301SOL    HW254221   2.173   7.129   0.434 -1.4773 -0.8272 -0.2582
17302SOL     OW54222   3.305  10.475   1.429  0.4384 -0.3805 -0.2713
17302SOL    HW154223   3.377  10.461   1.367  0.6183 -0.6960  0.0054
17302SOL    HW254224   3.277  10.565   1.413  1.9644  0.3290  0.7173
17303SOL     OW54225   0.970   3.858   4.403 -0.3001  0.1191 -0.2829
17303SOL    HW154226   1.061   3.854   4.375  0.2575 -1.3622  1.5619
17303SOL    HW254227   0.930   3.778   4.369 -0.3421 -0.2836  0.6809
17304SOL     OW54228   4.874   1.512   7.834  0.3159 -0.2358  0.3939
17304SOL    HW154229   4.840   1.549   7.752 -0.5051 -1.3912  0.1953
17304SOL    HW254230   4.802   1.459   7.868  0.9642 -0.4828  1.4174
17305SOL     OW54231   0.531  10.159   0.081 -0.0135  0.3954 -0.6704
17305SOL    HW154232   0.574  10.167   0.166  1.3700 -0.3311 -1.2648
17305SOL    HW254233   0.459  10.221   0.084 -2.7517 -2.5499  2.6412
17306SOL     OW54234   5.072   2.211   8.674 -0.3962 -0.3487  0.5899
17306SOL    HW154235   5.104   2.127   8.708 -4.8205 -2.9864 -0.8216
17306SOL    HW254236   5.064   2.197   8.580  2.3020  3.2214 -0.3680
17307SOL     OW54237   1.213   8.095   0.598 -0.8926 -0.4337 -0.1917
17307SOL    HW154238   1.164   8.161   0.648 -0.8264 -1.2116  0.9360
17307SOL    HW254239   1.247   8.143   0.523 -1.7714  0.5631  0.0194
17308SOL     OW54240   1.772   5.747   4.572 -0.5244 -0.1984  0.3754
17308SOL    HW154241   1.678   5.743   4.587 -0.2474  0.6701  2.8681
17308SOL    HW254242   1.806   5.799   4.645  1.6967  1.1293 -1.4385
17309SOL     OW54243   8.452   2.069   9.226 -0.2772 -0.3085 -0.4974
17309SOL    HW154244   8.486   2.004   9.164 -0.7146 -1.8850  0.8282
17309SOL    HW254245   8.358   2.071   9.210 -0.0627  1.4134 -1.7668
17310SOL     OW54246   1.434   0.735   0.950  0.5801 -0.6266  0.2974
17310SOL    HW154247   1.393   0.666   1.003 -0.3447 -0.9884 -0.8468
17310SOL    HW254248   1.508   0.691   0.907  1.1867 -0.3929  1.0875
17311SOL     OW54249   4.237   8.230   3.526 -0.5907 -0.1183  0.7367
17311SOL    HW154250   4.301   8.208   3.458  0.3873  0.0035  1.5822
17311SOL    HW254251   4.251   8.323   3.542 -2.2382  0.3381 -0.3211
17312SOL     OW54252   2.515   2.007   8.453 -0.4129 -0.7104 -0.1762
17312SOL    HW154253   2.548   1.984   8.366  0.3735 -2.2672  0.4871
17312SOL    HW254254   2.455   1.936   8.475  1.7406 -2.0687  1.7732
17313SOL     OW54255   2.138   2.391   6.598 -0.0222 -0.0586  0.0991
17313SOL    HW154256   2.127   2.484   6.617  0.1542  0.1024 -0.5496
17313SOL    HW254257   2.054   2.364   6.560 -1.1833 -0.8993  2.9445
17314SOL     OW54258   2.158   1.230   3.963  0.0399 -0.4570 -0.3750
17314SOL    HW154259   2.143   1.164   3.896  0.0124 -1.4313  0.5722
17314SOL    HW254260   2.070   1.258   3.989  0.0482  0.7497 -1.5001
17315SOL     OW54261   8.935   0.846   7.252  0.3336 -0.1660  0.2436
17315SOL    HW154262   9.010   0.793   7.278  1.1626  0.4969 -0.7151
17315SOL    HW254263   8.923   0.908   7.324 -0.1362 -1.1034  0.9982
17316SOL     OW54264   7.648  10.478   7.443  0.2183 -0.1036  0.3697
17316SOL    HW154265   7.566  10.499   7.398 -0.5930  0.1436  1.9108
17316SOL    HW254266   7.665  10.553   7.499  1.1559 -0.4466  0.5657
17317SOL     OW54267   0.723   7.294   0.157  0.4009 -0.4118 -0.1170
17317SOL    HW154268   0.662   7.245   0.102 -1.3691  0.9882  0.5184
17317SOL    HW254269   0.724   7.246   0.240  3.4355 -2.8029 -1.3243
17318SOL     OW54270   0.258   0.352   7.631 -0.7555 -0.9864 -0.3241
17318SOL    HW154271   0.352   0.337   7.622 -0.5881 -1.8495  2.0385
17318SOL    HW254272   0.217   0.273   7.596 -0.4934 -1.4284  0.3490
17319SOL     OW54273   3.936   9.067   4.588 -0.4360 -0.5026 -0.4997
17319SOL    HW154274   3.955   9.014   4.665 -0.5630  0.2650  0.0720
17319SOL    HW254275   3.946   9.006   4.514  0.0062 -1.1659  0.0882
17320SOL     OW54276   4.825   3.154   5.870  0.7577  0.4298  0.1491
17320SOL    HW154277   4.813   3.200   5.954  1.7615  0.6779  0.1696
17320SOL    HW254278   4.772   3.074   5.879  3.1710 -1.0731  2.2362
17321SOL     OW54279   6.449   0.739   1.375  0.1632  0.0968  0.1252
17321SOL    HW154280   6.524   0.739   1.435  1.5540 -0.6071 -1.5481
17321SOL    HW254281   6.457   0.822   1.327 -0.8674  0.5922  0.7593
17322SOL     OW54282   5.853   7.786   0.684  0.0341 -0.4195  0.0895
17322SOL    HW154283   5.808   7.777   0.767 -2.1748 -3.9480 -1.2941
17322SOL    HW254284   5.784   7.802   0.620  1.2436 -1.3403 -1.5366
17323SOL     OW54285   9.197   3.000   6.903 -0.3380  0.3818 -0.1007
17323SOL    HW154286   9.262   2.952   6.852  0.6381  1.6615 -0.0836
17323SOL    HW254287   9.204   3.090   6.874 -1.2538  0.7661  0.7877
17324SOL     OW54288   1.119   4.064   3.833  0.2947  0.8480 -0.3207
17324SOL    HW154289   1.046   4.045   3.775  0.6705  0.0814 -0.5578
17324SOL    HW254290   1.124   4.160   3.835  0.1493  0.8942 -1.4035
17325SOL     OW54291   0.520   1.559   9.589 -0.2641 -0.5551 -0.1449
17325SOL    HW154292   0.611   1.544   9.615 -0.6753  0.4524  2.1715
17325SOL    HW254293   0.473   1.483   9.624 -1.0489  1.4934  3.8362
17326SOL     OW54294   0.114   1.263   9.861 -0.3106  0.2830  0.7190
17326SOL    HW154295   0.192   1.212   9.839 -0.9907 -0.4158 -0.1317
17326SOL    HW254296   0.055   1.250   9.787 -1.7373 -0.1988  1.8904
17327SOL     OW54297   4.382   0.209   2.136 -0.5595 -0.4308 -0.8653
17327SOL    HW154298   4.461   0.247   2.099 -0.1288 -1.4617 -1.0360
17327SOL    HW254299   4.311   0.266   2.105  0.0678  0.3026 -0.9917
17328SOL     OW54300   0.291   5.653   2.723 -0.5651 -0.1486  0.1550
17328SOL    HW154301   0.243   5.726   2.763  1.2271  0.5880  1.0472
17328SOL    HW254302   0.255   5.576   2.767 -1.2815  0.3317  0.4436
17329SOL     OW54303   3.929   7.971   5.335  0.2239 -0.4183 -0.0928
17329SOL    HW154304   3.883   7.994   5.416 -0.4744  0.3055 -0.6791
17329SOL    HW254305   3.864   7.925   5.282 -0.2852  1.6928 -1.4428
17330SOL     OW54306   9.232   2.136   0.603  0.3538 -0.4300 -0.2579
17330SOL    HW154307   9.277   2.060   0.640  0.6915  0.3760  1.0458
17330SOL    HW254308   9.293   2.208   0.616 -0.1168  0.1503 -1.1467
17331SOL     OW54309   0.925   2.858   0.095 -0.5073 -0.3406  0.3242
17331SOL    HW154310   0.966   2.836   0.179  1.1459 -0.0380 -0.3785
17331SOL    HW254311   0.947   2.786   0.037  1.3581  1.0517 -0.8055
17332SOL     OW54312   9.007   9.719   6.058  0.3725  0.2348  0.0984
17332SOL    HW154313   9.056   9.763   6.127 -0.3166 -0.9389  1.3771
17332SOL    HW254314   8.947   9.661   6.104 -1.0416  0.3851 -1.4645
17333SOL     OW54315   7.800   0.851   9.871  0.5268 -0.3477  0.3217
17333SOL    HW154316   7.839   0.793   9.806  0.9734 -0.8524  1.0313
17333SOL    HW254317   7.873   0.905   9.902  0.5173 -0.7807  1.1100
17334SOL     OW54318   7.853  10.305   0.293  0.0474  0.0140  0.2422
17334SOL    HW154319   7.948  10.303   0.305  0.1968 -2.4622 -0.7229
17334SOL    HW254320   7.818  10.319   0.381  1.2951  1.4657  0.5362
17335SOL     OW54321   1.839   9.438   2.804 -0.4218 -0.2604  0.0727
17335SOL    HW154322   1.908   9.460   2.741  0.2776  0.4373  1.0606
17335SOL    HW254323   1.885   9.397   2.877 -1.0690  0.0750  0.6783
17336SOL     OW54324   6.849   7.145   0.153  0.1242  0.2731 -0.0577
17336SOL    HW154325   6.847   7.066   0.099  0.0275 -0.0253  0.3784
17336SOL    HW254326   6.870   7.113   0.241 -0.0147  0.7227  0.1393
17337SOL     OW54327   8.962   5.098   9.155 -0.2128 -0.0118 -0.1394
17337SOL    HW154328   9.020   5.174   9.146  0.9014 -1.0310 -2.4816
17337SOL    HW254329   9.012   5.037   9.210 -0.6815  0.5261  0.9079
17338SOL     OW54330   8.450   3.411   7.917  0.1080  0.2513 -0.2256
17338SOL    HW154331   8.494   3.420   7.832  1.4570 -0.9194  0.3118
17338SOL    HW254332   8.433   3.318   7.926  0.3926  0.3025  1.0000
17339SOL     OW54333   1.131   9.073   3.250 -0.3904 -0.0826 -0.0172
17339SOL    HW154334   1.203   9.013   3.269 -0.6145  0.2327  1.9922
17339SOL    HW254335   1.058   9.040   3.302 -1.3126  0.4076 -0.9673
17340SOL     OW54336   9.139   1.273   2.344 -0.2666 -0.6659 -0.2685
17340SOL    HW154337   9.091   1.355   2.353  0.1038 -0.3712 -0.9045
17340SOL    HW254338   9.207   1.277   2.411 -1.0383 -1.0295  0.5520
17341SOL     OW54339   9.505   0.826   5.869 -0.4124 -0.2277 -0.1213
17341SOL    HW154340   9.575   0.857   5.928 -0.9645  2.2995 -0.6626
17341SOL    HW254341   9.424   0.851   5.913 -0.8870 -0.3510 -0.9114
17342SOL     OW54342   2.537   3.833  10.580  0.1636  0.0442  0.0974
17342SOL    HW154343   2.527   3.886  10.501  1.4526 -0.4732 -0.4426
17342SOL    HW254344   2.452   3.789  10.591 -0.6311  1.5221  0.0671
17343SOL     OW54345   7.429   8.350   9.362  0.4688  0.4106 -0.5800
17343SOL    HW154346   7.453   8.373   9.452 -3.7648  1.5126  0.4669
17343SOL    HW254347   7.466   8.263   9.350  0.0786 -0.3832  2.7757
17344SOL     OW54348   1.727  10.533   9.070  0.0733  0.3278 -0.2184
17344SOL    HW154349   1.655  10.537   9.008 -0.2970 -1.4966  0.0410
17344SOL    HW254350   1.802  10.503   9.018  0.2326  0.6049 -0.1511
17345SOL     OW54351   2.718   9.150   7.739  0.4125  0.5160 -0.7470
17345SOL    HW154352   2.777   9.164   7.813 -1.9340 -0.5539  1.4887
17345SOL    HW254353   2.717   9.234   7.693  2.0765  1.1711  0.2975
17346SOL     OW54354  10.468   0.842   2.671  1.1384  0.1901 -0.0442
17346SOL    HW154355  10.401   0.785   2.709 -0.5649  1.0533 -1.6071
17346SOL    HW254356  10.550   0.811   2.710 -0.1026 -1.0854  1.7382
17347SOL     OW54357   7.724   9.196   2.383 -0.3486 -0.6283 -0.0319
17347SOL    HW154358   7.819   9.198   2.395 -0.3515 -1.0102  0.0601
17347SOL    HW254359   7.705   9.108   2.351 -0.6513 -0.4951 -0.2257
17348SOL     OW54360  10.259   0.256   5.712  0.8227 -0.0909 -0.6868
17348SOL    HW154361  10.216   0.234   5.629  0.0187 -0.3459 -0.2150
17348SOL    HW254362  10.307   0.176   5.736  0.3957 -0.2975 -0.5076
17349SOL     OW54363   9.904   4.647   6.081  0.2389 -0.1477  0.1698
17349SOL    HW154364   9.933   4.555   6.082  0.2666 -0.1477  1.9662
17349SOL    HW254365   9.837   4.649   6.013 -0.0872 -1.6232  0.3947
17350SOL     OW54366   1.956   3.193  10.370  0.0287  0.4190  0.0174
17350SOL    HW154367   2.035   3.177  10.422 -0.1286 -1.1251 -0.1750
17350SOL    HW254368   1.884   3.191  10.434 -0.2260 -2.0521 -0.2593
17351SOL     OW54369   5.908   3.252   3.869 -0.0940  0.3377  0.0450
17351SOL    HW154370   5.866   3.175   3.830 -1.4834  1.1851 -0.2079
17351SOL    HW254371   5.860   3.327   3.832  0.9897  1.3114  0.5555
17352SOL     OW54372   4.667   6.811   8.934  0.4923 -0.0274 -0.2312
17352SOL    HW154373   4.706   6.815   8.847 -3.0644  0.7599 -2.0012
17352SOL    HW254374   4.723   6.866   8.989  0.8246  2.6666 -3.0040
17353SOL     OW54375   6.395   5.107  10.249 -0.1918  0.4356 -0.4021
17353SOL    HW154376   6.437   5.186  10.215 -0.0393  0.0344 -1.1610
17353SOL    HW254377   6.302   5.128  10.251 -0.0359  1.0996  0.6784
17354SOL     OW54378   9.321   3.863   4.513 -0.3034  0.0015  0.8119
17354SOL    HW154379   9.385   3.923   4.549  0.7325 -1.3117  1.2530
17354SOL    HW254380   9.252   3.919   4.479  0.1829  1.3977  2.0069
17355SOL     OW54381   0.066   3.190   6.771  0.4555  0.3930 -0.2856
17355SOL    HW154382   0.009   3.119   6.800  3.9149 -1.9125  1.6439
17355SOL    HW254383   0.052   3.260   6.834 -1.0259  0.3821 -0.5726
17356SOL     OW54384   5.631   1.231   0.458  0.4630 -0.4482 -0.0094
17356SOL    HW154385   5.703   1.179   0.422  0.3401  0.3808 -1.5471
17356SOL    HW254386   5.552   1.187   0.428  0.3585  0.4665 -1.1708
17357SOL     OW54387  10.067   9.612   4.735  0.4850 -0.0691  0.3406
17357SOL    HW154388   9.989   9.640   4.782  1.7182  0.8571  1.9457
17357SOL    HW254389  10.115   9.558   4.798  1.2834 -0.3764 -0.5053
17358SOL     OW54390   0.843   6.361   2.647  0.1385 -0.0826  0.5940
17358SOL    HW154391   0.822   6.400   2.732  1.8298  0.7947  0.6495
17358SOL    HW254392   0.824   6.268   2.659  1.8570 -0.2790  2.5312
17359SOL     OW54393   3.021   8.159   3.036 -0.2433  0.0517  0.0473
17359SOL    HW154394   2.968   8.231   3.072 -0.5688  0.2039 -0.7147
17359SOL    HW254395   3.102   8.162   3.086 -0.0773  1.2262 -0.2644
17360SOL     OW54396   9.293  10.246   9.154  0.1667 -0.2764  0.2811
17360SOL    HW154397   9.210  10.287   9.129  0.7137  1.1174  0.6633
17360SOL    HW254398   9.276  10.152   9.149 -1.0346 -0.0239 -0.9753
17361SOL     OW54399   1.866   5.389   4.234  0.0829  0.1400 -0.8533
17361SOL    HW154400   1.961   5.384   4.236 -0.0106 -1.7934  0.8791
17361SOL    HW254401   1.837   5.299   4.222 -1.5423  0.4895  0.1954
17362SOL     OW54402  10.448   4.960   3.856 -0.3801 -0.2394  0.0901
17362SOL    HW154403  10.409   5.036   3.813  0.2224 -0.0452 -0.1367
17362SOL    HW254404  10.462   4.988   3.946 -1.0054 -0.4061  0.2438
17363SOL     OW54405   8.129   5.091   2.368  0.0563 -0.3490 -0.1216
17363SOL    HW154406   8.039   5.096   2.398 -0.4406 -1.8239 -1.2529
17363SOL    HW254407   8.124   5.046   2.283  2.0538 -2.6129  0.8462
17364SOL     OW54408   0.921   8.890   5.228 -0.1509 -0.4530 -0.0078
17364SOL    HW154409   0.932   8.862   5.137  1.1169  1.2163 -0.4321
17364SOL    HW254410   0.846   8.841   5.259  0.0316 -1.8687 -1.6198
17365SOL     OW54411   6.091   6.631   4.866  0.0828  0.2994  0.1718
17365SOL    HW154412   6.113   6.661   4.778  1.2575  0.6024  0.5475
17365SOL    HW254413   6.063   6.710   4.912 -1.4637 -0.0152 -0.1814
17366SOL     OW54414   5.063   5.791   2.310 -0.0769 -1.0077  0.1318
17366SOL    HW154415   5.071   5.865   2.370  0.0274 -0.0977 -0.9790
17366SOL    HW254416   4.979   5.751   2.333 -1.0288  0.5652 -0.4505
17367SOL     OW54417   1.114   5.989   1.317  0.1060  0.4324 -0.1367
17367SOL    HW154418   1.030   6.029   1.340  0.3797  0.1518  1.5268
17367SOL    HW254419   1.119   5.912   1.374  1.2761  0.1804 -0.5643
17368SOL     OW54420   9.405   5.867   0.514  0.3059 -0.0643 -0.1871
17368SOL    HW154421   9.359   5.784   0.527 -1.7598  1.0515  0.1194
17368SOL    HW254422   9.349   5.917   0.454  0.8516  1.5378  0.5565
17369SOL     OW54423   3.713   8.396   4.988  0.0068 -0.0288 -0.3524
17369SOL    HW154424   3.721   8.441   5.071  0.5236 -0.5407 -0.1168
17369SOL    HW254425   3.735   8.462   4.922 -1.1574  0.5936 -0.1517
17370SOL     OW54426   1.581   4.242   8.380 -0.6967  0.7148 -0.6523
17370SOL    HW154427   1.528   4.168   8.411  0.2624  0.4025  0.2802
17370SOL    HW254428   1.555   4.315   8.436  1.6465 -0.0475  1.6324
17371SOL     OW54429   0.613   4.006   7.599 -0.2433  0.1294  0.1226
17371SOL    HW154430   0.522   3.985   7.576  0.2409 -1.3574 -0.5821
17371SOL    HW254431   0.610   4.029   7.692 -1.3027 -0.1676  0.1756
17372SOL     OW54432   5.893   1.611   5.343 -0.3725  0.2119  0.4856
17372SOL    HW154433   5.933   1.695   5.320  0.5986 -0.4176 -0.2096
17372SOL    HW254434   5.930   1.588   5.428 -0.9931  0.6929  0.8952
17373SOL     OW54435  10.288   5.018   4.828 -0.0900  0.0502 -0.0743
17373SOL    HW154436  10.322   5.014   4.739 -2.2645 -0.1260 -0.9568
17373SOL    HW254437  10.294   4.927   4.860  1.7906  0.3091  0.4685
17374SOL     OW54438   4.384   3.916   5.974  0.4169  0.1911  0.3456
17374SOL    HW154439   4.304   3.957   6.006 -0.8804 -0.4525 -1.8379
17374SOL    HW254440   4.407   3.852   6.040 -1.4087 -0.2325  0.6342
17375SOL     OW54441   0.692  10.103   6.142  0.2204  0.1402 -0.1100
17375SOL    HW154442   0.648  10.155   6.074 -1.9400 -0.0003  1.1026
17375SOL    HW254443   0.628  10.037   6.167  1.4061 -0.5499  1.2602
17376SOL     OW54444   3.923   2.951   1.384 -0.0311 -0.0213 -0.0830
17376SOL    HW154445   3.902   3.034   1.426  0.1810  1.0434 -1.9652
17376SOL    HW254446   3.997   2.917   1.434 -0.7278  0.4185  1.3101
17377SOL     OW54447   4.232   7.546   0.124  0.6241  0.0611 -0.4348
17377SOL    HW154448   4.199   7.634   0.110  0.2614 -0.0749 -0.4535
17377SOL    HW254449   4.156   7.496   0.153  1.0465  0.0042  0.6366
17378SOL     OW54450   5.472   6.720  10.122  0.0952  0.6525 -0.1496
17378SOL    HW154451   5.422   6.639  10.114  0.2033  0.4926  0.6919
17378SOL    HW254452   5.541   6.713  10.057  0.5374 -0.2540  0.4085
17379SOL     OW54453   5.073   7.782   5.831  0.0585 -0.8017  0.3520
17379SOL    HW154454   5.045   7.846   5.897  1.5715  1.0837 -0.7353
17379SOL    HW254455   5.166   7.799   5.818 -0.1187 -1.2837 -2.0438
17380SOL     OW54456   2.019   3.457   4.772 -0.4555  0.6031 -0.0760
17380SOL    HW154457   1.997   3.422   4.686 -1.9337 -1.2736  0.9822
17380SOL    HW254458   2.103   3.416   4.794 -2.5632 -3.3944  1.5260
17381SOL     OW54459   8.389   7.288   0.202 -0.2134  0.0606  0.2511
17381SOL    HW154460   8.387   7.196   0.177 -0.4402  0.2626 -0.5338
17381SOL    HW254461   8.410   7.288   0.295 -0.2023 -0.7807  0.2558
17382SOL     OW54462   4.446   5.735   4.499 -0.2324  0.1316 -0.6164
17382SOL    HW154463   4.440   5.643   4.472 -0.3101  0.0161 -0.2043
17382SOL    HW254464   4.456   5.783   4.417  0.3493 -0.2893 -0.7960
17383SOL     OW54465   8.412   1.682   3.648  0.0345  0.3666 -0.4344
17383SOL    HW154466   8.500   1.643   3.644  0.2250  0.8113 -0.5935
17383SOL    HW254467   8.375   1.647   3.729 -0.1828 -0.9609 -1.0848
17384SOL     OW54468   1.830   2.195   1.793  0.4743 -0.6209 -0.4109
17384SOL    HW154469   1.866   2.174   1.707 -0.9326  1.1246 -1.4945
17384SOL    HW254470   1.760   2.257   1.775 -2.4863 -3.1098  1.6400
17385SOL     OW54471   3.198   2.932   1.217  0.1055 -0.7773 -0.2431
17385SOL    HW154472   3.138   2.989   1.168  0.4901 -1.5198 -1.6373
17385SOL    HW254473   3.273   2.922   1.158  0.8821 -1.1740  0.7994
17386SOL     OW54474   7.515   6.436   1.589  0.3967  0.1158 -1.0324
17386SOL    HW154475   7.530   6.342   1.586  3.5520  0.4414  0.2054
17386SOL    HW254476   7.582   6.473   1.532  2.0468  1.6856  1.6925
17387SOL     OW54477   5.621   2.741   8.643 -0.3915 -0.1029  0.1660
17387SOL    HW154478   5.647   2.686   8.569 -0.8253 -0.2529  0.1178
17387SOL    HW254479   5.531   2.714   8.661 -0.6100  0.5883  0.1417
17388SOL     OW54480   9.781   1.377  10.518  0.7295 -0.0112 -0.1385
17388SOL    HW154481   9.742   1.421  10.594 -0.8519  1.9446 -1.9564
17388SOL    HW254482   9.847   1.439  10.486  1.5752 -0.9321 -0.2377
17389SOL     OW54483   9.165   3.832   5.506  0.3436  0.3459  0.1010
17389SOL    HW154484   9.139   3.817   5.597  0.0032  1.0077  0.1198
17389SOL    HW254485   9.238   3.893   5.511  1.3518 -0.8038 -0.0031
17390SOL     OW54486   1.290   3.067   2.765 -0.2423  0.3174 -0.4116
17390SOL    HW154487   1.292   3.085   2.859  0.5515 -1.5474 -0.0142
17390SOL    HW254488   1.219   3.004   2.754  0.6877 -0.6949 -0.7929
17391SOL     OW54489   1.910   5.577   5.511  0.9005 -0.0115  0.5241
17391SOL    HW154490   1.957   5.569   5.594  0.4497  1.6018  0.9651
17391SOL    HW254491   1.975   5.554   5.444  1.2627 -1.3471  1.2958
17392SOL     OW54492   4.599   8.702   7.393 -0.1816 -0.0354 -0.2360
17392SOL    HW154493   4.585   8.665   7.481 -0.2617 -0.4718 -0.4323
17392SOL    HW254494   4.519   8.680   7.345  0.1815 -0.4775 -0.6512
17393SOL     OW54495   9.134   3.479   2.811 -0.3972 -0.1932 -0.1085
17393SOL    HW154496   9.071   3.539   2.772  1.0482  0.9132 -0.8440
17393SOL    HW254497   9.153   3.416   2.741  1.8356  1.5113 -1.1665
17394SOL     OW54498   8.224   2.613   0.851 -0.0120 -0.1943  0.4897
17394SOL    HW154499   8.263   2.541   0.900  1.4266  1.4475  1.8926
17394SOL    HW254500   8.241   2.591   0.759 -1.1508 -2.4441  0.7493
17395SOL     OW54501   9.603   8.303   2.198 -0.1183 -0.1035  0.1636
17395SOL    HW154502   9.637   8.264   2.279  0.8180  0.4490  0.0529
17395SOL    HW254503   9.644   8.251   2.128 -1.1062 -0.7288  0.0323
17396SOL     OW54504   4.121   2.903   4.225 -0.9316  0.0307  0.3418
17396SOL    HW154505   4.048   2.951   4.264  0.0884  0.3282  2.0333
17396SOL    HW254506   4.145   2.954   4.147 -1.0508  1.2753  1.0815
17397SOL     OW54507   5.917   3.037   9.373 -0.0187 -0.2219  1.0492
17397SOL    HW154508   5.870   3.075   9.447  1.4465  0.8108  1.4671
17397SOL    HW254509   5.976   3.106   9.343 -0.7074 -0.5239 -1.2385
17398SOL     OW54510   7.093   7.257   0.872  0.1010  0.3258  0.1556
17398SOL    HW154511   7.006   7.238   0.837  0.5102 -0.8874 -0.2691
17398SOL    HW254512   7.080   7.331   0.931 -1.4017 -0.4820  0.8820
17399SOL     OW54513   5.239   2.126   9.351  0.1708  0.0710  0.6211
17399SOL    HW154514   5.278   2.213   9.350  0.0115  0.3677  4.3143
17399SOL    HW254515   5.313   2.066   9.362  0.2094 -0.2427 -1.0931
17400SOL     OW54516   0.382   5.045   2.876 -0.1404 -0.4009 -0.0614
17400SOL    HW154517   0.348   4.957   2.894  0.4404 -0.8341 -0.9826
17400SOL    HW254518   0.341   5.071   2.794  0.4746 -0.2470 -0.3268
17401SOL     OW54519   0.331   6.056   8.616  0.4490 -0.2089  0.0640
17401SOL    HW154520   0.411   6.050   8.565  1.9060  0.9982  2.0458
17401SOL    HW254521   0.359   6.042   8.707 -2.0108 -2.4015  0.6357
17402SOL     OW54522   0.259   6.177   7.656 -0.3480  0.2489  0.0688
17402SOL    HW154523   0.262   6.269   7.632 -2.6930  0.3007 -0.2741
17402SOL    HW254524   0.260   6.130   7.572 -1.5726  0.1026  0.1190
17403SOL     OW54525   1.595   6.810   1.560 -0.4012 -0.1039 -0.4888
17403SOL    HW154526   1.593   6.874   1.631  2.8368 -0.1119 -0.2269
17403SOL    HW254527   1.548   6.734   1.594 -1.4226  0.9308  0.4823
17404SOL     OW54528   9.381   1.714   6.856  0.0185 -0.0307 -0.3688
17404SOL    HW154529   9.341   1.658   6.789 -1.6208  0.5856  0.0420
17404SOL    HW254530   9.324   1.790   6.861 -0.9745 -0.8205  2.9175
17405SOL     OW54531   9.651   5.437   1.791 -0.5260 -0.0578 -0.2823
17405SOL    HW154532   9.719   5.442   1.858 -1.2601 -1.9586  0.6807
17405SOL    HW254533   9.612   5.525   1.791  1.5673  0.9265 -0.5387
17406SOL     OW54534   2.499   7.956   9.294  0.1705  0.2682  0.3049
17406SOL    HW154535   2.517   7.879   9.241  2.2946 -0.4026  1.8296
17406SOL    HW254536   2.498   8.029   9.232  2.6857 -0.4546 -0.7064
17407SOL     OW54537   6.526   6.217   3.321 -0.6301  0.2018 -0.6502
17407SOL    HW154538   6.614   6.253   3.325  0.9023 -3.2498  2.8511
17407SOL    HW254539   6.531   6.147   3.255 -0.4316 -0.5825  0.1782
17408SOL     OW54540   0.120   6.090   0.577 -0.0965  0.3324  0.0798
17408SOL    HW154541   0.036   6.065   0.615 -0.0177  1.2090  0.8558
17408SOL    HW254542   0.158   6.152   0.640  0.0345  1.8505 -1.4140
17409SOL     OW54543   9.851   9.911   9.277 -0.9282 -0.6870 -0.2417
17409SOL    HW154544   9.920   9.870   9.226 -1.0963 -1.6771  0.2933
17409SOL    HW254545   9.809   9.838   9.323 -3.5100 -0.4095 -1.9361
17410SOL     OW54546   3.701   1.730   5.417 -0.4363  0.0955  0.0394
17410SOL    HW154547   3.628   1.671   5.406 -0.7534  0.4000  0.4707
17410SOL    HW254548   3.690   1.767   5.505  1.1901 -1.1686  0.8433
17411SOL     OW54549  10.119   8.006   6.368  0.6336  0.3684  0.6213
17411SOL    HW154550  10.064   8.068   6.416  1.2120  0.8321  0.6929
17411SOL    HW254551  10.134   8.049   6.284  1.1665  0.4003  0.7314
17412SOL     OW54552  10.440   5.782   1.575  0.3049 -0.1752  0.4267
17412SOL    HW154553  10.411   5.799   1.664  0.9023  0.0035  0.5878
17412SOL    HW254554  10.362   5.798   1.521  0.8384  3.5333  0.5076
17413SOL     OW54555   3.797  10.429   2.978  0.2416  0.5292 -0.2336
17413SOL    HW154556   3.846  10.359   3.022 -0.3357  2.0314  3.0778
17413SOL    HW254557   3.705  10.403   2.985  0.1665  0.5659 -1.0126
17414SOL     OW54558   8.903   0.049   5.481  0.0659  0.4064  0.8836
17414SOL    HW154559   8.826   0.077   5.432  0.5708 -0.1872 -0.3010
17414SOL    HW254560   8.933   0.128   5.527  0.0273  1.1916 -0.4033
17415SOL     OW54561   2.143   7.938   5.053  0.0525  0.1762 -0.1366
17415SOL    HW154562   2.075   7.941   5.121  0.0659 -2.1167  0.0650
17415SOL    HW254563   2.097   7.956   4.971 -0.7618 -0.9717  0.0458
17416SOL     OW54564   0.124   3.568  10.177  0.2479  0.1122  0.0645
17416SOL    HW154565   0.205   3.544  10.222  0.1337 -0.3210  0.0401
17416SOL    HW254566   0.063   3.497  10.197  0.0932  0.0819 -0.5021
17417SOL     OW54567   6.762   1.323   8.567  0.1701  0.0546 -0.0632
17417SOL    HW154568   6.681   1.371   8.551 -0.0678  0.0245  0.9719
17417SOL    HW254569   6.832   1.387   8.555 -0.1396  0.6660  1.2310
17418SOL     OW54570   5.442   0.998   0.833  0.0534 -0.0166  0.0260
17418SOL    HW154571   5.416   1.036   0.749  0.2026 -0.3283 -0.1599
17418SOL    HW254572   5.454   0.905   0.815 -0.1982 -0.1341  0.4586
17419SOL     OW54573   7.167   5.719   2.090 -0.3268 -0.0941 -0.7290
17419SOL    HW154574   7.211   5.714   2.175 -0.7812  0.6690 -0.4347
17419SOL    HW254575   7.087   5.668   2.102 -1.5534  1.9048  0.0756
17420SOL     OW54576   8.818   0.341   3.759 -0.4008 -0.3747 -0.1754
17420SOL    HW154577   8.874   0.353   3.682  0.0084 -0.3132  0.1265
17420SOL    HW254578   8.785   0.252   3.750 -1.7667  0.2101 -1.3312
17421SOL     OW54579   2.909   7.458   6.337 -0.0337 -0.3672 -0.3866
17421SOL    HW154580   2.904   7.493   6.426  0.7103  2.4510 -1.3256
17421SOL    HW254581   2.932   7.366   6.348  0.5064  0.0088  2.2951
17422SOL     OW54582   3.677   9.587   7.494 -0.0531  0.3802 -0.3552
17422SOL    HW154583   3.653   9.494   7.493  1.0603  0.0884 -0.4853
17422SOL    HW254584   3.638   9.620   7.575  1.1923 -0.6637  0.7260
17423SOL     OW54585   8.615   7.803   3.774  0.3453  0.0984  0.2086
17423SOL    HW154586   8.698   7.785   3.819  1.2073  1.3887 -0.8281
17423SOL    HW254587   8.566   7.859   3.835  0.4296 -0.2649  0.6137
17424SOL     OW54588   5.697   5.451   3.761  0.0432 -0.9031  0.1260
17424SOL    HW154589   5.787   5.425   3.743  0.7892 -0.7179  3.0664
17424SOL    HW254590   5.700   5.487   3.850 -2.5148  1.2917 -0.5520
17425SOL     OW54591   4.306   9.726   8.549 -0.1316  0.1312  0.4419
17425SOL    HW154592   4.299   9.804   8.495 -1.2817 -0.8923 -0.9783
17425SOL    HW254593   4.395   9.727   8.583 -0.2279  2.2105  0.7448
17426SOL     OW54594   1.799  10.173   0.508  0.3918 -0.0453  0.5302
17426SOL    HW154595   1.750  10.137   0.581 -1.2438 -0.9779 -0.9529
17426SOL    HW254596   1.770  10.265   0.503 -0.4053 -0.2952  0.3511
17427SOL     OW54597   0.029   3.166   3.793 -0.1901  0.1529 -0.3411
17427SOL    HW154598  -0.039   3.197   3.733 -2.6439 -1.6551  1.2952
17427SOL    HW254599   0.051   3.242   3.846 -0.9722  0.7656 -0.8692
17428SOL     OW54600   7.467   5.159   2.744  0.0513  0.6775  0.1431
17428SOL    HW154601   7.388   5.142   2.795 -0.7530  0.0131 -1.2552
17428SOL    HW254602   7.442   5.227   2.682  0.8319  1.0555  0.2298
17429SOL     OW54603   9.295   0.204   0.911 -0.0895  0.2223  0.1507
17429SOL    HW154604   9.300   0.277   0.850  0.5937 -0.4256 -0.5924
17429SOL    HW254605   9.204   0.203   0.940 -0.0297  1.5720  0.4544
17430SOL     OW54606  10.024   5.065   9.758  0.2500  0.0747  0.0409
17430SOL    HW154607   9.940   5.027   9.784  1.1979 -1.4808  0.9286
17430SOL    HW254608  10.003   5.157   9.739 -1.8850 -0.5540 -1.0059
17431SOL     OW54609  10.511   5.626  10.459 -0.0616  0.4734 -0.0184
17431SOL    HW154610  10.548   5.563  10.398 -1.3246  0.4441 -0.7906
17431SOL    HW254611  10.527   5.711  10.420 -1.6456  0.4139 -0.8876
17432SOL     OW54612   2.267   8.018   8.787 -0.2051 -0.1499 -0.2799
17432SOL    HW154613   2.270   8.013   8.692 -0.3058 -1.0994 -0.2366
17432SOL    HW254614   2.356   8.042   8.813 -0.1897  0.1629 -0.6129
17433SOL     OW54615   9.975   3.740   3.374 -0.0323 -0.5441 -0.1619
17433SOL    HW154616   9.937   3.697   3.298 -0.4271 -2.0039  0.8101
17433SOL    HW254617   9.949   3.685   3.448 -2.0304  2.2789  1.4195
17434SOL     OW54618   7.724   5.246   2.200  0.0286 -0.1226  0.9624
17434SOL    HW154619   7.629   5.250   2.211 -0.0734 -0.0113  0.0955
17434SOL    HW254620   7.737   5.178   2.134  0.4588  0.8664  0.0119
17435SOL     OW54621  10.231   9.098   8.455  0.0817 -0.0966  0.3021
17435SOL    HW154622  10.144   9.126   8.425 -0.2480 -1.3653  0.0398
17435SOL    HW254623  10.245   9.146   8.537 -0.9056  0.0427  0.3967
17436SOL     OW54624   0.790   4.863   5.577  0.1106 -0.8257  0.3135
17436SOL    HW154625   0.846   4.787   5.567  1.4396  0.1180  0.2722
17436SOL    HW254626   0.782   4.899   5.489  0.5907 -0.1848  0.5216
17437SOL     OW54627  10.559  10.251  10.209  0.0183 -0.2602 -0.0776
17437SOL    HW154628  10.652  10.263  10.190  0.8997 -1.9999  2.6380
17437SOL    HW254629  10.531  10.335  10.245  1.1647 -0.3748  1.1578
17438SOL     OW54630   4.079   1.993  10.312 -0.3822 -0.4471 -0.3521
17438SOL    HW154631   4.149   1.979  10.249 -0.4623  0.6460 -0.7030
17438SOL    HW254632   4.026   1.913  10.308 -0.3855 -0.3940 -1.6725
17439SOL     OW54633   8.227   2.514   8.950  0.0901 -0.0020  0.2362
17439SOL    HW154634   8.166   2.487   9.018  0.2221  1.2617  0.9006
17439SOL    HW254635   8.179   2.505   8.868 -0.5542 -0.2171  0.6353
17440SOL     OW54636   9.404   6.683   9.904  0.2962 -0.4886 -0.3457
17440SOL    HW154637   9.356   6.684   9.987 -0.6517 -0.0078 -0.8872
17440SOL    HW254638   9.494   6.704   9.929  0.1470 -0.9157  0.6288
17441SOL     OW54639   9.122   3.719   9.360 -0.4291 -0.0049 -0.1867
17441SOL    HW154640   9.043   3.677   9.329  0.6190 -1.0354 -1.5857
17441SOL    HW254641   9.094   3.806   9.389 -2.3342 -0.9812  1.0688
17442SOL     OW54642   5.102   3.293   9.455  0.4129  0.1051 -0.2943
17442SOL    HW154643   5.105   3.384   9.483  0.2842  0.3421 -1.0241
17442SOL    HW254644   5.182   3.254   9.490  0.3350  0.4267  0.2494
17443SOL     OW54645   1.974   6.820   2.371  0.0658  0.3628 -0.5876
17443SOL    HW154646   2.052   6.774   2.342  0.0226 -0.2705  0.2562
17443SOL    HW254647   1.906   6.753   2.373 -0.2195  0.6596 -0.2208
17444SOL     OW54648   7.346   8.155   7.428 -0.2835  0.8294 -0.1814
17444SOL    HW154649   7.385   8.203   7.501 -0.4497 -0.6439  0.9282
17444SOL    HW254650   7.420   8.117   7.382 -0.2477  0.5740  0.0853
17445SOL     OW54651   5.151   0.175   1.952  0.0355 -0.0074  0.3566
17445SOL    HW154652   5.084   0.243   1.948  1.1290  1.2343  1.8851
17445SOL    HW254653   5.234   0.223   1.943  0.7838 -1.5668 -2.3966
17446SOL     OW54654   4.679   9.418   4.693  0.0051  0.5645 -0.0142
17446SOL    HW154655   4.755   9.397   4.639 -1.8567  0.9097 -2.9677
17446SOL    HW254656   4.646   9.500   4.657 -3.3453 -0.9399 -0.7536
17447SOL     OW54657   4.937   7.639  10.392 -0.3727 -0.2071  0.2089
17447SOL    HW154658   4.975   7.571  10.446 -1.3974 -0.1988  0.9704
17447SOL    HW254659   4.963   7.721  10.434  0.2792 -0.1327 -0.3150
17448SOL     OW54660   7.960   0.700   8.751  0.0814  0.3899 -0.3886
17448SOL    HW154661   8.042   0.748   8.737  0.2477 -0.2644 -1.8132
17448SOL    HW254662   7.964   0.626   8.690 -0.2393 -1.3951  1.6537
17449SOL     OW54663   9.916   3.863   5.979 -0.5012 -0.3104  0.2761
17449SOL    HW154664   9.947   3.848   5.890 -1.8134 -0.3421 -0.1897
17449SOL    HW254665   9.865   3.944   5.974  2.2377  1.6706  1.7175
17450SOL     OW54666   7.746   6.203   2.264  0.1357 -0.2952 -0.0871
17450SOL    HW154667   7.717   6.184   2.174  1.3669 -3.3961  0.0403
17450SOL    HW254668   7.671   6.181   2.318 -0.4534  1.1378 -0.2752
17451SOL     OW54669   8.875   5.111   9.554  0.2812  0.0687 -0.2036
17451SOL    HW154670   8.863   5.204   9.532  1.0281  0.6403  1.6467
17451SOL    HW254671   8.872   5.066   9.470  3.8964  2.1728 -1.6601
17452SOL     OW54672   1.422   4.756   6.621  0.1773 -0.3843  0.1880
17452SOL    HW154673   1.372   4.808   6.685  0.8556  1.2494 -0.5745
17452SOL    HW254674   1.512   4.761   6.652  0.3367 -0.5662 -0.2475
17453SOL     OW54675   1.396   1.619  10.226  0.1545  0.5108  0.3339
17453SOL    HW154676   1.395   1.641  10.320  0.7358  0.0950  0.4472
17453SOL    HW254677   1.359   1.695  10.183  0.3331  0.9113  0.8694
17454SOL     OW54678   1.305   9.016   6.215 -0.5273 -0.5250 -0.0854
17454SOL    HW154679   1.343   9.101   6.239 -1.4573 -0.0517 -0.2197
17454SOL    HW254680   1.348   8.993   6.133 -2.0282  1.0774 -1.4160
17455SOL     OW54681   5.938   8.481   2.617 -0.1001  0.5626 -0.0197
17455SOL    HW154682   5.992   8.421   2.668  1.3872  0.2006 -1.9050
17455SOL    HW254683   5.994   8.558   2.605 -1.1751  1.4552  0.5156
17456SOL     OW54684   2.410   8.227   9.099 -0.7697  0.0847 -0.2903
17456SOL    HW154685   2.434   8.318   9.086 -0.0520  0.4754  2.9878
17456SOL    HW254686   2.315   8.229   9.115 -0.6941  0.3181  0.1369
17457SOL     OW54687   4.173   6.082   2.524 -0.1482 -0.4371  0.2542
17457SOL    HW154688   4.127   6.073   2.607  2.6519 -2.3031  1.7978
17457SOL    HW254689   4.266   6.086   2.549  0.8488 -1.6983 -2.7961
17458SOL     OW54690   1.017   6.662   0.749 -0.1134  0.3004 -0.2108
17458SOL    HW154691   1.048   6.667   0.840 -2.4776 -0.2286  0.7000
17458SOL    HW254692   0.998   6.752   0.725  0.1078  0.3960 -0.0399
17459SOL     OW54693   1.218   3.767   2.778  0.0181  0.4055 -0.3899
17459SOL    HW154694   1.174   3.826   2.839 -0.4246 -0.7932  0.5074
17459SOL    HW254695   1.149   3.734   2.722 -0.0304 -0.4737  0.1647
17460SOL     OW54696   5.862   5.983   0.767 -0.1997 -0.5031  0.5396
17460SOL    HW154697   5.791   6.047   0.772  1.4456  1.3953  0.8469
17460SOL    HW254698   5.929   6.026   0.714  1.1542 -1.8094  1.1265
17461SOL     OW54699   2.006   3.090   6.552 -0.4749  0.2675  0.1148
17461SOL    HW154700   1.927   3.142   6.539 -0.4510  0.0218 -1.1612
17461SOL    HW254701   1.983   3.003   6.520  0.2532  0.1468 -0.1044
17462SOL     OW54702   8.342   1.996  10.116 -0.1912  0.1047 -0.2041
17462SOL    HW154703   8.363   1.932  10.184 -0.2297  0.1688 -0.1312
17462SOL    HW254704   8.299   2.067  10.163 -1.3640 -0.4140 -0.4607
17463SOL     OW54705   2.084   0.655   7.531  0.3309  0.1553 -0.5029
17463SOL    HW154706   2.117   0.572   7.568 -0.1986 -0.1501 -0.7059
17463SOL    HW254707   2.000   0.669   7.576 -0.5531 -0.4635 -1.9016
17464SOL     OW54708   2.594   3.285   5.306  0.9384  0.2254 -0.2315
17464SOL    HW154709   2.679   3.241   5.297  1.3820  0.3033  2.5884
17464SOL    HW254710   2.533   3.228   5.259  2.2403 -0.8950 -0.6576
17465SOL     OW54711   4.348   2.719   3.606  0.2319  0.2055  0.1217
17465SOL    HW154712   4.399   2.677   3.536  0.4159 -1.3592  1.1475
17465SOL    HW254713   4.390   2.689   3.687  0.2275  2.2463  0.9243
17466SOL     OW54714   5.001   1.244   6.619 -0.2125  0.5407 -0.4464
17466SOL    HW154715   5.020   1.157   6.582 -0.1307  0.7565 -0.9219
17466SOL    HW254716   4.920   1.271   6.575 -1.0696  0.0717  0.8050
17467SOL     OW54717   3.823   8.736   6.167 -0.6066 -0.3569 -0.8207
17467SOL    HW154718   3.881   8.692   6.229  0.7172 -0.3493 -1.9827
17467SOL    HW254719   3.879   8.799   6.123 -2.1640  1.5829 -0.1427
17468SOL     OW54720   7.135   4.889   2.847  0.1690  0.0818  0.7611
17468SOL    HW154721   7.130   4.875   2.752 -0.0685  1.3371  0.5774
17468SOL    HW254722   7.167   4.806   2.881 -0.7927 -0.7663 -0.3024
17469SOL     OW54723   1.306   3.076  10.167 -0.1287 -0.5519  0.3027
17469SOL    HW154724   1.252   3.130  10.224  1.1560  1.4364 -0.2649
17469SOL    HW254725   1.248   3.051  10.095 -1.1893 -1.3893  1.3946
17470SOL     OW54726   2.085   3.713   6.907 -0.0347  0.1695  0.5614
17470SOL    HW154727   2.171   3.690   6.943  0.2428 -0.4301 -0.4420
17470SOL    HW254728   2.075   3.656   6.831 -1.2043  0.4383  0.4953
17471SOL     OW54729   9.943   5.287   0.071  0.0204 -0.4125 -0.3150
17471SOL    HW154730   9.950   5.358   0.134 -2.4369  0.7059 -1.1570
17471SOL    HW254731   9.910   5.213   0.122  0.2554 -0.2261  0.1149
17472SOL     OW54732   4.224   9.772   3.705 -0.2551 -0.0734  0.1142
17472SOL    HW154733   4.141   9.740   3.670  0.3054  0.7165 -2.1170
17472SOL    HW254734   4.286   9.761   3.633  0.8599  2.2409  0.6350
17473SOL     OW54735   1.016  10.300   5.838 -0.4305  0.2724 -0.2684
17473SOL    HW154736   0.966  10.365   5.887 -1.3576 -0.0493 -0.7735
17473SOL    HW254737   1.104  10.337   5.833 -0.0772  0.0085  2.2460
17474SOL     OW54738  10.108   1.790   5.252 -0.2463 -0.5656 -0.1810
17474SOL    HW154739  10.197   1.807   5.283 -0.2299 -0.3935 -0.3246
17474SOL    HW254740  10.053   1.854   5.298 -0.2895 -0.6370 -0.1319
17475SOL     OW54741   4.346   0.849   2.433 -0.0943 -0.4803  0.4909
17475SOL    HW154742   4.260   0.867   2.395  0.1079 -1.7504 -0.6596
17475SOL    HW254743   4.365   0.759   2.406  2.3748  0.3420 -0.8483
17476SOL     OW54744   4.693   5.221   4.559 -0.4957  0.5429  0.0761
17476SOL    HW154745   4.764   5.180   4.511 -1.2633 -2.2581  1.0992
17476SOL    HW254746   4.614   5.176   4.529 -1.2366  0.1824  2.3149
17477SOL     OW54747   8.529   4.386   7.392  0.5932 -0.2178  0.4637
17477SOL    HW154748   8.523   4.291   7.386 -0.0295 -0.1815  0.4629
17477SOL    HW254749   8.507   4.405   7.483 -1.0520  0.0507  0.0345
17478SOL     OW54750   8.253   1.743   1.866 -0.0013 -0.3034  0.0048
17478SOL    HW154751   8.204   1.816   1.903 -0.6226 -1.6475  2.0040
17478SOL    HW254752   8.198   1.712   1.794 -0.0161  0.7921 -0.4784
17479SOL     OW54753  10.419   0.553   4.908  0.0457 -0.4339  0.5347
17479SOL    HW154754  10.344   0.577   4.852 -0.7065 -0.0533  1.6714
17479SOL    HW254755  10.488   0.613   4.882 -0.4380  0.0360  0.3007
17480SOL     OW54756   5.483   5.832   8.914 -0.4340  0.6858 -0.1944
17480SOL    HW154757   5.479   5.741   8.944 -0.8434  0.8867  0.3786
17480SOL    HW254758   5.462   5.884   8.992 -1.2265  1.2347 -0.7601
17481SOL     OW54759   6.142   4.362   7.586  0.1545  0.0801 -0.2800
17481SOL    HW154760   6.109   4.435   7.639  0.3011  1.2839 -1.8031
17481SOL    HW254761   6.188   4.306   7.649 -1.3625  0.4162  1.2075
17482SOL     OW54762   3.372   0.337   7.825  0.0232 -0.2601 -0.0688
17482SOL    HW154763   3.413   0.259   7.786 -1.1804 -0.7740 -0.3469
17482SOL    HW254764   3.282   0.336   7.792 -0.9389 -0.4571  2.3718
17483SOL     OW54765   9.946   1.025   3.187 -0.5603  0.2038  0.3405
17483SOL    HW154766  10.011   0.954   3.185  0.1243  0.7831  1.3380
17483SOL    HW254767   9.865   0.985   3.156  0.1851 -0.6243 -0.6032
17484SOL     OW54768   7.498   4.826   6.885 -0.1181  0.2997  0.0756
17484SOL    HW154769   7.487   4.786   6.971  0.4939 -0.4988 -0.2154
17484SOL    HW254770   7.572   4.780   6.845 -0.0807  0.9895 -0.6889
17485SOL     OW54771   3.405   1.425   1.526 -0.3898 -0.2011 -0.3924
17485SOL    HW154772   3.444   1.510   1.546  2.1780 -1.4696  0.3524
17485SOL    HW254773   3.373   1.434   1.436 -3.2909  2.5458  0.7087
17486SOL     OW54774   6.621   1.239   8.778  0.2331 -0.2565  0.4657
17486SOL    HW154775   6.535   1.211   8.745  0.1429 -0.5258  0.9188
17486SOL    HW254776   6.673   1.255   8.699  0.6032 -2.6337  0.1393
17487SOL     OW54777   9.110   0.937   9.716 -0.3560 -0.0734  0.0009
17487SOL    HW154778   9.139   0.879   9.646  0.4392 -0.2173  0.4394
17487SOL    HW254779   9.035   0.985   9.679  0.1204 -0.0697 -0.9693
17488SOL     OW54780   9.242   9.451   3.986 -0.3624 -0.1327  0.0086
17488SOL    HW154781   9.222   9.513   3.915 -0.0870  0.3695  0.3608
17488SOL    HW254782   9.276   9.374   3.941 -2.2810 -0.6952 -0.5462
17489SOL     OW54783   2.558   7.318   8.787 -0.4986  0.2006  0.2318
17489SOL    HW154784   2.571   7.307   8.882 -0.0545  0.3133  0.1884
17489SOL    HW254785   2.579   7.410   8.771 -2.8545  0.8221  0.3784
17490SOL     OW54786  10.458   3.970   7.023  0.3812  0.1611  0.1553
17490SOL    HW154787  10.399   3.970   6.947 -0.0433  1.1790  0.4693
17490SOL    HW254788  10.448   4.057   7.061  0.1068 -0.5393  1.7559
17491SOL     OW54789   6.361   4.248   2.123  0.8167  0.6337 -0.0407
17491SOL    HW154790   6.278   4.243   2.171  1.1465  2.3098  0.7979
17491SOL    HW254791   6.360   4.172   2.066 -0.9661  0.2009  0.4845
17492SOL     OW54792   2.947   6.270   8.607 -0.5143 -0.2662  0.2966
17492SOL    HW154793   2.945   6.330   8.682 -3.4792  0.2527 -0.0606
17492SOL    HW254794   3.027   6.218   8.619  0.8964  2.0987  1.9251
17493SOL     OW54795   3.888  10.077   5.862 -0.9872  0.4015 -0.3669
17493SOL    HW154796   3.978  10.081   5.829 -0.5833  1.5617  0.7969
17493SOL    HW254797   3.868   9.984   5.866  0.6203  0.0599  0.5278
17494SOL     OW54798   0.182   7.350   9.287 -0.4826  0.0963 -0.5369
17494SOL    HW154799   0.236   7.362   9.209  1.6197  1.0529  0.9867
17494SOL    HW254800   0.235   7.295   9.345  0.8722  4.2047  2.6475
17495SOL     OW54801   1.994   0.143   8.113  0.1388 -1.2076  0.6436
17495SOL    HW154802   2.032   0.231   8.113  0.8117 -1.3354 -2.8700
17495SOL    HW254803   1.946   0.137   8.195  1.1510  1.9294  1.6078
17496SOL     OW54804   0.204   7.151   4.866 -0.3956  0.4167 -0.0135
17496SOL    HW154805   0.161   7.067   4.877 -2.2003  0.9602 -2.2905
17496SOL    HW254806   0.283   7.132   4.815  0.3645 -0.0978  1.2719
17497SOL     OW54807   0.400  10.478   0.348  0.2317 -0.3438  0.0354
17497SOL    HW154808   0.447  10.532   0.284  1.5771 -1.0096  0.4291
17497SOL    HW254809   0.406  10.527   0.430 -1.6272  0.5840 -0.3334
17498SOL     OW54810  10.191   0.466   9.738  0.2869  0.4223 -0.4500
17498SOL    HW154811  10.265   0.432   9.787 -0.5957 -1.6911 -0.4770
17498SOL    HW254812  10.115   0.421   9.776 -0.7290  0.8712 -1.8812
17499SOL     OW54813   2.059   2.574   7.983  0.2367 -0.2481  0.5642
17499SOL    HW154814   2.115   2.541   7.913  1.9246  0.6393  1.4535
17499SOL    HW254815   1.970   2.564   7.949  0.7566 -3.2398 -0.2632
17500SOL     OW54816   6.338   1.634   0.954  1.1672 -0.1877 -0.2822
17500SOL    HW154817   6.292   1.702   0.904  0.2098 -0.3764  0.3113
17500SOL    HW254818   6.328   1.554   0.902  1.7904 -0.0045 -0.6941
17501SOL     OW54819   8.897   6.074   3.475 -0.2052 -0.3703  0.0504
17501SOL    HW154820   8.952   6.045   3.402 -1.0589 -0.4829 -0.5628
17501SOL    HW254821   8.887   5.996   3.530  0.5259 -0.2583  0.3595
17502SOL     OW54822   6.512  10.487   8.389  0.0134  0.2683 -0.1355
17502SOL    HW154823   6.479  10.560   8.337  0.0927  0.4965  0.1300
17502SOL    HW254824   6.562  10.529   8.460 -1.3705  0.0275  1.0253
17503SOL     OW54825   1.546   3.475   6.421  0.7114 -0.0811  0.0934
17503SOL    HW154826   1.513   3.452   6.508  0.5593 -1.5373 -0.3221
17503SOL    HW254827   1.641   3.476   6.431  0.6765  1.4861  0.6573
17504SOL     OW54828  10.052   6.696   2.861  0.1555 -0.0423  0.0929
17504SOL    HW154829  10.027   6.614   2.903 -0.8303  0.4076  0.4179
17504SOL    HW254830  10.070   6.672   2.770  0.4854 -0.7158  0.3334
17505SOL     OW54831   1.823   5.327  10.361  0.1977  0.3298 -0.2065
17505SOL    HW154832   1.822   5.413  10.402  1.4293  0.8059 -1.0781
17505SOL    HW254833   1.833   5.346  10.267  1.6005 -0.7455 -0.3072
17506SOL     OW54834   6.665   1.242   2.852 -0.5948 -0.2754 -0.0998
17506SOL    HW154835   6.724   1.311   2.883 -0.1333 -0.4162 -0.6487
17506SOL    HW254836   6.591   1.245   2.912  0.1831 -0.4036  0.9035
17507SOL     OW54837   0.854   7.211   2.488 -0.4100 -0.1189  0.3273
17507SOL    HW154838   0.893   7.283   2.439  2.1386 -2.0318 -0.7293
17507SOL    HW254839   0.822   7.151   2.420  0.3566 -1.3673  1.0222
17508SOL     OW54840   9.068   9.786   2.263 -0.1406 -0.4447 -0.4828
17508SOL    HW154841   9.019   9.820   2.188  0.4261  0.1773 -0.5787
17508SOL    HW254842   9.001   9.766   2.329 -0.4748  1.2987 -0.2488
17509SOL     OW54843   2.010   9.173   0.462  0.3519 -0.2946  0.1564
17509SOL    HW154844   1.957   9.175   0.541  1.5609  3.8872  1.0862
17509SOL    HW254845   2.094   9.136   0.489  1.1965  2.2349  1.3362
17510SOL     OW54846   4.469   2.030   2.470 -0.7746 -0.1155  0.1156
17510SOL    HW154847   4.505   2.118   2.486  1.2866 -0.7529 -0.6845
17510SOL    HW254848   4.424   2.008   2.552 -1.1120  1.5561  0.4359
17511SOL     OW54849   9.747   4.539   4.546  0.0343  0.0297  0.0817
17511SOL    HW154850   9.838   4.526   4.517 -0.3925 -0.9719 -0.8682
17511SOL    HW254851   9.738   4.634   4.553  0.9571  0.1747 -0.4805
17512SOL     OW54852   2.016   9.119   8.852 -0.2668  0.4387  0.3245
17512SOL    HW154853   1.966   9.132   8.932 -1.8263  0.9485 -0.6914
17512SOL    HW254854   2.058   9.203   8.835 -1.4059  0.8912 -0.3377
17513SOL     OW54855   6.416   6.862   0.577  0.7966  0.3046 -0.0467
17513SOL    HW154856   6.509   6.847   0.558  0.4755  0.0447 -1.5846
17513SOL    HW254857   6.389   6.927   0.512  0.1102  1.0821  1.0021
17514SOL     OW54858   7.022   9.476   8.067 -0.0936 -0.3872 -0.0081
17514SOL    HW154859   6.957   9.545   8.055 -0.0962 -0.3282  0.3358
17514SOL    HW254860   7.071   9.474   7.985 -0.3659 -0.2617 -0.1728
17515SOL     OW54861   8.982   3.708   3.760 -0.2074 -1.0313  0.4808
17515SOL    HW154862   9.044   3.774   3.727 -1.3277 -0.7843 -1.2830
17515SOL    HW254863   8.943   3.750   3.837  0.5546 -0.4767  0.5861
17516SOL     OW54864   2.480   5.196   2.889  0.0358  0.2432  0.1510
17516SOL    HW154865   2.395   5.217   2.850  0.4589  0.7648 -0.5260
17516SOL    HW254866   2.489   5.259   2.960 -0.4624 -0.2979  0.7055
17517SOL     OW54867   1.729   0.018   3.986 -0.5766 -0.4005  0.1287
17517SOL    HW154868   1.654   0.018   4.045  0.2517  2.2815  1.3683
17517SOL    HW254869   1.741   0.110   3.963  1.7600 -0.8492 -0.7503
17518SOL     OW54870   4.359   3.069   0.037  0.5395  0.0846 -0.1835
17518SOL    HW154871   4.442   3.113   0.058  0.4934 -0.7441  2.1152
17518SOL    HW254872   4.386   2.989  -0.009  0.8381  0.9219 -1.4893
17519SOL     OW54873  10.582   6.832   1.956 -0.2429 -0.1101  0.0662
17519SOL    HW154874  10.590   6.926   1.944  0.6453 -0.2546 -0.5647
17519SOL    HW254875  10.666   6.796   1.926 -0.0755 -0.9919  1.4886
17520SOL     OW54876   4.068   1.546   6.121  0.5497 -0.4550  0.0859
17520SOL    HW154877   4.156   1.527   6.088  0.5519 -0.2459 -0.0270
17520SOL    HW254878   4.058   1.640   6.111  0.3722 -0.4572  0.2464
17521SOL     OW54879  10.190   8.612   7.461  0.1934  0.4158 -0.0414
17521SOL    HW154880  10.174   8.530   7.415  3.2024 -0.2651 -0.0669
17521SOL    HW254881  10.172   8.680   7.396 -0.3238 -0.3101 -0.6732
17522SOL     OW54882   7.955   9.100   5.443 -0.4595  0.2379  0.1728
17522SOL    HW154883   7.991   9.053   5.518  2.3708  1.3047 -0.3752
17522SOL    HW254884   8.031   9.120   5.389 -2.2925  0.2182 -2.6168
17523SOL     OW54885   2.088   5.874   5.405 -1.0018 -0.6302  0.0009
17523SOL    HW154886   2.148   5.849   5.335 -3.5680 -2.8594 -1.5996
17523SOL    HW254887   2.124   5.831   5.483 -0.4309 -1.7945 -0.8776
17524SOL     OW54888   2.394   9.988   2.120 -0.2227  0.3818 -1.0182
17524SOL    HW154889   2.402   9.920   2.054 -1.7551 -0.1779 -0.6570
17524SOL    HW254890   2.347   9.946   2.192  2.9004  0.3948  1.2668
17525SOL     OW54891   7.058   0.617   7.998  0.2558 -0.1699 -0.1758
17525SOL    HW154892   7.069   0.707   7.968  0.7954 -0.3080 -0.4082
17525SOL    HW254893   6.964   0.606   8.010  0.0343 -0.0930 -1.7457
17526SOL     OW54894   2.110   2.414   4.561  0.0699  0.0328 -0.0023
17526SOL    HW154895   2.173   2.404   4.633 -2.5317 -0.5009  2.3789
17526SOL    HW254896   2.121   2.504   4.531  3.3331 -0.6066 -1.2036
17527SOL     OW54897   9.235   7.901   9.967  0.0321 -0.2151  0.6116
17527SOL    HW154898   9.316   7.873   9.924  0.0162 -0.5744  0.8105
17527SOL    HW254899   9.263   7.938  10.050 -0.1451 -2.4161  1.7195
17528SOL     OW54900   2.723   3.197   2.625  0.8535  0.2472  0.2274
17528SOL    HW154901   2.777   3.270   2.656  1.2015  0.7591 -1.4612
17528SOL    HW254902   2.784   3.123   2.620  1.4092  0.7789 -1.5001
17529SOL     OW54903   1.251  10.596   9.298  0.1967 -0.2313 -0.2499
17529SOL    HW154904   1.318  10.559   9.356  0.2433 -0.6549 -0.5724
17529SOL    HW254905   1.246  10.534   9.225 -0.1903  0.0627 -0.4711
17530SOL     OW54906   5.163   6.892   6.668  0.1579 -0.3539  0.3046
17530SOL    HW154907   5.068   6.889   6.669 -0.0361  2.3056 -0.9214
17530SOL    HW254908   5.188   6.837   6.594 -0.4787 -0.4351  0.1454
17531SOL     OW54909   3.634   3.533   9.479 -0.3481  0.8846  0.6847
17531SOL    HW154910   3.621   3.576   9.563  0.6393 -1.8199  2.3382
17531SOL    HW254911   3.569   3.463   9.476  0.7716 -0.1856  0.0438
17532SOL     OW54912   1.354   8.840   5.944  0.1284 -0.3312 -0.3869
17532SOL    HW154913   1.393   8.755   5.922 -0.2628 -0.7332  0.4274
17532SOL    HW254914   1.291   8.820   6.013 -0.5111  0.5174 -0.7139
17533SOL     OW54915   4.206   3.714   3.139 -0.6190 -0.6556  0.1979
17533SOL    HW154916   4.249   3.629   3.131  0.3968 -0.2856  1.3908
17533SOL    HW254917   4.125   3.695   3.185 -0.6513 -1.0482 -0.0174
17534SOL     OW54918   9.543   4.085   7.961  0.4386 -0.3765  0.0036
17534SOL    HW154919   9.462   4.130   7.937  0.6166 -0.3274 -0.5332
17534SOL    HW254920   9.552   4.017   7.894  1.6093  0.5648 -0.8310
17535SOL     OW54921   1.833   2.178   0.349 -0.0584  0.1375 -0.1379
17535SOL    HW154922   1.861   2.186   0.441 -0.2677  1.3258 -0.1633
17535SOL    HW254923   1.858   2.261   0.309  1.6280 -1.0234 -1.6235
17536SOL     OW54924   6.686   5.395   3.542 -0.1946 -0.6962  0.1405
17536SOL    HW154925   6.608   5.427   3.497 -1.2358 -2.7129  0.4189
17536SOL    HW254926   6.655   5.365   3.627  0.9324 -1.2795  0.3724
17537SOL     OW54927   3.308   4.026   7.015  0.6053  0.5604  0.2746
17537SOL    HW154928   3.322   4.120   7.005  0.1972  0.4594 -1.6613
17537SOL    HW254929   3.326   3.990   6.928 -0.0807 -1.0497  0.7673
17538SOL     OW54930   9.744   7.238   8.322 -0.1418  0.3740  0.5736
17538SOL    HW154931   9.813   7.256   8.386 -0.4819  1.3460  0.6812
17538SOL    HW254932   9.676   7.302   8.341 -2.0195 -1.8465  1.8073
17539SOL     OW54933   3.205   6.490   6.150 -0.2714  0.7134 -0.5234
17539SOL    HW154934   3.258   6.565   6.174 -1.2407  1.9442 -2.0549
17539SOL    HW254935   3.177   6.453   6.234 -1.1008  3.0322  0.3025
17540SOL     OW54936   5.478   8.167   0.536  0.1498 -0.0397 -0.0519
17540SOL    HW154937   5.568   8.136   0.525  0.3430  0.7691 -0.8261
17540SOL    HW254938   5.473   8.246   0.483 -0.2579  1.4184  2.0290
17541SOL     OW54939   9.684   0.294  10.494 -0.9571  0.0408  0.0914
17541SOL    HW154940   9.729   0.236  10.556 -0.8440 -1.0521 -0.9715
17541SOL    HW254941   9.642   0.234  10.432 -2.1526  1.0848 -0.1500
17542SOL     OW54942   3.186  10.350   9.381 -0.1068 -0.1453 -0.1750
17542SOL    HW154943   3.093  10.372   9.375 -0.1457  0.0423  1.0142
17542SOL    HW254944   3.209  10.362   9.473  1.1459 -0.0151 -0.4782
17543SOL     OW54945   1.570   9.015   5.863 -0.2938  0.0635 -0.1512
17543SOL    HW154946   1.487   8.974   5.890  0.1577 -0.7708  0.0242
17543SOL    HW254947   1.568   9.102   5.903 -1.9565  0.8337 -1.7777
17544SOL     OW54948   4.722   7.491   9.390  0.0836 -0.2296  0.3703
17544SOL    HW154949   4.666   7.568   9.378  1.0685  0.8701  2.3278
17544SOL    HW254950   4.662   7.421   9.415 -0.5964  0.5254  0.8975
17545SOL     OW54951   6.150   5.646   7.615  0.6958  0.0471 -0.3219
17545SOL    HW154952   6.124   5.613   7.529  0.9856  2.2300 -1.2940
17545SOL    HW254953   6.068   5.654   7.664  0.5440 -1.3188 -0.3083
17546SOL     OW54954   7.755   8.992   2.754 -0.5665 -0.1554  0.6646
17546SOL    HW154955   7.769   8.916   2.810  0.5960 -0.0730  0.5182
17546SOL    HW254956   7.801   9.063   2.799 -1.0209  0.2908  0.4322
17547SOL     OW54957   7.343   7.323   5.277 -0.4998 -0.1812 -0.2737
17547SOL    HW154958   7.341   7.393   5.213 -0.4352  0.5715  0.5305
17547SOL    HW254959   7.318   7.244   5.228 -1.1978  0.5059 -1.0423
17548SOL     OW54960   4.669   1.504   0.628  0.1792  0.3587 -0.2611
17548SOL    HW154961   4.627   1.425   0.664 -0.1216  0.9548  0.7283
17548SOL    HW254962   4.665   1.491   0.533 -1.4761 -0.0190 -0.1764
17549SOL     OW54963   2.450   5.399   1.487  0.0074  0.8275  0.3306
17549SOL    HW154964   2.514   5.353   1.433 -0.4736 -0.2264  0.6220
17549SOL    HW254965   2.436   5.482   1.443 -0.4116 -0.0174 -1.2107
17550SOL     OW54966   8.328   8.461  10.444 -0.5435  0.5490  0.2439
17550SOL    HW154967   8.314   8.379  10.396 -0.6187  0.2546  0.7619
17550SOL    HW254968   8.378   8.516  10.384 -1.8707  0.7275 -0.7440
17551SOL     OW54969  10.135   1.159  10.501 -0.5666 -0.2102 -0.5262
17551SOL    HW154970  10.192   1.216  10.553  0.3746  0.6558 -2.4391
17551SOL    HW254971  10.148   1.072  10.539  1.8078  0.0162 -0.6718
17552SOL     OW54972   1.202  10.206   7.097  0.1961 -0.3487 -0.5361
17552SOL    HW154973   1.285  10.183   7.056  0.7868  0.0881  0.3787
17552SOL    HW254974   1.163  10.271   7.039  1.2646  0.6633 -0.1668
17553SOL     OW54975   9.471   7.136   1.445  0.1210 -0.2403  0.2345
17553SOL    HW154976   9.512   7.201   1.386  1.1076  1.1018  2.2869
17553SOL    HW254977   9.502   7.052   1.411 -0.3247  0.3682 -1.8760
17554SOL     OW54978  10.001  10.246   6.034  0.2653  0.7671  0.2084
17554SOL    HW154979  10.042  10.159   6.030 -0.9989  0.1711 -0.2927
17554SOL    HW254980  10.072  10.306   6.014  1.0219 -0.2013 -0.1328
17555SOL     OW54981   8.631   8.792   1.993  0.1338  0.1038 -0.3464
17555SOL    HW154982   8.606   8.701   2.011 -2.1764  0.3061 -1.9444
17555SOL    HW254983   8.726   8.790   1.985  0.1771 -2.1064  0.0124
17556SOL     OW54984   1.048   7.069   4.963 -0.4573  0.3229 -0.0448
17556SOL    HW154985   1.064   7.124   4.886  0.8996 -0.3825 -0.3010
17556SOL    HW254986   1.095   7.112   5.034  0.3003 -0.2964 -0.1632
17557SOL     OW54987  10.290   8.539   4.585 -0.3517  0.1148 -0.3970
17557SOL    HW154988  10.290   8.574   4.496  0.3448  0.0596 -0.4232
17557SOL    HW254989  10.218   8.475   4.585 -2.6863  2.5586  0.0791
17558SOL     OW54990   8.955   2.559   0.356 -0.5878 -0.5394  0.1138
17558SOL    HW154991   8.886   2.497   0.380  0.2325 -3.4457 -3.8344
17558SOL    HW254992   8.927   2.596   0.272  1.3057  0.4213 -0.1643
17559SOL     OW54993  10.462   7.375   2.494 -0.0453 -0.0119  0.0809
17559SOL    HW154994  10.441   7.281   2.494  0.6630 -0.1816 -0.9478
17559SOL    HW254995  10.557   7.379   2.487  0.1169  0.7870  1.9938
17560SOL     OW54996   4.759   4.668   8.732 -0.0165 -0.2886  0.1111
17560SOL    HW154997   4.771   4.737   8.798 -1.1345  0.0413 -0.0156
17560SOL    HW254998   4.800   4.591   8.771  0.0266  0.1060  0.8658
17561SOL     OW54999   6.297   3.121   5.150  0.7035 -0.4290 -0.5303
17561SOL    HW155000   6.310   3.210   5.119  0.1075 -0.3857 -0.6835
17561SOL    HW255001   6.277   3.130   5.243 -0.3683 -0.3021 -0.7553
17562SOL     OW55002   9.619   0.852   6.302  0.2242 -0.3986 -0.2517
17562SOL    HW155003   9.629   0.759   6.322  1.6594 -0.4344 -0.9865
17562SOL    HW255004   9.555   0.883   6.366  0.5279 -1.6576  0.7142
17563SOL     OW55005   1.244   0.171  10.176 -0.4254 -0.0220 -0.3844
17563SOL    HW155006   1.301   0.155  10.251 -1.5712  0.9472  0.7618
17563SOL    HW255007   1.229   0.085  10.137  0.2959 -0.5339  0.4397
17564SOL     OW55008   4.415   6.105   9.858 -0.4845  0.2143  0.0479
17564SOL    HW155009   4.509   6.093   9.863 -0.5236 -0.7423 -1.0109
17564SOL    HW255010   4.396   6.105   9.764 -1.7743 -1.6504  0.2562
17565SOL     OW55011   8.402   6.262   7.346 -0.2679 -0.2170 -0.1484
17565SOL    HW155012   8.370   6.350   7.367 -0.2691 -0.1689 -0.3497
17565SOL    HW255013   8.490   6.277   7.311  0.4132 -0.4217  1.3649
17566SOL     OW55014   8.676  10.506   5.626 -0.1548  0.5081  0.1712
17566SOL    HW155015   8.712  10.421   5.651 -1.7739 -0.0775  0.5920
17566SOL    HW255016   8.751  10.553   5.589  1.1246 -0.5024  1.3643
17567SOL     OW55017   6.811   4.523  10.523  0.0837 -0.2421  0.1843
17567SOL    HW155018   6.864   4.448  10.549 -0.1981 -0.6963 -0.5289
17567SOL    HW255019   6.738   4.485  10.474  0.1479  0.5319 -0.5302
17568SOL     OW55020   5.746   4.558   0.208 -0.1137  0.0926  0.2332
17568SOL    HW155021   5.700   4.639   0.225 -0.3674 -0.1541  0.7381
17568SOL    HW255022   5.825   4.563   0.262  0.6565  0.6735 -0.9002
17569SOL     OW55023   6.031   5.567   8.246 -0.1618 -0.3161  0.1522
17569SOL    HW155024   5.936   5.563   8.245 -0.1712 -2.1496 -2.4649
17569SOL    HW255025   6.059   5.475   8.244  1.7119  0.1629  1.4557
17570SOL     OW55026   8.797   6.790   9.986 -0.3340 -0.3770  0.0974
17570SOL    HW155027   8.732   6.860   9.982 -0.5044 -0.5781 -2.0316
17570SOL    HW255028   8.746   6.710   9.990 -0.1944 -0.4663  0.0793
17571SOL     OW55029  10.309   9.393   2.541  0.4188  0.2618  0.3918
17571SOL    HW155030  10.390   9.343   2.532 -0.3815 -1.1501  0.6942
17571SOL    HW255031  10.239   9.330   2.524 -0.6521  1.1827  1.1751
17572SOL     OW55032   3.460   0.504   6.351  0.3455 -0.1113 -0.1893
17572SOL    HW155033   3.373   0.506   6.312 -2.0289  1.9568  4.4727
17572SOL    HW255034   3.506   0.578   6.311 -0.5832 -0.2046 -1.4988
17573SOL     OW55035   2.017   7.802   2.651 -0.2046 -0.3686 -0.2235
17573SOL    HW155036   1.938   7.849   2.676 -0.7531 -2.0493  1.4597
17573SOL    HW255037   2.052   7.851   2.577 -1.5772  1.7115  0.4192
17574SOL     OW55038   4.897   4.930   6.645  0.4038  0.3742 -0.2867
17574SOL    HW155039   4.831   4.966   6.704 -0.6494 -1.7864 -0.0315
17574SOL    HW255040   4.958   4.885   6.704 -0.4562 -1.4937 -0.7581
17575SOL     OW55041   8.219   3.588  10.380  0.3357  0.0027  0.4518
17575SOL    HW155042   8.268   3.641  10.443  1.4775 -0.8711  0.3256
17575SOL    HW255043   8.200   3.648  10.308  1.7026  0.2335  0.2614
17576SOL     OW55044   8.762   2.919   7.368  0.1974  0.0460 -0.1974
17576SOL    HW155045   8.841   2.890   7.321  2.2417  3.0922  1.0540
17576SOL    HW255046   8.756   2.860   7.443  3.2246  1.5325  1.3772
17577SOL     OW55047   9.103   6.973   2.514 -0.4387 -0.0721  0.0979
17577SOL    HW155048   9.061   7.027   2.581  0.4756 -1.0053  1.4832
17577SOL    HW255049   9.058   6.889   2.520 -0.1956 -0.2319 -0.3148
17578SOL     OW55050   8.399   3.670   6.045 -0.0830 -0.5103  0.0344
17578SOL    HW155051   8.360   3.719   6.117 -1.0175  0.7375 -1.2609
17578SOL    HW255052   8.360   3.708   5.966  2.4745 -0.3478 -1.2763
17579SOL     OW55053   3.183   2.389   2.747 -0.3401 -0.1186 -0.5543
17579SOL    HW155054   3.110   2.451   2.742  1.1301  1.6470 -1.1336
17579SOL    HW255055   3.161   2.321   2.683 -3.2470 -1.7351  1.9054
17580SOL     OW55056   4.815   4.028   8.818  0.5299  0.1451 -0.4001
17580SOL    HW155057   4.756   3.970   8.770  0.9634  0.8221 -1.8026
17580SOL    HW255058   4.877   3.968   8.861 -0.9444 -0.5595  0.8536
17581SOL     OW55059   4.869  10.220   8.785 -0.2903 -0.6185 -0.1398
17581SOL    HW155060   4.944  10.169   8.753 -1.6498 -1.2221 -2.7073
17581SOL    HW255061   4.883  10.308   8.750  0.1820 -0.2116  1.0564
17582SOL     OW55062   8.610  10.574   1.540 -0.1197 -0.2006  0.0405
17582SOL    HW155063   8.699  10.607   1.524 -0.2332 -0.9990 -2.8280
17582SOL    HW255064   8.562  10.650   1.571  1.2322  0.6044  0.2717
17583SOL     OW55065   5.919   9.847   2.590 -0.5113  0.3493  0.2931
17583SOL    HW155066   5.848   9.904   2.621 -0.6867  0.4260 -0.2501
17583SOL    HW255067   5.911   9.847   2.495 -0.9885 -1.1877  0.3063
17584SOL     OW55068   8.107   6.115   1.568 -0.5761  0.4229 -0.5472
17584SOL    HW155069   8.173   6.075   1.512 -1.2432 -0.3227 -0.8132
17584SOL    HW255070   8.110   6.208   1.546  1.8726  0.8011  0.9731
17585SOL     OW55071   6.767   6.748   1.391 -0.2314  0.1904 -0.1729
17585SOL    HW155072   6.763   6.742   1.296  0.9105  0.9449 -0.2836
17585SOL    HW255073   6.855   6.719   1.414  0.1489  1.7186  0.4693
17586SOL     OW55074   0.414   1.267   9.579  0.6505 -0.5893 -0.2366
17586SOL    HW155075   0.380   1.184   9.613 -0.1622  0.0532  0.5394
17586SOL    HW255076   0.343   1.302   9.526  1.3809 -0.8815 -1.4624
17587SOL     OW55077   8.505   2.558   9.000 -0.5388 -0.2283  0.1020
17587SOL    HW155078   8.500   2.640   9.049 -0.7314 -0.2389  0.0996
17587SOL    HW255079   8.414   2.531   8.988 -0.4500 -0.8345  0.7625
17588SOL     OW55080   4.360   4.720   9.981 -0.1231  0.0861  0.3125
17588SOL    HW155081   4.303   4.740  10.055 -0.3811 -0.4478  0.2656
17588SOL    HW255082   4.403   4.638  10.006  0.8603  0.6442  0.4778
17589SOL     OW55083   3.023   2.260   7.196 -0.1497 -0.4410 -0.0143
17589SOL    HW155084   3.089   2.305   7.144  0.5758 -1.2400  0.2016
17589SOL    HW255085   2.947   2.255   7.138  0.1452  0.0070 -0.4549
17590SOL     OW55086   3.877   6.718   5.294 -0.0745 -0.0409  0.3484
17590SOL    HW155087   3.806   6.654   5.286  0.8050 -0.9491 -0.5054
17590SOL    HW255088   3.936   6.680   5.360 -0.3728  0.7332  1.0925
17591SOL     OW55089   6.786   3.524   6.523 -0.1301 -0.4374  0.2748
17591SOL    HW155090   6.742   3.465   6.585 -2.5839  0.7034 -0.2627
17591SOL    HW255091   6.722   3.592   6.505  1.8195  1.2109 -0.8296
17592SOL     OW55092   6.004   3.612   3.515  0.7967  0.6321 -0.3991
17592SOL    HW155093   6.091   3.582   3.488  1.6386  2.4360  0.1533
17592SOL    HW255094   5.971   3.542   3.571  1.6382 -0.3400 -1.0681
17593SOL     OW55095   8.018   2.623   1.813 -0.2004  0.9525  0.3900
17593SOL    HW155096   7.967   2.662   1.742 -0.3559  2.9593  1.5463
17593SOL    HW255097   7.961   2.628   1.890  0.1580 -0.7284  0.8208
17594SOL     OW55098   5.418   3.389   1.922 -0.3100 -0.2072  0.6795
17594SOL    HW155099   5.424   3.348   2.009 -0.8047 -0.1134  0.7576
17594SOL    HW255100   5.324   3.397   1.905 -0.2510 -1.5063 -0.4733
17595SOL     OW55101   7.441   3.091   2.231 -0.3092 -0.2820 -0.3037
17595SOL    HW155102   7.519   3.076   2.177  0.1105  1.1739 -0.1337
17595SOL    HW255103   7.414   3.180   2.210 -1.0925 -0.2741  0.6923
17596SOL     OW55104   2.094   4.160   5.025 -0.1222 -0.0396  0.3636
17596SOL    HW155105   2.136   4.088   4.977 -0.2808  0.5561 -0.7085
17596SOL    HW255106   2.006   4.165   4.987  0.5116  1.9729 -1.0173
17597SOL     OW55107   4.863   1.521   2.909  0.0924  0.1993 -0.3211
17597SOL    HW155108   4.849   1.582   2.836 -0.9722 -0.7630 -0.9549
17597SOL    HW255109   4.883   1.438   2.867  0.8732 -0.0494  0.5211
17598SOL     OW55110   3.124   7.746   9.072 -0.2570 -0.1875  0.0030
17598SOL    HW155111   3.183   7.803   9.022  0.1849  0.0071  0.7329
17598SOL    HW255112   3.122   7.664   9.023  0.4557 -0.1200 -0.1479
17599SOL     OW55113   3.431   6.285   2.085 -0.3704 -0.0741 -0.1569
17599SOL    HW155114   3.420   6.337   2.164 -0.7130 -1.5673  0.8220
17599SOL    HW255115   3.366   6.319   2.023 -1.2677  0.0146  0.8110
17600SOL     OW55116   9.270  10.413   4.307  0.0754 -0.6816 -0.3912
17600SOL    HW155117   9.307  10.464   4.235 -1.1539 -1.4722 -1.6389
17600SOL    HW255118   9.269  10.474   4.381  1.6149  0.0756 -0.9405
17601SOL     OW55119   6.834   3.523   1.896 -0.0417 -0.6521  0.5900
17601SOL    HW155120   6.848   3.431   1.873  0.1510 -0.1112 -1.7526
17601SOL    HW255121   6.904   3.544   1.957  0.6455 -1.7511  0.2057
17602SOL     OW55122   9.407   0.431   5.611 -0.0517 -0.4858  0.5143
17602SOL    HW155123   9.367   0.509   5.651 -1.1832 -0.3630 -0.7386
17602SOL    HW255124   9.462   0.393   5.679 -0.1982  0.9071  1.4427
17603SOL     OW55125   0.092   2.511   1.965 -0.3716 -0.1050 -0.4756
17603SOL    HW155126   0.044   2.447   1.913 -1.0715  0.9699 -1.2172
17603SOL    HW255127   0.066   2.596   1.928  0.4255  0.6161  0.5434
17604SOL     OW55128   1.009   7.780   9.338  0.1016 -0.8254 -0.5122
17604SOL    HW155129   0.951   7.724   9.389 -0.2002  0.2490  0.3627
17604SOL    HW255130   1.092   7.777   9.385 -0.7315  1.7962  1.3392
17605SOL     OW55131   2.430   8.782   1.543  0.1558 -0.1335  0.2515
17605SOL    HW155132   2.511   8.732   1.557  0.4692  0.4519  0.5295
17605SOL    HW255133   2.406   8.813   1.630 -0.8691 -1.0546  0.3179
17606SOL     OW55134   0.966   2.310   5.773 -0.1392  0.2112 -0.1354
17606SOL    HW155135   0.975   2.364   5.851 -0.9063 -0.0337  0.1320
17606SOL    HW255136   1.056   2.290   5.747  0.1314 -0.8590  1.4861
17607SOL     OW55137   4.072   0.007   2.304  0.2617 -0.5945  0.0657
17607SOL    HW155138   4.075  -0.056   2.376  2.5683 -2.2340 -1.3267
17607SOL    HW255139   4.044  -0.045   2.228 -1.9502  1.0548 -0.3270
17608SOL     OW55140   7.455   2.630   0.858  0.4442  0.6111 -0.2480
17608SOL    HW155141   7.538   2.652   0.817  1.0025 -1.5911 -0.3832
17608SOL    HW255142   7.464   2.539   0.886 -1.3585  0.7919  1.1719
17609SOL     OW55143   2.026   3.506   4.080  0.7233  0.5710  0.3763
17609SOL    HW155144   2.030   3.560   4.001  0.1788  0.0013 -0.0459
17609SOL    HW255145   1.934   3.504   4.104  0.7083 -0.3012  0.2868
17610SOL     OW55146   5.241   8.679   7.333 -0.2227 -0.4214  0.1739
17610SOL    HW155147   5.252   8.730   7.413 -1.6800 -2.1293  1.5376
17610SOL    HW255148   5.163   8.716   7.292 -1.2385 -1.4488  1.1255
17611SOL     OW55149   9.185   1.729   1.287 -0.2157  0.4817  0.6389
17611SOL    HW155150   9.213   1.642   1.315  0.4189  1.5628  3.7498
17611SOL    HW255151   9.100   1.741   1.328 -0.7617  0.9972 -0.5902
17612SOL     OW55152   7.996  10.412   2.984 -0.4539  0.0035  0.2588
17612SOL    HW155153   7.944  10.413   3.064 -0.6613  0.1065  0.1245
17612SOL    HW255154   8.034  10.324   2.981 -1.2542 -0.3400 -0.0404
17613SOL     OW55155   1.050   8.248   4.830  0.1081 -0.3227 -0.0577
17613SOL    HW155156   0.970   8.279   4.788  1.7433  0.5366 -2.8171
17613SOL    HW255157   1.109   8.324   4.827  2.1821 -1.8732 -1.4213
17614SOL     OW55158  10.439   6.163   1.433  0.6775  0.3774 -0.0619
17614SOL    HW155159  10.521   6.115   1.440  0.6024  0.3838  1.2749
17614SOL    HW255160  10.432   6.211   1.516  0.1540  1.7318 -0.8537
17615SOL     OW55161   1.742   3.740   6.056 -0.1793 -0.3451  0.4848
17615SOL    HW155162   1.654   3.731   6.021 -0.2240 -1.5995  0.8795
17615SOL    HW255163   1.798   3.695   5.993 -0.1624 -1.9059  1.5599
17616SOL     OW55164   5.210   8.506   5.775 -0.8913 -0.1750  0.6092
17616SOL    HW155165   5.196   8.481   5.866 -1.2723  2.4745  1.3542
17616SOL    HW255166   5.127   8.543   5.746 -0.3200  0.4647 -0.2843
17617SOL     OW55167   6.303   6.501   6.195 -0.4683  0.0892 -0.3547
17617SOL    HW155168   6.374   6.562   6.175 -0.5466  0.8037  1.3611
17617SOL    HW255169   6.248   6.548   6.258 -0.7574 -1.5992  0.7039
17618SOL     OW55170   9.349   0.377   8.813 -0.4729  0.8132  0.5010
17618SOL    HW155171   9.331   0.436   8.886  0.5751  2.1328 -0.2455
17618SOL    HW255172   9.380   0.435   8.743 -1.6807 -0.3637 -1.0910
17619SOL     OW55173   0.204   1.863   0.248  0.1064  0.7449 -0.4706
17619SOL    HW155174   0.196   1.931   0.182 -0.3588  0.2632 -0.9274
17619SOL    HW255175   0.147   1.792   0.216 -0.0981  0.4905  0.4251
17620SOL     OW55176   4.338   5.576  10.315 -1.0753 -0.3319 -0.4179
17620SOL    HW155177   4.279   5.634  10.266 -1.6079  0.5122  1.1059
17620SOL    HW255178   4.383   5.525  10.249  0.5933  2.9055 -2.0242
17621SOL     OW55179   2.889   3.073  10.315 -0.0163  0.0063 -0.2259
17621SOL    HW155180   2.808   3.074  10.365 -0.0173 -1.3414 -0.1661
17621SOL    HW255181   2.863   3.104  10.228 -0.4797  0.1058 -0.0575
17622SOL     OW55182   3.701   9.096   9.864  0.4533  0.8459  0.1211
17622SOL    HW155183   3.725   9.189   9.858 -0.2047  1.1770  1.8839
17622SOL    HW255184   3.606   9.094   9.852  0.6177  0.2307 -1.1830
17623SOL     OW55185   0.941   1.156   2.678  0.0507 -0.0101 -0.3878
17623SOL    HW155186   1.023   1.158   2.628 -0.2691 -0.1202 -0.9250
17623SOL    HW255187   0.887   1.223   2.637  0.2814  0.8634  0.6996
17624SOL     OW55188   1.448   7.638   0.239 -0.0111  0.8566 -0.1434
17624SOL    HW155189   1.503   7.624   0.316 -2.4390 -2.1787  1.2511
17624SOL    HW255190   1.492   7.589   0.169 -0.3681 -0.8172  0.7373
17625SOL     OW55191   8.949   6.819   6.306  0.3019 -0.4656 -0.0329
17625SOL    HW155192   8.904   6.871   6.239 -0.0099 -1.3876 -0.5552
17625SOL    HW255193   8.893   6.827   6.384  0.8970  0.9758  0.2950
17626SOL     OW55194   5.421   3.899   9.988  0.2551 -0.7218 -0.2683
17626SOL    HW155195   5.502   3.893  10.038  0.2592 -1.1087 -0.3119
17626SOL    HW255196   5.364   3.956  10.040  0.6576 -0.2105 -0.3825
17627SOL     OW55197   4.552   6.467   5.405 -0.5497  0.0228  0.5665
17627SOL    HW155198   4.520   6.382   5.434 -1.0434 -0.7270 -1.9652
17627SOL    HW255199   4.643   6.470   5.435  0.0160 -2.1634 -0.6900
17628SOL     OW55200   9.476   0.697   1.504 -0.4882 -0.1563  0.0971
17628SOL    HW155201   9.547   0.725   1.563  1.4079 -1.4248 -1.4674
17628SOL    HW255202   9.516   0.631   1.448 -1.8411  1.7128 -3.3984
17629SOL     OW55203   3.098   4.224   5.753  0.2863  0.2334  0.0936
17629SOL    HW155204   3.185   4.204   5.789  0.7173  1.6359 -0.1180
17629SOL    HW255205   3.037   4.195   5.821  0.9093 -0.6754  0.2910
17630SOL     OW55206   7.660   3.970   5.035  0.6997 -0.0644  0.1670
17630SOL    HW155207   7.649   4.016   4.952  0.1178 -1.4106 -0.5306
17630SOL    HW255208   7.572   3.946   5.062  0.9168  0.0076  0.9798
17631SOL     OW55209   6.760   3.503   5.290  0.1223 -0.0862  0.2234
17631SOL    HW155210   6.690   3.528   5.350 -0.4478 -1.0176 -0.0342
17631SOL    HW255211   6.720   3.504   5.203  0.2803 -1.0625  0.1178
17632SOL     OW55212   6.512   4.428   1.999 -0.0715  0.8243 -0.2602
17632SOL    HW155213   6.462   4.368   2.055 -1.5835  0.8709 -1.5104
17632SOL    HW255214   6.536   4.375   1.924  2.1217  0.7123  0.4570
17633SOL     OW55215   5.464   7.595   6.041 -0.4088 -0.1710  0.0502
17633SOL    HW155216   5.514   7.609   6.121 -1.8529  0.0475  0.9464
17633SOL    HW255217   5.441   7.502   6.043 -0.0522 -0.2736 -0.3644
17634SOL     OW55218   5.684   3.935   9.714 -0.6255 -0.6640 -0.6087
17634SOL    HW155219   5.608   3.934   9.772  1.0844  1.2302  1.8877
17634SOL    HW255220   5.734   3.858   9.739  0.4042  0.4608  1.0164
17635SOL     OW55221   0.159   2.488   9.715 -0.3008 -0.0832  0.1067
17635SOL    HW155222   0.196   2.473   9.802 -0.5816 -1.0046  0.0795
17635SOL    HW255223   0.208   2.429   9.657 -0.1042  0.5314 -0.3697
17636SOL     OW55224   8.772   3.591   3.487 -0.6210  0.2481  0.0490
17636SOL    HW155225   8.856   3.612   3.447 -0.7605  0.0869 -0.3328
17636SOL    HW255226   8.764   3.652   3.560  0.6588 -0.9261  1.2311
17637SOL     OW55227   2.450   8.800   2.498 -0.1669  0.1149  0.6146
17637SOL    HW155228   2.395   8.839   2.430  1.0340  0.3780 -0.2490
17637SOL    HW255229   2.416   8.835   2.580 -0.4580  1.3015  0.0106
17638SOL     OW55230   3.008   6.474   0.151  0.0140 -0.4488  0.2072
17638SOL    HW155231   2.931   6.515   0.191  1.9519  2.0930  1.6291
17638SOL    HW255232   3.014   6.516   0.065 -1.0299 -1.8576 -0.5978
17639SOL     OW55233   3.529  10.354   2.962 -0.2367  0.0724 -0.0378
17639SOL    HW155234   3.443  10.337   3.002 -0.0627 -0.3816  0.1530
17639SOL    HW255235   3.516  10.433   2.910 -0.2767  1.1459  1.5326
17640SOL     OW55236   4.198   4.665   8.844 -0.4678 -0.2056 -1.1372
17640SOL    HW155237   4.131   4.693   8.906 -0.1773  1.6571 -1.6052
17640SOL    HW255238   4.277   4.654   8.898 -0.8326 -1.2592 -0.7799
17641SOL     OW55239   3.726   2.700   2.566  0.1098 -0.2579 -0.0422
17641SOL    HW155240   3.643   2.717   2.611 -0.1909 -0.5750 -0.4679
17641SOL    HW255241   3.776   2.782   2.575 -1.0007  0.6201 -1.3933
17642SOL     OW55242   5.311   6.640   7.137 -0.3000  0.6142 -0.4697
17642SOL    HW155243   5.392   6.630   7.088 -0.4179 -0.5154 -0.4526
17642SOL    HW255244   5.319   6.580   7.211 -1.3724  0.0890 -0.7552
17643SOL     OW55245   0.084   0.326   6.294  0.1091  0.4394 -0.3099
17643SOL    HW155246  -0.003   0.294   6.272  0.1879  0.9517 -1.4003
17643SOL    HW255247   0.125   0.252   6.340 -0.3172 -0.4290 -1.2686
17644SOL     OW55248   9.948   9.126   7.047  0.5189  0.0884 -0.3756
17644SOL    HW155249  10.017   9.115   7.113 -0.5482 -0.3981  0.7038
17644SOL    HW255250   9.976   9.201   6.996  2.3893 -0.7469 -0.6759
17645SOL     OW55251   4.555   6.253   3.284 -0.6691  0.0155  0.5368
17645SOL    HW155252   4.558   6.249   3.188  1.1765 -0.1727  0.5556
17645SOL    HW255253   4.508   6.334   3.303 -1.2832 -0.0695 -0.5244
17646SOL     OW55254   3.581   7.629  10.465  0.1748  0.4526 -0.1254
17646SOL    HW155255   3.522   7.675  10.405  1.5328  1.7196 -0.5687
17646SOL    HW255256   3.628   7.699  10.511  0.5154 -0.5052  1.0561
17647SOL     OW55257   0.832   7.860   1.480 -0.1646  0.1308  0.4816
17647SOL    HW155258   0.917   7.866   1.524 -0.3084 -0.3165  0.8157
17647SOL    HW255259   0.853   7.825   1.393  0.1425  1.1966  0.1007
17648SOL     OW55260   3.551   6.725   9.266  0.3587 -0.2879  0.0797
17648SOL    HW155261   3.504   6.690   9.342  2.0692 -1.0189  0.8747
17648SOL    HW255262   3.553   6.652   9.204 -0.1953 -0.0182 -0.2506
17649SOL     OW55263   0.331   5.141   2.622  0.7401  0.0991 -0.7511
17649SOL    HW155264   0.340   5.090   2.542  0.4402 -1.3441  0.1044
17649SOL    HW255265   0.420   5.154   2.653  0.8740  0.8588 -1.4126
17650SOL     OW55266   8.939   5.907   9.683 -0.0832  0.2877 -0.3134
17650SOL    HW155267   8.957   5.821   9.719 -2.4620  0.3732  1.3538
17650SOL    HW255268   9.023   5.952   9.684  0.4224 -0.4452  3.3607
17651SOL     OW55269   9.633   2.674   0.384 -0.0136 -0.5593  0.0030
17651SOL    HW155270   9.549   2.702   0.421 -0.0713 -0.4848 -0.1834
17651SOL    HW255271   9.686   2.651   0.460  0.7342  1.9069  0.2851
17652SOL     OW55272   6.318   6.687   2.899  0.6784 -0.1608  0.3252
17652SOL    HW155273   6.240   6.666   2.951 -0.2019  0.2074 -0.8032
17652SOL    HW255274   6.336   6.779   2.917 -0.0956  0.1820 -0.5912
17653SOL     OW55275   6.569   9.182   1.747  0.1616 -0.1953 -0.3112
17653SOL    HW155276   6.642   9.220   1.697  0.2356 -0.8724 -0.7226
17653SOL    HW255277   6.491   9.225   1.712  0.4134  1.3536  0.8749
17654SOL     OW55278   4.246   0.220   3.375 -0.2164 -0.3463  0.1194
17654SOL    HW155279   4.264   0.132   3.341 -0.2857  0.2822 -1.6616
17654SOL    HW255280   4.163   0.211   3.423  0.1560 -1.3821  0.6061
17655SOL     OW55281   6.512   1.560   6.375  0.2394  0.3375  0.7597
17655SOL    HW155282   6.604   1.586   6.386  0.2166  0.5095  0.5537
17655SOL    HW255283   6.470   1.637   6.335  0.3720 -0.3338 -0.7602
17656SOL     OW55284   8.488  10.018   8.814  0.2101  0.3948 -0.0090
17656SOL    HW155285   8.515  10.108   8.830  0.2223  0.2820  0.6323
17656SOL    HW255286   8.541   9.966   8.874 -0.6540  0.0750  0.5033
17657SOL     OW55287   9.788  10.042   5.300 -0.3073  0.1455 -0.4309
17657SOL    HW155288   9.728   9.978   5.338 -0.6477  1.0689  0.6253
17657SOL    HW255289   9.739  10.078   5.226 -0.5363 -0.0486 -0.3781
17658SOL     OW55290  10.107   9.430   2.219  0.0568 -0.2788  0.3351
17658SOL    HW155291  10.074   9.502   2.273  1.7537 -1.6165  3.4368
17658SOL    HW255292  10.149   9.473   2.145 -0.7481  1.8179  1.0124
17659SOL     OW55293   1.117   4.356   3.852 -0.5763  0.5390  0.3587
17659SOL    HW155294   1.053   4.415   3.892  0.1307  1.9939 -0.5616
17659SOL    HW255295   1.137   4.397   3.768 -0.5657 -1.4119 -0.6221
17660SOL     OW55296   1.947   0.565   7.272 -0.2865 -0.0148  0.5169
17660SOL    HW155297   1.966   0.598   7.359  1.5037  1.2282 -0.2796
17660SOL    HW255298   1.856   0.589   7.256 -0.2091  0.9991  1.5121
17661SOL     OW55299   1.876   1.854   7.255  0.4585  0.2075  0.0399
17661SOL    HW155300   1.908   1.797   7.325  1.1352  0.1842 -0.2860
17661SOL    HW255301   1.867   1.940   7.297 -0.6555 -0.1429  0.5536
17662SOL     OW55302   2.015   2.971   2.695  0.5180 -0.0442 -0.1138
17662SOL    HW155303   2.006   2.878   2.676 -2.6587 -0.1123  1.1902
17662SOL    HW255304   1.927   3.006   2.687  1.1332  2.3106  2.1180
17663SOL     OW55305  10.395   3.188   3.620 -0.5304 -0.0726 -0.2989
17663SOL    HW155306  10.393   3.114   3.559  0.1385  0.1035 -0.5487
17663SOL    HW255307  10.314   3.181   3.670 -0.1985 -1.3444  0.1125
17664SOL     OW55308   6.047   0.129   2.915  0.3431  0.1306 -0.5597
17664SOL    HW155309   6.067   0.070   2.987  0.9936 -1.1586 -1.7654
17664SOL    HW255310   6.057   0.217   2.952  2.7413 -0.4747  0.3923
17665SOL     OW55311   2.218   6.071   8.192  0.1243  0.2529 -0.3056
17665SOL    HW155312   2.286   6.137   8.185 -1.3196  1.8265 -0.0356
17665SOL    HW255313   2.237   6.009   8.121  2.1664  0.2804  0.1582
17666SOL     OW55314   9.327   4.199   2.788 -0.5339 -0.5055  0.3211
17666SOL    HW155315   9.356   4.108   2.800  1.7519  0.1204 -0.0354
17666SOL    HW255316   9.406   4.251   2.797 -1.6110  1.3928 -0.5927
17667SOL     OW55317   3.713   8.000   2.988 -0.4781  0.4225  0.0582
17667SOL    HW155318   3.623   8.026   2.967 -0.9255 -1.2313 -0.2157
17667SOL    HW255319   3.703   7.927   3.049  0.6511 -0.5618 -0.8857
17668SOL     OW55320   8.801   3.451   4.849 -0.1295  0.5168  0.0978
17668SOL    HW155321   8.858   3.472   4.775  0.9187 -0.8562  0.4832
17668SOL    HW255322   8.860   3.416   4.915 -1.3231 -0.1750  0.8188
17669SOL     OW55323   9.819   1.042   7.939 -0.2438 -0.5959  0.0496
17669SOL    HW155324   9.758   1.090   7.995  0.6192  0.8965 -0.2329
17669SOL    HW255325   9.882   1.108   7.911 -0.3865 -1.3793 -2.3397
17670SOL     OW55326   5.330   6.465   9.826 -0.3623  0.5010  0.2075
17670SOL    HW155327   5.423   6.446   9.838 -0.6545 -0.8033  0.6142
17670SOL    HW255328   5.293   6.457   9.914 -0.8951  0.7819  0.0110
17671SOL     OW55329   3.844  10.391   9.157 -0.3315  0.8588 -0.4148
17671SOL    HW155330   3.871  10.303   9.185 -0.3835  1.3066  1.1687
17671SOL    HW255331   3.926  10.440   9.153 -0.1726  0.4947 -2.3586
17672SOL     OW55332   4.575   3.311   0.081  0.7422 -0.0094  0.3645
17672SOL    HW155333   4.660   3.345   0.108  0.7519  1.0193 -0.8838
17672SOL    HW255334   4.545   3.371   0.012 -0.6980 -0.7211  0.3251
17673SOL     OW55335   0.637   1.369  10.501 -0.4305 -0.5353  0.7259
17673SOL    HW155336   0.647   1.374  10.596 -0.4166 -0.1419  0.7067
17673SOL    HW255337   0.600   1.454  10.477  1.6603  0.2683  0.1260
17674SOL     OW55338   3.756   3.149   6.998  0.6306 -0.8032  0.4857
17674SOL    HW155339   3.671   3.143   7.041 -0.2953  1.4188 -0.8229
17674SOL    HW255340   3.815   3.184   7.065 -0.0951 -0.0828  0.7628
17675SOL     OW55341   1.134   5.077   2.699  0.5463  0.4002  0.5363
17675SOL    HW155342   1.066   5.100   2.761  1.6497 -0.3980  2.0965
17675SOL    HW255343   1.168   4.993   2.729 -0.1326 -1.0127 -2.2372
17676SOL     OW55344   7.301   5.124   4.932  0.0329 -0.0234  0.1305
17676SOL    HW155345   7.311   5.215   4.903 -1.0310  0.1637  0.3031
17676SOL    HW255346   7.375   5.078   4.892  0.6467  0.9330  0.1301
17677SOL     OW55347   1.847   7.608   0.111  0.1702 -1.4224 -0.5740
17677SOL    HW155348   1.866   7.588   0.019  0.0284 -1.4440 -0.5994
17677SOL    HW255349   1.793   7.535   0.140  0.1607 -1.3830 -0.4924
17678SOL     OW55350   3.941   2.199   3.002 -0.1030  0.0573 -0.1136
17678SOL    HW155351   3.891   2.275   2.973 -0.3968  0.4239  1.2889
17678SOL    HW255352   3.892   2.124   2.969 -0.3256  0.4507 -0.6989
17679SOL     OW55353   4.779   7.007   1.277  0.5025  0.6918 -0.0546
17679SOL    HW155354   4.830   6.935   1.316 -0.9677 -0.9397 -1.0278
17679SOL    HW255355   4.690   6.993   1.309 -0.6428 -0.3211 -3.3485
17680SOL     OW55356   3.577   2.029   3.872  0.5338  0.1656 -0.3423
17680SOL    HW155357   3.508   2.022   3.937  1.0510  1.5355  0.4084
17680SOL    HW255358   3.587   1.941   3.836  0.8803 -0.8653  2.0987
17681SOL     OW55359   9.828   4.692   0.838  0.2976 -0.4137  0.6354
17681SOL    HW155360   9.864   4.768   0.884  1.7305 -0.9434  0.4352
17681SOL    HW255361   9.896   4.666   0.777 -0.3322 -1.6265  0.4096
17682SOL     OW55362   1.263   1.259   0.150  0.6438 -0.4349 -0.2572
17682SOL    HW155363   1.295   1.169   0.161 -2.3304 -1.7163 -1.0180
17682SOL    HW255364   1.247   1.289   0.239  1.6206 -0.6505  0.0031
17683SOL     OW55365   8.595   1.099   1.333 -0.4340 -0.1246  0.5525
17683SOL    HW155366   8.677   1.124   1.377 -0.8008  1.8070  0.2292
17683SOL    HW255367   8.547   1.181   1.325 -1.8798 -1.0324 -0.3751
17684SOL     OW55368   1.956   5.887   8.127  0.2760  0.7497  0.1682
17684SOL    HW155369   2.036   5.871   8.177  0.1223  3.5075  1.4921
17684SOL    HW255370   1.889   5.833   8.170  1.0003 -0.0631  0.2967
17685SOL     OW55371   2.470   9.176   7.958 -0.3233  0.7874 -0.2580
17685SOL    HW155372   2.451   9.174   7.864  0.1428 -0.7811 -0.3529
17685SOL    HW255373   2.419   9.103   7.994 -1.4270  2.0959  0.9180
17686SOL     OW55374   2.821   8.875   1.473  0.3381  0.2377 -0.0451
17686SOL    HW155375   2.786   8.861   1.561 -0.1801 -0.9259 -0.4104
17686SOL    HW255376   2.880   8.949   1.481 -0.5452  0.8457  1.0619
17687SOL     OW55377   3.586   1.149   3.069 -0.3589  0.1481  0.6168
17687SOL    HW155378   3.594   1.071   3.015  0.3552 -0.6652  1.8426
17687SOL    HW255379   3.517   1.201   3.027  0.3386 -0.3224 -1.1760
17688SOL     OW55380   1.199   1.325   3.349  0.4575  0.0859 -0.0037
17688SOL    HW155381   1.116   1.353   3.387  1.0439  0.7534  0.8240
17688SOL    HW255382   1.174   1.275   3.271 -0.6725  1.7419 -0.7600
17689SOL     OW55383   7.344   3.256   6.417  0.3649  0.4531  0.2764
17689SOL    HW155384   7.421   3.262   6.361  0.9963  3.3753  1.2637
17689SOL    HW255385   7.371   3.200   6.490  0.7108 -0.4852 -0.5591
17690SOL     OW55386   5.012   7.093   3.910  0.0037 -0.4041  0.2541
17690SOL    HW155387   5.015   7.001   3.936  0.1503 -0.2510  0.7929
17690SOL    HW255388   5.052   7.095   3.822  0.0570 -0.8437  0.2681
17691SOL     OW55389   4.540   2.312   2.467  0.1985 -0.2802  0.6954
17691SOL    HW155390   4.518   2.370   2.394  0.4502 -2.6380 -1.4041
17691SOL    HW255391   4.631   2.332   2.487 -0.1817  1.1328  1.1633
17692SOL     OW55392   1.591  10.208   8.362 -0.7510  0.9145 -0.8421
17692SOL    HW155393   1.518  10.203   8.424  0.5804  1.4223  0.8060
17692SOL    HW255394   1.573  10.138   8.299 -2.0813  0.3141  0.1669
17693SOL     OW55395   4.301   4.513   1.243  0.2183  0.2810  0.7088
17693SOL    HW155396   4.224   4.559   1.276  0.5452  0.8955  0.6176
17693SOL    HW255397   4.315   4.443   1.307 -1.4290 -0.9328 -0.1673
17694SOL     OW55398   2.733   7.790   2.738  0.6588 -0.8553 -0.2998
17694SOL    HW155399   2.694   7.774   2.824 -0.2268  1.7283 -0.1510
17694SOL    HW255400   2.817   7.832   2.757 -0.4249  1.6397 -0.6017
17695SOL     OW55401   1.671   7.787   8.893 -0.3583 -0.4806  0.2533
17695SOL    HW155402   1.661   7.762   8.801 -1.6623 -2.8946  0.9502
17695SOL    HW255403   1.736   7.725   8.927  0.2055  0.4734  0.9539
17696SOL     OW55404   8.511   5.421   4.378 -0.3740  0.3610  0.2296
17696SOL    HW155405   8.579   5.426   4.445  2.5689  0.2465 -2.5240
17696SOL    HW255406   8.513   5.507   4.335 -1.7555  0.2403 -0.1257
17697SOL     OW55407   4.644   6.688   6.591 -0.0388 -0.3967 -1.4067
17697SOL    HW155408   4.560   6.730   6.573 -0.5812  0.1738  1.7784
17697SOL    HW255409   4.624   6.622   6.658  2.3004  1.6886  1.6627
17698SOL     OW55410   1.899   8.538   6.820 -0.1419 -0.1015  0.1340
17698SOL    HW155411   1.938   8.623   6.841  1.7396 -0.6282 -0.9459
17698SOL    HW255412   1.936   8.479   6.885 -0.7572 -0.2618  0.3414
17699SOL     OW55413   1.363   3.287   4.953 -0.2038  0.3282 -0.1743
17699SOL    HW155414   1.428   3.219   4.970 -3.2824 -2.5571  1.2167
17699SOL    HW255415   1.302   3.281   5.027 -2.3769  2.4492 -1.6305
17700SOL     OW55416   0.481   6.026   0.234  0.6587 -0.6315  0.1682
17700SOL    HW155417   0.416   5.974   0.186  0.5189 -2.0281  1.7928
17700SOL    HW255418   0.428   6.089   0.284  0.4991 -1.7469  1.4653
17701SOL     OW55419   5.253   1.397   1.137  0.4686 -0.0104  1.1658
17701SOL    HW155420   5.268   1.448   1.216 -0.9019  0.5173  1.1092
17701SOL    HW255421   5.158   1.384   1.134  0.1092  2.1376 -1.6827
17702SOL     OW55422   4.290   7.919   0.690  1.0662  0.1785  1.0156
17702SOL    HW155423   4.255   7.831   0.691 -0.1178  0.6337  1.3132
17702SOL    HW255424   4.251   7.961   0.767  0.2287  1.4723 -0.0791
17703SOL     OW55425   0.327  10.260   7.873 -0.3291  0.0206  0.3798
17703SOL    HW155426   0.334  10.172   7.836 -0.3131  0.0825  0.2351
17703SOL    HW255427   0.401  10.266   7.933 -0.3105 -0.0536  0.3652
17704SOL     OW55428   7.403   6.596   9.897 -0.1907 -0.4561  0.2795
17704SOL    HW155429   7.440   6.551   9.973 -0.7668 -0.5898  0.4795
17704SOL    HW255430   7.430   6.687   9.909  0.4961 -0.6354  0.1644
17705SOL     OW55431   5.193   5.609   7.206  0.0577 -1.1247  0.3075
17705SOL    HW155432   5.212   5.701   7.190 -0.1845 -1.1758 -0.2764
17705SOL    HW255433   5.202   5.567   7.121 -0.6299 -1.5000  0.4089
17706SOL     OW55434   8.319   4.581   6.176  0.0838  0.0934 -0.0771
17706SOL    HW155435   8.352   4.589   6.266  2.2541  0.2368 -0.8109
17706SOL    HW255436   8.321   4.487   6.159 -1.8640 -0.0893  0.5076
17707SOL     OW55437   0.946   8.371   2.332  0.5122 -0.3659  1.0727
17707SOL    HW155438   0.997   8.381   2.413 -0.1495  0.3458  1.4193
17707SOL    HW255439   0.939   8.276   2.320  0.2323 -0.4960  2.1110
17708SOL     OW55440   1.182   0.402   7.270 -0.2125 -0.3440  0.0228
17708SOL    HW155441   1.208   0.400   7.362  0.6181 -0.5355 -0.2104
17708SOL    HW255442   1.263   0.387   7.222 -0.6300 -0.1681 -0.7453
17709SOL     OW55443   4.162   0.618   6.943  0.0415 -0.2341  0.3140
17709SOL    HW155444   4.120   0.609   6.858 -0.5493 -0.2500  0.5983
17709SOL    HW255445   4.222   0.692   6.933  0.3331 -0.5487 -0.2514
17710SOL     OW55446   0.158   2.666   4.789 -0.1282 -0.6448 -0.8287
17710SOL    HW155447   0.149   2.647   4.695 -0.1176  0.0860 -0.9816
17710SOL    HW255448   0.115   2.750   4.801  0.4211 -0.4355 -0.2909
17711SOL     OW55449   7.198   0.303   7.258 -0.1712 -0.5358  0.2558
17711SOL    HW155450   7.270   0.301   7.322 -0.0545  2.1036  0.3175
17711SOL    HW255451   7.126   0.346   7.305 -1.5919 -2.4161 -0.0679
17712SOL     OW55452   2.029   6.100   7.619  0.2755  0.1196 -0.3166
17712SOL    HW155453   2.123   6.117   7.624  0.7207 -1.4505 -2.1921
17712SOL    HW255454   1.991   6.157   7.686  2.5541  0.6843  0.5977
17713SOL     OW55455   1.115   3.735   8.179  0.8753  0.5722 -0.0439
17713SOL    HW155456   1.190   3.722   8.121  0.8625  1.5032 -0.2868
17713SOL    HW255457   1.092   3.647   8.209  0.8422  0.0592 -1.4964
17714SOL     OW55458   2.326   2.242   3.200  0.1467  0.0493  0.1783
17714SOL    HW155459   2.421   2.245   3.188  0.2091  0.3695  0.7279
17714SOL    HW255460   2.291   2.295   3.129  0.3561 -0.3563 -0.2338
17715SOL     OW55461   3.786   7.139   2.776  0.1412 -0.3261  0.3817
17715SOL    HW155462   3.876   7.167   2.761  0.2249 -0.3444  0.8335
17715SOL    HW255463   3.751   7.203   2.837 -0.3414  0.0217 -0.2448
17716SOL     OW55464   5.992   6.685   7.092  0.1307  0.3806  0.2001
17716SOL    HW155465   6.081   6.666   7.061 -2.2604 -3.4243 -6.1797
17716SOL    HW255466   5.978   6.776   7.068  0.8143 -0.4738 -4.1730
17717SOL     OW55467   1.293   3.265   8.256 -0.3905  0.3909  0.0954
17717SOL    HW155468   1.333   3.309   8.181  0.2658  0.0289  0.2242
17717SOL    HW255469   1.310   3.324   8.330 -0.1193  0.2519  0.1442
17718SOL     OW55470   1.107   1.214   9.168 -0.1541  0.5724 -0.1844
17718SOL    HW155471   1.162   1.242   9.094 -1.1727  0.8467 -0.8582
17718SOL    HW255472   1.094   1.120   9.154  0.3214  0.4587  0.1063
17719SOL     OW55473   1.506   2.654   1.329 -0.0052  0.5676  0.7361
17719SOL    HW155474   1.422   2.668   1.285  0.1583  1.5520  0.7221
17719SOL    HW255475   1.488   2.674   1.421  0.3095  1.1697  0.6665
17720SOL     OW55476   7.739   6.630   2.786  0.1680  0.4329  0.0233
17720SOL    HW155477   7.769   6.720   2.805  1.0550 -0.0430  1.0122
17720SOL    HW255478   7.644   6.637   2.784  0.2301  1.8106 -2.2003
17721SOL     OW55479   0.185   9.001   6.097  0.5302  0.1945  0.0905
17721SOL    HW155480   0.135   8.949   6.035  1.5878 -1.3063  0.4226
17721SOL    HW255481   0.158   8.969   6.183  1.1470  0.2260  0.3055
17722SOL     OW55482   5.449   3.003   6.370  0.8882  0.6423  0.1504
17722SOL    HW155483   5.486   3.002   6.282 -0.3823  0.7241 -0.4044
17722SOL    HW255484   5.420   3.094   6.382 -0.6186  0.2238 -0.0964
17723SOL     OW55485   0.218   7.688   4.157 -0.3401  0.8403  0.1159
17723SOL    HW155486   0.272   7.697   4.078  0.2998  0.2693  0.4733
17723SOL    HW255487   0.148   7.752   4.146  0.0455  1.1405 -0.6669
17724SOL     OW55488   5.311   9.778   3.428 -1.0549  0.5610  0.3643
17724SOL    HW155489   5.233   9.738   3.388  0.2475  1.2211 -3.2520
17724SOL    HW255490   5.330   9.853   3.372  3.1103 -0.5184 -0.0276
17725SOL     OW55491   7.130   0.282   8.630 -0.4796 -0.3706 -0.2371
17725SOL    HW155492   7.130   0.330   8.713  1.2036  1.5383 -1.2514
17725SOL    HW255493   7.160   0.194   8.653 -2.1231 -0.5677  1.4437
17726SOL     OW55494   1.261   3.128   2.494  0.3318  0.1683 -0.2340
17726SOL    HW155495   1.343   3.176   2.493  0.7177 -0.4687 -0.0330
17726SOL    HW255496   1.244   3.110   2.587  0.8274 -1.1145 -0.3658
17727SOL     OW55497  10.583   6.594   5.142  0.4439  0.1157 -0.1728
17727SOL    HW155498  10.669   6.595   5.100  0.3031 -0.0439 -0.4712
17727SOL    HW255499  10.522   6.576   5.070  0.1410  0.4652 -0.0010
17728SOL     OW55500   0.831   7.099   1.564  0.6249 -0.1386  0.4753
17728SOL    HW155501   0.797   7.166   1.623 -0.3370  0.0418 -0.2640
17728SOL    HW255502   0.753   7.060   1.524  1.2316 -0.6670 -0.2177
17729SOL     OW55503   8.472   4.751  10.446 -0.0265  0.1782  0.1566
17729SOL    HW155504   8.479   4.661  10.478  2.8363  0.4681  0.5497
17729SOL    HW255505   8.487   4.744  10.352  1.3400  0.3331  0.3501
17730SOL     OW55506  10.170   7.105   0.454  0.4279  0.2384  0.1967
17730SOL    HW155507  10.133   7.018   0.472  1.1353 -0.1873 -0.3060
17730SOL    HW255508  10.152   7.156   0.532  1.6449 -0.9259  1.3101
17731SOL     OW55509   6.656   6.569   3.949  0.0922  0.0569  0.3283
17731SOL    HW155510   6.591   6.573   3.878  0.0912 -0.4655  0.2945
17731SOL    HW255511   6.662   6.476   3.970  0.2598  0.1877  0.8649
17732SOL     OW55512   0.069   2.089   4.653 -0.3797  0.8705  0.5762
17732SOL    HW155513  -0.011   2.059   4.611  0.9439 -1.6332 -0.3868
17732SOL    HW255514   0.060   2.184   4.659 -2.5772  0.8389 -1.1888
17733SOL     OW55515   3.304   3.798   6.130 -0.4294  0.5016 -0.1359
17733SOL    HW155516   3.295   3.777   6.037 -1.3286 -1.6448  0.3863
17733SOL    HW255517   3.383   3.753   6.159  0.3978  1.9568 -0.0332
17734SOL     OW55518   3.965   8.033   0.039 -0.4128  0.3827 -0.4563
17734SOL    HW155519   3.981   8.061  -0.051 -0.5335  0.9493 -0.3081
17734SOL    HW255520   3.884   8.076   0.064 -0.4939  0.0577 -0.1455
17735SOL     OW55521   1.664   5.755   9.319 -0.0698 -0.1687  0.0786
17735SOL    HW155522   1.632   5.803   9.243 -0.3222  0.1403  0.3806
17735SOL    HW255523   1.660   5.663   9.292  1.4805  0.0152 -0.9189
17736SOL     OW55524   0.403   9.224   2.439  0.0905 -0.1399 -0.1676
17736SOL    HW155525   0.388   9.177   2.357  1.4479  0.5547 -0.8532
17736SOL    HW255526   0.433   9.311   2.411  2.5641 -0.5327  1.0378
17737SOL     OW55527   6.202   5.246   0.522 -0.3064 -0.2850 -0.0602
17737SOL    HW155528   6.205   5.230   0.428 -0.7591 -2.7112  0.2729
17737SOL    HW255529   6.294   5.247   0.550 -0.1948 -2.0688 -0.2228
17738SOL     OW55530   8.665   5.094   4.557  0.1216  0.1747  0.0020
17738SOL    HW155531   8.679   5.074   4.465 -1.4747 -0.8557 -0.0554
17738SOL    HW255532   8.656   5.189   4.561  1.9041  0.4067 -0.6204
17739SOL     OW55533  10.201   7.498   0.056  0.0862  0.1382  0.1003
17739SOL    HW155534  10.208   7.443  -0.022  0.8592  1.1658 -0.5700
17739SOL    HW255535  10.168   7.438   0.124 -2.2088 -0.3731 -1.3868
17740SOL     OW55536   9.261   6.897   4.501 -0.0371  0.5888  0.2648
17740SOL    HW155537   9.250   6.980   4.547 -1.6083 -0.1110  1.2584
17740SOL    HW255538   9.197   6.838   4.542  0.9412 -1.0808 -0.4853
17741SOL     OW55539   5.887   5.032   3.256 -0.4910  0.2745 -0.1781
17741SOL    HW155540   5.902   5.123   3.230  0.0634  0.0508 -0.6625
17741SOL    HW255541   5.949   5.018   3.328 -1.0148  0.4579  0.3229
17742SOL     OW55542   0.819   6.929   0.115  0.2125  0.1090 -0.1309
17742SOL    HW155543   0.831   6.836   0.097  0.1191  0.0192  0.2520
17742SOL    HW255544   0.728   6.947   0.090  0.1042  0.0013  0.1840
17743SOL     OW55545   2.139   8.864   1.210  0.6611  0.5374 -0.4447
17743SOL    HW155546   2.201   8.800   1.245 -0.4660  0.2397  1.1198
17743SOL    HW255547   2.054   8.820   1.214  0.2429  1.1755 -1.9089
17744SOL     OW55548   1.314  10.052   6.370  0.8930 -0.0617  0.7145
17744SOL    HW155549   1.366   9.991   6.423  1.2351 -0.0626  0.3738
17744SOL    HW255550   1.375  10.121   6.346  0.3182  0.8584  1.7799
17745SOL     OW55551   2.950   1.262   2.930 -0.3464 -0.1828  0.4830
17745SOL    HW155552   2.895   1.298   2.999  0.0411  0.9403  0.2257
17745SOL    HW255553   2.893   1.202   2.883 -1.4046  1.0098  0.1785
17746SOL     OW55554  10.000   5.488   0.588 -0.4135 -0.0174 -0.0374
17746SOL    HW155555  10.086   5.505   0.626 -0.3519 -1.4197  0.4991
17746SOL    HW255556  10.004   5.397   0.558 -1.7506 -0.1556  0.1261
17747SOL     OW55557   8.412   0.293   6.195  0.4911  0.2010  0.3777
17747SOL    HW155558   8.362   0.212   6.182  0.2636 -0.5462  4.5227
17747SOL    HW255559   8.346   0.362   6.198  0.6237  0.5780 -2.4009
17748SOL     OW55560  10.555   4.847   6.271 -0.6490  0.1139 -0.2894
17748SOL    HW155561  10.538   4.934   6.307 -0.2476 -0.3714  1.1200
17748SOL    HW255562  10.611   4.863   6.194 -1.9066  1.1953 -1.0118
17749SOL     OW55563   3.474   6.890  10.191 -0.2301  0.7091  0.4634
17749SOL    HW155564   3.441   6.851  10.110 -1.7340  1.5028  0.6532
17749SOL    HW255565   3.535   6.958  10.162  0.7998 -0.3411  0.0813
17750SOL     OW55566   6.943   1.222  10.188  0.6091  0.3764 -0.2587
17750SOL    HW155567   6.924   1.130  10.172  3.0353 -0.3033  0.4016
17750SOL    HW255568   6.923   1.234  10.281  0.7090  0.4155 -0.2427
17751SOL     OW55569   8.185   6.236   1.806 -0.4116  0.4338 -0.6441
17751SOL    HW155570   8.213   6.151   1.841  0.0177  0.0511 -1.8510
17751SOL    HW255571   8.132   6.214   1.729 -1.7694  1.2380  0.0358
17752SOL     OW55572   2.104   6.482  10.306  0.1764 -0.0091 -0.5897
17752SOL    HW155573   2.137   6.561  10.263 -0.8271  1.1585  0.6651
17752SOL    HW255574   2.154   6.476  10.387 -0.4382 -0.0787 -0.2060
17753SOL     OW55575   9.938   8.325   2.886  0.0551  0.7982  0.0337
17753SOL    HW155576   9.956   8.359   2.799  0.3247  1.8330  0.4871
17753SOL    HW255577   9.855   8.364   2.911 -1.0902 -1.1305 -0.5804
17754SOL     OW55578   7.503   4.256   2.147 -0.2309 -0.3243 -0.2314
17754SOL    HW155579   7.576   4.269   2.207  0.7420 -0.9380 -1.2492
17754SOL    HW255580   7.481   4.163   2.156  0.2510 -0.5423 -1.1547
17755SOL     OW55581   2.356   0.696   9.257  0.5708  0.1367  0.2510
17755SOL    HW155582   2.319   0.609   9.270  1.2327 -0.2349 -0.3049
17755SOL    HW255583   2.281   0.755   9.259 -0.3559 -0.7802 -2.7782
17756SOL     OW55584   8.570   9.656   6.816 -0.0334 -0.1893  0.3924
17756SOL    HW155585   8.616   9.605   6.749  0.5980  0.6182  0.2020
17756SOL    HW255586   8.542   9.735   6.770 -0.5655 -0.1350  0.8136
17757SOL     OW55587   2.750   0.223   3.084  0.3339 -0.0467  0.2255
17757SOL    HW155588   2.756   0.224   3.179  1.8486 -0.4110  0.1619
17757SOL    HW255589   2.795   0.303   3.057 -0.3764  0.2219 -0.1806
17758SOL     OW55590   0.221   7.901   5.780  0.3447 -0.3897 -0.0023
17758SOL    HW155591   0.189   7.959   5.850  0.0013  0.6243 -0.9625
17758SOL    HW255592   0.148   7.841   5.763 -0.3074  0.5733 -0.7482
17759SOL     OW55593   8.464   3.893   9.599 -0.1078  0.2670  0.0448
17759SOL    HW155594   8.502   3.892   9.511  2.0785  1.8062  0.8829
17759SOL    HW255595   8.373   3.918   9.586  0.4322  1.4833 -1.7108
17760SOL     OW55596   1.683   1.819   2.304  0.0767 -0.1879  0.5352
17760SOL    HW155597   1.642   1.736   2.283 -1.0405  0.1142  1.4499
17760SOL    HW255598   1.688   1.821   2.399 -1.0082  1.2889  0.6015
17761SOL     OW55599   5.125   2.557   7.621  0.0760 -0.3085  0.1768
17761SOL    HW155600   5.113   2.464   7.640 -0.5053 -0.8535 -2.3757
17761SOL    HW255601   5.203   2.560   7.565 -0.9747  0.4610 -1.3172
17762SOL     OW55602   4.704   5.205   4.817  0.3067  0.4997 -0.0297
17762SOL    HW155603   4.691   5.247   4.732  0.6080  1.3086  0.3057
17762SOL    HW255604   4.695   5.111   4.800  1.8229  0.5320 -1.2445
17763SOL     OW55605   3.980   4.806   6.474 -0.1732  0.6730 -0.5259
17763SOL    HW155606   4.012   4.757   6.399  1.5323  0.5590  0.2296
17763SOL    HW255607   3.948   4.889   6.438 -0.4368  0.1627 -1.4846
17764SOL     OW55608   5.762  10.027   6.006  0.2954  0.0363  0.0930
17764SOL    HW155609   5.726   9.962   6.066 -0.1790 -0.0521 -0.2796
17764SOL    HW255610   5.808   9.976   5.939 -0.2860  0.0631 -0.3367
17765SOL     OW55611   9.859   0.515  10.094 -0.7340  0.0313  0.1091
17765SOL    HW155612   9.776   0.473  10.072 -0.4257 -0.8972  0.6865
17765SOL    HW255613   9.918   0.489  10.023 -0.5221 -0.5916  0.5061
17766SOL     OW55614   7.012   0.831   5.473  0.2668 -0.1790  0.0184
17766SOL    HW155615   7.037   0.793   5.557  1.9485 -0.3114 -0.5092
17766SOL    HW255616   7.064   0.784   5.408  0.7031  1.4398 -0.8709
17767SOL     OW55617   0.574   2.456   7.311 -0.3820 -0.5346  0.1226
17767SOL    HW155618   0.589   2.418   7.224 -1.3104  0.3238 -0.4329
17767SOL    HW255619   0.482   2.482   7.310  0.0369  1.0594  0.7315
17768SOL     OW55620   5.429   7.400   0.668  0.0926 -0.5949 -0.5353
17768SOL    HW155621   5.354   7.432   0.618  0.8522 -0.2285 -1.4838
17768SOL    HW255622   5.394   7.330   0.722 -1.1269  0.2410 -0.2061
17769SOL     OW55623   7.061   0.535   6.979  0.0231 -0.1457  0.6215
17769SOL    HW155624   7.031   0.578   6.899 -0.0404  0.5560  1.0042
17769SOL    HW255625   7.115   0.463   6.950  1.4883  1.1675 -0.0552
17770SOL     OW55626   5.614   3.037   5.456  0.6047  0.1084  0.2789
17770SOL    HW155627   5.575   3.125   5.448 -0.6277 -0.3515  0.8625
17770SOL    HW255628   5.555   2.980   5.406  0.3827 -0.6451  1.3547
17771SOL     OW55629   2.214   3.678   9.750 -0.0784 -0.8846 -0.3928
17771SOL    HW155630   2.302   3.644   9.764  1.3570  1.6110 -2.5040
17771SOL    HW255631   2.156   3.609   9.783  2.6125 -2.0873  2.2194
17772SOL     OW55632   0.272   8.298   1.376 -0.4937 -0.3020 -0.0244
17772SOL    HW155633   0.180   8.309   1.400 -0.6063  0.2430 -0.6919
17772SOL    HW255634   0.315   8.377   1.408 -0.2199 -0.6414  0.4532
17773SOL     OW55635   9.317   2.131   2.477 -0.1569 -0.1555 -0.3493
17773SOL    HW155636   9.307   2.171   2.563 -0.2823 -0.3410 -0.2787
17773SOL    HW255637   9.228   2.120   2.445 -0.0954  1.1348 -1.0620
17774SOL     OW55638   0.248   2.999   2.931 -0.0437 -0.1602  0.7444
17774SOL    HW155639   0.266   3.093   2.921  1.7123 -0.4799  0.5901
17774SOL    HW255640   0.246   2.966   2.841 -1.5782 -0.1416  0.7499
17775SOL     OW55641   1.332   2.546   7.518  0.0937 -0.2917  0.0479
17775SOL    HW155642   1.254   2.491   7.515 -0.3913  0.2219  1.8071
17775SOL    HW255643   1.334   2.579   7.608  1.2544  1.2798 -0.5082
17776SOL     OW55644   6.801   7.083   9.882 -0.2162 -0.4860 -0.1367
17776SOL    HW155645   6.875   7.032   9.848  0.9125  1.6871 -1.1580
17776SOL    HW255646   6.801   7.066   9.976  0.6046 -1.7219 -0.3394
17777SOL     OW55647   2.991   1.555   8.898 -0.8129  0.4522 -0.1915
17777SOL    HW155648   3.075   1.591   8.870 -0.6541  0.8225  0.7077
17777SOL    HW255649   2.932   1.630   8.903 -1.2405  0.1796 -0.9213
17778SOL     OW55650   0.843   9.972   5.457 -0.3763 -0.1768  0.5774
17778SOL    HW155651   0.892   9.920   5.393  0.1727  0.3842  0.5347
17778SOL    HW255652   0.902  10.044   5.480  0.0721 -1.2008  2.8980
17779SOL     OW55653   4.055   0.604   0.213  0.2586  0.6616  0.5390
17779SOL    HW155654   4.149   0.620   0.207  0.2544  0.4121 -0.3193
17779SOL    HW255655   4.022   0.677   0.266  0.6278  2.0013 -0.9905
17780SOL     OW55656   3.204   6.165   7.886 -0.7849  0.1008  0.3484
17780SOL    HW155657   3.250   6.082   7.889 -1.1751 -0.1423 -0.1504
17780SOL    HW255658   3.116   6.143   7.854 -0.1392  0.9903 -2.3502
17781SOL     OW55659   2.612   1.014   5.546  0.3305  0.1154  0.0134
17781SOL    HW155660   2.519   1.029   5.563  0.6734  0.4937  1.7708
17781SOL    HW255661   2.617   0.923   5.518 -0.4644 -0.2813  1.0870
17782SOL     OW55662   7.988   2.578   5.136  0.7406 -0.0341  0.5008
17782SOL    HW155663   7.899   2.609   5.150  0.1281 -0.9046 -1.1515
17782SOL    HW255664   7.978   2.505   5.075  2.6794  0.6587 -0.7327
17783SOL     OW55665   9.972   9.113   8.343 -0.0455  0.2822 -0.8834
17783SOL    HW155666   9.953   9.180   8.277  1.1773  1.3767 -0.1911
17783SOL    HW255667   9.945   9.031   8.303 -1.5058  1.1643 -1.8123
17784SOL     OW55668   2.581   6.912   1.184 -0.0353 -0.9367  0.0152
17784SOL    HW155669   2.517   6.892   1.115 -1.1644 -1.4519  1.1754
17784SOL    HW255670   2.644   6.969   1.141  0.8542 -3.3631 -2.2464
17785SOL     OW55671   4.635   0.550   1.192  0.2419 -0.1073  0.2689
17785SOL    HW155672   4.557   0.597   1.163 -0.6921 -0.8177  1.5157
17785SOL    HW255673   4.679   0.524   1.112 -0.8415  0.2369 -0.4643
17786SOL     OW55674   6.290   3.762  10.366 -0.2790 -0.2878 -0.1191
17786SOL    HW155675   6.254   3.675  10.350  1.9311 -1.0581 -1.3998
17786SOL    HW255676   6.305   3.765  10.461 -2.6150 -0.2911  0.3159
17787SOL     OW55677   9.012   5.427   1.871 -0.0140  0.1709 -0.2114
17787SOL    HW155678   9.033   5.370   1.797 -0.4744  0.2278 -0.3859
17787SOL    HW255679   9.094   5.432   1.920  0.8316  1.5135 -1.6410
17788SOL     OW55680   4.022   1.314   4.391 -0.3498 -0.6900 -0.4475
17788SOL    HW155681   3.979   1.282   4.311 -1.5865  0.7416 -0.4191
17788SOL    HW255682   4.000   1.407   4.393  1.5669 -0.2239  0.3952
17789SOL     OW55683   4.895   5.735   8.499 -0.3447  0.3979  0.1934
17789SOL    HW155684   4.804   5.718   8.473 -0.4562 -0.0295  0.8177
17789SOL    HW255685   4.895   5.720   8.594  0.3002  0.7521  0.2542
17790SOL     OW55686   7.853   5.103   3.101 -0.5775  0.1362 -0.5108
17790SOL    HW155687   7.834   5.056   3.182 -1.6527  2.3176  0.5586
17790SOL    HW255688   7.770   5.140   3.073  0.2211  1.4444 -1.2912
17791SOL     OW55689   6.226   2.957   6.482  0.2802  0.1732 -0.5282
17791SOL    HW155690   6.240   2.901   6.406  1.0942 -0.2451 -0.0883
17791SOL    HW255691   6.309   3.004   6.493 -0.3931  1.5039 -0.9069
17792SOL     OW55692   7.930   1.455   2.476  0.1585 -0.1932  0.6495
17792SOL    HW155693   7.974   1.538   2.462 -1.3818  0.7207  0.9984
17792SOL    HW255694   7.945   1.435   2.569 -1.3641  0.8806  1.1593
17793SOL     OW55695   7.015   7.721   5.550 -0.0775  0.3186 -0.4561
17793SOL    HW155696   7.045   7.633   5.527 -0.0279  0.1147  0.3435
17793SOL    HW255697   7.007   7.718   5.645 -0.9503  0.9078 -0.5085
17794SOL     OW55698  10.178   0.017   1.610 -0.2933  0.1100 -0.0244
17794SOL    HW155699  10.178   0.030   1.515  1.6403  0.2274 -0.0384
17794SOL    HW255700  10.241   0.080   1.643  0.9349 -1.6142  1.0731
17795SOL     OW55701  10.586   1.012   1.659  0.3510  0.0617 -0.1957
17795SOL    HW155702  10.501   0.998   1.618 -0.8425  1.9262  1.4779
17795SOL    HW255703  10.607   1.104   1.640  1.1477  0.1233  0.8738
17796SOL     OW55704   8.533   3.133   2.222 -0.0937  0.1551  0.2463
17796SOL    HW155705   8.499   3.222   2.230  0.5534  0.4595 -0.2539
17796SOL    HW255706   8.587   3.136   2.143 -0.7960 -0.9228 -0.3011
17797SOL     OW55707   5.293   3.748   8.043  0.7224  0.6270  0.2967
17797SOL    HW155708   5.321   3.672   8.093  1.6083 -0.3999 -1.6604
17797SOL    HW255709   5.367   3.809   8.048  0.0333  1.4002  1.8192
17798SOL     OW55710   9.839   9.862   3.763  0.0778  0.1102  0.3695
17798SOL    HW155711   9.785   9.874   3.842 -0.4226  0.6117 -0.0450
17798SOL    HW255712   9.893   9.785   3.784 -1.6529 -1.1964  0.3392
17799SOL     OW55713   1.774   0.200   8.335  0.5149 -0.6967  0.5525
17799SOL    HW155714   1.809   0.209   8.423  0.1933 -1.3684  0.7596
17799SOL    HW255715   1.740   0.286   8.313  2.0183 -0.0989  0.4559
17800SOL     OW55716   9.206   1.059   7.982 -0.1903 -0.0897 -0.0374
17800SOL    HW155717   9.135   1.023   7.929 -1.7430  0.1677  1.7473
17800SOL    HW255718   9.177   1.148   8.003  0.5006 -0.0810  0.9800
17801SOL     OW55719   0.037   9.647   9.298 -0.3263 -0.4787 -1.1664
17801SOL    HW155720   0.117   9.657   9.247 -0.8964 -1.6114 -2.3639
17801SOL    HW255721   0.030   9.552   9.313 -1.3044 -0.3742 -0.8725
17802SOL     OW55722   2.962   3.470   9.348 -0.4305 -0.2468  0.1701
17802SOL    HW155723   2.894   3.537   9.336  0.4792  0.5420 -0.6835
17802SOL    HW255724   3.017   3.504   9.418 -1.3424 -1.2669  1.4264
17803SOL     OW55725   0.861   7.602   6.847  0.8399 -0.1438 -0.1015
17803SOL    HW155726   0.908   7.531   6.890  2.0087  1.3571  1.2084
17803SOL    HW255727   0.829   7.657   6.918  0.1084  0.7524 -1.0785
17804SOL     OW55728   1.405   4.696   5.463 -0.2054  0.1659  0.2729
17804SOL    HW155729   1.495   4.728   5.453 -1.1356  2.4963 -1.7231
17804SOL    HW255730   1.405   4.651   5.547  2.8069  0.0453  0.3412
17805SOL     OW55731   0.293   6.357   8.195  0.2782  0.1931 -0.1797
17805SOL    HW155732   0.222   6.294   8.178  1.4537 -0.7612 -1.8039
17805SOL    HW255733   0.335   6.323   8.274  0.3588 -0.6038 -0.5481
17806SOL     OW55734   2.121   7.948   2.410 -1.0505 -0.3805  0.4307
17806SOL    HW155735   2.047   7.900   2.374 -1.5330 -0.1446  1.0969
17806SOL    HW255736   2.094   8.040   2.408  0.0085 -0.0668 -1.1810
17807SOL     OW55737   1.815   3.299   9.872 -0.4216  0.1782  0.0418
17807SOL    HW155738   1.810   3.342   9.787 -1.2818 -0.6839 -0.3586
17807SOL    HW255739   1.899   3.254   9.872 -0.9777 -0.9219 -0.9161
17808SOL     OW55740   4.317   0.049   0.737  0.2242 -0.3346  0.5625
17808SOL    HW155741   4.335  -0.040   0.769  1.6038  0.4843  2.2516
17808SOL    HW255742   4.235   0.074   0.779  1.1633  0.1104  2.1879
17809SOL     OW55743  10.077   7.591   4.747  0.1076  0.3329  0.3742
17809SOL    HW155744  10.145   7.526   4.731  0.9658  0.5528  2.6312
17809SOL    HW255745  10.078   7.647   4.669  1.0854 -0.8744 -0.5207
17810SOL     OW55746  10.467   6.270   2.707 -0.6994 -0.0775  0.4834
17810SOL    HW155747  10.386   6.283   2.658 -0.4843 -0.2429  0.0746
17810SOL    HW255748  10.441   6.221   2.785 -1.0667  0.2909  0.5954
17811SOL     OW55749   1.049   2.562   8.623  0.5584  0.4256  0.1397
17811SOL    HW155750   0.965   2.588   8.661  0.6904  0.8916  0.1217
17811SOL    HW255751   1.037   2.573   8.529 -0.7053 -3.3925 -0.2983
17812SOL     OW55752   3.697   7.855   4.655 -0.0752 -0.3981 -0.1287
17812SOL    HW155753   3.628   7.911   4.690  1.0962  1.1140 -0.1233
17812SOL    HW255754   3.741   7.909   4.589  1.9393 -0.7538  0.8227
17813SOL     OW55755   5.816   9.587   9.225 -0.1774 -0.1269 -0.2087
17813SOL    HW155756   5.741   9.643   9.206  0.0426  0.6913  1.1715
17813SOL    HW255757   5.785   9.498   9.206 -1.0350  0.3152 -0.9617
17814SOL     OW55758   3.028   5.874   9.401  0.0234  0.0544  0.2193
17814SOL    HW155759   3.002   5.941   9.465 -0.3935 -0.3191  0.4430
17814SOL    HW255760   2.965   5.883   9.330 -0.6674 -0.7772  0.7122
17815SOL     OW55761   0.346   4.237   5.105 -0.4570  0.1014 -0.4810
17815SOL    HW155762   0.423   4.221   5.159  0.2004  1.0999 -1.0863
17815SOL    HW255763   0.286   4.284   5.163 -1.9064 -3.1657  0.9301
17816SOL     OW55764   6.905   1.470   7.278 -0.3097 -0.3698 -0.1275
17816SOL    HW155765   6.941   1.551   7.316  1.2732 -1.3960  0.6904
17816SOL    HW255766   6.818   1.462   7.318  0.3129 -0.0903  1.3591
17817SOL     OW55767   1.446   0.607   5.924  0.5622  0.2115 -0.0452
17817SOL    HW155768   1.383   0.679   5.922  1.0891  0.7507  1.5391
17817SOL    HW255769   1.445   0.573   5.835 -0.8732  1.1481 -0.4336
17818SOL     OW55770   3.611   8.297   2.273  0.6796 -0.4189  0.4461
17818SOL    HW155771   3.681   8.260   2.220  1.8597 -0.4460  1.9531
17818SOL    HW255772   3.609   8.390   2.248  1.0003 -0.4954  0.1277
17819SOL     OW55773   7.012   2.967   4.422 -0.3271  0.3119  0.0379
17819SOL    HW155774   7.015   2.914   4.501 -0.2081 -0.6951 -0.6346
17819SOL    HW255775   6.918   2.973   4.401 -0.3074 -0.0345 -0.1515
17820SOL     OW55776   7.385   4.808   3.863 -0.0785  0.8466 -0.8169
17820SOL    HW155777   7.411   4.805   3.955  0.8345  1.5300 -1.0409
17820SOL    HW255778   7.337   4.890   3.854  0.8301  1.3568 -1.1839
17821SOL     OW55779   2.032   8.673   9.095  0.1837 -0.2411  0.7181
17821SOL    HW155780   1.993   8.756   9.069 -0.6506 -1.2572 -1.5450
17821SOL    HW255781   2.120   8.676   9.059 -0.1811 -0.6923 -0.2616
17822SOL     OW55782   6.313   4.634   8.521  0.3925 -0.7780  0.8353
17822SOL    HW155783   6.351   4.664   8.604  0.8849  0.2502  0.2592
17822SOL    HW255784   6.228   4.598   8.545 -0.1284  0.8780  1.6109
17823SOL     OW55785   1.376   7.925   6.052  0.0745  0.0399 -0.7033
17823SOL    HW155786   1.346   7.980   6.124  0.1051 -0.7512 -0.0726
17823SOL    HW255787   1.414   7.848   6.095 -0.9782 -1.0046 -1.5736
17824SOL     OW55788   9.329   8.003  10.553  0.5101 -0.1180 -0.6345
17824SOL    HW155789   9.286   8.055  10.620  0.5116  0.4978 -1.1090
17824SOL    HW255790   9.263   7.938  10.527  0.3506 -0.0644 -0.3646
17825SOL     OW55791  10.436   2.142   7.605  0.3487  0.0183  0.4995
17825SOL    HW155792  10.359   2.115   7.655 -1.6555  2.0915 -1.2651
17825SOL    HW255793  10.426   2.236   7.593  2.1099  0.0331 -1.4892
17826SOL     OW55794   2.690   3.175   1.800 -0.1844  0.0605  0.1894
17826SOL    HW155795   2.745   3.122   1.742  1.5235 -0.0331  1.8069
17826SOL    HW255796   2.608   3.126   1.807  0.1681 -0.7228 -0.8687
17827SOL     OW55797  10.465   1.106   4.468 -0.0257  0.0109  0.0668
17827SOL    HW155798  10.465   1.059   4.551  0.0505 -0.7330 -0.3449
17827SOL    HW255799  10.406   1.180   4.482  0.1341  0.0029  0.8375
17828SOL     OW55800   2.809   8.072   8.968 -0.6098 -0.2488 -0.3447
17828SOL    HW155801   2.782   8.004   8.906 -0.9285  0.1850 -0.6868
17828SOL    HW255802   2.883   8.033   9.015  0.9934  0.1302 -2.3655
17829SOL     OW55803  10.149   0.644   7.703 -0.0426  0.1467  0.3028
17829SOL    HW155804  10.121   0.653   7.611 -0.5646 -1.2529  0.2916
17829SOL    HW255805  10.104   0.715   7.748 -0.1474  0.5830 -0.4588
17830SOL     OW55806   9.308   9.965   2.365 -0.1655 -0.9175 -0.0946
17830SOL    HW155807   9.390   9.969   2.414  0.0481 -2.7258 -0.2626
17830SOL    HW255808   9.276   9.876   2.377 -2.2483 -0.1945  0.1515
17831SOL     OW55809   5.992   9.194   3.407  0.1262 -0.3577  0.0407
17831SOL    HW155810   6.081   9.216   3.434 -0.4531  1.2298  0.8022
17831SOL    HW255811   5.980   9.240   3.324 -0.8300  1.7376  1.2558
17832SOL     OW55812   1.524   3.926   1.298 -0.2552 -0.0800 -0.2018
17832SOL    HW155813   1.438   3.930   1.340 -0.1730  1.3901 -0.1216
17832SOL    HW255814   1.509   3.960   1.210  0.2098  0.0233 -0.2430
17833SOL     OW55815   2.499   0.690   7.753  0.0861  0.4685  0.3953
17833SOL    HW155816   2.455   0.650   7.677 -0.7219 -1.1165  1.6275
17833SOL    HW255817   2.451   0.771   7.768  1.3125  1.6967 -1.7429
17834SOL     OW55818   5.323   9.319  10.511 -0.0823  0.4370 -0.1328
17834SOL    HW155819   5.334   9.320  10.607 -0.0104  1.6229 -0.1291
17834SOL    HW255820   5.339   9.228  10.486 -0.7800 -0.0404  1.0512
17835SOL     OW55821   7.995   6.466  10.390 -0.4380 -0.5087  0.4680
17835SOL    HW155822   8.047   6.523  10.334 -1.5651 -1.0572 -1.2336
17835SOL    HW255823   8.022   6.377  10.366 -0.5797 -0.7497  1.1667
17836SOL     OW55824   2.881   9.017   3.444  0.2346 -0.0635  0.2767
17836SOL    HW155825   2.972   9.045   3.454 -0.2270  2.8868 -2.2147
17836SOL    HW255826   2.833   9.067   3.510 -0.1064  2.5511 -1.7780
17837SOL     OW55827   1.348   4.864   8.573 -0.1018  0.4506 -0.2574
17837SOL    HW155828   1.307   4.816   8.645  0.7252 -0.0554 -0.1047
17837SOL    HW255829   1.428   4.900   8.611 -0.4985  1.6116 -0.4904
17838SOL     OW55830   4.941   5.760   4.116 -0.0039 -0.1084  0.2357
17838SOL    HW155831   4.973   5.675   4.146 -1.1356 -2.5417 -4.5431
17838SOL    HW255832   5.013   5.796   4.063 -0.0796  1.2793  1.0220
17839SOL     OW55833   5.877   7.381   0.847 -0.3867  0.1388  0.0277
17839SOL    HW155834   5.833   7.437   0.912 -1.4028 -2.2084  1.5192
17839SOL    HW255835   5.838   7.406   0.764 -0.2585  2.1145  0.5092
17840SOL     OW55836   3.478   7.544   6.764 -0.7964  0.2857 -0.0672
17840SOL    HW155837   3.507   7.619   6.815 -1.2863  1.1845 -1.0583
17840SOL    HW255838   3.396   7.573   6.723 -1.5286 -1.1425  0.3200
17841SOL     OW55839   8.900   6.256  10.053 -0.2136 -0.0302 -0.0258
17841SOL    HW155840   8.817   6.292  10.084 -0.3764 -0.5916  0.1996
17841SOL    HW255841   8.960   6.330  10.054 -0.5890  0.2744  0.2639
17842SOL     OW55842   0.116   5.539   6.644 -0.0226 -0.5758  0.4132
17842SOL    HW155843   0.166   5.457   6.645  0.7606 -0.1096  0.0651
17842SOL    HW255844   0.121   5.570   6.554  0.5883  0.3990  0.7667
17843SOL     OW55845   8.693   6.250   2.178 -0.1603 -0.2725 -0.1595
17843SOL    HW155846   8.728   6.335   2.154 -0.1499  0.1202  1.1773
17843SOL    HW255847   8.639   6.224   2.103 -1.1077  1.4356 -0.0963
17844SOL     OW55848   8.825   8.020   3.182 -0.0974  0.3385  0.0099
17844SOL    HW155849   8.867   8.093   3.228 -0.3387  2.3979 -2.7524
17844SOL    HW255850   8.887   7.999   3.111 -1.3672 -0.0661 -1.0146
17845SOL     OW55851   9.828  10.553   3.265 -0.2043  0.0995 -0.2839
17845SOL    HW155852   9.875  10.626   3.223 -1.3999  1.4325  0.6013
17845SOL    HW255853   9.749  10.543   3.212 -0.9269  0.6902  0.6700
17846SOL     OW55854   4.400   3.169   2.735 -0.1884  0.2405 -0.1505
17846SOL    HW155855   4.372   3.100   2.674 -0.2276  1.8169 -2.0430
17846SOL    HW255856   4.319   3.203   2.772 -0.0619 -2.2840  2.7407
17847SOL     OW55857   9.771   7.096   9.994  0.3046  0.1309  0.2319
17847SOL    HW155858   9.725   7.112  10.076  1.1933 -0.7343  0.9056
17847SOL    HW255859   9.702   7.098   9.927 -0.1735  3.0209  0.6769
17848SOL     OW55860   3.388   6.478   4.439  0.2324  0.1541 -0.0404
17848SOL    HW155861   3.338   6.513   4.365  0.4665 -0.9407 -0.7315
17848SOL    HW255862   3.474   6.459   4.403  0.8433  1.0315  0.8948
17849SOL     OW55863   0.365   0.238   1.820  0.3973 -0.0775  0.3915
17849SOL    HW155864   0.275   0.271   1.814 -0.6917 -2.5566  1.5722
17849SOL    HW255865   0.373   0.177   1.747  0.9607 -0.2464  0.5942
17850SOL     OW55866   0.464   0.498   9.668  0.0187 -0.2925 -0.1281
17850SOL    HW155867   0.388   0.440   9.666 -0.7587  0.6879  0.2884
17850SOL    HW255868   0.495   0.494   9.758 -1.6958  1.9748  0.6541
17851SOL     OW55869   8.074  10.075   5.781 -0.2769  0.3720 -0.0707
17851SOL    HW155870   8.115  10.130   5.848  0.1808 -1.4895  1.2534
17851SOL    HW255871   8.014  10.019   5.830 -1.2578  0.1499 -1.4724
17852SOL     OW55872   8.604   2.304   9.659  0.4513  0.4503 -0.0746
17852SOL    HW155873   8.690   2.274   9.689  1.1410  0.9111 -1.5335
17852SOL    HW255874   8.621   2.353   9.579 -1.1523  0.7941 -0.2501
17853SOL     OW55875   3.682   1.658   3.549  0.2715 -0.3030 -0.2057
17853SOL    HW155876   3.689   1.568   3.582 -2.4828 -0.2547  0.8058
17853SOL    HW255877   3.665   1.648   3.456 -2.8461 -1.1286  0.3142
17854SOL     OW55878   8.884   2.354   8.605 -0.0401  0.2699  0.3294
17854SOL    HW155879   8.915   2.266   8.586 -3.0446 -1.1139  1.2724
17854SOL    HW255880   8.888   2.361   8.701 -0.9551  0.6857  0.3459
17855SOL     OW55881   2.607   4.875   3.339  0.7027  0.2190  0.5536
17855SOL    HW155882   2.636   4.852   3.427 -0.3083  0.4162  0.9521
17855SOL    HW255883   2.628   4.968   3.331  1.6808 -0.0161  0.2083
17856SOL     OW55884   0.437   0.906   1.625 -0.0856  0.1417  0.4906
17856SOL    HW155885   0.524   0.934   1.598  0.6243 -1.4431  1.0704
17856SOL    HW255886   0.383   0.918   1.547  0.3335  2.2351  0.4481
17857SOL     OW55887   9.026   1.129   4.742 -0.1946  0.3540 -0.7566
17857SOL    HW155888   9.079   1.070   4.795  0.1723  0.3092 -1.1708
17857SOL    HW255889   9.028   1.213   4.789 -1.2605 -0.1230  0.1839
17858SOL     OW55890   5.911   5.754  10.099  0.2494 -0.4342 -0.1057
17858SOL    HW155891   5.942   5.671  10.136  0.3923 -0.3626 -0.0665
17858SOL    HW255892   5.935   5.819  10.165 -0.0395 -0.3875 -0.0464
17859SOL     OW55893   9.473   0.211   4.247 -0.0687 -0.2580  0.4413
17859SOL    HW155894   9.449   0.301   4.269  0.6046  0.3430 -1.1132
17859SOL    HW255895   9.513   0.177   4.327  1.0736  1.3567  0.6221
17860SOL     OW55896   6.820   7.256   2.671  0.2477  0.4709  0.3592
17860SOL    HW155897   6.741   7.204   2.660  0.5203 -0.7115  3.3037
17860SOL    HW255898   6.887   7.209   2.620 -0.8609  1.5913 -2.3143
17861SOL     OW55899   7.531   2.930   6.923  0.0061 -0.4245 -0.6370
17861SOL    HW155900   7.503   3.017   6.896  0.8222  0.3836  0.9900
17861SOL    HW255901   7.494   2.917   7.010  2.1278 -0.5129  0.3287
17862SOL     OW55902   7.813   0.422   8.257 -0.4725  0.2809  0.2412
17862SOL    HW155903   7.891   0.444   8.207  0.6838 -0.8903  1.4364
17862SOL    HW255904   7.846   0.370   8.331 -2.5133 -1.3881  0.0697
17863SOL     OW55905   2.060   4.449   8.041 -0.0716  0.4879  0.0384
17863SOL    HW155906   1.973   4.480   8.066  0.3307  0.8155  1.1060
17863SOL    HW255907   2.118   4.485   8.109  0.4943 -2.1522  1.0720
17864SOL     OW55908   5.116   1.394   9.274 -0.1619  0.1635  0.6363
17864SOL    HW155909   5.075   1.473   9.239  2.1269  1.7955  1.4203
17864SOL    HW255910   5.117   1.408   9.369  1.3158 -0.2395  0.7000
17865SOL     OW55911   5.098   7.632   4.969 -0.1484  0.2671 -0.2166
17865SOL    HW155912   5.171   7.672   4.919  0.5458 -0.4640  0.1904
17865SOL    HW255913   5.132   7.624   5.058 -0.7925  0.0582  0.0129
17866SOL     OW55914   2.055   1.196   7.273 -0.0946 -0.5653 -0.5970
17866SOL    HW155915   2.070   1.111   7.315  0.8325 -0.0776  0.0978
17866SOL    HW255916   2.119   1.200   7.202  0.9968  0.2145  0.3995
17867SOL     OW55917   0.795   1.221   0.848  0.5639 -0.0967  0.1244
17867SOL    HW155918   0.768   1.143   0.800 -1.1062  0.0911  0.6983
17867SOL    HW255919   0.776   1.293   0.789 -1.3029  0.1182  0.9098
17868SOL     OW55920   4.057   3.641   9.728 -0.4164 -0.5307  0.1463
17868SOL    HW155921   4.061   3.546   9.740 -0.0927 -0.5426 -0.0372
17868SOL    HW255922   3.996   3.653   9.654 -0.8115 -0.5688  0.4648
17869SOL     OW55923   1.303   2.461   4.438 -0.1666  0.3663 -0.2335
17869SOL    HW155924   1.384   2.482   4.392 -0.0498  0.2597 -0.0760
17869SOL    HW255925   1.326   2.465   4.531  0.2504 -1.9507 -0.1955
17870SOL     OW55926   7.207   6.464   2.301 -0.6059 -0.0822 -0.0804
17870SOL    HW155927   7.178   6.474   2.210  0.1292 -1.0340 -0.4329
17870SOL    HW255928   7.191   6.372   2.321  0.3988 -0.1790  0.3342
17871SOL     OW55929   9.674   4.799   9.957 -0.5249  0.6262 -0.4377
17871SOL    HW155930   9.628   4.746  10.023 -0.3312  0.3845 -0.4971
17871SOL    HW255931   9.625   4.784   9.876  0.0927 -0.2183 -0.6653
17872SOL     OW55932   0.606   3.772   0.508 -0.2106  0.1970 -0.4922
17872SOL    HW155933   0.526   3.730   0.538  0.1322 -0.6028 -0.6610
17872SOL    HW255934   0.641   3.713   0.441  0.6522  0.3852 -0.2303
17873SOL     OW55935   1.844   9.896   3.078 -0.0315  0.0580 -0.4460
17873SOL    HW155936   1.765   9.930   3.036 -1.0203 -2.0800 -0.4463
17873SOL    HW255937   1.811   9.835   3.144  1.6300 -0.4327 -0.0335
17874SOL     OW55938   8.842   1.604   4.021 -0.9830 -0.3942  0.5717
17874SOL    HW155939   8.815   1.624   4.111 -2.6205  2.6914 -0.4425
17874SOL    HW255940   8.930   1.567   4.030 -1.0976 -0.2139  3.4471
17875SOL     OW55941   9.529  10.102   7.855  0.0792  0.2312  0.4765
17875SOL    HW155942   9.555  10.167   7.920  2.1616  1.5272 -1.4777
17875SOL    HW255943   9.460  10.145   7.804 -1.8797 -0.9534  1.9956
17876SOL     OW55944   9.381   9.758   9.063  0.3183  0.8436 -0.3955
17876SOL    HW155945   9.341   9.751   8.976 -0.9868  1.2111  0.1464
17876SOL    HW255946   9.324   9.707   9.120  1.2233  0.5145  0.2357
17877SOL     OW55947   0.164   8.527   0.306 -0.1776  0.2291 -0.0396
17877SOL    HW155948   0.125   8.521   0.219 -0.2739  0.3072 -0.0011
17877SOL    HW255949   0.090   8.538   0.366 -0.0099  2.9655 -0.1928
17878SOL     OW55950   9.271   3.265   7.989 -0.5346  0.0464  0.6979
17878SOL    HW155951   9.210   3.264   7.915  0.1516  0.7775  0.1028
17878SOL    HW255952   9.225   3.312   8.058 -0.7263  0.4041  0.3270
17879SOL     OW55953   9.162   7.723   0.834  0.1622  0.3142 -0.0033
17879SOL    HW155954   9.153   7.801   0.779  1.0208 -0.0959 -0.7455
17879SOL    HW255955   9.212   7.661   0.781 -0.5198 -0.7658  0.5614
17880SOL     OW55956   6.321   3.985  10.140 -0.1110  0.0355  0.2706
17880SOL    HW155957   6.297   3.907  10.189 -1.0073  0.6464  0.8388
17880SOL    HW255958   6.237   4.026  10.118  0.2612 -0.2300 -1.8121
17881SOL     OW55959   3.708   2.270   3.806  0.1190  0.3322 -0.7534
17881SOL    HW155960   3.685   2.179   3.824  0.2834  0.7131  1.7874
17881SOL    HW255961   3.790   2.284   3.854  0.1122  1.8253 -1.1295
17882SOL     OW55962   8.721   5.616   1.223  0.1210  0.3117 -0.1262
17882SOL    HW155963   8.785   5.546   1.238 -0.3816  0.1483  1.3612
17882SOL    HW255964   8.689   5.640   1.310 -2.0821  0.1607 -0.8206
17883SOL     OW55965   4.755   2.747   3.048  0.3503 -0.9091 -0.7829
17883SOL    HW155966   4.722   2.805   3.117  0.9016 -1.3690 -0.1192
17883SOL    HW255967   4.843   2.780   3.028  0.7008 -1.5591 -0.3384
17884SOL     OW55968   2.994   3.666   0.749  0.4900 -0.6871 -0.1766
17884SOL    HW155969   3.046   3.745   0.769 -0.7181  0.7006 -2.1020
17884SOL    HW255970   2.905   3.689   0.774  0.4279 -2.3744  1.3879
17885SOL     OW55971   4.570   8.750   7.079 -0.5085  0.2077 -0.0833
17885SOL    HW155972   4.493   8.758   7.135 -0.6093  0.7248 -0.2895
17885SOL    HW255973   4.631   8.816   7.111  0.5945 -1.3745  1.2270
17886SOL     OW55974   2.246  10.176   3.538  0.4461 -0.0983  0.3612
17886SOL    HW155975   2.175  10.117   3.564  0.9269 -2.0350 -2.2669
17886SOL    HW255976   2.299  10.186   3.618 -2.5037  1.1996  2.3259
17887SOL     OW55977   8.743  10.243   5.735  0.8826  0.4199 -0.3588
17887SOL    HW155978   8.826  10.228   5.778 -0.0118 -0.5369  1.1025
17887SOL    HW255979   8.677  10.225   5.802 -0.5837 -1.5268 -2.2076
17888SOL     OW55980   9.667   6.714   7.994 -0.4531 -0.2146 -0.0186
17888SOL    HW155981   9.672   6.773   7.918 -1.3702 -0.2692 -0.1342
17888SOL    HW255982   9.740   6.740   8.050 -0.1477  0.2494 -0.6217
17889SOL     OW55983   6.273   8.049   1.280  0.2199 -0.5059 -0.0340
17889SOL    HW155984   6.181   8.023   1.273 -0.0466 -0.1580  1.8143
17889SOL    HW255985   6.286   8.108   1.206 -1.4326  0.5037  0.4225
17890SOL     OW55986   2.379   4.104   7.230 -0.3626  0.1551 -1.0048
17890SOL    HW155987   2.354   4.196   7.237 -0.5477  0.0392 -0.0054
17890SOL    HW255988   2.332   4.072   7.153  0.2674  1.0721 -1.7913
17891SOL     OW55989   5.996   6.467  10.066 -0.0133  0.2032 -0.3806
17891SOL    HW155990   6.089   6.453  10.049 -0.2444 -1.3369 -0.4959
17891SOL    HW255991   5.993   6.500  10.156  0.4820 -2.9565  0.9125
17892SOL     OW55992   0.189   3.964   6.211  0.4468  0.2643 -0.0017
17892SOL    HW155993   0.099   3.997   6.202  0.5519  0.2899 -1.0352
17892SOL    HW255994   0.197   3.897   6.143  0.1152 -2.2382  2.2350
17893SOL     OW55995   1.274   9.033   7.101 -0.5245 -0.6087  0.1989
17893SOL    HW155996   1.190   9.057   7.140 -0.2672 -0.7485  0.8484
17893SOL    HW255997   1.252   9.002   7.013 -0.9713  1.0900 -0.3281
17894SOL     OW55998   8.198   5.277   0.266 -0.0918 -0.1384 -0.7164
17894SOL    HW155999   8.126   5.220   0.291 -1.1787  0.2246 -2.7780
17894SOL    HW256000   8.277   5.228   0.289 -0.9981 -1.5572 -0.5067
17895SOL     OW56001   8.728   9.771   1.300  0.3174 -0.2236 -0.1982
17895SOL    HW156002   8.720   9.676   1.287 -0.0207 -0.1359 -0.6800
17895SOL    HW256003   8.639   9.799   1.321  0.1614  0.1537 -1.2769
17896SOL     OW56004   1.630   4.821   7.340  0.2906  0.3479  0.1305
17896SOL    HW156005   1.638   4.768   7.261 -0.5458 -0.8436  0.8222
17896SOL    HW256006   1.609   4.759   7.409 -0.6965  1.5737  0.9801
17897SOL     OW56007   6.570   5.889   6.609  0.0789  0.0289  0.5461
17897SOL    HW156008   6.575   5.801   6.573 -0.5524 -0.9408  2.6473
17897SOL    HW256009   6.603   5.946   6.540  0.8118 -1.8843 -0.7479
17898SOL     OW56010   4.479   2.289   3.704 -0.7699 -0.2422 -0.3933
17898SOL    HW156011   4.560   2.257   3.664 -0.0723  0.1748  0.6394
17898SOL    HW256012   4.474   2.245   3.788 -1.0302  0.5660  0.0312
17899SOL     OW56013   9.683   8.581   5.092  0.1096 -0.2354 -1.0694
17899SOL    HW156014   9.595   8.580   5.056  0.6299 -1.4151 -2.4027
17899SOL    HW256015   9.702   8.489   5.110  1.5511 -0.1632 -2.0636
17900SOL     OW56016   8.300   7.267   3.122  0.2639  0.2433 -0.8695
17900SOL    HW156017   8.366   7.198   3.117  0.4239  0.3420 -0.2183
17900SOL    HW256018   8.343   7.337   3.171  0.0178  0.7109 -1.3082
17901SOL     OW56019   0.093   6.987   2.566  0.0948 -0.3413  0.2520
17901SOL    HW156020   0.155   6.920   2.535 -0.4965 -0.8487  0.1525
17901SOL    HW256021   0.034   6.940   2.624 -0.1229  0.1697  0.4490
17902SOL     OW56022   6.377   6.841   3.544  0.4877  0.1760 -0.1208
17902SOL    HW156023   6.303   6.841   3.604  0.2571 -0.1322 -0.4031
17902SOL    HW256024   6.417   6.928   3.554  0.3652  0.1737  0.3686
17903SOL     OW56025   8.900   6.355   5.177 -0.2278  0.0405 -0.2902
17903SOL    HW156026   8.817   6.393   5.148 -1.2268 -0.2647  1.9458
17903SOL    HW256027   8.898   6.265   5.145 -0.1161  0.4316 -1.4182
17904SOL     OW56028   1.403   1.800   6.166  0.0957  0.0890 -0.2334
17904SOL    HW156029   1.351   1.720   6.161 -1.5747  0.9624  1.6588
17904SOL    HW256030   1.479   1.776   6.219 -0.3062 -0.3084  0.1755
17905SOL     OW56031   7.426   2.809   7.159  0.2183  0.1227 -0.2917
17905SOL    HW156032   7.365   2.793   7.231 -1.0997 -0.4130 -1.4592
17905SOL    HW256033   7.504   2.845   7.200 -0.3320 -0.5563  1.4359
17906SOL     OW56034   4.068   8.660   0.886  0.0324  0.0803 -0.1488
17906SOL    HW156035   4.080   8.749   0.853 -0.0591  0.4730  0.8384
17906SOL    HW256036   3.975   8.642   0.873 -0.2898  0.7422  1.0735
17907SOL     OW56037   5.638   6.001   7.038 -0.2778  0.0608 -0.4975
17907SOL    HW156038   5.647   6.026   6.947  0.8254 -0.9553 -0.6983
17907SOL    HW256039   5.649   5.905   7.038 -0.5280  0.0094  0.6602
17908SOL     OW56040   7.229   4.265   0.887 -0.0596  0.1405 -0.5862
17908SOL    HW156041   7.163   4.260   0.956  0.4737 -0.8858 -0.1152
17908SOL    HW256042   7.191   4.216   0.814 -0.0896  0.1052 -0.5470
17909SOL     OW56043   3.754  10.093   4.213  0.0822 -0.0624 -0.2369
17909SOL    HW156044   3.735  10.123   4.301  0.7283  1.0783 -0.4543
17909SOL    HW256045   3.741   9.998   4.215 -0.9662  0.0872  0.7846
17910SOL     OW56046   6.162   0.091   1.178 -0.3862  0.5594  0.0115
17910SOL    HW156047   6.119   0.029   1.237 -1.1907  0.6010 -0.5163
17910SOL    HW256048   6.202   0.036   1.111 -0.2939  0.5672  0.0591
17911SOL     OW56049   0.479   1.145   7.710  0.2859 -0.0661  0.2012
17911SOL    HW156050   0.460   1.099   7.792 -0.1098  0.8445  0.6385
17911SOL    HW256051   0.544   1.090   7.666 -0.7680 -1.4580  0.3051
17912SOL     OW56052   4.074   1.811   4.287 -0.4371 -0.2380 -0.3846
17912SOL    HW156053   3.984   1.842   4.289 -0.5218 -0.3678 -1.3419
17912SOL    HW256054   4.120   1.874   4.232 -0.2968 -1.0032 -1.1661
17913SOL     OW56055   7.212   4.756   5.737 -0.2977  0.0480 -0.0242
17913SOL    HW156056   7.185   4.679   5.786  0.4160  0.1901  0.6054
17913SOL    HW256057   7.213   4.727   5.646 -0.4300 -0.5650  0.1620
17914SOL     OW56058   0.344   9.768   3.440 -0.4410  0.2518  0.3909
17914SOL    HW156059   0.422   9.721   3.467 -0.6756  0.6159  1.7753
17914SOL    HW256060   0.376   9.856   3.419 -0.4201  0.2889  0.5770
17915SOL     OW56061   3.796   6.234   2.878  0.1349  0.5739  0.6869
17915SOL    HW156062   3.833   6.300   2.819 -1.5611  1.4045  0.4762
17915SOL    HW256063   3.726   6.281   2.924 -0.6065 -0.8859  1.0889
17916SOL     OW56064   8.648   0.552   8.805  0.0122 -0.5186 -0.1994
17916SOL    HW156065   8.666   0.558   8.899 -1.2864 -0.5348  0.0597
17916SOL    HW256066   8.654   0.458   8.786 -2.5964 -0.8859  0.4919
17917SOL     OW56067   5.304   5.788   2.634  0.2481  0.5520  0.6914
17917SOL    HW156068   5.340   5.752   2.715  0.3606 -0.6097  0.1595
17917SOL    HW256069   5.333   5.879   2.632  1.9729  0.0361  0.9672
17918SOL     OW56070   3.823   1.870   6.301 -0.5160  0.5531 -0.2483
17918SOL    HW156071   3.765   1.795   6.317 -1.1970  1.4200  1.6619
17918SOL    HW256072   3.873   1.879   6.382  0.8781  1.0632 -1.1344
17919SOL     OW56073   8.352   3.572   4.987  0.1617 -0.1467 -0.0408
17919SOL    HW156074   8.414   3.499   4.987  0.6401  0.2483 -0.8217
17919SOL    HW256075   8.267   3.531   4.973  0.5822 -0.4426 -1.9887
17920SOL     OW56076   0.433   0.367   3.544 -0.2272  0.8107 -0.3319
17920SOL    HW156077   0.340   0.386   3.554 -0.4040 -0.1049 -0.1652
17920SOL    HW256078   0.440   0.328   3.457 -0.3924 -1.3465  0.5691
17921SOL     OW56079   3.698   5.448   9.128  0.3509 -0.5710  0.2520
17921SOL    HW156080   3.760   5.517   9.102  1.8245 -2.5622 -1.8526
17921SOL    HW256081   3.707   5.443   9.223 -1.2783  3.3728  0.8115
17922SOL     OW56082   4.006   6.148   4.246 -0.0737  0.3588 -0.7366
17922SOL    HW156083   4.018   6.234   4.287 -1.9953  1.3701 -2.1343
17922SOL    HW256084   4.068   6.091   4.291  0.4782  2.2179  1.0019
17923SOL     OW56085   6.144   4.259   9.178 -0.1206 -0.2029 -0.4620
17923SOL    HW156086   6.115   4.308   9.255 -0.1804 -0.9431 -0.0084
17923SOL    HW256087   6.174   4.327   9.117  0.8977  0.3563  0.6010
17924SOL     OW56088   9.857   2.362   6.120 -0.8953  0.0239  0.2125
17924SOL    HW156089   9.866   2.271   6.092  0.2657 -0.3165  1.5692
17924SOL    HW256090   9.874   2.414   6.042 -1.2474 -0.9103 -0.5024
17925SOL     OW56091   0.340   7.438   3.168  0.0329  0.5327 -0.5417
17925SOL    HW156092   0.315   7.386   3.244  0.2078  0.7331 -0.3451
17925SOL    HW256093   0.272   7.420   3.104  0.1081  0.0379 -0.4890
17926SOL     OW56094   7.201   7.329   5.497 -0.5439 -0.2298  0.1930
17926SOL    HW156095   7.251   7.327   5.415 -0.5326 -1.7863  0.2093
17926SOL    HW256096   7.260   7.371   5.559  0.1281 -0.5875 -0.1824
17927SOL     OW56097   1.291   9.235   9.869  0.0213 -0.6223 -0.5984
17927SOL    HW156098   1.198   9.211   9.875  0.2094 -1.4495 -0.8555
17927SOL    HW256099   1.332   9.160   9.826  1.0600 -0.9157  0.8249
17928SOL     OW56100   6.396  10.569   9.970 -0.3314  0.2652 -0.6180
17928SOL    HW156101   6.378  10.589  10.061 -1.3726  0.0685 -0.7694
17928SOL    HW256102   6.310  10.569   9.927 -0.1361 -1.8266 -1.1429
17929SOL     OW56103   3.262   7.181   2.419 -0.6971  0.1171 -0.1029
17929SOL    HW156104   3.215   7.116   2.472 -0.9360 -0.9569 -1.5726
17929SOL    HW256105   3.193   7.226   2.370 -0.3072 -0.9621 -1.7169
17930SOL     OW56106   2.088   1.888   8.825  0.2678  0.0796  0.6664
17930SOL    HW156107   2.072   1.914   8.915  1.5755  0.7146  0.7365
17930SOL    HW256108   2.036   1.809   8.813 -0.7131  0.5528  1.6521
17931SOL     OW56109   4.053   2.274   4.188  0.0545 -0.0228  0.4324
17931SOL    HW156110   4.047   2.267   4.093 -0.9308  0.9813  0.3928
17931SOL    HW256111   3.971   2.316   4.214  0.5087  0.1429  1.6856
17932SOL     OW56112   6.224   6.288   3.597 -0.0629 -0.0347  0.1892
17932SOL    HW156113   6.231   6.383   3.583  0.7978 -0.2360 -0.8817
17932SOL    HW256114   6.313   6.261   3.621 -0.1702 -0.6539 -0.0908
17933SOL     OW56115   5.660   6.468  10.157 -0.3156 -0.0725  0.1708
17933SOL    HW156116   5.735   6.483  10.214 -0.8451 -0.0954  0.8785
17933SOL    HW256117   5.588   6.445  10.216 -0.4940 -1.6331 -0.6018
17934SOL     OW56118   5.758   7.578   0.220 -0.4753 -0.2005  0.2319
17934SOL    HW156119   5.712   7.559   0.302 -0.1221 -0.1283  0.4503
17934SOL    HW256120   5.850   7.584   0.245 -0.2513 -1.0734 -0.3106
17935SOL     OW56121   4.772   9.866   3.323  0.0970 -0.6355 -0.2223
17935SOL    HW156122   4.765   9.810   3.400 -0.6423 -1.8545 -1.1341
17935SOL    HW256123   4.693   9.847   3.272  1.1677 -0.8596 -1.8985
17936SOL     OW56124   3.013   3.581   6.990  0.6402  0.2390 -0.3739
17936SOL    HW156125   3.012   3.500   6.938  1.2492  1.5833 -2.6058
17936SOL    HW256126   3.105   3.595   7.012  0.7541  1.1124 -1.3478
17937SOL     OW56127   0.065   2.173  10.449  0.2734  0.1249 -0.8927
17937SOL    HW156128   0.140   2.228  10.429  1.8026 -1.4908  0.1079
17937SOL    HW256129   0.043   2.130  10.367  1.2379 -0.3014 -0.9341
17938SOL     OW56130   3.799   2.923   6.070  0.2315  0.1010 -0.1384
17938SOL    HW156131   3.773   2.851   6.012 -1.4815  2.7266 -2.9108
17938SOL    HW256132   3.736   2.920   6.142 -0.5838 -0.4258 -0.8619
17939SOL     OW56133   9.655   4.444   2.865 -0.1263  0.5547 -0.2593
17939SOL    HW156134   9.670   4.352   2.845 -2.2719  0.0422  0.1703
17939SOL    HW256135   9.738   4.477   2.899  0.2500 -1.6306  1.0724
17940SOL     OW56136   2.782   0.094   7.030  0.2588 -0.2632 -0.2236
17940SOL    HW156137   2.742   0.095   7.117 -0.8458  0.8222 -0.6994
17940SOL    HW256138   2.741   0.019   6.986 -0.2248  0.0075 -0.2462
17941SOL     OW56139   3.585   2.917   9.296 -0.1287  0.6219 -0.1217
17941SOL    HW156140   3.524   2.971   9.346  1.6866  3.9129 -1.1659
17941SOL    HW256141   3.532   2.880   9.226 -1.4759  0.9912  0.6703
17942SOL     OW56142   7.973   0.697   9.695  0.1082 -0.0091 -0.5890
17942SOL    HW156143   7.987   0.611   9.736 -2.1320 -0.8077 -1.3531
17942SOL    HW256144   7.971   0.678   9.601 -2.2957  0.4985 -0.6997
17943SOL     OW56145   4.096   8.844   3.407 -0.3244  0.0568  0.3477
17943SOL    HW156146   4.102   8.939   3.394 -0.1375  0.2056  1.4247
17943SOL    HW256147   4.176   8.822   3.454 -0.0912 -0.7406 -0.3955
17944SOL     OW56148   3.867   6.064   5.607  0.0286 -0.3164  0.9644
17944SOL    HW156149   3.961   6.065   5.587 -0.1173 -1.5927  0.1335
17944SOL    HW256150   3.841   5.973   5.595 -1.8824  0.4499 -1.6265
17945SOL     OW56151   3.386   2.817  10.410  0.5596 -0.3170 -0.1269
17945SOL    HW156152   3.318   2.787  10.350  0.9522 -3.0332  0.6337
17945SOL    HW256153   3.340   2.833  10.492  0.5103 -0.0020 -0.2180
17946SOL     OW56154   4.952   0.207   6.864 -0.2446 -0.1491  1.0772
17946SOL    HW156155   4.931   0.289   6.910  0.0263  0.5945 -0.0800
17946SOL    HW256156   4.970   0.234   6.774 -1.1957 -1.6175  0.4045
17947SOL     OW56157   7.514   4.021   7.195  0.3568 -0.6128 -0.0160
17947SOL    HW156158   7.466   3.981   7.122 -0.6051  0.2410  0.1240
17947SOL    HW256159   7.486   3.970   7.272  0.6005 -0.8796 -0.1043
17948SOL     OW56160   4.737   9.590   1.436 -0.5456  0.0964 -0.0500
17948SOL    HW156161   4.688   9.641   1.501  0.3091  2.4049 -1.1132
17948SOL    HW256162   4.801   9.541   1.488  0.3616  2.1765  0.9039
17949SOL     OW56163   3.314   7.896   9.295  0.0269  0.2593  0.3790
17949SOL    HW156164   3.364   7.855   9.224 -0.5435  1.1955 -0.6124
17949SOL    HW256165   3.235   7.928   9.252 -0.6529  0.2568  1.5949
17950SOL     OW56166   3.353   5.578   7.004  0.2488 -0.0023  0.3216
17950SOL    HW156167   3.413   5.515   6.964 -0.8411 -1.5056  0.9579
17950SOL    HW256168   3.368   5.568   7.098 -0.4788  0.1237  0.4558
17951SOL     OW56169   6.935   8.082   1.219 -0.5892 -0.2253 -0.0009
17951SOL    HW156170   6.976   8.106   1.302  1.7912 -1.0279 -0.8325
17951SOL    HW256171   6.864   8.022   1.243 -1.8871  1.8114  1.5775
17952SOL     OW56172   7.143  10.523   4.243  0.0242  0.0520  0.6636
17952SOL    HW156173   7.149  10.606   4.291  1.3020 -0.5433  1.5934
17952SOL    HW256174   7.061  10.484   4.273  0.9991 -0.5317  2.8485
17953SOL     OW56175   8.559   7.788  10.305  0.0118  0.1244 -0.0688
17953SOL    HW156176   8.491   7.761  10.244  1.3282 -0.2186 -1.4564
17953SOL    HW256177   8.625   7.831  10.250  0.3523  1.5836  1.3955
17954SOL     OW56178   6.686   0.989   7.089 -0.3582 -0.0671 -0.2698
17954SOL    HW156179   6.720   0.962   7.004 -0.3886  1.2170 -0.7094
17954SOL    HW256180   6.598   1.022   7.070 -0.1464  0.7523  0.1679
17955SOL     OW56181  10.257   6.961   6.459  0.2116  0.1758  0.4254
17955SOL    HW156182  10.292   7.007   6.535  0.9136 -0.0927  0.2760
17955SOL    HW256183  10.334   6.921   6.418 -0.4453 -1.7399  0.9550
17956SOL     OW56184   4.566   8.356   5.129  0.3871 -0.8630 -0.1153
17956SOL    HW156185   4.605   8.400   5.204 -1.7404  2.1844 -0.6323
17956SOL    HW256186   4.498   8.300   5.166  0.5255 -0.7310  0.3440
17957SOL     OW56187   6.514   0.521   5.904  0.2774  0.4449  0.0418
17957SOL    HW156188   6.536   0.455   5.838 -0.3740 -0.2904  0.5360
17957SOL    HW256189   6.430   0.491   5.940  1.3721 -0.0378  2.3262
17958SOL     OW56190   8.897   7.458   1.464 -0.0215 -0.4570 -0.3919
17958SOL    HW156191   8.806   7.464   1.433 -0.1578  0.1845  0.0995
17958SOL    HW256192   8.923   7.368   1.445 -1.0263 -0.8801  0.1437
17959SOL     OW56193   5.499   8.596   7.891 -0.8464 -0.0400  0.0504
17959SOL    HW156194   5.534   8.626   7.975 -1.5332  1.0246 -0.0362
17959SOL    HW256195   5.563   8.531   7.861 -1.1912 -1.3169  1.9358
17960SOL     OW56196   0.573   7.211   8.621  0.6493 -0.1994  0.4310
17960SOL    HW156197   0.547   7.120   8.606  1.4714 -0.3662 -0.0100
17960SOL    HW256198   0.567   7.222   8.716 -0.7472 -0.3061  0.3857
17961SOL     OW56199   4.095   6.761   0.578  0.2464 -0.1907 -0.4121
17961SOL    HW156200   4.168   6.724   0.527  1.0220  0.9956 -0.1925
17961SOL    HW256201   4.121   6.748   0.669 -1.4147 -2.8554 -0.2290
17962SOL     OW56202   5.165   2.170   1.326  0.1672 -0.1156  0.3870
17962SOL    HW156203   5.085   2.137   1.366  1.5697 -3.6320  0.6299
17962SOL    HW256204   5.223   2.189   1.400 -0.1821  1.9577  0.1968
17963SOL     OW56205   3.780   7.761   4.326 -0.2534 -0.1205 -0.2563
17963SOL    HW156206   3.693   7.740   4.362 -0.3501 -1.3911 -1.1854
17963SOL    HW256207   3.771   7.746   4.232  1.4896 -2.1282 -0.1547
17964SOL     OW56208   3.285   6.754   3.497  0.6302 -0.3956  0.4669
17964SOL    HW156209   3.263   6.755   3.404  3.0126 -1.3989 -0.2012
17964SOL    HW256210   3.216   6.702   3.538 -0.1515 -0.4299 -0.8397
17965SOL     OW56211   6.345   8.972   5.043  0.6511 -0.4517 -0.0143
17965SOL    HW156212   6.329   9.066   5.048  0.7059 -0.4060 -0.5938
17965SOL    HW256213   6.361   8.945   5.134 -0.7639 -0.1576  0.3458
17966SOL     OW56214   2.393   3.632   1.918  0.1375 -0.0887 -0.2426
17966SOL    HW156215   2.405   3.692   1.845  0.0478  0.7991  0.4676
17966SOL    HW256216   2.430   3.549   1.886  0.4708  0.3897 -1.1386
17967SOL     OW56217   1.918   7.642   2.869  0.1282 -0.4141 -0.0231
17967SOL    HW156218   1.839   7.614   2.823  0.4863 -0.1812 -0.8080
17967SOL    HW256219   1.980   7.664   2.798  0.7389 -0.1750  0.5756
17968SOL     OW56220   5.446   8.486   1.822  0.8438  0.5109 -0.0616
17968SOL    HW156221   5.420   8.577   1.805  0.1530  0.4987  0.8535
17968SOL    HW256222   5.431   8.442   1.738  0.2660  1.0453 -0.2539
17969SOL     OW56223   4.534   1.454   4.045 -0.7145  0.9015 -0.1555
17969SOL    HW156224   4.597   1.526   4.057 -1.2196  1.5322 -1.1647
17969SOL    HW256225   4.581   1.376   4.073  0.1967  1.4916  0.0013
17970SOL     OW56226   6.314   8.958   2.429 -0.0048  0.5168 -0.0399
17970SOL    HW156227   6.261   8.917   2.360  1.2724  1.7501 -1.8538
17970SOL    HW256228   6.298   9.052   2.418  1.6255  0.8372  0.1303
17971SOL     OW56229   1.580   2.586   9.402  0.2889 -0.4885  0.0465
17971SOL    HW156230   1.527   2.609   9.478 -0.2472 -0.3549 -0.3558
17971SOL    HW256231   1.589   2.491   9.407  0.2660 -0.4790  0.2858
17972SOL     OW56232   2.887   1.028   0.224 -0.0555  0.3223 -0.3069
17972SOL    HW156233   2.889   1.041   0.129 -1.2101  1.9858 -0.1503
17972SOL    HW256234   2.797   1.002   0.243 -1.1109  4.0914  0.6927
17973SOL     OW56235   3.018   1.794   5.555  0.1684 -0.6540  0.0279
17973SOL    HW156236   3.102   1.784   5.601  0.5041  0.1889 -0.3756
17973SOL    HW256237   2.976   1.708   5.561  0.4750 -0.7310  1.3860
17974SOL     OW56238  10.248   1.504   6.694  0.2839 -0.3817  0.0017
17974SOL    HW156239  10.158   1.538   6.688  0.3824 -0.1609 -0.2147
17974SOL    HW256240  10.260   1.486   6.788  0.5971  1.1984  0.2994
17975SOL     OW56241   6.464   6.595   7.429 -0.5578  0.3309 -1.0410
17975SOL    HW156242   6.407   6.672   7.428  0.9959  1.5229 -2.5521
17975SOL    HW256243   6.547   6.627   7.464 -0.5205 -1.2106  0.4382
17976SOL     OW56244   5.521   9.681   7.802 -0.3657 -0.1050  0.4363
17976SOL    HW156245   5.425   9.683   7.809 -0.3770  1.6544  0.1711
17976SOL    HW256246   5.551   9.730   7.879  0.3758 -1.3294  0.9573
17977SOL     OW56247   8.811   9.220  10.059 -0.0492  0.1653 -0.2458
17977SOL    HW156248   8.837   9.289  10.120  0.1261 -0.5426  0.4876
17977SOL    HW256249   8.743   9.261  10.005  1.3972  1.5099 -1.1139
17978SOL     OW56250   7.193   2.680   2.585 -0.0814 -0.3668 -0.1220
17978SOL    HW156251   7.158   2.681   2.496 -3.1553 -1.5540  0.9541
17978SOL    HW256252   7.217   2.589   2.601 -0.4046 -0.3431  0.5477
17979SOL     OW56253   8.189   5.540   8.443 -0.0479 -1.0932 -0.7869
17979SOL    HW156254   8.262   5.515   8.500 -0.3308  0.7511  0.5037
17979SOL    HW256255   8.127   5.468   8.451 -0.1621 -0.8165  1.4779
17980SOL     OW56256   0.931   0.398  10.277 -0.3595  0.0960  0.2188
17980SOL    HW156257   1.023   0.422  10.263 -0.0330 -0.3721  1.4536
17980SOL    HW256258   0.925   0.308  10.245 -0.4631  0.2345 -0.1503
17981SOL     OW56259   8.937   5.644   9.746  0.6210  0.1932  0.3702
17981SOL    HW156260   8.865   5.647   9.808  0.4719  1.1199  0.1551
17981SOL    HW256261   8.897   5.619   9.663  0.9962 -2.3937  0.8588
17982SOL     OW56262   3.568   5.573   3.532 -0.2842  0.2036 -0.0939
17982SOL    HW156263   3.562   5.549   3.440 -0.8015  1.4707 -0.4040
17982SOL    HW256264   3.655   5.541   3.559 -0.2524 -0.4482 -0.9186
17983SOL     OW56265   7.291   6.180   1.897 -0.3464  0.4773  0.0828
17983SOL    HW156266   7.340   6.098   1.900  1.1816  1.0892 -3.3088
17983SOL    HW256267   7.200   6.153   1.886 -0.1344 -0.7146  1.0565
17984SOL     OW56268  10.342   9.382   6.651 -0.2000  0.3095 -0.7340
17984SOL    HW156269  10.437   9.380   6.661 -0.4028  0.2110  1.4556
17984SOL    HW256270  10.315   9.461   6.698 -1.3742 -0.8376  0.5996
17985SOL     OW56271   3.864  10.439   3.760  0.7740 -0.4740 -0.4179
17985SOL    HW156272   3.811  10.456   3.838 -0.7195  0.3019 -1.5547
17985SOL    HW256273   3.800  10.421   3.691  1.9905  0.4063 -1.8350
17986SOL     OW56274   6.679   2.902   4.796 -0.3128  0.0918 -0.4455
17986SOL    HW156275   6.693   2.836   4.727  0.7449 -0.6541  0.4420
17986SOL    HW256276   6.679   2.851   4.877 -1.1990  1.0044  0.1404
17987SOL     OW56277   6.475   0.798   9.572  0.7861  0.0343  0.0516
17987SOL    HW156278   6.548   0.768   9.518 -1.2796 -2.5803 -1.5235
17987SOL    HW256279   6.424   0.855   9.515  0.0541 -0.5574  0.0822
17988SOL     OW56280   4.065   8.371   5.663  0.4873 -0.1019  0.2171
17988SOL    HW156281   4.114   8.341   5.587  1.3671 -0.6939  0.9982
17988SOL    HW256282   4.119   8.440   5.702  0.3813 -0.2811  0.6919
17989SOL     OW56283   2.110   5.821   3.151  0.4922 -0.0496 -0.4548
17989SOL    HW156284   2.132   5.877   3.077  0.4393  0.1916 -0.2874
17989SOL    HW256285   2.032   5.773   3.123  0.3321  0.2166 -0.4626
17990SOL     OW56286   1.675   6.330   0.248 -0.2551 -0.2625  0.1957
17990SOL    HW156287   1.628   6.260   0.294 -0.4077 -0.4644 -0.2597
17990SOL    HW256288   1.634   6.333   0.162 -0.6765  0.8171  0.4193
17991SOL     OW56289   2.991   8.288   2.769  0.2274 -0.1400 -0.7292
17991SOL    HW156290   2.992   8.207   2.819  1.1743 -0.3550 -1.0806
17991SOL    HW256291   2.990   8.357   2.835 -0.4948 -0.4286 -0.4279
17992SOL     OW56292   7.524   1.463   6.479 -0.4982  0.4549  0.5243
17992SOL    HW156293   7.581   1.403   6.527  0.3888 -0.0269 -1.0977
17992SOL    HW256294   7.551   1.550   6.508 -1.5766  0.1563  2.6493
17993SOL     OW56295   8.270   8.367   4.707  0.1494 -0.6286  0.1426
17993SOL    HW156296   8.285   8.274   4.726  0.4327 -0.5244  0.4250
17993SOL    HW256297   8.206   8.395   4.772 -0.0537 -0.6610 -0.0390
17994SOL     OW56298   5.733   2.563   2.941 -0.7161  0.1744 -0.4221
17994SOL    HW156299   5.762   2.472   2.955  1.8102  1.0573  0.6290
17994SOL    HW256300   5.673   2.580   3.013 -1.1108 -0.5932 -0.5488
17995SOL     OW56301   5.633   2.162   7.438 -0.2595  0.6558  0.3649
17995SOL    HW156302   5.685   2.112   7.501 -0.1198  0.8193  0.3774
17995SOL    HW256303   5.653   2.121   7.353 -2.0634 -0.9724  0.6523
17996SOL     OW56304   4.905   6.944   4.295 -0.4683  0.1448 -0.0484
17996SOL    HW156305   4.938   7.001   4.365 -1.6938  3.1550 -1.7636
17996SOL    HW256306   4.953   6.971   4.217 -2.8220  0.6010 -1.4060
17997SOL     OW56307   9.644  10.273   7.059 -0.0460 -0.1795 -0.1678
17997SOL    HW156308   9.660  10.179   7.050  0.1183 -0.0724 -1.0385
17997SOL    HW256309   9.571  10.291   7.001  0.0392  0.2681 -0.1406
17998SOL     OW56310   4.725   7.727   3.407 -0.5488  0.5616  0.3760
17998SOL    HW156311   4.712   7.672   3.329 -1.1137  1.1269  0.0612
17998SOL    HW256312   4.704   7.670   3.480 -2.2821  0.6541  0.0044
17999SOL     OW56313   4.640   2.909   6.657 -0.3048 -0.6235  0.0575
17999SOL    HW156314   4.636   2.816   6.678 -1.4296 -0.1710  2.0468
17999SOL    HW256315   4.649   2.953   6.741 -0.1855  1.0969 -0.8070
18000SOL     OW56316   8.589   4.943   9.379  0.0012 -0.4618 -0.6401
18000SOL    HW156317   8.595   4.924   9.473 -0.8947 -0.9065 -0.6661
18000SOL    HW256318   8.579   5.038   9.375  1.4825 -0.2613 -0.3676
18001SOL     OW56319  10.300   0.228   3.262 -0.4081 -0.3353  0.3556
18001SOL    HW156320  10.281   0.181   3.181 -3.8127  0.7327  0.3768
18001SOL    HW256321  10.348   0.164   3.316 -0.1933 -1.8766 -1.5512
18002SOL     OW56322   0.760   5.244   0.547  0.8321  0.4002 -0.1372
18002SOL    HW156323   0.754   5.150   0.562  1.4464  0.5902  1.4547
18002SOL    HW256324   0.775   5.252   0.452  0.6684 -1.0800 -0.3168
18003SOL     OW56325   0.863   0.621   3.344  0.1505  0.0942 -0.1061
18003SOL    HW156326   0.844   0.612   3.250  0.8035  0.0175 -0.2309
18003SOL    HW256327   0.795   0.569   3.387 -0.1499  0.1270 -0.5369
18004SOL     OW56328   5.400   2.115   4.451 -0.1251  0.1576 -0.0557
18004SOL    HW156329   5.313   2.121   4.489 -0.5538 -1.8375 -0.5771
18004SOL    HW256330   5.455   2.079   4.521 -0.2374 -0.6548 -0.3703
18005SOL     OW56331   4.935   3.998   1.327  0.0778 -0.3032 -0.3736
18005SOL    HW156332   5.008   3.990   1.388 -1.0169  1.3277  1.2716
18005SOL    HW256333   4.862   4.031   1.381 -0.9478  1.2385 -2.5435
18006SOL     OW56334   8.157  10.205   8.543 -0.6894  0.1749 -0.1927
18006SOL    HW156335   8.127  10.144   8.610  0.0355 -0.1825 -0.1874
18006SOL    HW256336   8.234  10.247   8.581 -0.4847  0.2299 -0.6549
18007SOL     OW56337   4.483  10.346   5.085  0.2951 -0.1929 -0.1363
18007SOL    HW156338   4.498  10.302   5.001 -2.8816 -0.3034 -0.7495
18007SOL    HW256339   4.505  10.438   5.068 -0.1491 -0.2452 -1.0418
18008SOL     OW56340   0.982   7.830   7.237  0.5715 -0.0399 -0.0288
18008SOL    HW156341   0.907   7.825   7.178  0.6148  1.7575 -0.2944
18008SOL    HW256342   1.013   7.740   7.244 -1.3913 -0.7885 -0.1867
18009SOL     OW56343   2.551   4.848   6.839 -0.1603  0.2480 -0.4786
18009SOL    HW156344   2.632   4.835   6.887 -0.8992  0.4206  0.8741
18009SOL    HW256345   2.516   4.931   6.872 -1.3072 -0.2421 -0.3900
18010SOL     OW56346   0.409   3.855   3.649 -0.8755 -0.2784 -0.6556
18010SOL    HW156347   0.475   3.837   3.583  0.4119  0.3876  0.4137
18010SOL    HW256348   0.367   3.937   3.621  0.4995  0.6619 -0.0437
18011SOL     OW56349   0.631   1.191   8.117  0.0977  0.5640  0.1968
18011SOL    HW156350   0.642   1.156   8.028  1.3725  1.1713  0.0949
18011SOL    HW256351   0.551   1.150   8.149  1.2466 -2.0847 -0.0638
18012SOL     OW56352   5.336   7.369   1.507 -0.2199  0.5863 -0.0837
18012SOL    HW156353   5.383   7.396   1.586 -0.4074  1.7814 -0.3639
18012SOL    HW256354   5.248   7.347   1.539 -0.2446  0.9005  0.0699
18013SOL     OW56355   2.455   9.096   7.662  0.3087 -0.0915 -0.2409
18013SOL    HW156356   2.550   9.096   7.664  0.3180  1.2844  0.5591
18013SOL    HW256357   2.432   9.032   7.594  1.7665 -1.0857  0.1683
18014SOL     OW56358   5.582   5.963   5.082  0.3989  0.2643 -0.8563
18014SOL    HW156359   5.628   5.994   5.005 -0.3786 -0.1932 -1.5194
18014SOL    HW256360   5.633   5.888   5.113 -0.1536 -0.5572 -1.8844
18015SOL     OW56361   6.783   1.846  10.260 -0.2772 -0.8700  0.2082
18015SOL    HW156362   6.733   1.851  10.179 -0.0071 -3.0023 -0.1398
18015SOL    HW256363   6.734   1.784  10.315 -0.4294  0.4847  1.6757
18016SOL     OW56364   3.968   1.756   1.238  0.4592  0.3247  0.0949
18016SOL    HW156365   3.907   1.790   1.174  0.3426  0.8931  0.4979
18016SOL    HW256366   3.944   1.664   1.248 -1.5739  0.9361  1.5978
18017SOL     OW56367  10.067   8.337   2.640 -0.1713 -0.1866  0.5109
18017SOL    HW156368  10.062   8.282   2.562  1.8203 -0.7624  0.7381
18017SOL    HW256369  10.030   8.421   2.612  0.1489 -0.5025 -0.9591
18018SOL     OW56370   5.778   1.777   8.924  0.3996  0.3241  0.2215
18018SOL    HW156371   5.729   1.694   8.922  0.7409 -0.0099  2.4666
18018SOL    HW256372   5.844   1.763   8.992  2.0961  1.6085 -1.0946
18019SOL     OW56373   3.883   4.479   1.460 -0.2634 -0.0493 -0.4959
18019SOL    HW156374   3.825   4.516   1.527 -0.1778 -1.4725  0.4091
18019SOL    HW256375   3.886   4.386   1.480 -1.6241 -0.8933 -3.5043
18020SOL     OW56376   6.721   6.278   6.671 -0.3915 -0.3938 -0.4149
18020SOL    HW156377   6.692   6.280   6.762 -3.0660 -1.2674 -1.1529
18020SOL    HW256378   6.752   6.188   6.658 -1.9060 -0.9039 -0.8109
18021SOL     OW56379   6.886   2.901   2.943 -0.6404  0.8812  0.2484
18021SOL    HW156380   6.908   2.967   3.009  0.0435 -0.8259  1.8089
18021SOL    HW256381   6.961   2.841   2.944 -2.2306 -1.1877  0.5700
18022SOL     OW56382   9.745   9.740   7.997  0.2247  0.3022 -0.7597
18022SOL    HW156383   9.757   9.655   7.954 -0.2794 -0.9934  1.4955
18022SOL    HW256384   9.658   9.768   7.970 -0.1135 -0.5184 -0.5706
18023SOL     OW56385  10.416   1.242   0.336 -0.9301 -0.1313 -0.2221
18023SOL    HW156386  10.327   1.242   0.370 -0.5223 -1.1851  0.9454
18023SOL    HW256387  10.419   1.168   0.274 -0.7836 -0.3085 -0.0059
18024SOL     OW56388   5.869   0.012   0.431  0.2930  0.1401 -0.3661
18024SOL    HW156389   5.814   0.071   0.380  0.4630  0.8764  0.2987
18024SOL    HW256390   5.958   0.033   0.404  0.3448  0.0399 -0.2732
18025SOL     OW56391   3.795   6.398   2.256  0.3080 -0.2085  0.3065
18025SOL    HW156392   3.767   6.419   2.345  2.2515  0.2121  0.8761
18025SOL    HW256393   3.773   6.476   2.205 -1.7949 -0.8638  0.1372
18026SOL     OW56394   9.300   3.009  10.170 -0.2079 -0.5301  0.0491
18026SOL    HW156395   9.266   3.066  10.101 -1.3258 -0.0310  0.9630
18026SOL    HW256396   9.361   3.064  10.219  0.6313 -0.9021 -0.5680
18027SOL     OW56397   8.110   6.389   3.735 -0.7252  0.1301  0.2121
18027SOL    HW156398   8.056   6.317   3.701  0.1572 -0.4284 -0.0521
18027SOL    HW256399   8.105   6.457   3.669  0.3767 -0.6574 -0.7360
18028SOL     OW56400   5.604   3.555   6.331 -0.1640  0.2232  0.1726
18028SOL    HW156401   5.670   3.503   6.376  0.1248  1.0386  0.7247
18028SOL    HW256402   5.621   3.541   6.238 -1.3362 -2.2188  0.2448
18029SOL     OW56403   0.071   3.493   5.662  0.5562  0.1237  0.4018
18029SOL    HW156404   0.060   3.406   5.623 -0.7464  0.6351 -0.4512
18029SOL    HW256405   0.164   3.512   5.652  0.5635 -0.4949 -0.9321
18030SOL     OW56406   4.491   3.197   0.949 -0.2461  0.0193  0.5495
18030SOL    HW156407   4.500   3.143   1.027 -0.6514  0.1075  0.6656
18030SOL    HW256408   4.461   3.282   0.983  0.0768  0.2145  0.3439
18031SOL     OW56409   2.351  10.439   4.691  0.3247  0.4260  0.2273
18031SOL    HW156410   2.380  10.516   4.641  0.0961 -0.2438 -0.9943
18031SOL    HW256411   2.256  10.443   4.689  0.1996 -1.3725 -2.4022
18032SOL     OW56412   1.244   5.978   5.937  0.6086 -0.5477  0.7071
18032SOL    HW156413   1.305   6.049   5.959  1.5244 -1.2039  0.3828
18032SOL    HW256414   1.244   5.976   5.841  0.6027 -0.9930  0.7149
18033SOL     OW56415   3.150   6.020   9.743  0.2269 -0.2088  0.4647
18033SOL    HW156416   3.236   6.063   9.749  0.3638 -0.4730  0.3990
18033SOL    HW256417   3.109   6.036   9.828  0.2228  0.1674  0.3938
18034SOL     OW56418   6.299   6.270   6.929 -0.0970  0.0811  0.1828
18034SOL    HW156419   6.308   6.256   6.834  0.0308 -2.0023  0.4545
18034SOL    HW256420   6.211   6.305   6.940 -0.7756 -1.2959 -0.5846
18035SOL     OW56421   9.574   8.768   9.704 -0.5899  0.4535 -0.2949
18035SOL    HW156422   9.485   8.780   9.671 -0.8789  2.2040  0.9816
18035SOL    HW256423   9.630   8.783   9.628 -1.3203  1.9485 -0.5679
18036SOL     OW56424   4.807   9.835   8.148  0.4708  0.3650  0.0336
18036SOL    HW156425   4.833   9.821   8.239  0.9220  2.0619  0.2036
18036SOL    HW256426   4.887   9.822   8.097  0.8478  1.9607  0.1742
18037SOL     OW56427   5.872  10.411   8.186 -0.4025 -0.4222  0.0743
18037SOL    HW156428   5.890  10.444   8.098  1.3064 -0.3152  0.4354
18037SOL    HW256429   5.799  10.350   8.174 -0.2828 -0.3238 -1.3896
18038SOL     OW56430   1.165   3.599   5.435  0.3194 -0.5769  0.2155
18038SOL    HW156431   1.188   3.631   5.522  1.3897 -1.2311  0.1844
18038SOL    HW256432   1.106   3.666   5.400  0.8230  0.2882  0.9725
18039SOL     OW56433   2.172   2.294   0.993  0.1140 -0.3487 -0.1556
18039SOL    HW156434   2.113   2.224   0.968 -0.5164  0.1840 -0.1897
18039SOL    HW256435   2.220   2.260   1.068 -0.3031 -0.7536 -0.0699
18040SOL     OW56436   1.013   4.681   5.699  0.7045  0.4744  0.0869
18040SOL    HW156437   1.029   4.625   5.774 -1.4778 -2.3323 -1.3514
18040SOL    HW256438   1.096   4.725   5.683  2.0117 -0.9840  2.4112
18041SOL     OW56439   4.093  10.221   9.933  0.2224 -1.3080 -0.1967
18041SOL    HW156440   4.170  10.165   9.945  0.6622 -1.2912 -2.6055
18041SOL    HW256441   4.021  10.159   9.919 -0.4619 -1.3555  2.8303
18042SOL     OW56442   9.137   5.659   5.539  0.0974 -0.4243 -0.1019
18042SOL    HW156443   9.090   5.687   5.460  2.2589 -1.9787 -2.0840
18042SOL    HW256444   9.196   5.732   5.558 -0.5057  0.0020  0.1783
18043SOL     OW56445   0.893   4.673   3.719 -0.3882 -0.8416  0.3233
18043SOL    HW156446   0.929   4.761   3.710 -0.3178 -0.5434  2.8509
18043SOL    HW256447   0.803   4.680   3.689 -1.1490  0.7586  2.7579
18044SOL     OW56448   5.244   4.658   1.029  0.3792  0.4168 -0.4181
18044SOL    HW156449   5.293   4.633   1.107 -1.6907  0.6329  1.0404
18044SOL    HW256450   5.309   4.697   0.971  2.2501 -1.0844  0.5529
18045SOL     OW56451   0.538   2.884   2.765 -0.3856 -0.0341 -0.2023
18045SOL    HW156452   0.517   2.887   2.671 -0.6874  0.6563 -0.1146
18045SOL    HW256453   0.522   2.973   2.796 -0.0894 -0.2108  0.4678
18046SOL     OW56454   1.893   0.489   6.599  0.3168  0.0831  0.2568
18046SOL    HW156455   1.920   0.507   6.689 -0.6605 -0.9640  0.7837
18046SOL    HW256456   1.884   0.575   6.558  0.8748  0.5596  1.1338
18047SOL     OW56457   7.747   4.505   5.769 -0.2981 -0.7605 -0.2396
18047SOL    HW156458   7.754   4.448   5.846  0.1824 -0.9963 -0.4584
18047SOL    HW256459   7.837   4.525   5.746 -0.4482 -0.5587 -0.6472
18048SOL     OW56460  10.501   6.038   2.404 -0.4126 -0.1143  0.1628
18048SOL    HW156461  10.507   5.948   2.437  0.6645  0.4383  1.5413
18048SOL    HW256462  10.518   6.030   2.310 -0.0896 -1.3130  0.3074
18049SOL     OW56463   8.392   1.127   1.657  0.0371  0.2493  0.2082
18049SOL    HW156464   8.415   1.219   1.658  0.2144  0.2017  0.8187
18049SOL    HW256465   8.403   1.100   1.566 -2.0660  1.3292 -0.4387
18050SOL     OW56466   2.510   8.084   9.854 -0.7638 -1.2754 -0.8159
18050SOL    HW156467   2.559   8.002   9.848 -2.8784 -2.9061  1.8049
18050SOL    HW256468   2.542   8.126   9.934  0.0673  0.3745 -1.9529
18051SOL     OW56469   9.497   6.063   6.365  0.0370 -0.6391  0.2217
18051SOL    HW156470   9.478   6.136   6.424 -0.5684 -1.5273  1.1476
18051SOL    HW256471   9.411   6.027   6.343  0.3765 -1.6844  0.5577
18052SOL     OW56472   8.770   5.378   1.699 -0.0189 -0.9413 -0.6276
18052SOL    HW156473   8.854   5.335   1.715 -0.0603 -0.6247  0.5593
18052SOL    HW256474   8.717   5.313   1.654  0.0839 -1.9819  0.6970
18053SOL     OW56475   4.333   8.794   3.527 -0.1862 -0.2240 -0.2543
18053SOL    HW156476   4.407   8.739   3.552 -1.6045 -1.8627  0.4814
18053SOL    HW256477   4.280   8.801   3.606 -1.5928 -0.3365 -1.1499
18054SOL     OW56478   6.096   9.710   7.922 -0.4992  0.2630  0.2892
18054SOL    HW156479   6.106   9.656   8.001  0.4053  0.1345  0.0907
18054SOL    HW256480   6.036   9.660   7.867 -0.1253 -0.2732  0.3571
18055SOL     OW56481   7.837   2.520   5.832 -0.0776  0.7428 -0.0698
18055SOL    HW156482   7.908   2.561   5.781 -0.7564  2.4424  0.2740
18055SOL    HW256483   7.770   2.500   5.767 -0.3518  1.5846 -0.0619
18056SOL     OW56484   2.970   2.910   8.556 -0.3364  0.4956  0.2935
18056SOL    HW156485   2.992   2.956   8.475 -0.3392 -1.2117 -0.7447
18056SOL    HW256486   2.972   2.817   8.531  3.0507 -0.3746  3.0005
18057SOL     OW56487   4.471   1.772   8.756  0.0673  0.0720  0.3003
18057SOL    HW156488   4.546   1.715   8.769  0.8976  0.6607 -1.5908
18057SOL    HW256489   4.454   1.768   8.662 -1.5524  0.8483  0.5305
18058SOL     OW56490   0.045  10.065   6.806 -0.9150  0.1406 -0.2996
18058SOL    HW156491  -0.014  10.137   6.828 -0.7157 -0.2271  1.6204
18058SOL    HW256492  -0.012   9.999   6.767 -1.2686  0.9216 -1.1359
18059SOL     OW56493   6.631   5.363   0.789 -0.1472  0.1978 -0.3155
18059SOL    HW156494   6.565   5.367   0.859 -0.1445 -1.2546 -0.2091
18059SOL    HW256495   6.701   5.309   0.825  0.7066  0.9819 -0.7657
18060SOL     OW56496   0.348   4.900   1.351 -0.0244  0.2451 -0.1390
18060SOL    HW156497   0.325   4.868   1.438 -1.0882 -0.8546 -0.7910
18060SOL    HW256498   0.283   4.860   1.293  0.3509  1.3672 -1.3785
18061SOL     OW56499   2.045   1.681  10.012  0.5139  0.0007  0.4259
18061SOL    HW156500   2.010   1.594   9.992  0.4626  0.0487  0.3072
18061SOL    HW256501   2.069   1.717   9.926  1.3570 -0.2482  0.5435
18062SOL     OW56502   3.774   2.452   6.452 -0.4574 -0.0056 -0.2635
18062SOL    HW156503   3.764   2.529   6.508 -0.2764  0.4501 -0.8428
18062SOL    HW256504   3.718   2.385   6.492 -0.0316  0.1843  0.6749
18063SOL     OW56505   1.986   8.423   6.054 -0.1611  0.1687 -0.3377
18063SOL    HW156506   2.013   8.403   6.143 -0.6628  1.1411  0.0550
18063SOL    HW256507   2.006   8.344   6.004  0.0627 -0.4137  0.6463
18064SOL     OW56508   4.630   7.660   5.663  0.0851  0.2691  0.1368
18064SOL    HW156509   4.704   7.601   5.676  0.7513  0.7928 -1.0169
18064SOL    HW256510   4.660   7.745   5.696  0.3446  0.6798 -1.0737
18065SOL     OW56511   7.031   1.303   7.437 -0.6024 -0.2270 -0.3775
18065SOL    HW156512   6.988   1.345   7.362 -1.6374 -1.5190 -0.5596
18065SOL    HW256513   6.958   1.267   7.488  0.2091 -1.4479 -0.0439
18066SOL     OW56514   1.600   4.661   3.901  0.1020  0.2707 -0.1660
18066SOL    HW156515   1.673   4.648   3.962  0.2757 -0.5748 -0.5359
18066SOL    HW256516   1.522   4.666   3.957  0.1016 -1.8213  0.0878
18067SOL     OW56517   4.351   4.170   5.283 -0.2865  0.0125 -0.0372
18067SOL    HW156518   4.401   4.097   5.247  1.9104  0.3007  2.1866
18067SOL    HW256519   4.335   4.146   5.374  0.4659  2.2318  0.7407
18068SOL     OW56520   1.335   0.481   0.692 -0.5597  0.1620 -0.0715
18068SOL    HW156521   1.430   0.480   0.683 -0.2167 -0.0805  2.8597
18068SOL    HW256522   1.306   0.406   0.639  0.9660 -0.4072 -0.1611
18069SOL     OW56523   4.269   1.903   2.083  0.2955 -0.3810  0.0591
18069SOL    HW156524   4.182   1.873   2.109  0.6284 -0.1922  1.4733
18069SOL    HW256525   4.253   1.965   2.012 -0.5694 -1.8949 -1.1611
18070SOL     OW56526   1.883   4.814   6.186 -0.2555 -0.3417  0.3228
18070SOL    HW156527   1.803   4.797   6.237  0.2785 -0.6328  1.0816
18070SOL    HW256528   1.947   4.753   6.221  0.7428  0.9148  0.7889
18071SOL     OW56529   2.347   9.247   3.677 -0.3148 -0.0260 -0.1481
18071SOL    HW156530   2.432   9.281   3.707  0.3995 -1.1694 -0.7877
18071SOL    HW256531   2.305   9.214   3.757  1.0418 -1.9321 -0.1484
18072SOL     OW56532   4.957   3.110   6.709 -0.0011 -0.1332 -0.1517
18072SOL    HW156533   4.888   3.081   6.769 -0.3239 -0.7992 -0.8208
18072SOL    HW256534   4.964   3.204   6.724 -0.7628 -0.1257  0.2303
18073SOL     OW56535   7.507   1.739   0.187  0.0605  0.5286  0.2364
18073SOL    HW156536   7.591   1.694   0.177 -0.9998 -1.0252 -4.2845
18073SOL    HW256537   7.474   1.711   0.272  1.4971 -3.8594 -0.4217
18074SOL     OW56538   7.043   7.149   2.576 -0.2556  0.3877 -0.2867
18074SOL    HW156539   7.016   7.068   2.619  0.7653  0.5958  0.7910
18074SOL    HW256540   7.136   7.157   2.595 -0.4920  2.2137  0.3135
18075SOL     OW56541  10.127   3.070   8.944 -0.0754  0.2667 -0.2589
18075SOL    HW156542  10.168   3.111   8.868 -1.5181 -1.0193 -1.8041
18075SOL    HW256543  10.199   3.057   9.005  1.5748 -0.5289 -2.2391
18076SOL     OW56544   4.846   7.348   0.231 -0.9514 -0.1686 -0.2416
18076SOL    HW156545   4.923   7.384   0.187 -1.3470 -0.4022 -1.1306
18076SOL    HW256546   4.849   7.386   0.319 -0.3792  0.6185 -0.5909
18077SOL     OW56547   8.617  10.271   6.796 -0.3431  0.1959  0.0896
18077SOL    HW156548   8.546  10.314   6.842  0.9672  1.5181  0.9851
18077SOL    HW256549   8.593  10.276   6.704 -1.8694 -0.3304  0.4291
18078SOL     OW56550   6.386   3.882   0.970 -0.4961  0.2993  0.6462
18078SOL    HW156551   6.351   3.889   0.881  0.7027  1.0382  0.2057
18078SOL    HW256552   6.441   3.960   0.980  0.6844 -0.6083  1.4459
18079SOL     OW56553   9.377   1.732   3.620 -0.0086  0.7202 -0.3498
18079SOL    HW156554   9.366   1.686   3.537 -0.3983  1.9436 -1.0058
18079SOL    HW256555   9.462   1.776   3.612  0.0537  0.6648 -0.0153
18080SOL     OW56556   6.554   1.390   5.154  0.0332 -0.4648  0.3846
18080SOL    HW156557   6.640   1.350   5.163  0.5946  0.8574  1.0506
18080SOL    HW256558   6.566   1.480   5.183 -2.0636 -0.8279  2.7754
18081SOL     OW56559   9.303   0.080   6.292  0.5684  0.4410  0.3251
18081SOL    HW156560   9.388   0.087   6.336  1.1731  1.2159 -0.8962
18081SOL    HW256561   9.306  -0.004   6.247  0.0103 -0.2826  1.5837
18082SOL     OW56562  10.281   2.708   1.280 -0.0136 -0.3491 -0.1170
18082SOL    HW156563  10.267   2.622   1.241 -0.1953 -0.4046  0.0673
18082SOL    HW256564  10.268   2.694   1.374 -0.7177  0.0230 -0.1560
18083SOL     OW56565   5.099   8.049   5.359 -0.1768 -0.1612 -0.0322
18083SOL    HW156566   5.099   8.007   5.273 -0.3608 -2.9107  1.2163
18083SOL    HW256567   5.163   8.120   5.350 -1.3841  0.7251 -2.8625
18084SOL     OW56568  10.098   9.525   0.403  0.4967 -0.4012 -0.0443
18084SOL    HW156569  10.060   9.604   0.363 -0.3443 -2.2389 -3.2420
18084SOL    HW256570  10.189   9.525   0.374 -0.2356 -1.9930 -2.7324
18085SOL     OW56571   7.060   9.573   1.437 -0.1358 -0.4119  0.1200
18085SOL    HW156572   6.969   9.543   1.438 -0.2967  0.0647  0.1782
18085SOL    HW256573   7.100   9.526   1.364  0.2173 -2.4363  1.5333
18086SOL     OW56574   5.941   2.378   2.598 -0.8354 -0.2603 -0.2607
18086SOL    HW156575   5.875   2.440   2.630  0.5824  1.0807  0.1723
18086SOL    HW256576   5.891   2.314   2.548 -2.3757  1.1701 -0.6415
18087SOL     OW56577   6.655   4.720   3.889  0.0175 -0.2988  0.0376
18087SOL    HW156578   6.604   4.648   3.853  0.7078 -0.7929  0.0303
18087SOL    HW256579   6.627   4.727   3.980 -0.0047 -0.6201  0.0543
18088SOL     OW56580   6.585   5.955  10.588 -0.6001  0.3160 -0.1994
18088SOL    HW156581   6.493   5.943  10.609 -0.6443  0.9129 -0.0510
18088SOL    HW256582   6.631   5.945  10.671 -0.4098 -1.0919 -0.4376
18089SOL     OW56583   0.226   2.853   2.591 -0.1694 -0.4032 -0.5843
18089SOL    HW156584   0.213   2.770   2.637 -2.1555 -0.2199 -0.7118
18089SOL    HW256585   0.139   2.876   2.558  0.3637  1.6442 -0.7089
18090SOL     OW56586   1.897   8.670   8.837 -0.4577  0.1557  0.6117
18090SOL    HW156587   1.894   8.622   8.920 -0.8314 -0.4866  0.2348
18090SOL    HW256588   1.990   8.671   8.814 -0.3035  0.6655  1.2201
18091SOL     OW56589   0.309   5.838   9.854 -0.5547  0.5499 -0.2360
18091SOL    HW156590   0.336   5.777   9.923 -1.1791  0.6081  0.0697
18091SOL    HW256591   0.293   5.782   9.778  0.2232  0.4958 -0.3712
18092SOL     OW56592  10.328   8.017   2.563  0.2372 -0.3497  0.2364
18092SOL    HW156593  10.282   8.029   2.646 -3.2872 -0.3905 -1.5542
18092SOL    HW256594  10.271   7.961   2.511  1.6319  0.7576 -2.7353
18093SOL     OW56595   8.831   8.118   2.132 -0.8515  0.0341  0.5010
18093SOL    HW156596   8.742   8.084   2.133 -0.8542  0.0398  0.4143
18093SOL    HW256597   8.879   8.059   2.073 -1.3014  1.3207 -1.2098
18094SOL     OW56598   2.333   3.467   3.374 -0.2032 -0.0905  0.0252
18094SOL    HW156599   2.261   3.424   3.421 -0.3296 -0.5828 -0.6066
18094SOL    HW256600   2.313   3.560   3.383 -1.6763 -0.2402 -1.2561
18095SOL     OW56601   7.747   9.548   5.593  0.1978 -0.4049  0.7292
18095SOL    HW156602   7.754   9.513   5.504  0.6813 -2.2508  1.4376
18095SOL    HW256603   7.790   9.633   5.589 -2.4922  1.0192 -1.4757
18096SOL     OW56604   6.164   7.903   3.663  0.4739  0.3300  0.5258
18096SOL    HW156605   6.172   7.998   3.655 -0.4875  0.6405  2.6851
18096SOL    HW256606   6.079   7.882   3.624  0.4926  0.3970  0.4479
18097SOL     OW56607   1.939   3.276   5.240 -0.5836  0.2011  0.1159
18097SOL    HW156608   1.997   3.284   5.164 -0.4698  0.6883  0.2509
18097SOL    HW256609   1.935   3.365   5.276 -3.1359  0.6864 -1.1629
18098SOL     OW56610   0.776   2.054   8.382 -0.1736  0.7687 -0.5060
18098SOL    HW156611   0.695   2.075   8.335 -0.9494  0.8737  0.7992
18098SOL    HW256612   0.845   2.096   8.332 -1.0094  1.2227 -1.3117
18099SOL     OW56613   7.667   3.499   1.119 -0.3300  0.6862  0.3951
18099SOL    HW156614   7.670   3.456   1.033  1.7436  0.2653  0.6172
18099SOL    HW256615   7.653   3.592   1.099 -1.1093  0.4276 -0.3138
18100SOL     OW56616   2.955   7.560   0.439  0.2537  0.0384 -0.6143
18100SOL    HW156617   2.964   7.654   0.426  0.5287  0.2502  0.9317
18100SOL    HW256618   3.038   7.523   0.408  0.5622  0.4230 -0.2599
18101SOL     OW56619  10.466   5.419   1.251  0.7291 -0.4173 -0.2131
18101SOL    HW156620  10.393   5.478   1.232 -0.3517 -1.3159  0.9357
18101SOL    HW256621  10.433   5.332   1.228  0.7202 -1.0591  1.9561
18102SOL     OW56622   3.088   2.036   7.743 -0.6440 -0.1307 -0.2868
18102SOL    HW156623   3.015   1.980   7.769 -0.4376  0.0887  0.8093
18102SOL    HW256624   3.092   2.103   7.811  1.2400 -0.7475  0.2700
18103SOL     OW56625   5.249   7.030   9.909 -0.1135  0.4944 -0.4819
18103SOL    HW156626   5.220   6.948   9.948  0.1512  1.1836  1.2788
18103SOL    HW256627   5.171   7.067   9.868 -0.9826  0.7520  1.3088
18104SOL     OW56628   4.536   2.926   0.856  0.3333  0.6104  0.0252
18104SOL    HW156629   4.559   2.908   0.947  1.0483  0.3475 -0.1928
18104SOL    HW256630   4.521   2.839   0.818  0.8828  0.6592 -0.3135
18105SOL     OW56631   0.942   4.899   3.061  0.6513 -0.5335 -0.0050
18105SOL    HW156632   1.014   4.932   3.115  1.2763  0.1021 -1.1771
18105SOL    HW256633   0.968   4.921   2.971 -0.5098 -1.2592 -0.5395
18106SOL     OW56634   0.125   8.553   5.451  0.5646 -0.2054 -0.4203
18106SOL    HW156635   0.160   8.528   5.537 -0.6415 -0.5164 -0.0022
18106SOL    HW256636   0.096   8.643   5.462 -2.2297 -1.1224  0.3956
18107SOL     OW56637   0.606   7.565   0.830  0.1194 -0.5635 -0.3442
18107SOL    HW156638   0.670   7.532   0.892 -0.7464 -4.6038 -1.3220
18107SOL    HW256639   0.628   7.522   0.747 -2.5575 -0.4861 -1.1900
18108SOL     OW56640   1.006   8.559   8.951  0.6270  0.4833 -0.1488
18108SOL    HW156641   0.934   8.500   8.929  1.4748 -0.1001 -1.4982
18108SOL    HW256642   1.018   8.612   8.873  2.2448 -0.0672 -0.3083
18109SOL     OW56643   7.978  10.282   5.634 -0.3966 -0.0446  0.1979
18109SOL    HW156644   7.979  10.349   5.703  2.0819  0.3085 -0.1111
18109SOL    HW256645   8.026  10.208   5.671  0.0815 -0.2389 -0.7781
18110SOL     OW56646   5.808   8.587   1.364  0.2997  0.1998 -0.0469
18110SOL    HW156647   5.882   8.551   1.413  0.5146  0.7395  0.0353
18110SOL    HW256648   5.739   8.597   1.429  0.6666  1.1503  0.2107
18111SOL     OW56649   9.201   2.395   5.596 -0.1067  0.3969 -0.1973
18111SOL    HW156650   9.175   2.404   5.687  3.2312  0.9458  0.8504
18111SOL    HW256651   9.192   2.483   5.559 -1.7760  0.1040 -0.5288
18112SOL     OW56652   4.203   2.884   3.773 -0.2271  0.0875  0.2393
18112SOL    HW156653   4.248   2.835   3.704 -0.0202  0.1910  0.3014
18112SOL    HW256654   4.171   2.963   3.729 -0.6770 -0.1637  0.1083
18113SOL     OW56655   5.307   6.986  10.545  0.3281 -0.1710  0.3640
18113SOL    HW156656   5.346   6.984  10.457  2.1624  2.6836  0.9726
18113SOL    HW256657   5.382   6.979  10.604 -0.5266  1.1298  1.6540
18114SOL     OW56658   7.452   2.477   9.900 -0.7177  0.5044  0.3796
18114SOL    HW156659   7.395   2.461   9.975 -1.5016 -1.3171 -0.5265
18114SOL    HW256660   7.500   2.395   9.890 -1.2708  0.3764 -1.6164
18115SOL     OW56661   4.548   0.821   5.940 -0.1288  0.5595  0.2157
18115SOL    HW156662   4.618   0.774   5.985 -0.4215  0.7521  0.8825
18115SOL    HW256663   4.576   0.913   5.942  0.5432  0.4235 -1.2668
18116SOL     OW56664   0.827   5.863   2.709 -0.0164  0.2943 -0.2548
18116SOL    HW156665   0.772   5.793   2.744 -0.9833  1.6766  1.1057
18116SOL    HW256666   0.844   5.920   2.784 -0.9550  2.6149 -1.6874
18117SOL     OW56667   0.514   8.771   5.158  0.0192 -0.5653 -0.2804
18117SOL    HW156668   0.554   8.817   5.084  0.9908 -2.0574 -0.7328
18117SOL    HW256669   0.452   8.710   5.118 -1.7790  0.7920  0.3499
18118SOL     OW56670   7.321   7.525   4.396 -0.0524 -0.3532 -0.0434
18118SOL    HW156671   7.302   7.617   4.379  0.8237 -0.3554 -1.1157
18118SOL    HW256672   7.374   7.497   4.322  2.1087 -0.9628  1.6361
18119SOL     OW56673   1.344   4.480   1.217  0.1634  0.2531  0.1519
18119SOL    HW156674   1.299   4.532   1.284  0.1592  0.1895  0.1990
18119SOL    HW256675   1.421   4.446   1.262 -0.0219 -0.0785  0.2270
18120SOL     OW56676   4.688   7.967   4.461  0.1051 -0.6496 -0.3628
18120SOL    HW156677   4.601   7.934   4.437 -0.4146 -0.4454  1.1277
18120SOL    HW256678   4.728   7.897   4.512  0.7337 -0.6438 -0.8331
18121SOL     OW56679   9.702  10.396   2.747  0.0384  0.1304 -0.2892
18121SOL    HW156680   9.665  10.478   2.781 -0.7632 -0.8261  1.2531
18121SOL    HW256681   9.635  10.330   2.764  1.3359 -1.1607  0.0405
18122SOL     OW56682   5.864   0.184   3.512  0.0298 -0.3953  0.0062
18122SOL    HW156683   5.858   0.234   3.430  2.3116 -0.9318 -0.5602
18122SOL    HW256684   5.817   0.237   3.576 -0.1405  1.0074 -1.2208
18123SOL     OW56685  10.302   3.270   5.634 -0.5782 -0.9014 -0.2527
18123SOL    HW156686  10.238   3.205   5.603 -2.1004  0.8944 -1.0768
18123SOL    HW256687  10.266   3.354   5.606  1.6662  0.2751  0.1875
18124SOL     OW56688   6.750   2.329   9.055  0.1215  0.3904 -0.6640
18124SOL    HW156689   6.790   2.284   9.130  0.7819 -1.5558 -2.0917
18124SOL    HW256690   6.820   2.384   9.021 -0.4330  1.9350  0.5925
18125SOL     OW56691   4.982   9.720   3.635  0.4525  0.0217  0.7502
18125SOL    HW156692   5.029   9.637   3.629  0.0163 -0.1994  0.3082
18125SOL    HW256693   4.894   9.700   3.602  0.6263  0.8834 -0.2543
18126SOL     OW56694   7.635   0.714   9.578 -0.1697  0.3657  0.0901
18126SOL    HW156695   7.678   0.630   9.596  0.9753  1.2164  1.5925
18126SOL    HW256696   7.680   0.747   9.500 -0.8370 -0.5351 -0.6946
18127SOL     OW56697  10.155   5.466   7.850  0.2137 -0.7730 -0.4582
18127SOL    HW156698  10.175   5.382   7.891  2.7118  0.0282  0.1453
18127SOL    HW256699  10.177   5.531   7.916  0.5637  0.4381 -1.7250
18128SOL     OW56700   3.240   7.800   4.508  0.2493 -0.4128 -0.2160
18128SOL    HW156701   3.297   7.871   4.480 -0.9575  0.2725 -1.0492
18128SOL    HW256702   3.155   7.841   4.522 -0.1486 -1.4640  0.6261
18129SOL     OW56703   9.116   4.672   2.428 -0.2474 -0.2348  0.7380
18129SOL    HW156704   9.200   4.627   2.437 -0.3358 -0.4880  0.3251
18129SOL    HW256705   9.124   4.749   2.484  0.4883  0.0671  0.2369
18130SOL     OW56706   2.309   3.833   5.142 -0.2239  0.0652 -0.3326
18130SOL    HW156707   2.262   3.789   5.213 -1.7244  0.3373 -1.1127
18130SOL    HW256708   2.399   3.804   5.152 -0.5676 -0.6300  1.1217
18131SOL     OW56709   7.312  10.310   4.806  0.2445  0.6581  0.0537
18131SOL    HW156710   7.279  10.394   4.775 -1.0643 -0.0849 -0.6358
18131SOL    HW256711   7.344  10.267   4.726 -0.4474 -0.0876  0.1774
18132SOL     OW56712   0.721   8.288   7.560 -0.2287  0.4916  0.4601
18132SOL    HW156713   0.792   8.348   7.537 -1.5154  1.0041 -2.7043
18132SOL    HW256714   0.738   8.209   7.509 -0.5830 -0.3804  1.6562
18133SOL     OW56715   9.425   9.465   0.678  0.3229  0.1393  0.6233
18133SOL    HW156716   9.461   9.383   0.711  2.4415  0.1561 -1.3424
18133SOL    HW256717   9.412   9.450   0.584 -3.1802  0.8067  0.8845
18134SOL     OW56718   5.881   7.247   2.729  0.2583  0.0626 -0.1866
18134SOL    HW156719   5.827   7.313   2.773  0.0886 -0.8090  0.9493
18134SOL    HW256720   5.965   7.251   2.775  0.5523  0.1167 -0.7212
18135SOL     OW56721   9.515   1.800   9.900 -0.3723 -0.6045 -0.5832
18135SOL    HW156722   9.440   1.849   9.934  0.0336  0.1728 -0.7923
18135SOL    HW256723   9.559   1.766   9.978  0.3078  0.8072 -0.3040
18136SOL     OW56724   5.656   0.483   1.404  0.4323  0.2009  0.4434
18136SOL    HW156725   5.695   0.419   1.345  0.5274  1.1113 -0.4986
18136SOL    HW256726   5.609   0.544   1.347 -0.0794  0.6854  1.3582
18137SOL     OW56727   5.021   8.127   2.505  0.0979  0.2682  0.1081
18137SOL    HW156728   5.051   8.187   2.437  1.3846  0.0216  0.4429
18137SOL    HW256729   5.046   8.169   2.587 -0.4752  0.0499  0.4017
18138SOL     OW56730   6.254   7.991   5.829  0.4258 -0.2137  0.0001
18138SOL    HW156731   6.248   8.032   5.742 -0.6770 -0.7867 -0.2119
18138SOL    HW256732   6.193   8.042   5.883  0.4583 -0.4057  0.2185
18139SOL     OW56733   7.068   7.093   5.417 -0.5760  0.2922  0.5007
18139SOL    HW156734   6.995   7.068   5.473  0.1902 -2.0970  0.5572
18139SOL    HW256735   7.120   7.153   5.471  0.0274 -1.7802  2.3662
18140SOL     OW56736   3.046   2.620   9.034  0.4070  0.0378 -0.0790
18140SOL    HW156737   3.116   2.614   8.969  1.1009 -0.6071  0.7158
18140SOL    HW256738   3.019   2.529   9.048  0.1563  0.1899  0.4209
18141SOL     OW56739   8.699   7.573   0.177  0.4025  0.2572 -0.1049
18141SOL    HW156740   8.634   7.581   0.107 -1.2039 -1.4997  1.0867
18141SOL    HW256741   8.648   7.546   0.254  2.3723  0.1774  1.2355
18142SOL     OW56742   6.505   7.638   2.967  0.3101 -0.7841 -0.7050
18142SOL    HW156743   6.588   7.624   3.013  1.0444 -0.2147 -1.8161
18142SOL    HW256744   6.519   7.601   2.880 -0.5177 -0.4624 -0.9835
18143SOL     OW56745   6.796   1.088   3.758  0.4232 -0.4689 -0.1701
18143SOL    HW156746   6.867   1.145   3.788 -1.8053  0.9580  2.9954
18143SOL    HW256747   6.783   1.027   3.830 -0.2354 -2.0864 -1.6007
18144SOL     OW56748   5.679   2.949   1.768 -0.5012  0.4816  0.4096
18144SOL    HW156749   5.625   2.891   1.820 -2.9972  1.6693 -0.7069
18144SOL    HW256750   5.673   3.034   1.812  0.5155  0.6368  0.2823
18145SOL     OW56751   5.760   2.844   2.608  0.1601 -0.4808  0.0794
18145SOL    HW156752   5.830   2.903   2.580 -0.3275  0.2267  0.3200
18145SOL    HW256753   5.693   2.854   2.541  0.5767 -1.7211 -0.5506
18146SOL     OW56754   0.862   4.643   8.897  0.4216 -0.2688 -0.1604
18146SOL    HW156755   0.893   4.626   8.986  1.7940 -0.8541 -0.7191
18146SOL    HW256756   0.877   4.561   8.851 -0.7015 -0.1158 -0.8346
18147SOL     OW56757   3.058   0.245   3.000  0.2002  0.8349  0.0699
18147SOL    HW156758   3.095   0.320   2.954  1.7428  0.2030  0.2275
18147SOL    HW256759   3.070   0.172   2.940 -2.0011  0.8096 -0.4123
18148SOL     OW56760   4.062   0.021   6.351  0.1567  0.5645 -0.4814
18148SOL    HW156761   3.981  -0.024   6.376  0.2953 -0.3224 -1.5863
18148SOL    HW256762   4.119   0.012   6.428 -0.4549  0.3937 -0.0446
18149SOL     OW56763   5.809   0.835   5.492 -0.1744 -0.0318  0.8544
18149SOL    HW156764   5.816   0.808   5.401  0.7205  0.5675  0.7321
18149SOL    HW256765   5.899   0.832   5.525 -0.5328 -0.5611  1.8144
18150SOL     OW56766  10.205   1.664   1.057 -0.1398 -0.5850 -0.0129
18150SOL    HW156767  10.289   1.672   1.102  0.4698 -1.5822 -0.9147
18150SOL    HW256768  10.225   1.677   0.964 -1.5596  2.6950 -0.0059
18151SOL     OW56769   1.539   4.393   5.376 -0.4704 -0.1738 -0.1944
18151SOL    HW156770   1.595   4.328   5.418  0.3763 -0.0978 -1.1570
18151SOL    HW256771   1.589   4.475   5.380 -0.8335  0.0622 -0.4016
18152SOL     OW56772   3.703   3.086  10.381  0.3106 -0.1856 -0.2230
18152SOL    HW156773   3.625   3.060  10.332 -0.2539 -0.1802  0.6359
18152SOL    HW256774   3.776   3.052  10.331 -0.2795 -0.7712 -0.7009
18153SOL     OW56775   7.511   7.045   7.980 -0.1926  0.2748 -0.5000
18153SOL    HW156776   7.487   7.132   8.010 -1.1677 -0.4712  1.0378
18153SOL    HW256777   7.443   7.021   7.917 -0.9747 -0.0644  0.4511
18154SOL     OW56778   3.636   4.821   0.882 -0.7207 -0.1749 -0.3467
18154SOL    HW156779   3.546   4.787   0.874 -0.7973  0.3543 -2.2913
18154SOL    HW256780   3.624   4.913   0.905 -0.6087 -0.4872  1.0344
18155SOL     OW56781   7.370   0.903   1.150  0.2301  0.6878 -0.1214
18155SOL    HW156782   7.276   0.919   1.159  0.1671  1.2308 -1.5530
18155SOL    HW256783   7.376   0.809   1.131  0.2195 -0.0006  2.7944
18156SOL     OW56784   2.230   2.117   5.405 -0.4875 -0.1573 -0.0850
18156SOL    HW156785   2.249   2.054   5.474 -2.3996 -0.2142  0.4422
18156SOL    HW256786   2.147   2.087   5.367 -0.5684  1.0943 -0.9555
18157SOL     OW56787   8.257   8.379   9.662  0.3441  0.3070 -0.0022
18157SOL    HW156788   8.241   8.338   9.747  0.2072  0.4537  0.0438
18157SOL    HW256789   8.201   8.333   9.601  0.9384 -0.2468 -0.1394
18158SOL     OW56790   4.125   0.670   4.936  0.5785  0.0239  0.3833
18158SOL    HW156791   4.125   0.718   4.853  3.1313  0.3966  0.5063
18158SOL    HW256792   4.212   0.686   4.972  0.7641 -2.9044  1.5098
18159SOL     OW56793   2.306   4.841  10.138 -0.2844 -0.2653 -0.1017
18159SOL    HW156794   2.252   4.766  10.111 -0.8953 -0.5005  1.6127
18159SOL    HW256795   2.333   4.882  10.056 -2.8333 -0.3195 -1.0724
18160SOL     OW56796   7.942   9.843   1.544 -0.2143 -0.0717  0.0075
18160SOL    HW156797   7.874   9.782   1.515 -0.1053  0.3105 -1.1245
18160SOL    HW256798   7.900   9.894   1.613 -0.8587 -0.3027 -0.2051
18161SOL     OW56799  10.539   2.878   3.826  0.4196 -0.1236  0.1071
18161SOL    HW156800  10.630   2.855   3.808  0.5068 -0.0955  0.4916
18161SOL    HW256801  10.540   2.973   3.838  0.1141  0.0643 -1.1743
18162SOL     OW56802   9.555   4.796   0.440  0.2887 -0.1039  0.1067
18162SOL    HW156803   9.468   4.764   0.416  0.3256 -0.7477  0.8003
18162SOL    HW256804   9.609   4.717   0.448  0.7644  0.2382  0.3602
18163SOL     OW56805   1.563   9.821   3.528  0.4776 -0.4966  0.7712
18163SOL    HW156806   1.574   9.894   3.589  0.7420  0.7537 -0.7254
18163SOL    HW256807   1.537   9.747   3.584  1.8839  0.2752  2.5382
18164SOL     OW56808   1.617   2.342   4.492 -0.3567  0.1799 -0.8286
18164SOL    HW156809   1.637   2.431   4.521 -0.8980  0.3605 -1.0008
18164SOL    HW256810   1.687   2.321   4.431  0.6668 -0.1145  0.3940
18165SOL     OW56811   8.138   6.246   9.851 -0.1770  0.4689  0.2386
18165SOL    HW156812   8.090   6.189   9.792 -0.1788  0.6060  0.1082
18165SOL    HW256813   8.127   6.205   9.937 -1.5919  1.1625  0.4279
18166SOL     OW56814   8.683   6.658   0.788  0.4769 -0.2052 -0.5756
18166SOL    HW156815   8.747   6.728   0.790 -0.3156  0.5288 -0.0318
18166SOL    HW256816   8.631   6.671   0.868 -0.2275 -0.8806 -0.9102
18167SOL     OW56817   7.838   6.941  10.523 -0.0160  0.4704 -0.8627
18167SOL    HW156818   7.851   7.035  10.508  0.2474  0.3787 -1.2473
18167SOL    HW256819   7.920   6.901  10.492  0.8400  0.3037  1.4240
18168SOL     OW56820   0.863   3.573   4.636  0.2717 -0.0882 -0.9331
18168SOL    HW156821   0.775   3.560   4.601 -0.4116  1.6313  0.0106
18168SOL    HW256822   0.856   3.651   4.692  2.1175 -0.6278  0.1581
18169SOL     OW56823   2.555   2.407   7.125  0.1100 -0.4529  0.5821
18169SOL    HW156824   2.541   2.353   7.048 -0.5221 -0.0417  0.4000
18169SOL    HW256825   2.479   2.465   7.128  1.3207  1.2045  0.1371
18170SOL     OW56826   4.660   3.984   2.548  0.1163  0.3685  0.3793
18170SOL    HW156827   4.575   4.022   2.572 -0.7177  0.0723 -1.9119
18170SOL    HW256828   4.724   4.047   2.580 -1.0777  1.8884 -0.0953
18171SOL     OW56829   8.205   3.182   8.065  0.3246  0.4809 -0.5705
18171SOL    HW156830   8.135   3.124   8.035  0.5905 -0.8258  1.1516
18171SOL    HW256831   8.285   3.144   8.028  0.4878 -0.2618  0.4778
18172SOL     OW56832   5.269   1.618   1.520 -0.0079  0.3350 -0.1649
18172SOL    HW156833   5.281   1.609   1.426  1.2080  0.2575 -0.0182
18172SOL    HW256834   5.211   1.693   1.530 -0.5328  0.0465 -0.9894
18173SOL     OW56835   3.582   1.018   0.386  0.2860  0.2430 -0.6368
18173SOL    HW156836   3.610   1.021   0.295  1.4241 -0.8563 -0.3452
18173SOL    HW256837   3.613   1.101   0.424 -0.1702  0.6914 -1.2238
18174SOL     OW56838   4.070   7.291   3.634 -0.3506  0.3293 -0.0768
18174SOL    HW156839   4.085   7.205   3.594  0.3961  0.4503 -0.0699
18174SOL    HW256840   4.028   7.342   3.566  0.9205  0.5355 -0.7278
18175SOL     OW56841   3.230   4.365   7.504 -0.7034  0.0166 -0.6428
18175SOL    HW156842   3.211   4.295   7.566  2.0045  0.4687  0.8171
18175SOL    HW256843   3.172   4.437   7.532 -1.4725 -0.6855 -0.3861
18176SOL     OW56844   6.820   6.432   6.439  0.5139 -0.3059 -0.5293
18176SOL    HW156845   6.765   6.375   6.493  0.0421 -0.5009 -1.1957
18176SOL    HW256846   6.791   6.415   6.349 -0.1569  1.5171 -0.7051
18177SOL     OW56847   2.399   2.931   3.957 -0.2386  0.3254  0.3826
18177SOL    HW156848   2.305   2.944   3.949 -0.1968  0.6375  0.3935
18177SOL    HW256849   2.433   3.017   3.980  0.1811  0.4618 -0.7051
18178SOL     OW56850   7.302   0.939  10.154 -0.0891  0.4459  0.0995
18178SOL    HW156851   7.212   0.921  10.125  0.6138 -1.6835 -0.9784
18178SOL    HW256852   7.355   0.933  10.075  1.5267 -2.7954  1.2073
18179SOL     OW56853   4.778   1.699   1.801  0.0259 -0.3797  0.0230
18179SOL    HW156854   4.745   1.721   1.888  1.0515  1.8036 -0.0836
18179SOL    HW256855   4.873   1.708   1.808  0.1252 -0.2012 -1.3181
18180SOL     OW56856   4.721   5.119   2.574  0.3281 -0.0888  0.1021
18180SOL    HW156857   4.731   5.049   2.509 -1.9635 -0.3033 -0.0964
18180SOL    HW256858   4.718   5.072   2.658 -1.9413 -0.3611 -0.0857
18181SOL     OW56859   0.467   9.928   3.171  0.0916 -0.7578 -0.3430
18181SOL    HW156860   0.547   9.980   3.167 -0.1809 -0.3646 -0.7316
18181SOL    HW256861   0.399   9.990   3.195 -0.0791 -1.1177  0.1302
18182SOL     OW56862   1.291   9.143   7.512  0.1036 -0.3815  0.2422
18182SOL    HW156863   1.345   9.181   7.444  0.1384 -1.6494 -0.4628
18182SOL    HW256864   1.299   9.049   7.500 -0.7526 -0.6186  1.3232
18183SOL     OW56865   8.581   1.334   2.300  0.4073  0.1051  0.0830
18183SOL    HW156866   8.640   1.261   2.284  0.9579  1.1147 -3.1698
18183SOL    HW256867   8.593   1.393   2.225 -0.4779  3.2494  2.1745
18184SOL     OW56868   7.749   1.523   1.202 -0.0485 -0.0641 -0.1713
18184SOL    HW156869   7.689   1.457   1.167  0.5739 -0.9463  0.4084
18184SOL    HW256870   7.716   1.540   1.291 -0.5866  0.8935 -0.5351
18185SOL     OW56871   8.551   5.265   3.844  0.0112  0.3409 -0.1844
18185SOL    HW156872   8.502   5.235   3.767  0.0728 -0.2895  0.0150
18185SOL    HW256873   8.489   5.318   3.893 -0.1574  0.3971 -0.4589
18186SOL     OW56874   1.576   4.008   7.302 -0.1264 -0.0086 -0.5450
18186SOL    HW156875   1.670   4.028   7.309 -0.1350  0.1534 -0.8862
18186SOL    HW256876   1.560   4.001   7.208 -0.5505  0.4399 -0.5099
18187SOL     OW56877   6.069   1.324   1.311 -0.2404 -0.0881  0.6993
18187SOL    HW156878   5.991   1.315   1.257 -0.5907 -0.0183  1.1811
18187SOL    HW256879   6.068   1.247   1.368  1.7757 -1.8148 -1.4269
18188SOL     OW56880   4.642   3.589   9.286 -0.2410  0.6588  0.0616
18188SOL    HW156881   4.638   3.681   9.257 -0.2346  0.6289 -0.0350
18188SOL    HW256882   4.675   3.594   9.376  0.6883  0.6840 -0.2723
18189SOL     OW56883   9.640   6.231   5.159  0.5145  0.6764  0.3221
18189SOL    HW156884   9.591   6.196   5.084  1.2597  2.4194 -1.0551
18189SOL    HW256885   9.576   6.234   5.230  0.3499 -3.1819  0.5611
18190SOL     OW56886   5.845   8.348   3.430  0.1452  0.1158 -0.7673
18190SOL    HW156887   5.833   8.254   3.419 -2.1942  0.3464 -0.7725
18190SOL    HW256888   5.793   8.387   3.359 -0.6830  1.4069  0.4766
18191SOL     OW56889   3.435   8.102   0.386 -0.2633  0.1720 -0.3688
18191SOL    HW156890   3.339   8.100   0.396 -0.1829  1.5805  0.9948
18191SOL    HW256891   3.467   8.062   0.467  0.3109  0.8894 -0.2375
18192SOL     OW56892   4.776   7.412   0.889  0.0880  0.7225  0.2322
18192SOL    HW156893   4.732   7.490   0.855 -1.7769  0.3246  1.5729
18192SOL    HW256894   4.706   7.348   0.901  1.4022 -0.7506  0.3202
18193SOL     OW56895   6.757   9.802   3.364 -0.2169 -0.3526  0.1256
18193SOL    HW156896   6.779   9.739   3.432  0.3900 -0.6074 -0.2924
18193SOL    HW256897   6.666   9.825   3.380 -0.0611 -0.3588  1.0619
18194SOL     OW56898  10.032   8.163   6.615 -0.4740  0.2467 -0.5394
18194SOL    HW156899  10.089   8.207   6.678 -1.5858  1.7071 -0.5051
18194SOL    HW256900   9.961   8.127   6.668 -0.7791  0.4298 -0.8213
18195SOL     OW56901   0.903  10.377   3.645  0.5397 -0.1263 -0.0810
18195SOL    HW156902   0.827  10.332   3.682 -0.4953  1.2196 -0.4769
18195SOL    HW256903   0.959  10.396   3.720  1.0119 -2.0336  0.0894
18196SOL     OW56904   0.407   4.277   4.159 -0.1755  0.0072 -0.2605
18196SOL    HW156905   0.490   4.270   4.206  0.6156 -0.2383 -1.6440
18196SOL    HW256906   0.376   4.365   4.179  0.3675  0.0708  0.3393
18197SOL     OW56907   9.322  10.471   1.767 -0.0306  0.6317  0.1261
18197SOL    HW156908   9.301  10.378   1.773  0.1251  0.6687  1.5369
18197SOL    HW256909   9.295  10.496   1.678 -0.2779 -0.6969 -0.1947
18198SOL     OW56910   3.644   1.262   5.409  0.8933  0.3773 -0.3896
18198SOL    HW156911   3.567   1.296   5.453  1.5604  0.2446  0.9153
18198SOL    HW256912   3.609   1.198   5.347 -0.1081  1.0504 -0.5480
18199SOL     OW56913   3.902  10.012   0.807  0.9470 -0.6873 -0.0880
18199SOL    HW156914   3.840   9.982   0.874  1.9786  0.3245  1.3631
18199SOL    HW256915   3.852  10.074   0.754  0.4523 -0.5561  0.5174
18200SOL     OW56916   0.047   5.734   8.586  0.1086 -0.1769 -0.0038
18200SOL    HW156917   0.032   5.793   8.660  0.0904 -0.5149  0.2619
18200SOL    HW256918  -0.016   5.762   8.520 -1.4699 -1.3240  0.9419
18201SOL     OW56919   2.211   2.951   2.312 -0.0422  0.5022 -0.5171
18201SOL    HW156920   2.304   2.946   2.290 -0.1034 -0.3796 -0.5793
18201SOL    HW256921   2.194   3.045   2.320  0.3256  0.8027 -2.7446
18202SOL     OW56922   7.949   2.797   2.474  0.1299  0.6109 -0.6708
18202SOL    HW156923   7.988   2.845   2.401 -0.3145 -0.4307 -1.6245
18202SOL    HW256924   7.858   2.827   2.478 -0.7789 -1.5961 -2.6556
18203SOL     OW56925   3.139   9.869   7.972 -0.0801 -0.2777  0.7364
18203SOL    HW156926   3.133   9.777   7.944 -0.3157 -0.7446  2.2629
18203SOL    HW256927   3.074   9.914   7.917 -1.0779 -1.3006  1.0242
18204SOL     OW56928   9.846  10.137   1.045 -0.0162  0.0161 -0.4203
18204SOL    HW156929   9.811  10.053   1.017  1.9620 -1.4927  1.3676
18204SOL    HW256930   9.929  10.146   0.997  0.6704  0.0463  0.7508
18205SOL     OW56931   1.771   1.492   2.944  0.2125 -0.4208  0.2677
18205SOL    HW156932   1.761   1.398   2.934  0.8622 -0.4006 -0.7211
18205SOL    HW256933   1.690   1.520   2.987 -0.5698 -1.2571 -0.6068
18206SOL     OW56934   5.861   3.130  10.499  0.2761 -0.9146 -0.3940
18206SOL    HW156935   5.784   3.183  10.522 -0.4094 -1.9037 -0.3129
18206SOL    HW256936   5.869   3.068  10.571  1.9010 -0.0740  0.1993
18207SOL     OW56937   9.856   8.413   7.607  0.1815  0.4346 -0.1743
18207SOL    HW156938   9.839   8.506   7.588  0.2808  0.6305  0.6542
18207SOL    HW256939   9.951   8.406   7.607  0.2147  0.6666  1.2485
18208SOL     OW56940  10.266   1.164  10.244 -0.7539 -0.0746 -0.3712
18208SOL    HW156941  10.325   1.238  10.252  0.3137 -0.8923 -0.4672
18208SOL    HW256942  10.205   1.173  10.317  1.4384 -0.9128  1.6954
18209SOL     OW56943   2.696   8.172   1.890 -0.3808  0.3402 -0.1377
18209SOL    HW156944   2.697   8.248   1.831 -0.8340  0.4626  0.0075
18209SOL    HW256945   2.614   8.181   1.939 -0.9314 -0.7750 -0.8174
18210SOL     OW56946   2.762   0.311   6.700  0.3793  0.2609 -0.1362
18210SOL    HW156947   2.819   0.384   6.723  1.5882 -0.7279  0.1360
18210SOL    HW256948   2.734   0.275   6.784  1.5674 -0.9038 -0.2031
18211SOL     OW56949   4.183  10.561   4.250 -0.4401 -0.5558 -0.5249
18211SOL    HW156950   4.232  10.642   4.263 -2.9375  0.8844  0.6181
18211SOL    HW256951   4.165  10.530   4.339 -1.8151 -0.8633 -0.8886
18212SOL     OW56952   5.985   8.964  10.321  0.2748 -0.6145 -0.0450
18212SOL    HW156953   5.889   8.962  10.327  0.3454 -2.6231  1.4895
18212SOL    HW256954   6.006   8.902  10.252  0.4774  1.3940 -1.8983
18213SOL     OW56955   6.614   2.708   6.268  0.1569 -0.0193 -0.3129
18213SOL    HW156956   6.681   2.670   6.211  0.2614  0.8486 -0.7813
18213SOL    HW256957   6.662   2.770   6.322 -0.1606  0.1055 -0.1748
18214SOL     OW56958   4.115   3.102   4.052 -0.6348 -0.2505 -0.3904
18214SOL    HW156959   4.081   3.086   3.964  0.6118  1.0493 -1.1536
18214SOL    HW256960   4.070   3.181   4.081 -0.9148 -0.5783  0.0831
18215SOL     OW56961   3.148   6.188   6.923  0.3561  0.4359 -0.3936
18215SOL    HW156962   3.181   6.172   6.835 -1.4501 -1.2672 -0.8376
18215SOL    HW256963   3.058   6.219   6.909  0.1789  0.5299  0.8425
18216SOL     OW56964   8.515   0.299   2.058 -0.1182  0.2559 -0.0963
18216SOL    HW156965   8.433   0.344   2.080  0.7391  1.1670  1.4352
18216SOL    HW256966   8.579   0.336   2.118  1.4091 -0.5276 -1.1819
18217SOL     OW56967   4.443   1.215   0.396 -0.1128 -0.8472 -0.0809
18217SOL    HW156968   4.397   1.295   0.370 -0.1805 -0.6951  0.5067
18217SOL    HW256969   4.400   1.145   0.346 -0.8400 -0.6761  0.2950
18218SOL     OW56970   4.004   8.701   5.216 -0.1241  0.1555 -0.5562
18218SOL    HW156971   3.986   8.793   5.201 -1.8558 -0.1536 -0.5924
18218SOL    HW256972   4.014   8.694   5.311 -2.0131  0.1078 -0.3155
18219SOL     OW56973   9.638   7.128   2.680  0.2935  0.0082  0.1103
18219SOL    HW156974   9.641   7.203   2.621  0.8517  0.1622  0.3303
18219SOL    HW256975   9.700   7.150   2.750  1.2886 -1.1240 -0.3812
18220SOL     OW56976   8.402   6.363   1.705  0.1659 -0.1734  0.2312
18220SOL    HW156977   8.323   6.318   1.735  2.2682 -2.5143  2.8587
18220SOL    HW256978   8.385   6.456   1.718 -2.4192 -0.5293 -0.1746
18221SOL     OW56979   9.997   6.472   5.598  0.2718 -0.4220 -0.0692
18221SOL    HW156980  10.046   6.420   5.662 -1.2527 -0.8600  0.8000
18221SOL    HW256981   9.934   6.410   5.561 -1.2955  0.6673  0.6730
18222SOL     OW56982  10.385   0.656   8.388 -0.1396 -0.1970 -0.1083
18222SOL    HW156983  10.435   0.580   8.417  0.4871 -0.5996 -2.0685
18222SOL    HW256984  10.412   0.727   8.446  3.1460 -0.2637 -1.3524
18223SOL     OW56985   7.263   2.215   7.615 -0.0643 -0.1371 -0.6190
18223SOL    HW156986   7.337   2.263   7.653 -0.7886 -0.4398  1.3155
18223SOL    HW256987   7.302   2.160   7.547  1.1406  1.3012 -1.1558
18224SOL     OW56988   6.998   0.832   2.233  0.1054  0.1860 -0.2662
18224SOL    HW156989   7.036   0.746   2.247 -0.3011 -0.3194 -2.0065
18224SOL    HW256990   6.916   0.831   2.283  0.7341  0.0674  0.7825
18225SOL     OW56991   7.250   5.604   4.133  0.1389  0.1171  0.5660
18225SOL    HW156992   7.251   5.511   4.155  0.0779 -0.1168 -0.3645
18225SOL    HW256993   7.160   5.632   4.149 -0.0177 -0.1585  0.1812
18226SOL     OW56994   4.913  10.068   4.294 -0.4149  0.2385 -0.1527
18226SOL    HW156995   4.819  10.060   4.309 -0.3167  2.5587  2.4110
18226SOL    HW256996   4.921  10.114   4.211 -1.6058  1.0128  0.1444
18227SOL     OW56997   7.153   0.852   6.107  0.0591  0.4212 -0.9281
18227SOL    HW156998   7.168   0.928   6.051  1.9664  0.4701 -0.4490
18227SOL    HW256999   7.107   0.789   6.051 -1.4208  1.8406 -1.3645
18228SOL     OW57000   6.533   4.514   5.171  0.5560 -0.1658  0.0273
18228SOL    HW157001   6.491   4.499   5.086 -1.1327 -2.6592  1.1613
18228SOL    HW257002   6.575   4.431   5.191  1.3725  0.5546  1.4186
18229SOL     OW57003   6.052   0.881   5.608 -0.6966 -0.3171  0.2129
18229SOL    HW157004   6.104   0.956   5.578 -0.3323 -0.1779  1.1857
18229SOL    HW257005   5.991   0.918   5.672 -0.5762 -0.8395  0.6301
18230SOL     OW57006   7.099   2.086   4.725 -0.7044 -0.3725 -0.5953
18230SOL    HW157007   7.010   2.119   4.739 -0.8187 -1.1638  0.6902
18230SOL    HW257008   7.092   1.992   4.741  0.6672 -0.2295  1.1125
18231SOL     OW57009  10.160   1.248   5.791 -0.1404 -0.3202  0.0166
18231SOL    HW157010  10.076   1.208   5.812 -0.2452 -0.2381 -0.2464
18231SOL    HW257011  10.202   1.262   5.876 -1.7092  2.5429  0.4293
18232SOL     OW57012  10.479   1.421   2.599  0.0250  0.0330 -0.5186
18232SOL    HW157013  10.419   1.496   2.594 -0.2340 -0.0148  1.3545
18232SOL    HW257014  10.562   1.458   2.628 -0.1521 -0.4214  0.5938
18233SOL     OW57015   0.227   2.072   6.087  0.1516  0.0359 -0.0386
18233SOL    HW157016   0.149   2.062   6.143 -0.5153 -0.2478 -0.9877
18233SOL    HW257017   0.285   2.129   6.137 -0.2937 -0.4487  1.0788
18234SOL     OW57018   8.369   3.370   3.668 -0.2339  0.4853 -0.2321
18234SOL    HW157019   8.301   3.342   3.730 -1.3644  0.8972 -1.2580
18234SOL    HW257020   8.365   3.305   3.598  1.9185 -0.7317  0.6772
18235SOL     OW57021   1.197   5.834   8.531  0.1049  0.5302  0.3198
18235SOL    HW157022   1.216   5.772   8.460  0.6195 -0.6107  1.4178
18235SOL    HW257023   1.283   5.861   8.564 -0.1274  0.3302  1.1092
18236SOL     OW57024   1.220   7.472   1.099  0.0283 -0.2290  0.4614
18236SOL    HW157025   1.148   7.469   1.161 -1.3266  2.0677 -0.8596
18236SOL    HW257026   1.298   7.487   1.152 -0.6396 -1.2744  1.7935
18237SOL     OW57027   5.843   1.009   9.180 -0.4220 -0.0418 -0.1776
18237SOL    HW157028   5.928   0.976   9.152 -0.3890  1.2709 -1.7634
18237SOL    HW257029   5.861   1.095   9.217 -1.1203  0.5842 -1.2420
18238SOL     OW57030  10.253   7.703   1.932 -0.5410  0.1973  0.2358
18238SOL    HW157031  10.258   7.705   1.836  0.8019  1.5384  0.2903
18238SOL    HW257032  10.205   7.782   1.955  0.1515  0.4913  0.7014
18239SOL     OW57033   7.761   1.593   0.813  0.0216 -0.7707  0.9181
18239SOL    HW157034   7.841   1.602   0.762 -1.2081 -1.7736 -1.3403
18239SOL    HW257035   7.771   1.509   0.858  0.5124 -0.5809  1.1653
18240SOL     OW57036   5.977   1.913   6.346 -0.0857 -0.3853  0.2641
18240SOL    HW157037   6.044   1.854   6.380 -1.2577 -1.3699  0.9494
18240SOL    HW257038   6.001   1.999   6.379  1.0396 -0.6560  0.1831
18241SOL     OW57039   6.720   3.233   7.315  0.5835 -0.5187  0.2145
18241SOL    HW157040   6.770   3.285   7.378  0.8908 -0.7575  0.1712
18241SOL    HW257041   6.629   3.255   7.333  0.6489 -0.8070  0.9474
18242SOL     OW57042   5.381   7.856   3.536  0.0440  0.4775 -0.0900
18242SOL    HW157043   5.434   7.833   3.460 -0.3024 -1.9399  0.3219
18242SOL    HW257044   5.434   7.921   3.583  1.9509 -0.6905 -0.5113
18243SOL     OW57045   2.923   5.012   6.527 -0.2460  0.1529  0.6123
18243SOL    HW157046   2.911   5.045   6.438  0.5783  0.3308  0.5610
18243SOL    HW257047   3.012   4.977   6.529 -0.8727 -1.5204  0.8533
18244SOL     OW57048   6.837   5.738   6.720 -0.6640  0.6223 -0.0735
18244SOL    HW157049   6.753   5.782   6.703  0.4095  1.6513 -3.5458
18244SOL    HW257050   6.818   5.645   6.704 -1.6330  0.5052  1.5576
18245SOL     OW57051   6.394   4.024   4.241 -0.2761  0.2210 -0.2556
18245SOL    HW157052   6.316   4.075   4.218 -1.0312 -0.3174  1.0694
18245SOL    HW257053   6.393   3.950   4.180 -1.1479 -0.1213  0.1733
18246SOL     OW57054   8.211   9.413   5.245 -0.3365 -0.1750  0.4144
18246SOL    HW157055   8.179   9.479   5.184 -1.3402 -0.2424  0.8567
18246SOL    HW257056   8.135   9.390   5.298  0.3269 -0.6974  1.1646
18247SOL     OW57057   3.391   1.836   2.218 -0.2836  0.0148 -0.2818
18247SOL    HW157058   3.310   1.835   2.268 -1.2916  0.1632 -1.8237
18247SOL    HW257059   3.363   1.851   2.127  1.4080 -0.6608 -0.9694
18248SOL     OW57060   9.062   2.634  10.552 -0.4678  0.0627  0.2027
18248SOL    HW157061   9.153   2.665  10.551 -0.7846  1.1240 -2.1764
18248SOL    HW257062   9.065   2.549  10.510 -0.6361  0.4250 -0.5692
18249SOL     OW57063   4.836   6.941   6.405 -0.2589  0.2272 -0.1961
18249SOL    HW157064   4.885   7.014   6.368  0.9806 -0.7399 -0.5211
18249SOL    HW257065   4.862   6.938   6.497 -1.3384  0.9946  0.1631
18250SOL     OW57066   1.005   4.286   9.730 -0.0690 -0.2418 -0.2188
18250SOL    HW157067   1.038   4.376   9.732 -0.7484  0.0055  0.4191
18250SOL    HW257068   1.064   4.237   9.786 -0.3362  0.0380  0.3125
18251SOL     OW57069   0.794   7.742   3.971 -0.0181 -0.1723 -0.0035
18251SOL    HW157070   0.818   7.834   3.964 -0.5701  0.0208  0.5058
18251SOL    HW257071   0.758   7.734   4.060  0.1080 -0.8976 -0.0116
18252SOL     OW57072   4.616   0.347   2.478 -0.5596 -0.2769 -0.0400
18252SOL    HW157073   4.648   0.284   2.414  0.2559  0.5046 -0.4384
18252SOL    HW257074   4.581   0.294   2.550  2.9372 -1.2749  1.1046
18253SOL     OW57075   8.288   1.147   4.331 -0.6445 -0.1178  0.0672
18253SOL    HW157076   8.365   1.194   4.365 -2.0037  2.7280 -0.4720
18253SOL    HW257077   8.314   1.055   4.333  2.9520  0.7092 -0.5527
18254SOL     OW57078   8.757   7.606   7.650 -0.3389  0.1745 -0.4925
18254SOL    HW157079   8.776   7.682   7.704  1.1685 -0.4872 -0.0237
18254SOL    HW257080   8.842   7.578   7.617 -1.1479  0.1785 -2.7339
18255SOL     OW57081   9.619   0.951   7.086  0.1699  0.3335  0.1902
18255SOL    HW157082   9.536   0.997   7.097 -0.3870  0.2400 -2.6604
18255SOL    HW257083   9.628   0.942   6.991  2.5864 -1.2420  0.4880
18256SOL     OW57084   7.835   9.658   0.748 -0.0015 -0.0794 -0.5270
18256SOL    HW157085   7.855   9.695   0.834  0.6404  1.4108 -1.2841
18256SOL    HW257086   7.809   9.734   0.695 -1.1660 -1.0835 -1.4304
18257SOL     OW57087   2.395   9.511   6.377  0.2989 -0.7463  0.0450
18257SOL    HW157088   2.379   9.468   6.293  0.1900 -0.7306  0.0569
18257SOL    HW257089   2.483   9.484   6.402  0.7781  0.1811 -0.6253
18258SOL     OW57090   9.319   5.104   3.893 -0.0629  0.3233  0.1060
18258SOL    HW157091   9.374   5.026   3.889 -0.9030 -0.2989  0.4973
18258SOL    HW257092   9.338   5.151   3.812  0.3544 -0.3445 -0.1937
18259SOL     OW57093   3.085   7.692   9.324  0.1060 -0.5081 -0.0200
18259SOL    HW157094   3.163   7.727   9.367 -0.1162 -2.7827  2.4723
18259SOL    HW257095   3.092   7.723   9.234  1.4211  3.2498  1.1955
18260SOL     OW57096   4.624  10.424   0.816  0.5493 -0.5154 -0.3438
18260SOL    HW157097   4.639  10.383   0.731 -0.5893 -1.5109 -0.0873
18260SOL    HW257098   4.686  10.381   0.875 -1.3373 -2.7595  0.1576
18261SOL     OW57099   5.369   7.149   6.676  0.2549 -0.1099  0.0805
18261SOL    HW157100   5.460   7.122   6.669  0.0267 -1.0016  0.3562
18261SOL    HW257101   5.330   7.086   6.738  0.3186  2.5341  3.0287
18262SOL     OW57102   8.452   8.834   4.544 -0.2847  0.5424  0.1665
18262SOL    HW157103   8.362   8.825   4.573  0.4804  0.4618  2.7469
18262SOL    HW257104   8.459   8.925   4.515 -1.7987 -0.1345 -2.6857
18263SOL     OW57105   6.153   3.035   7.727 -0.3514 -0.0872  0.4443
18263SOL    HW157106   6.137   3.129   7.722 -2.3391 -0.4169 -0.2581
18263SOL    HW257107   6.105   3.008   7.806 -0.3986 -0.6256  0.2285
18264SOL     OW57108   0.996  10.240   1.419 -0.6069  0.9352 -0.7111
18264SOL    HW157109   1.029  10.329   1.436  0.5424  0.4454 -0.3027
18264SOL    HW257110   0.924  10.230   1.481  1.4730  0.3552  1.7781
18265SOL     OW57111   7.375   4.508   1.273 -0.0819  0.5371 -0.4210
18265SOL    HW157112   7.282   4.490   1.258 -0.0910  1.4648 -1.5444
18265SOL    HW257113   7.420   4.471   1.197  0.1496  2.8307 -1.4531
18266SOL     OW57114   3.562   7.659   0.650  0.5657  0.1504 -0.0354
18266SOL    HW157115   3.582   7.676   0.742  0.4652  0.4286 -0.0626
18266SOL    HW257116   3.647   7.651   0.607  0.6331  1.3179 -0.1516
18267SOL     OW57117   0.092   8.836   0.952  0.2505 -0.0912  0.0764
18267SOL    HW157118   0.122   8.916   0.996  0.9738 -1.4499  2.2041
18267SOL    HW257119   0.089   8.770   1.021 -0.8611 -1.8070 -1.5015
18268SOL     OW57120   5.675   0.688   4.161  0.3644  0.2538 -0.0117
18268SOL    HW157121   5.597   0.650   4.122  1.3398 -0.1735 -1.6658
18268SOL    HW257122   5.728   0.717   4.086  1.6129  0.8887  1.0606
18269SOL     OW57123   9.128   7.375   4.797 -0.5592 -0.4007 -0.6770
18269SOL    HW157124   9.218   7.351   4.819 -0.6964 -0.2785  0.0480
18269SOL    HW257125   9.128   7.471   4.799 -0.9149 -0.4128  0.2224
18270SOL     OW57126  10.011   0.725   9.104 -0.4960 -0.2666  0.0637
18270SOL    HW157127  10.079   0.660   9.084 -1.8122 -1.4770 -0.6679
18270SOL    HW257128  10.009   0.727   9.200  1.6737  1.0546  0.1610
18271SOL     OW57129   9.729   7.901   2.095 -0.2290  0.0178 -0.3211
18271SOL    HW157130   9.787   7.849   2.039 -0.9767 -0.1022 -1.0144
18271SOL    HW257131   9.786   7.967   2.135  0.3280  0.1264 -1.2599
18272SOL     OW57132  10.064   0.101   1.860 -0.2105  0.7481 -0.1580
18272SOL    HW157133  10.016   0.030   1.904  0.9897  0.5312  0.8823
18272SOL    HW257134  10.110   0.057   1.788  1.5156  0.1623  1.2202
18273SOL     OW57135   8.549   1.638   7.697 -0.4277 -0.2421  0.3438
18273SOL    HW157136   8.602   1.558   7.691 -2.0168 -1.2425 -1.0157
18273SOL    HW257137   8.562   1.682   7.613 -1.4521 -0.3131  0.1408
18274SOL     OW57138   4.076   7.686   5.744  0.0122  0.0207 -0.8947
18274SOL    HW157139   4.171   7.700   5.738  0.2061  0.1510  1.3796
18274SOL    HW257140   4.040   7.774   5.759 -0.4367 -0.0824 -1.3511
18275SOL     OW57141   0.546   9.771   7.645  0.6020  0.1256  0.2340
18275SOL    HW157142   0.551   9.857   7.685  0.8062  0.1931  0.0654
18275SOL    HW257143   0.452   9.753   7.637  0.5294 -0.6423  2.3241
18276SOL     OW57144   8.045   4.809   1.501 -0.0102 -0.1298  0.1537
18276SOL    HW157145   8.054   4.899   1.531 -0.2158  0.2318 -0.8227
18276SOL    HW257146   7.996   4.816   1.419  0.7116 -1.0524 -0.3799
18277SOL     OW57147   3.695   9.735   5.948  0.4563  0.1880  0.1010
18277SOL    HW157148   3.695   9.764   6.039 -0.8848  0.0700  0.1609
18277SOL    HW257149   3.606   9.754   5.917  0.2638 -1.6198 -0.5667
18278SOL     OW57150   8.765   6.471   6.729 -0.2274 -0.1835  0.3948
18278SOL    HW157151   8.712   6.547   6.703 -1.7646 -0.9281  1.2532
18278SOL    HW257152   8.825   6.505   6.796 -0.0051  0.5348 -0.1500
18279SOL     OW57153   8.943   2.140   3.244  0.2723 -0.1931 -0.1417
18279SOL    HW157154   8.880   2.132   3.315  1.6911  1.0212  1.3201
18279SOL    HW257155   8.897   2.189   3.175 -0.8420 -0.6578  0.2586
18280SOL     OW57156   7.806   5.376   1.904 -0.4345 -0.0854  0.3793
18280SOL    HW157157   7.724   5.326   1.904  0.2374 -1.2288  0.8615
18280SOL    HW257158   7.815   5.409   1.993 -1.3282  1.7334 -0.1520
18281SOL     OW57159   0.899   6.397   9.744  0.3192 -0.3872 -0.2803
18281SOL    HW157160   0.979   6.450   9.741  0.0564  0.0199 -0.2276
18281SOL    HW257161   0.894   6.355   9.658 -1.1050  2.1240 -1.5502
18282SOL     OW57162   8.648   7.109   2.817 -0.2171  0.3423  0.1470
18282SOL    HW157163   8.556   7.131   2.803 -0.7010  1.1359  3.6077
18282SOL    HW257164   8.651   7.013   2.815 -1.3030  0.2862  0.8576
18283SOL     OW57165   9.747   0.865   8.570 -0.4341  0.3515  0.2286
18283SOL    HW157166   9.754   0.887   8.663  0.6572 -0.1241  0.2769
18283SOL    HW257167   9.811   0.795   8.558  0.2858  1.1963 -1.1122
18284SOL     OW57168   9.782   0.122   5.711 -0.3338 -0.3130  0.1310
18284SOL    HW157169   9.767   0.101   5.803  1.3409 -0.2447  0.4380
18284SOL    HW257170   9.855   0.067   5.685 -1.3136 -0.9469 -1.4163
18285SOL     OW57171   9.497   6.395   6.967  0.6146 -0.0055  0.1745
18285SOL    HW157172   9.578   6.436   6.998  0.7688 -0.5476  0.4946
18285SOL    HW257173   9.466   6.343   7.041 -0.4417  0.7947  0.3197
18286SOL     OW57174   6.738   3.793   6.208 -0.5613 -0.3107 -0.2125
18286SOL    HW157175   6.700   3.880   6.193 -2.3139 -0.8682  0.7049
18286SOL    HW257176   6.706   3.741   6.134  0.1800 -0.2783 -0.5611
18287SOL     OW57177   2.264   3.448   8.009  0.1515 -0.6989 -0.3252
18287SOL    HW157178   2.194   3.484   7.954  0.2960  0.7531  0.3942
18287SOL    HW257179   2.285   3.518   8.071  0.5510 -1.9957  1.0725
18288SOL     OW57180   0.790  10.196   8.433  0.0119  0.0900  0.5089
18288SOL    HW157181   0.859  10.217   8.370 -0.8733 -0.0099 -0.5354
18288SOL    HW257182   0.809  10.250   8.509 -0.2759  2.1673 -0.7945
18289SOL     OW57183   1.378   4.661  10.182  0.2215 -0.1789 -0.2647
18289SOL    HW157184   1.351   4.735  10.128 -0.9882 -1.3245 -1.2859
18289SOL    HW257185   1.406   4.700  10.265 -1.0942  1.3564 -0.5142
18290SOL     OW57186   2.480   4.650   7.550 -1.2332  0.7438  0.3688
18290SOL    HW157187   2.487   4.582   7.617 -1.2226  0.5933  0.2148
18290SOL    HW257188   2.527   4.725   7.588 -0.2919  0.3158  0.0917
18291SOL     OW57189  10.397   5.000  10.448 -0.2366  0.7189 -0.3861
18291SOL    HW157190  10.460   4.940  10.409 -0.1165 -1.8957  3.2785
18291SOL    HW257191  10.312   4.971  10.413 -0.0240 -0.7516  0.2130
18292SOL     OW57192   8.009   4.677   3.360  0.4156  0.2580  1.0534
18292SOL    HW157193   8.016   4.624   3.440  0.9112 -2.5767 -0.6955
18292SOL    HW257194   7.926   4.650   3.321  0.6840  0.7942  0.0921
18293SOL     OW57195   3.588   5.002   6.604  0.0999  0.1070  0.3971
18293SOL    HW157196   3.536   5.018   6.683  1.7048  0.8174  1.3623
18293SOL    HW257197   3.636   4.922   6.623 -0.1705 -0.2103 -0.2348
18294SOL     OW57198   8.960   7.634   8.649 -0.0295  0.2514 -0.2295
18294SOL    HW157199   9.044   7.595   8.626  0.4970  0.0331  1.8349
18294SOL    HW257200   8.895   7.567   8.628  0.5436 -0.4792  0.2803
18295SOL     OW57201   7.335   3.722   1.020 -0.4280  0.0593  0.1352
18295SOL    HW157202   7.253   3.673   1.028 -1.2375  1.0003 -1.6432
18295SOL    HW257203   7.363   3.737   1.110 -1.9646 -0.7067  0.7808
18296SOL     OW57204   4.402   5.452   5.634 -0.4748 -0.2340 -0.7190
18296SOL    HW157205   4.457   5.413   5.703 -1.3122 -0.5953 -0.2278
18296SOL    HW257206   4.383   5.540   5.666  0.5618  0.2342 -1.3340
18297SOL     OW57207   4.491   4.378   8.002 -0.1695  0.0514 -0.4796
18297SOL    HW157208   4.397   4.384   8.017 -0.3779 -0.7992 -1.3294
18297SOL    HW257209   4.527   4.456   8.043 -1.1765  0.0878  0.3777
18298SOL     OW57210   1.621   8.026   5.951 -0.3346  0.6235 -0.1773
18298SOL    HW157211   1.666   8.026   5.867  0.6059  1.2525  0.2946
18298SOL    HW257212   1.543   7.972   5.938  1.2122 -1.6339 -0.6976
18299SOL     OW57213   1.151   3.226   8.704  0.0608 -1.0979 -0.4580
18299SOL    HW157214   1.246   3.216   8.703  0.0351 -1.5630  0.4247
18299SOL    HW257215   1.136   3.315   8.736  0.2013 -0.6987 -1.4716
18300SOL     OW57216   5.594   3.386   4.991  0.2653  0.3292 -0.4200
18300SOL    HW157217   5.530   3.338   4.939 -0.0515 -0.9987  1.1067
18300SOL    HW257218   5.542   3.448   5.043  0.3966  0.4251 -0.3996
18301SOL     OW57219   7.491   7.639   6.628  0.2325  0.0825  0.4705
18301SOL    HW157220   7.513   7.581   6.701 -1.1885 -0.9534  0.1398
18301SOL    HW257221   7.419   7.693   6.660 -0.7859 -0.7672 -0.2881
18302SOL     OW57222   5.523   6.938   8.377 -0.0603  0.0410  0.0059
18302SOL    HW157223   5.488   6.887   8.304 -0.4825  0.8544 -0.3758
18302SOL    HW257224   5.586   6.998   8.336  0.8182 -0.5130  0.5140
18303SOL     OW57225   3.020   4.798   4.297 -0.4293 -0.6973 -0.2126
18303SOL    HW157226   3.041   4.730   4.233 -0.2515 -1.1625  0.3431
18303SOL    HW257227   3.104   4.838   4.318 -0.2707 -1.6165  0.9424
18304SOL     OW57228   9.087   1.665   5.047 -0.1680  0.3421 -0.5088
18304SOL    HW157229   9.065   1.754   5.071 -1.3465 -0.0426 -0.1124
18304SOL    HW257230   9.181   1.657   5.066 -0.5060  0.8228  1.6162
18305SOL     OW57231   0.891   4.575   5.058 -0.1391 -0.1737 -0.5502
18305SOL    HW157232   0.830   4.531   4.998 -0.6050 -0.5606  0.1913
18305SOL    HW257233   0.974   4.530   5.043 -0.1247  0.0773 -1.2700
18306SOL     OW57234   9.906   1.330   2.463 -0.0469  0.9311  0.5298
18306SOL    HW157235   9.953   1.394   2.516  0.4399 -0.3212  1.6664
18306SOL    HW257236   9.893   1.256   2.521 -1.1347  0.2246 -0.5719
18307SOL     OW57237   2.600  10.095   9.873 -0.1971 -0.2692 -0.3188
18307SOL    HW157238   2.655  10.090   9.951  0.6556  0.3786 -0.8606
18307SOL    HW257239   2.556  10.179   9.880  1.1396  0.5541 -1.3228
18308SOL     OW57240   2.926   1.048   8.217 -0.1305  0.0451 -0.4565
18308SOL    HW157241   2.952   1.099   8.293 -1.6495 -1.9703  1.5699
18308SOL    HW257242   3.007   1.006   8.187  0.4396  0.5928  0.2891
18309SOL     OW57243   1.345   4.850   1.168  0.1740  0.1663 -0.0207
18309SOL    HW157244   1.371   4.764   1.199  0.6150  0.4184  0.3188
18309SOL    HW257245   1.377   4.854   1.077 -0.6773 -0.3776 -0.3570
18310SOL     OW57246   5.937   8.025   3.156  0.5671 -0.3817  0.2147
18310SOL    HW157247   6.008   8.016   3.093  1.0293 -1.4810  0.8592
18310SOL    HW257248   5.864   7.976   3.119  0.1367  0.7047 -0.4235
18311SOL     OW57249   8.467   8.281   8.171 -0.0435 -0.0281 -0.0402
18311SOL    HW157250   8.512   8.223   8.109  1.9927  0.3379  1.0029
18311SOL    HW257251   8.412   8.222   8.223  2.2830 -1.2078  1.2763
18312SOL     OW57252   1.609   4.638   1.751 -0.0293  0.3684 -0.5621
18312SOL    HW157253   1.601   4.730   1.725  0.0210  0.5504  0.0440
18312SOL    HW257254   1.628   4.642   1.845  0.4311 -0.2498 -0.6260
18313SOL     OW57255   2.378   5.842   1.553 -0.3641 -0.0726  0.3165
18313SOL    HW157256   2.372   5.923   1.502 -1.0975 -0.1511  0.2779
18313SOL    HW257257   2.446   5.791   1.508 -0.7064  0.0376 -0.3364
18314SOL     OW57258   9.959   0.766   0.797  0.2325 -0.0296  0.3483
18314SOL    HW157259   9.903   0.819   0.853 -1.6642 -2.5495  0.9983
18314SOL    HW257260   9.898   0.716   0.742  1.9283 -1.0278 -0.7113
18315SOL     OW57261   2.386   7.506   9.311  0.1868 -0.0709 -0.3144
18315SOL    HW157262   2.437   7.562   9.252 -0.3917  0.8415  0.0485
18315SOL    HW257263   2.297   7.512   9.278 -0.2608  0.9535  1.0275
18316SOL     OW57264   3.247   3.269   4.460  0.0490 -0.6846  0.4269
18316SOL    HW157265   3.228   3.362   4.446 -0.7855 -0.9526 -0.2804
18316SOL    HW257266   3.334   3.268   4.500  0.6431  0.3485 -0.7923
18317SOL     OW57267   7.639   4.755   7.340  0.0679  0.5141  0.4036
18317SOL    HW157268   7.673   4.827   7.393  2.0217 -0.3895  0.4678
18317SOL    HW257269   7.702   4.684   7.352 -1.0788 -0.7669 -0.7124
18318SOL     OW57270   0.852   6.525   7.758  0.4758  0.0358  0.1438
18318SOL    HW157271   0.885   6.454   7.703  0.7436 -0.1616  0.5476
18318SOL    HW257272   0.809   6.480   7.831  1.7358  0.2689  1.0610
18319SOL     OW57273   2.722   0.870   8.075  0.0811 -0.2336 -0.2917
18319SOL    HW157274   2.785   0.941   8.089 -1.3068  0.6484  2.2338
18319SOL    HW257275   2.776   0.791   8.068  1.5342  0.5536  1.2236
18320SOL     OW57276   0.903   6.362   1.884 -0.5889 -0.0420 -0.4590
18320SOL    HW157277   0.997   6.373   1.902 -0.9967  0.7416  1.3907
18320SOL    HW257278   0.900   6.288   1.824  1.2526  0.2577 -0.9947
18321SOL     OW57279   5.003  10.321   6.163 -0.4208 -0.2510 -0.4799
18321SOL    HW157280   4.929  10.338   6.221 -0.1901  1.2739 -0.5952
18321SOL    HW257281   4.965  10.303   6.078 -0.6816 -0.3396 -0.3443
18322SOL     OW57282   2.947   7.243   0.276 -0.3643  0.0366 -0.1938
18322SOL    HW157283   2.873   7.236   0.216 -1.1334 -0.8210  0.8037
18322SOL    HW257284   2.926   7.181   0.346  1.0759  0.1410  0.3505
18323SOL     OW57285   8.361  10.526   3.599 -0.3244  0.4726  0.1679
18323SOL    HW157286   8.405  10.530   3.514 -0.6282 -1.2119 -0.1085
18323SOL    HW257287   8.394  10.445   3.639 -2.4740 -0.3885  0.3258
18324SOL     OW57288   7.527   8.853   0.599 -0.5027  0.2840  0.1123
18324SOL    HW157289   7.551   8.884   0.511  2.0942  1.8941  1.2494
18324SOL    HW257290   7.533   8.758   0.593 -1.8108  0.2547 -1.7763
18325SOL     OW57291   6.576   8.146   5.835 -0.2607 -0.5397  0.3787
18325SOL    HW157292   6.556   8.100   5.753 -2.6744 -1.9915  1.6471
18325SOL    HW257293   6.531   8.230   5.827 -1.2894 -1.0599  0.5401
18326SOL     OW57294   5.481   1.430   9.165 -0.4160 -0.6473 -0.0693
18326SOL    HW157295   5.511   1.485   9.237 -1.0402 -1.0238  0.4941
18326SOL    HW257296   5.553   1.431   9.102 -0.0446  0.0538  0.3513
18327SOL     OW57297   1.819   9.812   8.837 -0.1948  0.5537 -0.4215
18327SOL    HW157298   1.777   9.892   8.869  0.5625 -0.2966  3.1576
18327SOL    HW257299   1.746   9.750   8.825 -0.4308  0.3442  1.7052
18328SOL     OW57300   7.325   8.955   2.831  0.4998  0.5968 -0.0311
18328SOL    HW157301   7.388   9.023   2.854  0.7485 -0.2437  1.9491
18328SOL    HW257302   7.371   8.900   2.768  0.8850  1.2940 -0.3728
18329SOL     OW57303  10.458   4.548   1.901 -0.3137 -0.2593 -0.3587
18329SOL    HW157304  10.423   4.459   1.914  0.4747 -0.4585  0.4787
18329SOL    HW257305  10.516   4.562   1.976  2.1376 -0.3000 -2.1123
18330SOL     OW57306   1.954   3.613   2.626 -0.1204  0.3202  0.2350
18330SOL    HW157307   1.982   3.704   2.611  0.2503 -0.2166 -3.3467
18330SOL    HW257308   1.861   3.613   2.605  0.2825 -0.3974 -1.7796
18331SOL     OW57309   4.488  10.507   4.130 -0.3304  0.0967  0.3100
18331SOL    HW157310   4.509  10.596   4.157  0.6492  0.0313 -0.2148
18331SOL    HW257311   4.397  10.512   4.099  0.2810  1.3046 -1.4150
18332SOL     OW57312   6.640   8.261   8.090 -0.5614 -0.0829  0.1168
18332SOL    HW157313   6.707   8.324   8.063 -1.9057  1.5525  0.3841
18332SOL    HW257314   6.668   8.232   8.177  0.8893 -1.0901 -0.6627
18333SOL     OW57315   2.752   6.462  10.068  0.3819 -0.5393  0.4717
18333SOL    HW157316   2.768   6.544  10.114 -0.1198  0.2065 -0.6686
18333SOL    HW257317   2.793   6.473   9.982 -2.9655  0.0819 -1.2144
18334SOL     OW57318   0.696   6.559   0.704 -0.1122  0.2263 -0.0256
18334SOL    HW157319   0.722   6.638   0.657 -0.4659  0.6337  0.4534
18334SOL    HW257320   0.712   6.580   0.796 -1.5943  0.2804  0.2382
18335SOL     OW57321   0.878   3.027   4.451 -0.0730 -0.1430 -0.4973
18335SOL    HW157322   0.830   3.049   4.371  0.2218  0.2554 -0.5689
18335SOL    HW257323   0.817   3.047   4.522 -0.0235  0.3347 -0.5879
18336SOL     OW57324   6.208   4.066   5.490  0.3103  0.3417  0.4192
18336SOL    HW157325   6.218   4.135   5.425  0.4517 -0.5673 -0.5381
18336SOL    HW257326   6.290   4.066   5.539  0.6412  0.2802 -0.1382
18337SOL     OW57327   6.093   6.935   4.370 -0.4336 -0.0929 -0.0739
18337SOL    HW157328   6.038   6.943   4.447 -0.2357 -1.3924  0.2353
18337SOL    HW257329   6.037   6.963   4.297 -1.1276 -0.2991  0.3681
18338SOL     OW57330   8.457   4.036   0.617  0.6656  0.1043  0.1316
18338SOL    HW157331   8.427   4.127   0.613  0.1386  0.0239  1.7409
18338SOL    HW257332   8.546   4.038   0.583  0.2658  1.0207 -0.9225
18339SOL     OW57333   0.151   6.435   9.526  0.1009 -0.2751  0.1975
18339SOL    HW157334   0.092   6.476   9.590 -0.8415 -0.6843 -0.3898
18339SOL    HW257335   0.221   6.499   9.514 -1.4927  1.3321 -0.9219
18340SOL     OW57336   0.813   1.651   2.223 -0.5967 -0.1651 -0.1178
18340SOL    HW157337   0.787   1.741   2.204  1.2347  0.3300 -0.4417
18340SOL    HW257338   0.904   1.646   2.195 -0.3540 -1.8391  0.8537
18341SOL     OW57339   6.523   3.316  10.057  0.5815 -0.1803  0.3172
18341SOL    HW157340   6.500   3.244  10.115  2.5713 -1.1152  0.0329
18341SOL    HW257341   6.451   3.379  10.067 -1.3526 -2.2524  0.4226
18342SOL     OW57342   9.923  10.374   6.596  0.1434 -0.6778  0.3881
18342SOL    HW157343   9.955  10.283   6.595  0.0142 -0.7210  0.2194
18342SOL    HW257344   9.853  10.374   6.662 -2.7864 -1.7073 -2.4399
18343SOL     OW57345   3.732  10.090   5.517  0.1369  0.2234 -0.0897
18343SOL    HW157346   3.711  10.106   5.425 -0.1923 -0.4892 -0.1478
18343SOL    HW257347   3.778  10.007   5.517  1.0014  0.6949  0.2909
18344SOL     OW57348   8.675   5.364   4.604 -0.5105 -0.0031  0.0726
18344SOL    HW157349   8.766   5.379   4.578 -0.1786  1.2969  1.7798
18344SOL    HW257350   8.649   5.446   4.646 -2.1887 -0.6733  0.4049
18345SOL     OW57351   3.839   3.694   0.260  0.1978 -0.0632  0.1225
18345SOL    HW157352   3.922   3.728   0.228  0.4802 -1.2620 -0.4824
18345SOL    HW257353   3.849   3.693   0.355  1.0895 -0.6998  0.0342
18346SOL     OW57354   5.971   0.715   6.840  0.6733 -0.3188 -0.5348
18346SOL    HW157355   5.973   0.631   6.885  2.4199 -0.7424 -1.3323
18346SOL    HW257356   6.045   0.764   6.877 -1.0398  1.4199  0.8419
18347SOL     OW57357   2.908   5.515   1.934  0.0054 -0.1397 -0.9171
18347SOL    HW157358   2.937   5.426   1.912 -0.7032 -0.5365 -0.3180
18347SOL    HW257359   2.975   5.548   1.993 -0.6657 -1.0257  0.4104
18348SOL     OW57360   8.719   8.585   3.169  0.4042  0.4624  0.2906
18348SOL    HW157361   8.775   8.513   3.197 -0.6970  0.0140  1.4147
18348SOL    HW257362   8.649   8.543   3.120  0.8688  0.9959 -0.8830
18349SOL     OW57363   3.082   9.099   6.451 -0.0601 -0.0605  0.3125
18349SOL    HW157364   3.052   9.086   6.541 -2.8602  2.5063 -0.0456
18349SOL    HW257365   3.007   9.072   6.397  1.1411 -0.4867 -1.1997
18350SOL     OW57366   7.574   3.054   8.577  0.3158  0.4102 -0.1764
18350SOL    HW157367   7.597   2.982   8.517 -0.0621  1.2189 -1.3290
18350SOL    HW257368   7.639   3.048   8.646  0.4637 -0.8735 -0.3888
18351SOL     OW57369   7.857   8.605   3.136 -0.7278  0.4199 -0.1804
18351SOL    HW157370   7.816   8.615   3.222 -0.9192 -3.1904  0.2813
18351SOL    HW257371   7.920   8.535   3.147 -1.9110 -1.3210 -3.2948
18352SOL     OW57372   2.647   6.138   3.650 -0.2846 -0.0778  0.7636
18352SOL    HW157373   2.664   6.166   3.740  0.4177 -1.0545  0.9599
18352SOL    HW257374   2.619   6.046   3.658  1.8343 -0.8673 -0.1124
18353SOL     OW57375   7.871   5.876   3.947 -0.0922  0.2767 -0.0958
18353SOL    HW157376   7.870   5.780   3.951 -0.3684  0.3207  2.3224
18353SOL    HW257377   7.919   5.896   3.867 -0.8878 -1.8658 -1.2047
18354SOL     OW57378   6.970   1.728   1.051 -0.5127  0.5899 -0.1882
18354SOL    HW157379   7.024   1.775   0.988  2.6409 -1.2438  0.9165
18354SOL    HW257380   6.989   1.769   1.135 -3.5975  2.0865 -0.0514
18355SOL     OW57381   2.459   0.080   7.675  0.6742  0.1989 -0.4296
18355SOL    HW157382   2.404   0.137   7.728 -0.1089 -1.4679  0.6487
18355SOL    HW257383   2.410   0.067   7.593  0.1509 -0.0989 -0.0731
18356SOL     OW57384   1.824   6.577  10.378 -0.4398  0.2962  0.1335
18356SOL    HW157385   1.814   6.657  10.327  1.7956  0.3710 -0.2921
18356SOL    HW257386   1.917   6.554  10.369 -0.5435 -1.1372  2.0387
18357SOL     OW57387   1.087   9.312   6.082 -0.3351 -0.1017  0.0963
18357SOL    HW157388   1.056   9.393   6.042  0.0780 -0.1317 -0.2923
18357SOL    HW257389   1.100   9.253   6.008 -2.0818 -1.0378  0.4781
18358SOL     OW57390   4.859   0.917   7.328 -0.0317  0.1000 -0.1521
18358SOL    HW157391   4.845   0.957   7.242  1.6175  0.4140 -0.3116
18358SOL    HW257392   4.851   0.823   7.311 -1.8644  0.2278 -0.1865
18359SOL     OW57393   5.179   0.346   7.138  0.8851 -0.1944 -0.2015
18359SOL    HW157394   5.091   0.369   7.107  0.4561 -1.0818  0.3019
18359SOL    HW257395   5.238   0.390   7.077  0.0798 -0.8118 -1.4908
18360SOL     OW57396   1.547   6.020   9.650  0.6653 -0.2480 -0.1674
18360SOL    HW157397   1.475   5.963   9.677 -0.3233  0.5214 -1.0832
18360SOL    HW257398   1.505   6.102   9.625  1.9115  0.3761 -0.3000
18361SOL     OW57399   8.119   9.223   3.057  0.1159  0.0617 -0.6378
18361SOL    HW157400   8.070   9.223   2.975  0.9215  0.9046 -1.1412
18361SOL    HW257401   8.165   9.139   3.058 -1.3982 -0.8219 -0.0794
18362SOL     OW57402   6.085   2.754   8.428  0.3597 -0.4510 -0.0945
18362SOL    HW157403   6.156   2.810   8.395  0.6188 -1.1109 -0.6874
18362SOL    HW257404   6.084   2.768   8.522 -0.3832  1.4777 -0.3513
18363SOL     OW57405   6.794   5.149   6.624  0.0019  0.3777 -0.0953
18363SOL    HW157406   6.805   5.202   6.545 -0.4441 -1.7462 -1.6698
18363SOL    HW257407   6.702   5.158   6.646  0.2223  1.3529  0.5327
18364SOL     OW57408   8.229   2.477   7.826 -0.0173  0.0906  0.2407
18364SOL    HW157409   8.223   2.522   7.910  1.6122 -0.8061  0.8985
18364SOL    HW257410   8.139   2.451   7.805 -0.2207 -1.7942  2.9409
18365SOL     OW57411   4.961   8.520   1.641  0.4217  0.7120 -0.0971
18365SOL    HW157412   4.935   8.451   1.703  0.8752 -0.3366 -1.0419
18365SOL    HW257413   4.880   8.568   1.623  0.0381  0.2560  0.3692
18366SOL     OW57414   6.989   4.818   9.044  0.0709  0.3305  0.4676
18366SOL    HW157415   7.023   4.806   9.132 -2.1051 -0.0011  1.3156
18366SOL    HW257416   7.002   4.911   9.026  0.6685  0.3700  1.0676
18367SOL     OW57417   7.043   8.215   5.824  0.6983 -0.5578  0.2010
18367SOL    HW157418   7.127   8.257   5.841 -0.5394  2.2144 -0.0085
18367SOL    HW257419   6.996   8.219   5.907  0.7560 -2.2291  0.3602
18368SOL     OW57420   2.938   3.311   1.251  0.1756 -0.3764 -0.3457
18368SOL    HW157421   2.852   3.269   1.255 -0.4771  0.9169  0.1951
18368SOL    HW257422   2.942   3.350   1.164 -0.5056  0.9364  0.1847
18369SOL     OW57423   0.563   1.558   2.921 -0.4558 -0.0442  0.5347
18369SOL    HW157424   0.606   1.543   3.006  2.0304  0.9753 -0.4634
18369SOL    HW257425   0.622   1.616   2.874 -1.9786 -0.2450 -1.7736
18370SOL     OW57426   3.563   4.681   1.305 -0.2733 -0.0242  0.5569
18370SOL    HW157427   3.574   4.716   1.393  1.1961 -0.3804  0.5527
18370SOL    HW257428   3.619   4.603   1.303 -0.4603 -0.1577 -0.6088
18371SOL     OW57429   3.514   8.990   6.482 -0.2557 -0.0612 -0.2565
18371SOL    HW157430   3.529   8.918   6.543 -0.8672 -1.6262 -1.8522
18371SOL    HW257431   3.587   9.051   6.498  0.1222 -0.8770  1.3298
18372SOL     OW57432   2.015   0.001   1.127 -0.4330 -0.3575 -0.1094
18372SOL    HW157433   2.068  -0.079   1.118  1.1787  0.6840 -0.1195
18372SOL    HW257434   2.063   0.056   1.187 -1.0861  0.9836 -0.7674
18373SOL     OW57435   0.090   5.541  10.279  0.1789  0.2143 -0.1102
18373SOL    HW157436   0.049   5.513  10.197 -0.0294 -1.4381  0.5149
18373SOL    HW257437   0.171   5.583  10.253  1.1403 -2.0980 -1.1447
18374SOL     OW57438   7.008   5.094   1.887 -0.4701 -0.0561 -0.2393
18374SOL    HW157439   6.930   5.095   1.831 -1.1781  0.5574  0.7269
18374SOL    HW257440   7.006   5.009   1.931 -1.9570  0.8409  1.5810
18375SOL     OW57441   1.522   6.899   7.934 -0.5379 -0.0084 -0.4811
18375SOL    HW157442   1.569   6.825   7.973  1.0126 -1.0554 -3.8731
18375SOL    HW257443   1.448   6.858   7.889 -0.1825  0.5625 -1.6305
18376SOL     OW57444   1.012  10.518   1.358  0.0109  0.1220 -0.1634
18376SOL    HW157445   0.987  10.461   1.286  1.0662 -0.9345  0.2549
18376SOL    HW257446   1.067  10.586   1.318  2.5812 -1.7963 -0.1187
18377SOL     OW57447   3.362   3.132   4.007  0.8399  0.5418  0.2698
18377SOL    HW157448   3.426   3.081   3.957  2.2186  1.8331  0.6420
18377SOL    HW257449   3.285   3.136   3.951  1.0679 -1.0272 -0.2092
18378SOL     OW57450   7.054   2.076   5.112 -0.0405  0.0957  0.0938
18378SOL    HW157451   7.051   2.048   5.203  0.3063  0.1187  0.1111
18378SOL    HW257452   7.146   2.093   5.094  0.0103 -0.7897 -0.5251
18379SOL     OW57453   1.073   8.733   7.741 -0.5623  0.3470 -0.1932
18379SOL    HW157454   1.058   8.806   7.801 -0.0138 -0.1069  0.5183
18379SOL    HW257455   0.987   8.692   7.730 -1.2440  2.0847 -1.9657
18380SOL     OW57456   5.030  10.384   9.009 -0.3535  0.1219 -0.0489
18380SOL    HW157457   5.014  10.290   9.013  0.5288 -0.1165 -1.4012
18380SOL    HW257458   5.085  10.395   8.932 -0.5803  1.7692 -0.0041
18381SOL     OW57459   1.385   7.191   3.057 -0.3064  0.2226  0.1729
18381SOL    HW157460   1.361   7.253   3.126 -0.3390  1.0069 -0.5188
18381SOL    HW257461   1.348   7.229   2.977 -0.5865 -0.8541 -0.2295
18382SOL     OW57462   7.029   4.788   5.160 -0.2145 -0.3809  0.2086
18382SOL    HW157463   7.100   4.852   5.149  0.2576 -0.6700  1.4864
18382SOL    HW257464   6.983   4.816   5.239  1.6023 -3.0287  2.4060
18383SOL     OW57465   2.859   9.976   0.188  0.0093 -0.2381  0.3277
18383SOL    HW157466   2.891   9.891   0.219  2.8250  0.3828 -0.6575
18383SOL    HW257467   2.880  10.037   0.258  1.3211  0.2107 -0.4155
18384SOL     OW57468   8.399   9.177   3.282  0.0372 -0.6539 -0.2042
18384SOL    HW157469   8.387   9.271   3.266 -0.5559 -0.9067 -1.4346
18384SOL    HW257470   8.437   9.144   3.200 -0.0798 -1.5395  0.0910
18385SOL     OW57471   0.889   3.550  10.384  0.1366  0.3202 -0.1839
18385SOL    HW157472   0.908   3.461  10.416  0.2577  0.8222  1.2349
18385SOL    HW257473   0.822   3.583  10.444  0.5365  1.4007 -0.3078
18386SOL     OW57474   5.997   4.806   1.437  0.2977 -0.1371  0.9435
18386SOL    HW157475   5.984   4.801   1.531 -0.5903 -1.3869  0.7736
18386SOL    HW257476   6.028   4.719   1.412  1.9314  0.5928  0.2649
18387SOL     OW57477   0.587   8.142   9.365  0.0052 -0.0848  0.2982
18387SOL    HW157478   0.643   8.069   9.391 -0.9509 -0.5979  0.9720
18387SOL    HW257479   0.606   8.211   9.429  0.7386  0.1844 -0.2005
18388SOL     OW57480   3.795   1.542   7.645  0.3249 -0.4846  0.1706
18388SOL    HW157481   3.806   1.598   7.722  0.2470 -1.2861  0.7743
18388SOL    HW257482   3.827   1.457   7.673  0.6069 -0.6996 -0.8010
18389SOL     OW57483   7.634   8.000   1.277  0.1822  0.2941 -0.4675
18389SOL    HW157484   7.679   8.009   1.192 -0.5529 -1.6132 -1.0905
18389SOL    HW257485   7.687   7.938   1.326 -0.1269  0.3783 -0.0195
18390SOL     OW57486   2.144   5.609   6.234  0.4990  0.2097  0.1254
18390SOL    HW157487   2.136   5.630   6.327 -0.7931  0.6070 -0.0545
18390SOL    HW257488   2.237   5.593   6.221  0.9026  1.4747  1.2079
18391SOL     OW57489   1.669   4.470   1.040  0.3566 -0.1687 -0.3626
18391SOL    HW157490   1.592   4.435   0.994  1.3709 -2.8519 -0.1467
18391SOL    HW257491   1.704   4.536   0.979 -2.1107  1.2533 -0.4042
18392SOL     OW57492   3.295   3.213   8.308 -0.1530 -0.0312  0.6577
18392SOL    HW157493   3.213   3.255   8.281 -0.0498 -0.7699 -0.9221
18392SOL    HW257494   3.352   3.286   8.331 -0.2860  0.6759 -1.1259
18393SOL     OW57495   1.681   9.560  10.231  0.5079  0.0894 -0.2568
18393SOL    HW157496   1.653   9.483  10.181  0.5050  0.6662 -1.1794
18393SOL    HW257497   1.731   9.612  10.168 -0.6818  1.5296 -0.0762
18394SOL     OW57498   8.360   9.359   6.237 -0.3822 -0.2560 -0.1900
18394SOL    HW157499   8.390   9.409   6.313  1.2007  1.2527 -1.6984
18394SOL    HW257500   8.433   9.301   6.217 -1.4560 -1.8692  0.3881
18395SOL     OW57501   5.195  10.526   6.529 -0.3442  0.2607  0.3459
18395SOL    HW157502   5.195  10.534   6.624  0.1098 -2.2821  0.6282
18395SOL    HW257503   5.265  10.585   6.500  1.5534 -1.1110  1.8769
18396SOL     OW57504   1.061   3.254   1.282 -0.1375  0.0525  0.8408
18396SOL    HW157505   1.031   3.225   1.196  1.5332  2.6472 -0.7922
18396SOL    HW257506   1.029   3.344   1.288  0.2147  0.0782  2.7338
18397SOL     OW57507   2.405   1.864   7.165 -0.4606 -0.2107  0.0469
18397SOL    HW157508   2.376   1.865   7.074 -1.2446 -1.9923  0.2427
18397SOL    HW257509   2.352   1.930   7.208  1.1960  2.0089 -1.0986
18398SOL     OW57510   5.577   7.631   3.101 -0.4382  0.3422  0.2362
18398SOL    HW157511   5.537   7.655   3.017 -0.1881 -1.9698 -0.6373
18398SOL    HW257512   5.532   7.550   3.126  0.4905  0.2183  1.5962
18399SOL     OW57513   8.944   9.359   4.063 -0.4419 -0.5507  0.3856
18399SOL    HW157514   8.906   9.289   4.115  1.3431 -0.5279  1.8433
18399SOL    HW257515   9.016   9.393   4.117  1.4298 -0.4065 -2.0100
18400SOL     OW57516   5.019   2.849   3.396 -0.0990  0.3041  0.5512
18400SOL    HW157517   4.984   2.764   3.422 -1.8039  1.4060  2.0964
18400SOL    HW257518   4.988   2.910   3.463  0.4402  2.2763 -0.8818
18401SOL     OW57519   9.977   1.923   7.895  0.2758 -0.4414 -0.1700
18401SOL    HW157520   9.896   1.872   7.893 -0.7572  1.0673  0.8682
18401SOL    HW257521   9.948   2.014   7.882  1.6039  0.3130  1.7455
18402SOL     OW57522   2.782   4.350   3.949 -0.8891  0.3241  0.6315
18402SOL    HW157523   2.793   4.362   4.043 -0.7479  0.1666  0.6368
18402SOL    HW257524   2.837   4.274   3.928 -0.3336  0.8143  0.2957
18403SOL     OW57525   2.563   9.217   4.102 -1.1043  0.3901 -0.2202
18403SOL    HW157526   2.529   9.146   4.155 -0.8804  0.1502 -0.3987
18403SOL    HW257527   2.639   9.180   4.057 -1.2696  0.6013 -0.6787
18404SOL     OW57528   8.696   2.028   7.939  0.8131 -0.4065 -0.0154
18404SOL    HW157529   8.731   2.078   7.866  0.1271  0.3590  0.1564
18404SOL    HW257530   8.604   2.055   7.945  0.3935 -1.7620  0.0382
18405SOL     OW57531   8.574   8.187   9.488  0.2896  0.0094 -0.4259
18405SOL    HW157532   8.668   8.182   9.506  0.3973  1.6913 -0.3917
18405SOL    HW257533   8.565   8.155   9.398  0.9892  0.5484 -0.6899
18406SOL     OW57534   6.593   2.135   1.485 -0.2077  0.6207  0.4041
18406SOL    HW157535   6.499   2.117   1.479 -0.1966  0.3650  0.9558
18406SOL    HW257536   6.599   2.215   1.538 -0.0788  0.1403  1.1316
18407SOL     OW57537   2.287   3.784   4.699 -0.5806 -0.3141  0.5171
18407SOL    HW157538   2.228   3.831   4.759 -0.1631 -0.3633  0.9739
18407SOL    HW257539   2.322   3.713   4.752  0.3429  0.0604  0.4245
18408SOL     OW57540   3.071   7.930  10.473 -0.1561  0.1372  0.6377
18408SOL    HW157541   3.014   7.875  10.526  0.0862 -0.0634  0.6900
18408SOL    HW257542   3.021   7.946  10.393 -0.4880  0.3697  0.8853
18409SOL     OW57543   4.665   1.987   3.437  0.0096 -0.4800 -0.4626
18409SOL    HW157544   4.752   2.020   3.413  0.5449 -1.2457  0.3315
18409SOL    HW257545   4.604   2.050   3.400  0.8535 -0.5121 -2.0192
18410SOL     OW57546   0.266   9.499   4.861  0.1447 -0.3733  0.3805
18410SOL    HW157547   0.210   9.509   4.939 -0.1950 -0.9647  0.2159
18410SOL    HW257548   0.329   9.571   4.868 -0.8981  0.5668  0.3523
18411SOL     OW57549   1.654   4.283   6.362  0.6593  0.0613 -0.3107
18411SOL    HW157550   1.577   4.226   6.350  1.2156 -0.9243  0.6021
18411SOL    HW257551   1.726   4.222   6.376  1.6462  0.9765 -1.2520
18412SOL     OW57552  10.017   5.942   5.893 -0.1310 -0.8543 -0.8005
18412SOL    HW157553   9.995   5.890   5.970  2.8937 -0.9099  0.1499
18412SOL    HW257554  10.010   6.033   5.922  0.2814 -0.8572 -0.6958
18413SOL     OW57555   2.902   0.602   4.197  0.0089 -0.0089 -0.3407
18413SOL    HW157556   2.955   0.638   4.268  0.8965 -0.7382 -0.6061
18413SOL    HW257557   2.886   0.676   4.138  0.6026  0.2508 -0.1768
18414SOL     OW57558   3.877   7.011   6.673  0.0376 -0.2525  0.2117
18414SOL    HW157559   3.845   6.945   6.734 -0.1873  0.6122  1.0471
18414SOL    HW257560   3.889   6.964   6.591 -1.9721 -0.9459  0.2534
18415SOL     OW57561   1.234   2.198   7.099 -0.2765  0.1676  0.1986
18415SOL    HW157562   1.247   2.252   7.177 -0.2021 -0.4014  0.5823
18415SOL    HW257563   1.176   2.128   7.128  1.9941 -1.6800  0.5335
18416SOL     OW57564   0.723   0.064   6.339  0.4790 -0.3676 -0.4600
18416SOL    HW157565   0.806   0.111   6.337  0.8412 -0.9841  0.1821
18416SOL    HW257566   0.657   0.132   6.321  1.1492  0.0117 -1.6188
18417SOL     OW57567   3.156   4.416   9.483 -0.0930  0.0038  0.0594
18417SOL    HW157568   3.172   4.329   9.518 -1.6485 -0.8137 -1.1367
18417SOL    HW257569   3.138   4.470   9.560  1.1716 -0.6381  0.8320
18418SOL     OW57570   9.542   2.104   9.781  0.0037 -0.0065 -0.0854
18418SOL    HW157571   9.523   2.197   9.768  0.7630  0.2771  0.7461
18418SOL    HW257572   9.469   2.072   9.834  1.3967  0.9353  2.5706
18419SOL     OW57573   8.223   3.761   9.774  0.1661 -0.5669 -0.6723
18419SOL    HW157574   8.308   3.744   9.813 -0.7030 -1.8579  0.7362
18419SOL    HW257575   8.243   3.801   9.689  2.1466 -0.6041 -0.2579
18420SOL     OW57576   8.565   1.652   7.023  0.0567 -0.2113  0.3626
18420SOL    HW157577   8.598   1.697   7.101  0.1169 -1.0632  0.8328
18420SOL    HW257578   8.640   1.604   6.990 -0.1303 -0.3402  0.1249
18421SOL     OW57579   3.600   0.614   1.069  0.3026 -0.0516 -0.4629
18421SOL    HW157580   3.507   0.633   1.076  0.5063  0.8178  0.0943
18421SOL    HW257581   3.610   0.525   1.102 -0.4665 -0.5778 -1.5767
18422SOL     OW57582   0.481   2.841   6.036  0.3553  0.2192 -0.3323
18422SOL    HW157583   0.436   2.800   6.109 -0.0886  0.2775 -0.5673
18422SOL    HW257584   0.429   2.818   5.959 -0.5754  2.1569 -0.3429
18423SOL     OW57585   2.996   3.160   6.926 -0.0631 -0.4146  0.5272
18423SOL    HW157586   3.016   3.241   6.879 -0.2824 -0.0147  1.1177
18423SOL    HW257587   2.935   3.114   6.868 -0.1600 -0.0302  0.3158
18424SOL     OW57588   0.164   6.482   3.814 -0.1929 -0.2062 -0.8855
18424SOL    HW157589   0.141   6.457   3.904  0.1926 -2.8451 -1.4299
18424SOL    HW257590   0.089   6.453   3.762  1.2071 -2.3702 -1.8255
18425SOL     OW57591   2.698   8.380   7.375 -0.1004 -0.1439 -0.1552
18425SOL    HW157592   2.751   8.311   7.334 -2.6634 -1.3752 -1.6402
18425SOL    HW257593   2.700   8.452   7.313 -0.0231 -0.1046 -0.1083
18426SOL     OW57594   3.862   5.342   5.733 -0.2341 -0.1692  0.0026
18426SOL    HW157595   3.884   5.253   5.709 -0.0314  0.1339 -0.9801
18426SOL    HW257596   3.879   5.347   5.827 -0.9107 -1.3531  0.2042
18427SOL     OW57597   8.723   8.826   0.158  0.2101  0.3926  0.2770
18427SOL    HW157598   8.632   8.805   0.178  0.3763  0.4642  1.1310
18427SOL    HW257599   8.719   8.875   0.076 -0.6484  1.6328  1.0406
18428SOL     OW57600   0.325   2.802   5.777 -0.1369 -0.7498 -0.2533
18428SOL    HW157601   0.265   2.857   5.727  1.6749 -0.6291 -2.4210
18428SOL    HW257602   0.329   2.720   5.728  1.9606 -0.5113 -0.5588
18429SOL     OW57603   8.683   9.161   6.727  0.1493 -0.2969  0.4126
18429SOL    HW157604   8.739   9.129   6.656 -1.1488 -1.0432 -0.3174
18429SOL    HW257605   8.674   9.255   6.710  3.1840  0.4146  2.0065
18430SOL     OW57606   3.477   8.739  10.392  0.6742 -0.0217 -0.1585
18430SOL    HW157607   3.392   8.777  10.371  0.6871  0.4672  0.6318
18430SOL    HW257608   3.516   8.799  10.455  1.3598 -0.5451 -0.0628
18431SOL     OW57609   1.861   9.744   2.432 -0.0543  0.1085  0.3956
18431SOL    HW157610   1.883   9.743   2.338 -0.8542 -0.9395  0.2064
18431SOL    HW257611   1.829   9.833   2.448  2.5662  1.1617  0.2952
18432SOL     OW57612   7.630   2.049   9.476  0.5795 -0.3452  0.1386
18432SOL    HW157613   7.626   1.977   9.538  0.0618 -0.9370 -0.5628
18432SOL    HW257614   7.597   2.012   9.394 -0.6404  0.9502  0.0044
18433SOL     OW57615   9.565   5.250   7.813  0.1086  0.0620  0.3498
18433SOL    HW157616   9.520   5.195   7.877 -0.9905 -1.9426 -1.9894
18433SOL    HW257617   9.603   5.188   7.751 -1.6281  1.8445 -2.7412
18434SOL     OW57618   8.267  10.190   1.550 -0.6461 -0.1814 -0.1060
18434SOL    HW157619   8.349  10.239   1.553 -0.9116  0.2853 -0.3162
18434SOL    HW257620   8.290  10.103   1.582  0.3492 -0.6510 -1.9396
18435SOL     OW57621   6.857   3.711   3.942  0.3626 -0.1625 -0.2882
18435SOL    HW157622   6.844   3.719   3.848  1.6456  2.0832 -0.3535
18435SOL    HW257623   6.812   3.630   3.966 -3.8900  1.3707 -2.0627
18436SOL     OW57624   3.360  10.400   5.184 -0.0799 -0.0246  0.6291
18436SOL    HW157625   3.346  10.409   5.279 -0.4000  0.3701  0.5499
18436SOL    HW257626   3.401  10.314   5.174 -0.9235 -0.4986  1.0469
18437SOL     OW57627   7.652  10.098   6.861 -0.3897  0.4962 -0.1592
18437SOL    HW157628   7.744  10.101   6.834 -0.2032 -2.3147 -0.1739
18437SOL    HW257629   7.652  10.139   6.948  1.0350 -0.1266  0.1690
18438SOL     OW57630   4.694   7.352   7.507  0.3784 -0.4043  0.6122
18438SOL    HW157631   4.632   7.282   7.486  1.0479 -1.2967  1.5144
18438SOL    HW257632   4.735   7.374   7.424 -2.4269  1.5594 -0.4390
18439SOL     OW57633   8.113   1.049   2.372 -0.6120  0.3888  0.1303
18439SOL    HW157634   8.162   1.119   2.417  0.9559 -0.0291 -0.8464
18439SOL    HW257635   8.058   1.011   2.440  1.0053  0.3850  1.4823
18440SOL     OW57636   0.176   6.933   3.198 -0.2934 -0.1635  0.5123
18440SOL    HW157637   0.086   6.945   3.229 -0.6418 -0.9384 -0.1978
18440SOL    HW257638   0.178   6.976   3.112 -0.5442 -1.8833 -0.3802
18441SOL     OW57639   7.311   6.386   0.283 -0.6715  0.3053 -0.0569
18441SOL    HW157640   7.304   6.473   0.323 -0.0689  0.6090 -0.5884
18441SOL    HW257641   7.333   6.328   0.356  0.4136  0.8521  0.0805
18442SOL     OW57642   3.772   4.417   3.064  0.0902  0.4050  0.6881
18442SOL    HW157643   3.740   4.442   2.977  3.3784 -0.3679 -0.9236
18442SOL    HW257644   3.754   4.493   3.119 -0.8459  1.4804 -0.9998
18443SOL     OW57645   3.886   9.918   6.409  0.3462 -0.0879  0.2511
18443SOL    HW157646   3.877   9.833   6.451 -1.2054  0.0889  0.3364
18443SOL    HW257647   3.840   9.979   6.466 -0.3101  0.4575 -0.8212
18444SOL     OW57648   8.045   4.285   9.572 -0.9944 -0.1256 -0.4320
18444SOL    HW157649   8.092   4.279   9.489 -1.1293  0.8790 -0.5964
18444SOL    HW257650   8.016   4.196   9.590 -1.8548 -0.1962 -1.9932
18445SOL     OW57651   6.287   0.092   6.844  0.1706  0.8598 -0.5288
18445SOL    HW157652   6.329   0.138   6.771  0.3424 -1.1905 -1.8150
18445SOL    HW257653   6.357   0.041   6.883 -0.1966  0.9730  0.2857
18446SOL     OW57654   7.584   9.346   9.790  0.0493  0.6151  0.1833
18446SOL    HW157655   7.581   9.371   9.698  2.3491  0.3529 -0.0093
18446SOL    HW257656   7.554   9.424   9.837 -1.4726  0.6444 -0.7451
18447SOL     OW57657   1.184   9.254   1.757 -0.2746 -0.5040 -0.5273
18447SOL    HW157658   1.192   9.244   1.851 -0.7066 -0.5416 -0.4911
18447SOL    HW257659   1.272   9.238   1.723  0.0903  0.3973 -0.0560
18448SOL     OW57660   0.270   6.040   7.429 -0.4409 -0.3748 -0.2872
18448SOL    HW157661   0.223   6.080   7.355 -0.5763  0.9508  0.4875
18448SOL    HW257662   0.251   5.947   7.422  0.0565 -0.3757 -2.2961
18449SOL     OW57663   0.933   6.028   9.939 -0.2720  0.3442  0.6055
18449SOL    HW157664   0.896   6.072  10.015  1.1539  1.5650  0.6423
18449SOL    HW257665   0.896   6.074   9.863  2.6122  3.0513  0.6343
18450SOL     OW57666   6.076   6.921   1.186 -0.3742  0.0054  0.5521
18450SOL    HW157667   6.090   7.014   1.204  1.3696 -0.1306  0.0193
18450SOL    HW257668   6.025   6.890   1.260  0.0118  1.1340  1.3164
18451SOL     OW57669   3.182   5.265   3.049 -0.5212  0.1294 -0.2014
18451SOL    HW157670   3.131   5.253   2.969 -0.0652  0.8653 -0.6169
18451SOL    HW257671   3.118   5.290   3.115 -0.8678 -0.2271 -0.4038
18452SOL     OW57672  10.127   6.466   1.789  0.4301 -0.6342 -0.0810
18452SOL    HW157673  10.037   6.463   1.823  0.1379  0.6243 -0.6778
18452SOL    HW257674  10.159   6.553   1.812  0.4534  0.0318 -2.3332
18453SOL     OW57675   4.426   7.810   4.608 -0.0574 -0.5990 -0.7217
18453SOL    HW157676   4.363   7.756   4.655  0.9232  0.5779  2.1762
18453SOL    HW257677   4.398   7.900   4.625  1.8037 -0.0819 -0.1461
18454SOL     OW57678   6.361   1.703   0.261  0.2783 -0.6199  0.2613
18454SOL    HW157679   6.321   1.710   0.348 -0.0759 -0.6984  0.1084
18454SOL    HW257680   6.333   1.617   0.230  2.3539 -1.6419  1.0265
18455SOL     OW57681   3.992   7.938   5.763  0.0291 -0.2890  0.3027
18455SOL    HW157682   3.996   7.935   5.668  0.7490 -1.4343  0.3436
18455SOL    HW257683   3.996   8.031   5.785 -1.7674  0.0946 -0.8213
18456SOL     OW57684   1.586   5.587   0.567  0.2952  0.1244  0.4144
18456SOL    HW157685   1.557   5.513   0.513  0.7039  0.6834 -0.5919
18456SOL    HW257686   1.517   5.652   0.558  0.4234  0.2685  0.4771
18457SOL     OW57687   1.285   2.711   6.642 -0.5790  0.5538  0.2699
18457SOL    HW157688   1.249   2.755   6.565  0.7312 -0.2984 -0.8625
18457SOL    HW257689   1.379   2.710   6.628 -0.3083  0.2992  1.8615
18458SOL     OW57690   8.218   2.430   3.793 -0.1670  0.2851  0.2074
18458SOL    HW157691   8.221   2.424   3.889  0.5595 -0.8999  0.1341
18458SOL    HW257692   8.268   2.509   3.772  0.9227 -0.2360  0.7517
18459SOL     OW57693   3.923   2.650   6.026 -0.2753  0.4078  0.1888
18459SOL    HW157694   3.931   2.648   6.122 -0.7249  1.8969  0.2871
18459SOL    HW257695   3.836   2.614   6.009 -0.7688  1.4088  0.4678
18460SOL     OW57696  10.151   3.607   7.429 -0.3962 -0.9477 -0.0540
18460SOL    HW157697  10.191   3.587   7.514 -0.6706 -0.5743  0.1648
18460SOL    HW257698  10.221   3.647   7.378 -0.1173 -1.5420 -0.1511
18461SOL     OW57699   1.855   8.643   3.238  0.0107 -0.3198 -0.0930
18461SOL    HW157700   1.920   8.625   3.170 -0.1655 -0.6808 -0.1706
18461SOL    HW257701   1.906   8.642   3.319  0.1997 -0.0148 -0.2067
18462SOL     OW57702   2.302   7.731   4.856  0.3125  0.3420  0.1664
18462SOL    HW157703   2.388   7.708   4.822  1.0465  0.2268  2.0132
18462SOL    HW257704   2.284   7.818   4.821  0.4027 -0.3075 -1.5895
18463SOL     OW57705   3.335   9.283   7.583 -0.6993  0.2194  0.2921
18463SOL    HW157706   3.283   9.227   7.639 -0.3023 -2.9272 -2.2124
18463SOL    HW257707   3.319   9.372   7.616 -4.3500 -0.9398  2.1571
18464SOL     OW57708   0.375   5.990   8.898 -0.8581  0.4571  0.2553
18464SOL    HW157709   0.286   6.025   8.892 -1.2122 -0.6813 -1.9849
18464SOL    HW257710   0.363   5.897   8.919 -0.0528  0.7584  2.3425
18465SOL     OW57711   5.933   4.728   9.643  0.4397  0.4431 -0.3146
18465SOL    HW157712   5.985   4.803   9.671  2.8436 -2.0273  2.4845
18465SOL    HW257713   5.906   4.685   9.724 -1.9338 -1.0941 -1.7858
18466SOL     OW57714   4.319   1.510   8.055 -0.3267 -0.4480 -0.1574
18466SOL    HW157715   4.313   1.447   7.983 -2.3261 -0.7280  0.2135
18466SOL    HW257716   4.341   1.593   8.012 -0.7687 -0.7581 -1.0038
18467SOL     OW57717   6.776   6.603   1.165 -0.2013 -0.5014 -0.1526
18467SOL    HW157718   6.753   6.628   1.075  2.5277 -1.8329 -1.3307
18467SOL    HW257719   6.723   6.525   1.183 -0.2924 -0.6086 -0.8640
18468SOL     OW57720   9.317   6.903   9.674  0.2315  0.3167  0.0445
18468SOL    HW157721   9.372   6.845   9.621 -0.0824 -0.5198  0.6158
18468SOL    HW257722   9.273   6.845   9.736 -0.1010  1.1680  0.6300
18469SOL     OW57723   2.000   1.085   9.531 -0.0256 -0.1785  0.4939
18469SOL    HW157724   2.092   1.109   9.541 -0.3461  0.3929  2.6700
18469SOL    HW257725   1.982   1.096   9.438  1.7277  1.1383  0.2573
18470SOL     OW57726   4.380   7.788   7.538 -0.1670  0.2112 -0.3864
18470SOL    HW157727   4.286   7.799   7.553 -0.2605 -1.6454  0.7218
18470SOL    HW257728   4.387   7.705   7.490  0.8812  0.6754 -1.0793
18471SOL     OW57729   3.149   9.050   5.270  0.1833 -0.1200  0.2856
18471SOL    HW157730   3.172   9.063   5.363 -2.3322  1.6892  0.7640
18471SOL    HW257731   3.076   8.988   5.272 -0.1939  0.2871 -0.4114
18472SOL     OW57732   3.945   5.866   2.896 -0.4435 -0.1291  0.0400
18472SOL    HW157733   4.029   5.911   2.889  0.0420 -1.0209 -0.0443
18472SOL    HW257734   3.898   5.913   2.964 -0.0116  0.5902 -0.1511
18473SOL     OW57735   3.761   0.551   6.983  0.6624  0.2865 -0.0225
18473SOL    HW157736   3.670   0.553   6.956 -0.1593  1.3175  2.5114
18473SOL    HW257737   3.775   0.461   7.012  0.0164  0.4382  0.8027
18474SOL     OW57738   1.541   7.696   9.370 -0.0461 -0.8405  0.1613
18474SOL    HW157739   1.567   7.625   9.428  1.2214  0.3883  1.1508
18474SOL    HW257740   1.619   7.715   9.318 -0.6657 -0.7913 -0.7974
18475SOL     OW57741   6.054   0.296   8.409 -0.3514 -0.4553  0.0104
18475SOL    HW157742   6.114   0.248   8.465 -0.0465  1.1811  1.1432
18475SOL    HW257743   5.979   0.238   8.398  0.7278 -1.8697 -0.1060
18476SOL     OW57744   4.911   0.125   8.668  0.2346  0.3768 -0.2396
18476SOL    HW157745   4.993   0.173   8.679  0.8031 -0.8154  0.9532
18476SOL    HW257746   4.845   0.194   8.659  1.3508  1.3546 -1.3235
18477SOL     OW57747   4.818   9.529   0.307  0.1198 -0.3131  0.5727
18477SOL    HW157748   4.861   9.613   0.294 -1.3309  0.3271 -0.4239
18477SOL    HW257749   4.889   9.469   0.330  1.1942  1.1515  1.2865
18478SOL     OW57750   0.268   5.254   1.638  0.5017  0.6151 -0.3370
18478SOL    HW157751   0.190   5.212   1.603  0.2954  0.8159 -0.1169
18478SOL    HW257752   0.320   5.181   1.674  0.6855  0.4137 -0.9893
18479SOL     OW57753   2.384   8.078   7.914  0.3876  0.7544  0.3230
18479SOL    HW157754   2.397   8.084   7.819 -3.6019 -3.9448 -0.9375
18479SOL    HW257755   2.296   8.113   7.929  0.4762  0.3075  2.1324
18480SOL     OW57756   1.748   8.667   4.030  0.7199 -0.7118 -0.0205
18480SOL    HW157757   1.657   8.696   4.018  0.5074 -0.7110  1.4000
18480SOL    HW257758   1.783   8.662   3.942 -0.9164 -1.5121 -0.6792
18481SOL     OW57759   0.095   3.473   3.390  0.5696 -0.2650  0.2925
18481SOL    HW157760   0.101   3.564   3.419 -0.0784  0.8979 -2.8314
18481SOL    HW257761   0.008   3.465   3.353  0.1328 -2.6117  1.5791
18482SOL     OW57762   2.802   2.536   7.114 -0.3776  0.0116 -0.6474
18482SOL    HW157763   2.708   2.519   7.113 -0.4654  0.1645  1.2491
18482SOL    HW257764   2.821   2.574   7.028 -2.3621  1.5450 -0.4738
18483SOL     OW57765   6.026   5.864   6.259 -0.6550 -0.2858 -0.1857
18483SOL    HW157766   5.972   5.791   6.291 -1.3178 -0.0651 -0.7708
18483SOL    HW257767   6.101   5.821   6.218 -1.0569 -0.6445 -0.5511
18484SOL     OW57768   9.503   2.160   3.128  0.0355  0.3681  0.2345
18484SOL    HW157769   9.425   2.109   3.148  0.4775  0.0799  1.3101
18484SOL    HW257770   9.524   2.205   3.211  1.5753 -0.3468  0.2663
18485SOL     OW57771   5.771   2.636   4.863 -0.0078 -0.0980  0.2796
18485SOL    HW157772   5.801   2.686   4.787 -0.9240 -0.2418 -0.1866
18485SOL    HW257773   5.720   2.699   4.914  0.9813  0.1240  1.0280
18486SOL     OW57774   9.880   3.024   2.038 -0.3407 -0.1304 -0.1510
18486SOL    HW157775   9.799   2.972   2.044 -0.3601 -0.0799  0.0281
18486SOL    HW257776   9.939   2.969   1.986 -1.2069  0.7486 -2.1701
18487SOL     OW57777   9.505  10.375   9.296  0.2104  0.4590 -0.0976
18487SOL    HW157778   9.425  10.361   9.245 -0.3020  1.5943  0.3563
18487SOL    HW257779   9.499  10.313   9.369 -0.7142  1.1434  0.4281
18488SOL     OW57780   4.558   2.989   7.696  0.1171 -0.2241  1.0922
18488SOL    HW157781   4.496   2.983   7.623 -0.7123 -1.0890  1.8402
18488SOL    HW257782   4.544   3.077   7.731  0.5066  0.1930  0.2455
18489SOL     OW57783   6.115   4.623   2.248 -0.1162 -0.0604 -0.7639
18489SOL    HW157784   6.124   4.542   2.198 -2.9200  0.0073 -1.5239
18489SOL    HW257785   6.067   4.597   2.327  1.0410  0.4739  0.1360
18490SOL     OW57786   2.173   5.555   2.020 -0.0278 -0.0578 -0.1760
18490SOL    HW157787   2.196   5.463   2.007 -0.7123 -0.1731 -0.6536
18490SOL    HW257788   2.128   5.557   2.104 -0.8743 -0.3310 -0.6147
18491SOL     OW57789   9.059   4.753   6.695 -0.1632 -0.0648 -0.3105
18491SOL    HW157790   8.989   4.694   6.667  0.6392 -0.4849 -1.5345
18491SOL    HW257791   9.138   4.717   6.655  0.5361  1.1587 -0.0832
18492SOL     OW57792   3.580   0.507   4.303 -0.3301 -0.1378  0.2521
18492SOL    HW157793   3.580   0.599   4.328 -0.6069  0.6772 -2.4034
18492SOL    HW257794   3.663   0.494   4.257 -0.9127 -0.7919 -0.6591
18493SOL     OW57795   8.712   9.710   6.328  0.3066 -0.1259  0.7700
18493SOL    HW157796   8.660   9.770   6.381  0.4285 -0.0999  0.8584
18493SOL    HW257797   8.794   9.699   6.376  1.3590  1.6668 -0.5101
18494SOL     OW57798   9.498   2.090   4.740  0.3177 -0.2613 -0.0232
18494SOL    HW157799   9.498   2.095   4.644  0.6918  0.4944  0.0004
18494SOL    HW257800   9.591   2.100   4.764  0.6457 -3.2673  0.3331
18495SOL     OW57801   4.169   3.079   1.949  0.2052  0.3406  0.2597
18495SOL    HW157802   4.243   3.055   2.004  0.0299  1.3485  0.9579
18495SOL    HW257803   4.180   3.172   1.933  0.1718  0.1048 -1.3112
18496SOL     OW57804   9.180   4.824   5.906  0.4228 -0.2126  0.5200
18496SOL    HW157805   9.211   4.860   5.989  1.9932 -2.0823  0.8065
18496SOL    HW257806   9.230   4.872   5.840 -2.2224  2.6996  0.3872
18497SOL     OW57807   1.248   5.274   9.229 -0.2714 -0.6243  0.0855
18497SOL    HW157808   1.289   5.359   9.242 -1.4436  0.2886 -1.7929
18497SOL    HW257809   1.317   5.220   9.189 -0.1221  0.1189 -0.6896
18498SOL     OW57810   1.951   5.084  10.168 -0.4765 -0.3122 -0.1713
18498SOL    HW157811   2.013   5.087  10.241  0.3484 -0.0493 -0.8682
18498SOL    HW257812   1.971   5.001  10.124  0.9352  0.7702 -1.6983
18499SOL     OW57813   6.603   4.898   2.265 -0.0288  0.1801 -0.4645
18499SOL    HW157814   6.509   4.888   2.253  0.0094  0.5278 -1.1096
18499SOL    HW257815   6.635   4.927   2.179  0.7547 -0.5676 -0.4360
18500SOL     OW57816   3.017   8.163   1.278  0.1011 -0.4171 -0.5698
18500SOL    HW157817   3.045   8.108   1.351  1.9564  3.9745  2.4557
18500SOL    HW257818   2.927   8.187   1.299  0.1249 -0.3236 -0.5786
18501SOL     OW57819   9.160   6.440   4.239 -0.5218 -0.3342 -0.0456
18501SOL    HW157820   9.207   6.515   4.203  0.7566 -1.4533 -0.7607
18501SOL    HW257821   9.144   6.383   4.164  0.0254 -1.5621  0.7498
18502SOL     OW57822   8.069   3.742   4.194  0.3562  0.6178  0.1365
18502SOL    HW157823   8.009   3.810   4.163 -0.2959  0.3046  0.6827
18502SOL    HW257824   8.077   3.758   4.288  1.3380  0.8118  0.0292
18503SOL     OW57825   9.903   2.017   4.138 -0.0377  0.2707  0.0130
18503SOL    HW157826   9.973   2.053   4.084 -0.2174 -1.0405 -1.1686
18503SOL    HW257827   9.919   2.052   4.225  2.2177 -0.1493 -0.1759
18504SOL     OW57828   1.539   8.457   3.491  0.3725  0.0026  0.0912
18504SOL    HW157829   1.624   8.475   3.532  2.2902 -3.9196 -1.6694
18504SOL    HW257830   1.500   8.389   3.546 -0.0378 -0.6238 -0.9560
18505SOL     OW57831   2.752   7.308   7.971  0.0762  0.0688 -0.0395
18505SOL    HW157832   2.711   7.364   8.037 -0.2182 -0.2664  0.0624
18505SOL    HW257833   2.731   7.219   7.999  2.7936 -0.2428  1.3182
18506SOL     OW57834   8.464   5.826   8.887 -0.3384  0.0616 -0.3818
18506SOL    HW157835   8.435   5.914   8.863 -2.0403 -0.1630  0.6893
18506SOL    HW257836   8.383   5.778   8.905  0.6338 -1.1277  1.0616
18507SOL     OW57837   2.304   4.451   2.019  0.5760 -0.4140 -0.0201
18507SOL    HW157838   2.327   4.503   2.097  0.7250  0.2618 -0.5033
18507SOL    HW257839   2.242   4.386   2.051 -0.0592  0.4262  0.5018
18508SOL     OW57840   3.025   2.280   9.558  0.5177 -0.4801 -0.0815
18508SOL    HW157841   2.993   2.353   9.612  0.1731  0.8811 -2.0070
18508SOL    HW257842   2.951   2.219   9.555  0.2191 -0.1398  0.2274
18509SOL     OW57843   0.079   6.008   4.716  0.5710 -0.3810 -0.0680
18509SOL    HW157844   0.050   6.100   4.721  1.6402 -0.0123 -0.4509
18509SOL    HW257845   0.144   5.999   4.785  0.4608 -0.8627 -0.0227
18510SOL     OW57846   4.492   7.652   5.099 -0.1187 -0.3250  0.1988
18510SOL    HW157847   4.508   7.745   5.085  0.7150 -0.6447 -1.2276
18510SOL    HW257848   4.518   7.611   5.016 -0.8275 -1.7856  0.6661
18511SOL     OW57849   0.262  10.566   0.986 -0.3367 -0.3236 -0.4878
18511SOL    HW157850   0.179  10.549   1.031 -0.6108  1.4611 -0.2326
18511SOL    HW257851   0.299  10.641   1.033  1.9676 -1.7377  0.0974
18512SOL     OW57852   7.749   3.338   9.239 -0.5277  0.0420 -0.6848
18512SOL    HW157853   7.837   3.301   9.234 -0.3645  0.1146  1.0137
18512SOL    HW257854   7.728   3.363   9.149  2.1756  2.2924 -0.8098
18513SOL     OW57855   8.604   2.322   9.981  0.0868  0.0270  0.1942
18513SOL    HW157856   8.585   2.411   9.953 -1.2136 -0.0208  0.8555
18513SOL    HW257857   8.519   2.279   9.986  0.7011 -1.3154 -0.2785
18514SOL     OW57858   3.169   4.342   0.810 -0.5745  0.4231 -0.0953
18514SOL    HW157859   3.149   4.394   0.732 -1.0411 -0.8948 -0.8935
18514SOL    HW257860   3.084   4.313   0.842 -0.2929 -2.8469 -1.8383
18515SOL     OW57861   3.402   4.703   3.898 -0.0713 -0.1339 -0.3285
18515SOL    HW157862   3.492   4.736   3.901 -0.4276  0.9109 -0.4290
18515SOL    HW257863   3.348   4.783   3.895 -0.9475 -0.7441 -1.7223
18516SOL     OW57864   0.290   6.896   9.362  0.6351 -0.1999 -0.5750
18516SOL    HW157865   0.270   6.965   9.426  0.9133  0.1021 -0.8133
18516SOL    HW257866   0.277   6.814   9.411 -2.8385 -0.1464 -1.1128
18517SOL     OW57867   9.056   9.712   0.433  0.1376 -0.2238  0.2334
18517SOL    HW157868   9.126   9.752   0.485 -0.9175 -0.0188  1.5479
18517SOL    HW257869   9.098   9.692   0.349  1.6741  0.2114  0.8493
18518SOL     OW57870   1.738   4.866   1.221  0.0756  0.2148  0.1276
18518SOL    HW157871   1.814   4.807   1.218 -0.7104 -0.7982 -0.5120
18518SOL    HW257872   1.672   4.818   1.271 -0.9458  0.0863 -1.2977
18519SOL     OW57873   5.597   2.374   0.018  0.3173  0.0479 -0.2618
18519SOL    HW157874   5.534   2.444  -0.001  3.1691  3.0279  0.4154
18519SOL    HW257875   5.596   2.367   0.114  0.2145 -0.6851 -0.3155
18520SOL     OW57876   8.572   7.890   3.198  0.1032 -0.1563  0.2543
18520SOL    HW157877   8.658   7.922   3.171 -0.2584  1.3856  0.8566
18520SOL    HW257878   8.583   7.795   3.205  1.6030 -0.0355 -0.1712
18521SOL     OW57879   1.963   5.338   1.049 -0.1851 -0.0451  0.4273
18521SOL    HW157880   1.983   5.320   0.957 -0.9432 -0.3613  0.3180
18521SOL    HW257881   1.984   5.257   1.095 -2.0967 -0.7455  0.1641
18522SOL     OW57882   8.900   4.600   3.450  0.3553  0.7310  0.3149
18522SOL    HW157883   8.893   4.639   3.537 -0.6849  0.4304  0.3769
18522SOL    HW257884   8.994   4.595   3.433  0.5709  0.5502  1.5259
18523SOL     OW57885   2.685   0.589   6.985  0.1210  0.0772  0.8901
18523SOL    HW157886   2.740   0.518   6.952 -1.6102 -1.1305  0.4191
18523SOL    HW257887   2.631   0.614   6.910 -1.7256 -0.5807  1.9283
18524SOL     OW57888   8.187   3.895   9.537  0.0909 -0.0707  0.0185
18524SOL    HW157889   8.184   3.877   9.443  0.2628  0.8476 -0.1656
18524SOL    HW257890   8.097   3.913   9.561 -0.0738 -1.0512  0.1919
18525SOL     OW57891   3.507  10.177   9.990  0.6517  0.6193 -0.1823
18525SOL    HW157892   3.592  10.213  10.016  0.2496  0.7363  1.0241
18525SOL    HW257893   3.460  10.250   9.951  0.5042  0.9633  0.6326
18526SOL     OW57894   2.816   4.823  10.136 -0.5024 -0.4328  0.2829
18526SOL    HW157895   2.773   4.894  10.090  0.0767 -0.7153 -0.7260
18526SOL    HW257896   2.825   4.854  10.226 -1.3017  0.2833  0.1232
18527SOL     OW57897   8.939   9.703   4.751  0.0635 -0.3015 -0.3381
18527SOL    HW157898   8.952   9.783   4.700 -2.2815  0.0706 -0.4903
18527SOL    HW257899   9.027   9.672   4.771  1.0586  2.2392 -0.3979
18528SOL     OW57900   1.956   8.835   7.334 -0.5253  0.1617 -0.3013
18528SOL    HW157901   1.861   8.833   7.322 -0.2584 -0.2073 -2.9054
18528SOL    HW257902   1.990   8.778   7.265  1.5553 -1.0651  1.5795
18529SOL     OW57903   0.394   2.760   7.740  0.0318  0.2651 -0.0207
18529SOL    HW157904   0.313   2.787   7.696 -0.8840 -0.0024  1.4385
18529SOL    HW257905   0.444   2.841   7.750 -1.2477  0.9260  1.4040
18530SOL     OW57906   7.039   3.261   4.726  0.3999 -0.1698  0.1812
18530SOL    HW157907   7.007   3.171   4.728  1.6486 -0.6649 -0.7481
18530SOL    HW257908   7.056   3.278   4.633 -1.7634  1.7786  0.0499
18531SOL     OW57909   4.550   2.024   6.702  0.2234 -0.4937  0.1351
18531SOL    HW157910   4.569   2.101   6.649 -1.7394 -0.2056 -0.2018
18531SOL    HW257911   4.625   1.966   6.687  0.6447  0.3977 -1.3722
18532SOL     OW57912   1.088   9.498   3.395 -0.3550 -0.3219 -0.0482
18532SOL    HW157913   1.121   9.441   3.325 -0.2193 -1.0895  0.6344
18532SOL    HW257914   1.033   9.441   3.449  0.0937  0.0924  0.8666
18533SOL     OW57915   0.915   8.422   1.456  0.0055  0.1695 -0.0580
18533SOL    HW157916   0.820   8.406   1.451  0.1894 -1.0584  0.0969
18533SOL    HW257917   0.947   8.396   1.370  0.2216  0.5331 -0.0893
18534SOL     OW57918   4.771   8.697   8.444  0.2584 -0.3500 -0.3813
18534SOL    HW157919   4.846   8.646   8.414 -1.1853 -2.7026 -0.2521
18534SOL    HW257920   4.696   8.657   8.400 -1.1776  0.4168  1.2667
18535SOL     OW57921   5.536   0.013   9.799 -0.1411  0.2928 -0.1988
18535SOL    HW157922   5.556   0.008   9.892 -1.3063  0.5496  0.0843
18535SOL    HW257923   5.571   0.098   9.772  1.0738 -0.2040 -0.2353
18536SOL     OW57924   9.635   4.628   8.693 -0.1419 -0.8154  0.4358
18536SOL    HW157925   9.659   4.695   8.757  0.0370  2.5512 -2.7988
18536SOL    HW257926   9.543   4.645   8.674 -0.0385 -1.3804 -0.6198
18537SOL     OW57927   8.497   0.344   3.249  0.3616 -0.3823 -0.0144
18537SOL    HW157928   8.460   0.336   3.337 -0.6329  0.0548 -0.3747
18537SOL    HW257929   8.465   0.267   3.202  0.7384 -0.5188 -0.0509
18538SOL     OW57930   8.810   4.873   0.701 -0.3693 -0.2824  0.3486
18538SOL    HW157931   8.840   4.920   0.623 -0.4223 -0.2874  0.3253
18538SOL    HW257932   8.715   4.888   0.704 -0.1603  1.0678  1.3099
18539SOL     OW57933  10.434   8.429   1.600 -0.5400 -0.5443  0.7162
18539SOL    HW157934  10.501   8.486   1.562 -1.3141 -0.5846 -0.7997
18539SOL    HW257935  10.460   8.341   1.573 -0.4672 -0.7015  1.2937
18540SOL     OW57936   0.801   2.673   2.626  0.4049 -0.2716  0.0107
18540SOL    HW157937   0.708   2.661   2.607  0.4349 -2.8815  1.0687
18540SOL    HW257938   0.845   2.649   2.545  0.2319 -2.4970  0.5295
18541SOL     OW57939   8.891   7.436   1.146  0.2789  0.5891  0.6711
18541SOL    HW157940   8.979   7.426   1.181  0.8795 -1.9738 -1.2596
18541SOL    HW257941   8.901   7.487   1.066 -0.3209  1.9442  1.4258
18542SOL     OW57942   2.465   8.488   3.813  0.1016 -0.0989  0.4117
18542SOL    HW157943   2.482   8.472   3.906  2.0422 -0.1876  0.0676
18542SOL    HW257944   2.493   8.578   3.799 -1.6279  0.4454  0.2088
18543SOL     OW57945   5.049   6.859   8.922 -0.1436  0.1154  0.5655
18543SOL    HW157946   5.034   6.772   8.958 -0.9417  0.2725  0.6232
18543SOL    HW257947   5.050   6.846   8.827  1.2586 -0.1850  0.5928
18544SOL     OW57948   7.461   2.116   1.459  0.1051 -0.7080 -0.1908
18544SOL    HW157949   7.512   2.136   1.380 -0.9898 -0.8454 -0.9521
18544SOL    HW257950   7.510   2.158   1.530  1.5239 -1.2403 -0.8205
18545SOL     OW57951   1.046   2.971   2.637 -0.0676  0.3228 -0.1797
18545SOL    HW157952   0.978   2.924   2.685  0.7926 -0.9129 -0.1254
18545SOL    HW257953   0.998   3.032   2.580 -1.1762  0.0802  0.4720
18546SOL     OW57954   2.255  10.592   1.743  0.0410 -0.4818  0.2282
18546SOL    HW157955   2.349  10.599   1.757  0.0199 -0.2285  0.2444
18546SOL    HW257956   2.234  10.664   1.684 -0.3485  0.2150  1.2095
18547SOL     OW57957   5.947   9.236   3.961  0.3454  0.5241  0.7735
18547SOL    HW157958   5.881   9.297   3.993  2.5636  3.1993  0.6667
18547SOL    HW257959   5.960   9.175   4.034  0.0902  1.9896  2.1192
18548SOL     OW57960   0.097   8.338   4.128 -0.1468 -1.2187 -0.2578
18548SOL    HW157961   0.147   8.382   4.059 -0.7757  0.6133  0.4028
18548SOL    HW257962   0.163   8.290   4.178  0.4938 -1.4852 -1.3120
18549SOL     OW57963  10.107   5.574   9.220 -0.7909 -0.7719 -0.0479
18549SOL    HW157964  10.198   5.551   9.241 -0.9888 -2.2044 -0.6279
18549SOL    HW257965  10.064   5.583   9.305  0.1218  1.0024  0.2544
18550SOL     OW57966   0.940   7.801   7.913  0.3062  0.5205  0.2852
18550SOL    HW157967   0.892   7.884   7.911  0.6572  0.7312  0.5451
18550SOL    HW257968   0.890   7.745   7.973 -1.5747 -0.4786 -2.0505
18551SOL     OW57969   5.849   1.555   4.461  0.3679  0.3651 -0.2432
18551SOL    HW157970   5.864   1.636   4.509 -0.0767  0.3852 -0.1352
18551SOL    HW257971   5.760   1.529   4.484  1.0346 -0.9949  0.9713
18552SOL     OW57972  10.059   2.968   7.048  0.6732 -1.0450  0.1397
18552SOL    HW157973  10.130   2.914   7.083 -1.3655 -4.2092 -0.1864
18552SOL    HW257974  10.025   3.015   7.125 -0.0918 -3.4877  1.4149
18553SOL     OW57975   5.642   4.684   4.564  0.0477 -0.6135 -0.0447
18553SOL    HW157976   5.638   4.607   4.507  1.0045 -0.2486 -0.6294
18553SOL    HW257977   5.690   4.749   4.513  1.1061 -0.3359  1.2377
18554SOL     OW57978   6.290   7.817   7.255  0.4417 -0.4299  0.1403
18554SOL    HW157979   6.261   7.815   7.346 -1.4062  2.8051 -0.2164
18554SOL    HW257980   6.358   7.885   7.254  0.4374 -0.4356 -0.9109
18555SOL     OW57981   9.405   3.271   4.198 -0.3808  0.0265  0.1583
18555SOL    HW157982   9.420   3.184   4.234 -1.5097 -0.6366 -0.8746
18555SOL    HW257983   9.353   3.316   4.264 -1.1793 -0.6699  0.0290
18556SOL     OW57984   9.393   2.264  10.467 -0.5379  1.2351  0.0992
18556SOL    HW157985   9.452   2.320  10.518 -0.7299  0.2143  1.5079
18556SOL    HW257986   9.442   2.244  10.387 -0.2347  2.8837 -0.1628
18557SOL     OW57987   2.805   3.597   9.866  0.5262  0.2147  0.4519
18557SOL    HW157988   2.868   3.612   9.937  2.1729 -0.1299 -0.8838
18557SOL    HW257989   2.772   3.508   9.883 -0.3867  0.7696  1.7189
18558SOL     OW57990   5.271   4.033   2.932 -0.0230 -0.1307 -0.3540
18558SOL    HW157991   5.298   3.941   2.933 -1.1447 -0.4671  0.7638
18558SOL    HW257992   5.212   4.042   3.006  1.0884  1.8247  0.3618
18559SOL     OW57993   7.453   0.105   8.736 -0.2726 -0.0937  0.3550
18559SOL    HW157994   7.358   0.099   8.743 -0.3473  1.0512  0.5568
18559SOL    HW257995   7.469   0.198   8.717  0.7023 -0.5508 -1.2959
18560SOL     OW57996   0.045   9.439   2.001  0.4916  0.2751  0.1779
18560SOL    HW157997  -0.008   9.502   1.952 -0.8171 -0.2903  0.8363
18560SOL    HW257998   0.049   9.362   1.944  1.5339  0.6833 -0.3344
18561SOL     OW57999   6.294   2.387   7.073 -0.1017  0.0220  0.2956
18561SOL    HW158000   6.253   2.471   7.051  0.5778  1.2623  3.2911
18561SOL    HW258001   6.232   2.321   7.042 -1.1035  1.6042 -1.3014
18562SOL     OW58002   4.529   6.665   1.489  0.2708  0.1979 -0.1801
18562SOL    HW158003   4.561   6.587   1.445  0.8962  1.9185 -3.0238
18562SOL    HW258004   4.604   6.724   1.492 -0.2099  0.8025  1.7845
18563SOL     OW58005   3.199   9.486   0.758 -0.0385  0.4047 -0.1085
18563SOL    HW158006   3.124   9.469   0.815 -1.1158  0.1872 -1.5028
18563SOL    HW258007   3.254   9.407   0.766 -1.2315 -0.5516 -0.9131
18564SOL     OW58008   7.232   1.587   3.769  0.2928 -0.8217  0.2821
18564SOL    HW158009   7.181   1.562   3.846 -0.3401 -0.2751  0.0505
18564SOL    HW258010   7.168   1.622   3.708  1.1499  2.0071  0.8307
18565SOL     OW58011  10.189   2.335   9.205 -0.2738  0.3349 -0.3905
18565SOL    HW158012  10.204   2.269   9.138 -0.9482 -0.3790  0.1448
18565SOL    HW258013  10.235   2.303   9.283  0.0216  0.8685 -0.3368
18566SOL     OW58014   4.057   1.715   8.398  0.3196 -0.1516 -0.0700
18566SOL    HW158015   4.151   1.729   8.412  0.6194 -0.0505 -1.9332
18566SOL    HW258016   4.015   1.784   8.450  1.2375 -0.4664  1.1323
18567SOL     OW58017   1.517   2.524   6.829 -0.0869 -0.0430  0.2378
18567SOL    HW158018   1.579   2.469   6.877 -0.4616 -0.9065 -0.2390
18567SOL    HW258019   1.459   2.462   6.784 -0.0841  0.7367 -0.8948
18568SOL     OW58020   0.052   9.132   0.732  0.2832  0.6449  0.1285
18568SOL    HW158021  -0.003   9.054   0.745 -1.7743  2.3414  2.4704
18568SOL    HW258022   0.141   9.101   0.749 -0.4289 -1.2765  0.6291
18569SOL     OW58023   8.470   5.307   8.206 -0.2143  0.8088 -0.1167
18569SOL    HW158024   8.376   5.322   8.210 -0.4522 -0.6476  0.6099
18569SOL    HW258025   8.478   5.217   8.174  0.8594  0.2612  1.5732
18570SOL     OW58026   2.092   4.117   0.860 -0.1230  0.0954  0.1134
18570SOL    HW158027   2.136   4.100   0.944  2.3708 -1.1317 -1.3269
18570SOL    HW258028   2.042   4.037   0.844 -1.0923  0.5748  0.6855
18571SOL     OW58029   1.811   3.813  10.380 -0.5501  0.6617  0.0503
18571SOL    HW158030   1.798   3.901  10.345 -0.9005  0.7299  0.3487
18571SOL    HW258031   1.779   3.755  10.312  2.2335  0.6255 -1.3888
18572SOL     OW58032   3.319  10.337   3.796 -0.5481  0.2212 -0.1889
18572SOL    HW158033   3.375  10.259   3.801  0.0985  0.6440 -0.7527
18572SOL    HW258034   3.308  10.353   3.703 -1.6336  0.1413 -0.0860
18573SOL     OW58035   7.437   2.651   1.188  0.3867  0.4439 -0.5345
18573SOL    HW158036   7.345   2.651   1.162  0.0096 -0.7926  0.6886
18573SOL    HW258037   7.454   2.742   1.214 -1.9201 -0.1102  3.7643
18574SOL     OW58038   6.593   6.336   1.872  0.1572 -0.0201 -0.2917
18574SOL    HW158039   6.621   6.252   1.909 -0.6771 -0.4433 -0.5861
18574SOL    HW258040   6.646   6.346   1.793  0.8558  0.1412  0.1903
18575SOL     OW58041   3.458  10.228   6.487 -0.0746 -0.1090 -0.5764
18575SOL    HW158042   3.452  10.320   6.463 -0.3202 -0.3505 -1.4815
18575SOL    HW258043   3.552  10.213   6.501 -0.1661  0.5798  0.8685
18576SOL     OW58044   7.990   3.325   0.111 -0.0469  0.4283 -0.0502
18576SOL    HW158045   8.083   3.302   0.102  0.0325 -0.7235  2.5909
18576SOL    HW258046   7.965   3.358   0.025  2.5280 -0.2274 -1.1651
18577SOL     OW58047   1.419   7.867   4.668  0.0079 -0.7674  0.4426
18577SOL    HW158048   1.491   7.805   4.682  1.2026  0.2008 -1.2042
18577SOL    HW258049   1.448   7.923   4.597 -3.2173 -1.6622 -1.8312
18578SOL     OW58050  10.430   9.710   9.461 -0.3476  0.0964  0.2372
18578SOL    HW158051  10.505   9.686   9.407 -0.8316 -0.2382 -0.2977
18578SOL    HW258052  10.358   9.717   9.399 -0.9788 -0.5839  0.8832
18579SOL     OW58053   5.540   4.095  10.378 -0.4226  0.2826  0.2183
18579SOL    HW158054   5.579   4.008  10.384  0.5930  0.7089 -0.1358
18579SOL    HW258055   5.582   4.136  10.303 -0.4320  1.3134  0.7592
18580SOL     OW58056   5.445   6.806   8.181  0.1514 -0.1225  0.6871
18580SOL    HW158057   5.364   6.768   8.148 -0.0526  1.1999 -0.3804
18580SOL    HW258058   5.496   6.826   8.103  1.8898 -1.6373  1.3480
18581SOL     OW58059   9.179   1.492   2.072 -0.1835  0.4768 -0.1312
18581SOL    HW158060   9.189   1.511   1.979  1.1131  1.3873  0.1585
18581SOL    HW258061   9.085   1.478   2.084 -0.4892  1.2456 -1.4144
18582SOL     OW58062   2.006   1.546   8.249 -0.1149  0.4702 -0.1055
18582SOL    HW158063   2.045   1.552   8.336  0.8130  1.8661 -0.5734
18582SOL    HW258064   1.948   1.470   8.253  2.1757 -1.3253  0.8051
18583SOL     OW58065   7.737   4.711   4.301  0.4759  0.3656  0.0294
18583SOL    HW158066   7.736   4.622   4.266 -1.1000  0.8822 -1.3693
18583SOL    HW258067   7.812   4.752   4.259 -0.0616  0.3106 -1.0107
18584SOL     OW58068   9.200   4.691   4.670  0.7080 -0.0522 -0.3966
18584SOL    HW158069   9.296   4.698   4.676  0.6183  0.6135  0.5923
18584SOL    HW258070   9.181   4.603   4.702  0.9623  0.0151 -0.0442
18585SOL     OW58071   3.129   6.922   4.223  0.6028 -0.2864  0.4756
18585SOL    HW158072   3.042   6.888   4.241  0.2600  0.2727 -0.0581
18585SOL    HW258073   3.116   6.983   4.150  1.1509  1.0859  1.4827
18586SOL     OW58074   0.466   8.945   0.959 -0.7838  0.2061 -0.3550
18586SOL    HW158075   0.476   9.006   0.886  0.7152  0.0347 -0.3276
18586SOL    HW258076   0.395   8.982   1.011 -1.5963  0.5510 -1.6634
18587SOL     OW58077   2.463   2.796   8.311 -0.2137 -0.4543 -0.7960
18587SOL    HW158078   2.507   2.846   8.242 -0.8131 -0.0219 -0.8768
18587SOL    HW258079   2.385   2.759   8.269 -0.8177  0.1730 -0.2571
18588SOL     OW58080   0.688   5.772   2.161  0.3691 -0.6303  0.6677
18588SOL    HW158081   0.640   5.692   2.138 -1.1369  0.0960  1.1349
18588SOL    HW258082   0.626   5.822   2.213  1.1342  1.0364  0.0284
18589SOL     OW58083   4.215   4.892   0.575  0.4334  0.1474 -0.1140
18589SOL    HW158084   4.216   4.924   0.665  0.7080  0.8383 -0.3520
18589SOL    HW258085   4.274   4.951   0.528  1.0968 -0.8340 -0.5363
18590SOL     OW58086   7.441   2.499   4.124  0.4217  0.0189  0.3267
18590SOL    HW158087   7.463   2.572   4.067 -2.3245 -0.8473 -2.1447
18590SOL    HW258088   7.352   2.518   4.154  0.1140 -1.6848  0.6143
18591SOL     OW58089   5.598   9.182   5.597  0.0675  0.7591  0.0207
18591SOL    HW158090   5.502   9.182   5.605  0.0682  1.8803  0.1498
18591SOL    HW258091   5.615   9.147   5.509 -0.3526 -1.5395  0.7808
18592SOL     OW58092   0.440  10.116   4.668 -0.0740 -0.3571  0.3554
18592SOL    HW158093   0.532  10.126   4.643 -0.1081 -0.8801  0.0037
18592SOL    HW258094   0.441  10.122   4.763  0.7820 -3.4226  0.6547
18593SOL     OW58095   2.222   7.405   8.842 -0.4100  0.3222 -0.3239
18593SOL    HW158096   2.138   7.421   8.884 -0.7552  0.5413 -1.0900
18593SOL    HW258097   2.263   7.492   8.838  0.2901  0.0768  0.9381
18594SOL     OW58098   2.253  10.195   5.186  0.2108 -0.3982  0.3247
18594SOL    HW158099   2.172  10.245   5.194  0.2347 -0.2844 -0.1001
18594SOL    HW258100   2.301  10.238   5.115  0.9313 -0.0782  0.9960
18595SOL     OW58101   5.451   2.427  10.176  0.3102  0.3472 -0.3821
18595SOL    HW158102   5.479   2.506  10.129  1.1165  1.1452  1.3483
18595SOL    HW258103   5.527   2.402  10.228 -0.3455 -0.8776  0.0187
18596SOL     OW58104   9.252   2.162   4.905  0.0606  0.1896  0.1781
18596SOL    HW158105   9.308   2.139   4.831  0.7178 -2.0283  1.2812
18596SOL    HW258106   9.307   2.218   4.960 -0.2399  1.3775 -0.6855
18597SOL     OW58107   8.536   2.871  10.079 -0.5332  0.2551  0.1678
18597SOL    HW158108   8.487   2.931  10.135 -1.0566  0.5180 -0.5462
18597SOL    HW258109   8.623   2.910  10.073 -0.4569  0.1933  0.8357
18598SOL     OW58110   0.621   0.310   1.511  0.5000 -0.5232  0.3262
18598SOL    HW158111   0.698   0.346   1.466  1.2050 -2.2562  0.0888
18598SOL    HW258112   0.655   0.277   1.594 -0.1397 -0.5820  0.5667
18599SOL     OW58113   0.565   4.990   1.204  0.1151 -0.4064 -0.1765
18599SOL    HW158114   0.492   4.951   1.252 -0.7517 -1.5105 -2.2301
18599SOL    HW258115   0.582   4.928   1.133  2.2074  0.4771 -0.5151
18600SOL     OW58116   0.693   1.027   8.723 -0.5639 -0.0120 -0.8650
18600SOL    HW158117   0.683   0.966   8.649  1.4181 -1.0561 -0.3431
18600SOL    HW258118   0.603   1.048   8.748 -1.3089 -1.3753 -2.1675
18601SOL     OW58119   2.326   6.139   5.054  0.2767  0.2067 -0.1516
18601SOL    HW158120   2.266   6.175   4.989  0.6786 -0.5729 -0.9626
18601SOL    HW258121   2.271   6.124   5.131 -0.7664 -1.2448 -1.1424
18602SOL     OW58122   9.378   4.116  10.319 -0.3690 -0.1904 -0.3693
18602SOL    HW158123   9.398   4.175  10.246 -3.5420  0.8596 -0.5257
18602SOL    HW258124   9.312   4.056  10.285 -0.8130 -0.6458  1.2047
18603SOL     OW58125   4.677   7.445   8.759 -0.9500 -0.0481 -0.2233
18603SOL    HW158126   4.591   7.413   8.786 -0.9810  0.4447  0.2982
18603SOL    HW258127   4.700   7.509   8.826 -0.5230  0.3954 -0.7825
18604SOL     OW58128   3.011   0.065   7.293 -0.1358  0.1963 -0.6859
18604SOL    HW158129   3.071   0.105   7.356 -0.5175  0.7121 -0.6459
18604SOL    HW258130   3.049  -0.021   7.275 -0.0133  0.0521  0.2358
18605SOL     OW58131   5.924   8.437   7.052  0.1873 -0.3892  0.9526
18605SOL    HW158132   5.923   8.532   7.065  2.1960 -0.1789 -0.0415
18605SOL    HW258133   5.881   8.402   7.129 -0.3478  1.3136  1.4758
18606SOL     OW58134   5.292   8.230   3.130  0.9526 -0.3693 -0.1472
18606SOL    HW158135   5.340   8.306   3.096 -0.5784  0.0147 -1.6124
18606SOL    HW258136   5.231   8.268   3.193 -0.9171 -0.0558 -2.0169
18607SOL     OW58137   8.377   3.865   6.763  0.5854  0.1905  0.7410
18607SOL    HW158138   8.450   3.916   6.727  2.7529 -1.9240  1.8291
18607SOL    HW258139   8.328   3.928   6.816  0.0780  2.2511 -1.9963
18608SOL     OW58140   0.554   2.433   6.887 -0.3612 -0.4107 -0.2678
18608SOL    HW158141   0.591   2.516   6.918 -1.6434  0.1390 -0.1522
18608SOL    HW258142   0.611   2.366   6.926  0.0638  0.3775  0.5156
18609SOL     OW58143   2.505   9.527   5.978  0.4324  0.3677 -0.4072
18609SOL    HW158144   2.568   9.544   6.048  2.4885 -0.2163 -2.0064
18609SOL    HW258145   2.428   9.493   6.023  1.5974  0.1934  1.5811
18610SOL     OW58146   3.664   9.377   9.793  0.2346 -0.1917 -0.1304
18610SOL    HW158147   3.574   9.350   9.773  0.1968 -0.8123  0.7903
18610SOL    HW258148   3.662   9.472   9.789 -0.5417 -0.1899  0.1521
18611SOL     OW58149   4.744   3.535   1.473  0.3818  0.4776 -0.1701
18611SOL    HW158150   4.763   3.604   1.536  0.8602  3.0026 -2.8811
18611SOL    HW258151   4.687   3.576   1.409  1.7674 -1.1928 -2.6331
18612SOL     OW58152   8.018   0.403   8.066  0.2185 -0.2846  0.0681
18612SOL    HW158153   8.089   0.434   8.010 -1.5321  0.8503 -1.6891
18612SOL    HW258154   8.012   0.309   8.047  1.5086 -0.4834  0.5873
18613SOL     OW58155   9.355   7.187   9.764  0.2920 -0.1843 -0.9998
18613SOL    HW158156   9.438   7.228   9.742 -0.0676  1.3723  0.3110
18613SOL    HW258157   9.368   7.094   9.746  2.6052 -0.1146 -0.0455
18614SOL     OW58158   2.815   0.792   4.001 -0.0131  0.2336 -0.6070
18614SOL    HW158159   2.762   0.871   4.010 -1.1302 -0.6400  1.0670
18614SOL    HW258160   2.838   0.788   3.908  2.0523  3.7098 -0.4069
18615SOL     OW58161  10.090   9.811   2.578  0.7246 -0.4493  0.0231
18615SOL    HW158162  10.154   9.786   2.644  0.4535  0.5492  0.6789
18615SOL    HW258163  10.028   9.868   2.623 -0.0636 -0.5793 -0.8426
18616SOL     OW58164   1.433   9.888   9.112 -0.3327  0.1716 -0.1290
18616SOL    HW158165   1.425   9.902   9.017  1.0995  0.7918 -0.1839
18616SOL    HW258166   1.379   9.957   9.151  0.1299  0.7495 -0.4891
18617SOL     OW58167   6.556   1.117   1.996  0.1362 -0.0086 -0.3071
18617SOL    HW158168   6.507   1.079   1.923 -0.0023  2.5964 -1.6909
18617SOL    HW258169   6.576   1.206   1.968  1.8246  0.4657  2.0607
18618SOL     OW58170   7.846   4.402  10.142 -0.0906  0.7017 -0.2210
18618SOL    HW158171   7.796   4.323  10.164 -0.9697  0.9440 -1.2870
18618SOL    HW258172   7.925   4.395  10.195 -0.5743 -0.4321  0.3982
18619SOL     OW58173   8.967   9.733   0.921 -0.2480  0.0397  0.0172
18619SOL    HW158174   8.921   9.696   0.846 -2.0771  1.0345  0.5996
18619SOL    HW258175   9.057   9.701   0.912 -1.4872 -3.9080  0.0957
18620SOL     OW58176   8.412   2.863   9.404  0.0156  0.1652 -0.1439
18620SOL    HW158177   8.461   2.940   9.432  0.6681 -0.9690  2.1498
18620SOL    HW258178   8.380   2.824   9.486 -1.0580 -1.4885 -1.2821
18621SOL     OW58179   8.955   8.797   9.985 -0.2021 -0.0297 -0.6670
18621SOL    HW158180   8.989   8.756   9.906  0.8439 -0.5834  0.0448
18621SOL    HW258181   9.012   8.872  10.000  0.6968 -0.8955  0.4701
18622SOL     OW58182  10.421   5.161   1.200  0.2598 -0.4440  0.2225
18622SOL    HW158183  10.417   5.095   1.269  1.4156 -1.8005 -0.9425
18622SOL    HW258184  10.342   5.146   1.147 -0.6054  0.5706  1.1876
18623SOL     OW58185   6.457   9.280   8.391  0.2480  0.7393  0.2311
18623SOL    HW158186   6.510   9.337   8.336 -1.2056  1.2748 -0.6975
18623SOL    HW258187   6.389   9.247   8.332  1.0837 -2.0927  0.6972
18624SOL     OW58188   3.259   2.257   5.284 -0.3444 -0.3075 -0.2892
18624SOL    HW158189   3.228   2.207   5.360  0.7099 -0.2362  0.2042
18624SOL    HW258190   3.287   2.190   5.221  0.9777 -0.3711  0.3326
18625SOL     OW58191   1.775   2.172   9.305  0.1070  0.2333 -0.1944
18625SOL    HW158192   1.870   2.168   9.309  0.0717  0.6073  1.8835
18625SOL    HW258193   1.756   2.221   9.225  1.7033  1.3915  0.0990
18626SOL     OW58194   8.920   1.730   1.369  0.2354 -0.1560 -0.2654
18626SOL    HW158195   8.860   1.728   1.294 -0.3305 -0.7489  0.1889
18626SOL    HW258196   8.866   1.762   1.441  0.1083 -1.8670  0.4419
18627SOL     OW58197  10.007   7.244   5.896 -0.1579 -0.0032 -0.0847
18627SOL    HW158198  10.026   7.297   5.974  0.3037  2.7264 -1.9202
18627SOL    HW258199   9.939   7.183   5.925 -0.1924  1.0832  2.3895
18628SOL     OW58200   2.186   5.262   8.800 -0.4330  0.1954 -0.3046
18628SOL    HW158201   2.169   5.323   8.729  0.2075 -0.0185 -0.6470
18628SOL    HW258202   2.240   5.311   8.862 -1.4842  0.5754  0.3371
18629SOL     OW58203  10.033   3.471   8.424 -0.2459 -0.4046  0.2121
18629SOL    HW158204  10.016   3.387   8.466  0.8782 -0.8717 -0.2415
18629SOL    HW258205  10.083   3.450   8.345  0.3583  0.7185  0.2701
18630SOL     OW58206   1.310   1.604   0.154  0.5365 -0.5309  0.8246
18630SOL    HW158207   1.269   1.553   0.223 -0.7973 -1.9607 -0.9351
18630SOL    HW258208   1.378   1.547   0.118 -0.0176 -0.5631 -0.2301
18631SOL     OW58209   5.633   7.141   7.022  0.1387 -0.2379  0.0234
18631SOL    HW158210   5.577   7.068   6.994  0.6640 -0.8719  0.6078
18631SOL    HW258211   5.674   7.171   6.941  0.1381 -0.7799 -0.1872
18632SOL     OW58212   2.952   6.412   9.383  0.0713  0.0350 -0.2885
18632SOL    HW158213   2.935   6.382   9.472  1.6654 -1.0893 -0.3147
18632SOL    HW258214   2.866   6.413   9.341 -0.6410  0.1298  1.1197
18633SOL     OW58215   7.182   8.918   3.295  0.1864 -0.2671  0.3214
18633SOL    HW158216   7.163   8.999   3.342  0.7825 -0.4290  0.8523
18633SOL    HW258217   7.196   8.946   3.204  0.7167  0.2678  0.5621
18634SOL     OW58218   0.553   4.309   1.603  0.0943 -0.0564 -0.0583
18634SOL    HW158219   0.460   4.290   1.617  0.1341  0.0137  0.3223
18634SOL    HW258220   0.570   4.281   1.513 -0.8541  2.0899 -0.9697
18635SOL     OW58221   9.283   6.564   2.365 -0.1736  0.2357 -0.8586
18635SOL    HW158222   9.304   6.569   2.272 -0.1636  0.4668 -0.8433
18635SOL    HW258223   9.189   6.545   2.367 -0.5931  2.1244 -0.9075
18636SOL     OW58224   2.563   8.311   4.393  0.9587  0.1873  0.1399
18636SOL    HW158225   2.498   8.380   4.388  0.4190 -0.3157  0.1239
18636SOL    HW258226   2.628   8.343   4.455 -0.4259 -0.2084  1.8682
18637SOL     OW58227   2.066   9.148   6.772  1.1104 -0.0547 -0.2851
18637SOL    HW158228   2.011   9.092   6.718 -1.6189  0.1338  2.0326
18637SOL    HW258229   2.123   9.088   6.820  0.7516 -0.5557 -0.4782
18638SOL     OW58230  10.333   5.498   5.429  0.9321  0.8610 -0.1719
18638SOL    HW158231  10.292   5.412   5.426 -1.1879  1.7549  0.8569
18638SOL    HW258232  10.418   5.484   5.468  0.4901 -0.7291  0.2635
18639SOL     OW58233   6.135  10.115   0.720 -0.4905 -0.3282 -0.3718
18639SOL    HW158234   6.123  10.085   0.630 -2.7517  0.2604 -0.3415
18639SOL    HW258235   6.049  10.104   0.760 -0.2657  1.9082  0.9144
18640SOL     OW58236   7.899   0.493   0.145 -0.2478  0.2987 -0.2099
18640SOL    HW158237   7.815   0.533   0.121  0.5016  2.2176  0.1360
18640SOL    HW258238   7.963   0.538   0.091  0.5578 -1.4105 -0.7409
18641SOL     OW58239   7.046   7.114   7.159 -0.3135  0.0508  0.5299
18641SOL    HW158240   6.979   7.100   7.092 -0.7759  0.4918  0.8892
18641SOL    HW258241   7.129   7.110   7.112 -0.5654 -0.9753  0.1558
18642SOL     OW58242   8.374   8.072   4.479  0.7729 -0.0603 -0.0194
18642SOL    HW158243   8.320   8.149   4.461 -1.0569 -1.3601 -0.4498
18642SOL    HW258244   8.379   8.068   4.575 -0.1209 -0.0325  0.0374
18643SOL     OW58245   5.512   9.608   2.215  0.2660 -0.9256  0.2373
18643SOL    HW158246   5.506   9.686   2.270  0.7729 -0.2723 -0.5972
18643SOL    HW258247   5.530   9.536   2.276  1.5475 -0.1111  0.8673
18644SOL     OW58248   9.707   2.094   0.981  0.2631 -0.2762  0.4517
18644SOL    HW158249   9.679   2.063   1.067  0.1708 -2.9046 -0.4107
18644SOL    HW258250   9.625   2.111   0.934  0.2633 -0.4309  0.3920
18645SOL     OW58251   7.362   3.515   0.102  0.2424  0.0116 -0.1439
18645SOL    HW158252   7.291   3.451   0.108  0.0555  0.0749 -1.4765
18645SOL    HW258253   7.383   3.520   0.009  3.3916 -1.5064  0.3378
18646SOL     OW58254   1.581   3.793   3.561  0.1818  0.1682  0.4094
18646SOL    HW158255   1.664   3.836   3.541 -0.5229  1.5433  0.2931
18646SOL    HW258256   1.572   3.801   3.656 -0.3090  1.0086  0.3048
18647SOL     OW58257   9.165   5.284   8.793  0.5636  0.2938  0.4715
18647SOL    HW158258   9.260   5.270   8.789  0.7367  1.1071  1.4576
18647SOL    HW258259   9.139   5.244   8.876 -0.0244 -0.2440  0.0354
18648SOL     OW58260   1.917   7.634   5.012  0.6983  0.4442 -0.4095
18648SOL    HW158261   1.881   7.716   5.044 -0.0423  0.3125 -0.8583
18648SOL    HW258262   1.892   7.569   5.078 -0.0077  0.3341 -0.7742
18649SOL     OW58263   9.638   7.330   2.900 -0.6238 -0.1129 -0.0851
18649SOL    HW158264   9.703   7.270   2.938  0.2237  0.8025 -0.0586
18649SOL    HW258265   9.657   7.415   2.939 -2.4005  0.0215  0.5591
18650SOL     OW58266  10.440   6.741   7.908 -0.7603  0.3532  0.1626
18650SOL    HW158267  10.467   6.662   7.862  0.6540  1.5950 -1.2640
18650SOL    HW258268  10.348   6.726   7.930 -0.3089 -1.9951  0.7024
18651SOL     OW58269   2.672   7.455   3.499  0.4857  0.0979  0.1729
18651SOL    HW158270   2.619   7.434   3.422  1.5294 -0.4172 -0.4200
18651SOL    HW258271   2.637   7.539   3.530  0.5773  0.7317 -1.3484
18652SOL     OW58272   9.696   9.729   4.213 -0.3672  0.1224  0.1564
18652SOL    HW158273   9.739   9.705   4.295 -1.1852 -0.6744  0.3571
18652SOL    HW258274   9.616   9.677   4.211 -1.0157  1.1150 -0.5257
18653SOL     OW58275   7.208   4.254   2.594  0.3845  0.7112  0.1818
18653SOL    HW158276   7.128   4.252   2.646  0.0746  0.5639 -0.2931
18653SOL    HW258277   7.190   4.315   2.523  0.9464  1.2137  0.4646
18654SOL     OW58278   7.941   8.586   2.070  0.1835  0.5227 -0.2069
18654SOL    HW158279   7.956   8.554   1.981  2.3925 -0.3520  0.4017
18654SOL    HW258280   7.968   8.513   2.126 -2.0180  0.7242  1.2040
18655SOL     OW58281   9.488   8.098   5.912  0.1256 -0.0286  0.0234
18655SOL    HW158282   9.553   8.053   5.966  0.8186 -0.2761 -0.9878
18655SOL    HW258283   9.540   8.158   5.859 -0.4553 -0.3377 -0.9082
18656SOL     OW58284   8.222   0.129   6.113  0.3949  0.4297 -0.6151
18656SOL    HW158285   8.129   0.146   6.099  0.0051 -1.5959 -0.8039
18656SOL    HW258286   8.231   0.034   6.102  2.3365  0.4692  0.2228
18657SOL     OW58287  10.414   7.912   6.834 -0.2651 -0.3217 -0.1953
18657SOL    HW158288  10.322   7.898   6.813 -0.3210  1.6312 -1.5717
18657SOL    HW258289  10.413   7.987   6.894  0.4346 -0.1879 -0.3406
18658SOL     OW58290   7.012   7.079   3.138  1.0642  0.5191  0.0886
18658SOL    HW158291   7.085   7.141   3.139  0.7367  0.9310 -0.4085
18658SOL    HW258292   6.938   7.131   3.107  0.3830  0.2938  1.2933
18659SOL     OW58293   2.984   6.355   3.688  0.4544 -0.2556  0.3077
18659SOL    HW158294   2.924   6.356   3.614  2.1598  0.7504 -1.1230
18659SOL    HW258295   2.957   6.430   3.741 -0.5648 -0.7877  0.5777
18660SOL     OW58296   6.105   4.541   5.221 -0.1305  0.4117 -0.3460
18660SOL    HW158297   6.070   4.517   5.135 -0.0005 -1.8365  0.1695
18660SOL    HW258298   6.140   4.630   5.209  1.1957 -0.3673 -3.0003
18661SOL     OW58299   7.887   9.029   4.124 -0.6110 -0.1607 -0.0790
18661SOL    HW158300   7.833   9.070   4.056  0.2918  0.2929 -0.5496
18661SOL    HW258301   7.837   8.952   4.151 -0.9967 -0.3614 -1.2724
18662SOL     OW58302   2.966   0.752   8.667 -0.4462  0.4494 -0.2622
18662SOL    HW158303   2.920   0.804   8.601 -0.5716  1.3623  0.5209
18662SOL    HW258304   2.905   0.749   8.741  0.0379  0.1703  0.1259
18663SOL     OW58305   1.405   3.756   0.978 -0.1537  0.5244  0.2245
18663SOL    HW158306   1.368   3.762   1.066 -1.2176 -0.3112 -0.1399
18663SOL    HW258307   1.348   3.811   0.925 -0.2866  0.0160 -0.1648
18664SOL     OW58308   5.086   5.514   9.036  0.0272  0.5699 -0.3419
18664SOL    HW158309   5.108   5.449   9.103  1.2204  2.6341  1.3949
18664SOL    HW258310   4.992   5.531   9.049 -0.1483 -0.3199 -0.3962
18665SOL     OW58311   1.550   7.737   6.149  0.1806  0.3250 -0.2691
18665SOL    HW158312   1.605   7.681   6.094 -0.2140  1.1414 -1.5496
18665SOL    HW258313   1.612   7.787   6.201  0.6457  0.7547 -1.2146
18666SOL     OW58314   4.064   7.634   1.182 -0.2736  0.5553  0.1278
18666SOL    HW158315   4.037   7.543   1.176  0.4628  0.4356 -2.0478
18666SOL    HW258316   4.048   7.658   1.274  0.4728 -2.0428  1.0036
18667SOL     OW58317   5.301   5.995   2.947  0.4075  0.3222 -0.5332
18667SOL    HW158318   5.287   5.911   2.990 -0.7785  0.9396  0.3386
18667SOL    HW258319   5.387   5.987   2.905 -0.1198 -1.6673 -1.3229
18668SOL     OW58320   9.792   0.325   0.754 -0.5499  0.2258 -0.3796
18668SOL    HW158321   9.762   0.236   0.737 -0.3393 -0.0808  0.7771
18668SOL    HW258322   9.722   0.363   0.808  0.8890 -0.4046  2.1050
18669SOL     OW58323   0.559   6.548   1.469 -0.0223 -0.6600  0.6076
18669SOL    HW158324   0.535   6.462   1.436  0.8249 -0.5989 -0.1884
18669SOL    HW258325   0.484   6.575   1.523 -1.0712 -1.1155 -0.5934
18670SOL     OW58326   5.235   7.879   1.890  0.3887  0.4619 -0.6893
18670SOL    HW158327   5.175   7.875   1.964  0.1325  1.5965 -0.8175
18670SOL    HW258328   5.242   7.972   1.870  1.7481  0.3101 -1.0408
18671SOL     OW58329   3.530   0.453   8.410 -0.1669  0.2933 -0.8539
18671SOL    HW158330   3.454   0.397   8.418  1.8361 -2.5959 -0.4921
18671SOL    HW258331   3.555   0.448   8.318  0.2429  0.2800 -0.7462
18672SOL     OW58332   3.978   8.875   9.854 -0.3733 -0.4789  0.2325
18672SOL    HW158333   3.941   8.794   9.818  1.8248 -1.6679  0.4511
18672SOL    HW258334   3.990   8.932   9.778  0.4110 -1.3752 -0.3433
18673SOL     OW58335   3.641   9.465   8.015 -0.3613  0.1739 -0.4588
18673SOL    HW158336   3.712   9.443   7.954  1.3215 -0.0042  1.4649
18673SOL    HW258337   3.670   9.429   8.099 -2.2486  1.0574  0.6227
18674SOL     OW58338   5.723   9.453   0.801  0.3229 -0.0963  0.5727
18674SOL    HW158339   5.651   9.476   0.860  0.6830  0.9765  0.6244
18674SOL    HW258340   5.706   9.505   0.722  2.0369  1.6659  1.2873
18675SOL     OW58341  10.186   5.022   6.050 -0.1929  0.2209 -0.5835
18675SOL    HW158342  10.260   4.969   6.019  1.0501  0.8162  1.2579
18675SOL    HW258343  10.135   4.963   6.104  0.8305  0.6314  0.9155
18676SOL     OW58344   1.661   3.809   0.891 -0.0615 -0.6564 -0.1952
18676SOL    HW158345   1.685   3.870   0.960 -0.0444 -0.4898 -0.3497
18676SOL    HW258346   1.568   3.791   0.907 -0.2780  0.0466 -0.6404
18677SOL     OW58347   5.972   4.558   2.733  0.1442 -0.4527 -0.0630
18677SOL    HW158348   5.942   4.615   2.662 -2.7040 -0.9122  0.6708
18677SOL    HW258349   5.921   4.478   2.723  0.2166 -0.8245  2.0582
18678SOL     OW58350   1.797  10.584   1.365  0.0098 -0.4527 -0.5640
18678SOL    HW158351   1.842  10.576   1.281  0.1080  0.8042 -0.6606
18678SOL    HW258352   1.861  10.627   1.423 -0.2467 -0.8128 -0.0009
18679SOL     OW58353   2.694   8.065   4.559  0.4282 -0.4054 -0.0981
18679SOL    HW158354   2.667   7.974   4.546  1.6539 -0.9678  1.0250
18679SOL    HW258355   2.614   8.110   4.588 -0.2228 -1.0826 -0.8144
18680SOL     OW58356   6.746   3.389   7.009  0.2121 -0.1043  0.4612
18680SOL    HW158357   6.727   3.305   7.050  1.3363 -0.7514 -0.3052
18680SOL    HW258358   6.823   3.422   7.055 -0.3501  0.6392  0.9107
18681SOL     OW58359   2.985   7.788   1.649  0.2805  0.7635  0.6915
18681SOL    HW158360   2.952   7.735   1.721  0.6585 -2.5567 -1.3584
18681SOL    HW258361   3.072   7.752   1.631 -0.2532  0.6363 -2.0676
18682SOL     OW58362   2.174   1.501   4.311 -0.0851  0.0203  0.7512
18682SOL    HW158363   2.215   1.416   4.300 -0.9681 -0.6801  2.4342
18682SOL    HW258364   2.179   1.542   4.225  0.0056 -1.8960 -0.2001
18683SOL     OW58365   2.751   8.144   5.787  0.6148 -0.0586 -0.1143
18683SOL    HW158366   2.691   8.117   5.856 -1.6856  0.0600 -1.9299
18683SOL    HW258367   2.772   8.235   5.808  0.6102 -0.2693  0.8377
18684SOL     OW58368   0.940   2.375   7.262 -0.7244  0.2452  0.4167
18684SOL    HW158369   1.010   2.421   7.216 -0.9665 -0.2338 -0.4810
18684SOL    HW258370   0.887   2.444   7.302  0.5322  0.5848  1.5342
18685SOL     OW58371   4.622   7.913   5.780  0.0247 -0.4567 -0.7649
18685SOL    HW158372   4.544   7.921   5.724 -0.1090 -2.2697 -0.9022
18685SOL    HW258373   4.685   7.974   5.741 -1.1177  0.6464 -0.9752
18686SOL     OW58374   6.610   4.960   9.892  0.0836 -0.2430 -0.7069
18686SOL    HW158375   6.674   4.897   9.858  0.4692 -0.4784  0.4109
18686SOL    HW258376   6.550   4.975   9.819  0.8350 -0.7911 -1.4512
18687SOL     OW58377   3.310   3.353   4.836 -0.9154  0.1074 -0.1284
18687SOL    HW158378   3.245   3.422   4.823  1.2890  2.2415 -0.5886
18687SOL    HW258379   3.356   3.348   4.752 -0.0278 -0.8582  0.3948
18688SOL     OW58380   3.396   4.940   5.622  0.2942 -0.0422 -0.5953
18688SOL    HW158381   3.306   4.918   5.601  0.9631 -4.1528 -0.0611
18688SOL    HW258382   3.393   4.970   5.713 -0.5319  0.0299 -0.6380
18689SOL     OW58383   5.359   3.707   1.513 -0.2047 -0.2707  0.3144
18689SOL    HW158384   5.399   3.737   1.432  0.9185  0.0628  0.9769
18689SOL    HW258385   5.426   3.719   1.579 -1.2068 -0.2548  1.3633
18690SOL     OW58386   4.456   7.558   0.353 -0.5108  0.2885 -0.6257
18690SOL    HW158387   4.517   7.549   0.426 -1.2631 -2.1724 -0.1926
18690SOL    HW258388   4.509   7.544   0.275 -0.1389  0.3250 -0.3809
18691SOL     OW58389   5.105   5.705  10.148 -0.3652  0.0459  0.3849
18691SOL    HW158390   5.059   5.627  10.116  0.6342 -0.5848  0.4408
18691SOL    HW258391   5.161   5.673  10.218  1.2790  0.5067 -0.6630
18692SOL     OW58392   0.367   4.600   1.709  0.0262 -0.3840  0.5061
18692SOL    HW158393   0.355   4.690   1.739  1.2062  0.0236 -0.1730
18692SOL    HW258394   0.293   4.552   1.747 -0.4608  0.8031  1.1175
18693SOL     OW58395   0.085   5.806   2.921 -0.3345  0.1378  0.0225
18693SOL    HW158396   0.034   5.817   2.840 -1.1345  2.1949  0.7402
18693SOL    HW258397   0.062   5.718   2.951 -2.1056  0.3241 -0.6258
18694SOL     OW58398   3.541   9.314   2.597 -0.0799 -0.3791  0.2615
18694SOL    HW158399   3.528   9.292   2.689 -3.1411  2.8890  0.7883
18694SOL    HW258400   3.479   9.258   2.549  0.3253 -0.8912  0.3257
18695SOL     OW58401   2.766   7.367  10.466  0.3192 -0.0620  0.0966
18695SOL    HW158402   2.686   7.346  10.417 -0.9098  2.7831  0.6659
18695SOL    HW258403   2.831   7.384  10.398  0.1171 -1.2479 -0.4093
18696SOL     OW58404   7.769   2.423   2.981  0.2577  0.4811 -0.3525
18696SOL    HW158405   7.745   2.417   2.889 -3.1871 -0.6385  0.4760
18696SOL    HW258406   7.856   2.383   2.985  0.1890 -0.1454 -3.0072
18697SOL     OW58407   9.379   4.473   1.966  0.2031  0.0971  0.2059
18697SOL    HW158408   9.460   4.523   1.975  0.7698 -0.5762 -0.9525
18697SOL    HW258409   9.328   4.520   1.901  0.9103 -0.9868 -1.1906
18698SOL     OW58410   2.820   4.691   5.894  0.4176 -0.4171 -0.2487
18698SOL    HW158411   2.797   4.628   5.962  0.8101  0.2187  0.4975
18698SOL    HW258412   2.899   4.655   5.854 -0.1604 -1.0975 -0.7815
18699SOL     OW58413   9.874   5.713   7.594  0.1199  0.1615  0.6602
18699SOL    HW158414   9.835   5.796   7.568 -0.5415 -0.8529 -1.9728
18699SOL    HW258415   9.968   5.729   7.596  0.0543  0.7883 -0.6726
18700SOL     OW58416   6.957   3.425   7.805 -0.5183 -0.0013  0.2174
18700SOL    HW158417   6.971   3.389   7.893 -0.1083 -0.2746  0.0457
18700SOL    HW258418   6.878   3.479   7.813 -2.0563 -2.1290  0.1317
18701SOL     OW58419   5.304   2.718   1.922  0.2830 -0.6334 -0.0625
18701SOL    HW158420   5.311   2.689   1.831  2.1791 -1.2676  0.2296
18701SOL    HW258421   5.245   2.655   1.963 -0.5833 -0.3456 -0.8305
18702SOL     OW58422   6.119   9.577   0.213 -0.1569  0.4118  0.0125
18702SOL    HW158423   6.125   9.491   0.171 -0.6990  0.5417 -0.3309
18702SOL    HW258424   6.037   9.614   0.182  0.2890  1.2507 -0.1941
18703SOL     OW58425   8.793   3.622   9.022 -0.6071  0.0658 -0.5178
18703SOL    HW158426   8.703   3.595   9.006 -0.3972  0.3256 -2.3409
18703SOL    HW258427   8.846   3.563   8.968  0.2685  0.3476  0.0119
18704SOL     OW58428   8.363   9.812   4.623 -0.6167  0.3097  0.0509
18704SOL    HW158429   8.362   9.758   4.702  1.0365  0.3383  0.1261
18704SOL    HW258430   8.319   9.893   4.649 -1.8738 -0.4432  0.3380
18705SOL     OW58431   8.458  10.597   1.324  0.5905 -0.3132 -0.1039
18705SOL    HW158432   8.496  10.531   1.266  2.4926  1.0212 -0.4514
18705SOL    HW258433   8.511  10.593   1.403  2.3895  2.3913 -1.0387
18706SOL     OW58434   2.482   3.676   3.710  1.1087  0.5421  0.3147
18706SOL    HW158435   2.516   3.705   3.626  1.6677 -1.0043 -0.0293
18706SOL    HW258436   2.555   3.632   3.753 -0.0951 -2.0116 -0.0355
18707SOL     OW58437   3.098   0.085   4.507  0.3488 -0.0844  0.0376
18707SOL    HW158438   3.186   0.085   4.545  0.2832 -0.0517  0.1889
18707SOL    HW258439   3.051   0.017   4.555  0.4151 -0.3931 -0.3293
18708SOL     OW58440   6.165   3.382   2.630 -0.0884  0.0171 -0.1271
18708SOL    HW158441   6.249   3.429   2.623 -0.2855  0.3123 -0.5307
18708SOL    HW258442   6.149   3.376   2.724  0.3794 -0.0290 -0.0468
18709SOL     OW58443   8.051   2.527   8.721  0.7298  0.2245  0.2247
18709SOL    HW158444   7.972   2.474   8.733  1.7793 -0.8297  3.8889
18709SOL    HW258445   8.040   2.568   8.636 -3.9747  0.5071  0.6998
18710SOL     OW58446   8.486   3.005   0.397 -0.2738 -0.1814 -0.4782
18710SOL    HW158447   8.581   3.019   0.404 -0.5026  1.1909  0.3763
18710SOL    HW258448   8.476   2.910   0.398  1.0381 -0.3493  0.4378
18711SOL     OW58449   0.510   1.422   6.973  0.1041  0.1050  0.5744
18711SOL    HW158450   0.490   1.329   6.987  0.5534  0.1950  2.0133
18711SOL    HW258451   0.590   1.437   7.024  0.4040  1.1397 -0.1662
18712SOL     OW58452   5.761   4.268   4.495  0.6419 -0.0199  0.3187
18712SOL    HW158453   5.674   4.289   4.462  0.0089 -0.1399  1.8620
18712SOL    HW258454   5.805   4.225   4.421  0.3098  2.2684 -1.3067
18713SOL     OW58455   0.519   7.266  10.560  0.0453 -0.0992  0.1658
18713SOL    HW158456   0.427   7.282  10.579  0.5488  1.7172  1.2100
18713SOL    HW258457   0.542   7.331  10.494  0.2579 -1.4693 -1.1736
18714SOL     OW58458   6.961   0.035   4.609  0.3692 -0.1117 -0.8350
18714SOL    HW158459   6.944  -0.052   4.645  0.8527  0.1561  0.0753
18714SOL    HW258460   6.885   0.087   4.635  1.5237  0.5552  1.4591
18715SOL     OW58461   9.731  10.429   4.710 -0.1957  0.4139 -0.1986
18715SOL    HW158462   9.727  10.520   4.740 -3.1945  0.9170 -1.7749
18715SOL    HW258463   9.808  10.425   4.654  0.4256  1.7338  0.5259
18716SOL     OW58464   2.533   7.958   0.735 -0.2516 -0.6025 -0.7944
18716SOL    HW158465   2.576   8.044   0.738 -0.5358 -0.4131 -1.8209
18716SOL    HW258466   2.455   7.972   0.682 -0.5123 -1.4117 -0.6344
18717SOL     OW58467   4.534   9.285   4.424 -0.2896 -0.1802 -0.2856
18717SOL    HW158468   4.495   9.269   4.338 -0.1829 -0.4656 -0.2813
18717SOL    HW258469   4.530   9.380   4.435 -0.8938 -0.1917 -0.3314
18718SOL     OW58470   3.654  10.187   2.257 -0.4740 -0.7881  0.6536
18718SOL    HW158471   3.659  10.098   2.293 -0.1241 -0.4360  1.5234
18718SOL    HW258472   3.694  10.181   2.171 -0.1141 -1.4093  0.8570
18719SOL     OW58473   3.204   7.016   7.866 -0.0437  0.3088  0.0403
18719SOL    HW158474   3.220   7.009   7.772 -1.5061  2.7071 -0.4875
18719SOL    HW258475   3.142   6.946   7.885 -1.8390  1.3844 -1.4280
18720SOL     OW58476   6.050   4.233   6.003  0.4796 -0.1663  0.4524
18720SOL    HW158477   6.133   4.275   5.982 -0.1349  1.1771  0.5942
18720SOL    HW258478   6.037   4.250   6.096  0.1000 -0.4709  0.4581
18721SOL     OW58479   2.545   8.559   2.393 -0.0218 -0.1254 -0.2117
18721SOL    HW158480   2.498   8.629   2.437  1.5261 -0.8530  2.8260
18721SOL    HW258481   2.498   8.479   2.417  0.5243 -0.4915 -0.3365
18722SOL     OW58482   0.737   9.610   1.353 -0.3202  0.5633 -0.1140
18722SOL    HW158483   0.744   9.552   1.277 -0.9250 -0.2653  0.4533
18722SOL    HW258484   0.827   9.617   1.385 -0.3138 -0.5109  0.1364
18723SOL     OW58485   4.092   0.101   0.881  0.1033 -0.0071  0.0857
18723SOL    HW158486   4.010   0.109   0.832  1.3000 -0.5913 -2.1712
18723SOL    HW258487   4.070   0.045   0.955 -1.5333 -0.2246 -0.5249
18724SOL     OW58488   4.948   2.052   8.999 -0.3825  0.0975 -0.0431
18724SOL    HW158489   4.952   2.000   9.079  0.4872  1.0151  0.5409
18724SOL    HW258490   4.962   2.142   9.029  0.0889  0.4422 -1.2396
18725SOL     OW58491   1.091   4.552   9.812 -0.1819 -0.1027  0.1563
18725SOL    HW158492   1.049   4.629   9.851 -0.1631  0.5882 -1.1318
18725SOL    HW258493   1.132   4.507   9.886  0.1005  1.3176  0.8982
18726SOL     OW58494   6.692   9.249   0.582 -0.2773 -0.0435  0.8315
18726SOL    HW158495   6.769   9.307   0.588 -1.3280  1.2576  2.4271
18726SOL    HW258496   6.618   9.309   0.579 -1.2845 -1.2713 -0.9754
18727SOL     OW58497   5.941   1.527   6.291 -0.0248 -0.1956  0.0627
18727SOL    HW158498   5.882   1.455   6.269 -2.2392  1.0759  1.4544
18727SOL    HW258499   5.900   1.604   6.251  0.9875  0.6480  0.6209
18728SOL     OW58500   3.367   1.283   5.097  0.2454 -0.2487 -0.3108
18728SOL    HW158501   3.395   1.252   5.011 -0.5161 -0.0416 -0.6453
18728SOL    HW258502   3.406   1.370   5.105  0.3608 -0.2903 -0.4151
18729SOL     OW58503   7.584   0.724   3.128 -0.5431  0.3715 -0.0246
18729SOL    HW158504   7.518   0.735   3.196 -0.6790  0.8390 -0.2299
18729SOL    HW258505   7.595   0.629   3.120 -0.7079  0.3088  0.4701
18730SOL     OW58506   8.775   9.247   9.156  0.0166  0.0758  0.1882
18730SOL    HW158507   8.727   9.307   9.214  0.0202  0.3652 -0.0999
18730SOL    HW258508   8.706   9.206   9.103  0.0928  0.6138 -0.3403
18731SOL     OW58509   1.861   3.713   4.813 -0.4796  0.4964 -0.6606
18731SOL    HW158510   1.872   3.732   4.906 -1.0035  0.3257 -0.5600
18731SOL    HW258511   1.911   3.633   4.799 -2.4124 -0.9337  0.0481
18732SOL     OW58512   8.480   1.484   0.585 -0.4371  0.2978  0.1315
18732SOL    HW158513   8.453   1.460   0.497  0.3432 -0.8564  0.1866
18732SOL    HW258514   8.576   1.478   0.584 -0.2429  2.5996  0.4186
18733SOL     OW58515   4.958  10.190   1.738 -0.0014  0.0672 -0.0672
18733SOL    HW158516   4.875  10.157   1.704  1.6759 -3.9634 -0.7250
18733SOL    HW258517   4.952  10.177   1.833 -0.2014 -0.0479 -0.0964
18734SOL     OW58518   6.309   4.479   6.255 -0.4449 -0.3169 -0.9842
18734SOL    HW158519   6.274   4.483   6.166 -2.2943 -0.8599 -0.3262
18734SOL    HW258520   6.277   4.396   6.290 -1.6775  0.8725  0.9232
18735SOL     OW58521   7.837  10.486   9.552  0.3282  0.1489  0.6318
18735SOL    HW158522   7.749  10.505   9.584  0.3023 -0.5388  0.9835
18735SOL    HW258523   7.877  10.434   9.622 -0.5647 -3.6032 -1.3387
18736SOL     OW58524   5.367   2.954  10.321 -0.3887 -0.6530  0.1537
18736SOL    HW158525   5.459   2.946  10.298 -0.6460 -0.8608 -0.8359
18736SOL    HW258526   5.344   3.045  10.298 -0.1337 -0.2140  1.5468
18737SOL     OW58527   3.488   7.092   7.929 -0.6869 -0.4250  0.1772
18737SOL    HW158528   3.402   7.125   7.902 -0.9025 -1.7249 -0.8242
18737SOL    HW258529   3.469   7.014   7.981 -0.1212 -0.6554  0.0511
18738SOL     OW58530   2.041   4.073   9.400 -0.4031 -0.3965  0.6043
18738SOL    HW158531   2.096   4.129   9.345  0.8565 -2.2310 -0.1094
18738SOL    HW258532   2.083   4.075   9.486 -1.1947  0.8440  0.9909
18739SOL     OW58533   0.061   3.352   4.542  0.5457 -0.2311  0.1237
18739SOL    HW158534   0.130   3.327   4.481  0.6085  2.2856 -0.9893
18739SOL    HW258535   0.096   3.332   4.629  1.4719 -1.6165 -0.5431
18740SOL     OW58536   5.638   6.159   0.782 -0.2919 -0.4651  0.0680
18740SOL    HW158537   5.600   6.188   0.865 -1.7339 -0.1634 -0.6555
18740SOL    HW258538   5.593   6.212   0.716 -0.0154 -1.5008 -0.9813
18741SOL     OW58539   0.508   3.952   1.487 -0.0556  0.0316  0.0203
18741SOL    HW158540   0.485   3.894   1.415 -0.9439  0.6911 -0.2378
18741SOL    HW258541   0.555   4.025   1.446 -0.6683  0.4680  0.0834
18742SOL     OW58542   0.480   5.594   2.507  0.8673  0.0784 -0.0845
18742SOL    HW158543   0.414   5.630   2.567 -0.7258 -1.9441 -0.4804
18742SOL    HW258544   0.554   5.573   2.563  1.2020  2.3094  0.3951
18743SOL     OW58545   6.358  10.403   6.489  0.0562  0.4290  0.5930
18743SOL    HW158546   6.395  10.318   6.514 -1.3739 -0.3575  0.1303
18743SOL    HW258547   6.295  10.383   6.420 -0.4638  1.8447  0.6233
18744SOL     OW58548   3.014   6.167   4.613  0.0191 -0.6233 -0.1371
18744SOL    HW158549   3.083   6.227   4.586  0.1705 -0.6176  0.2625
18744SOL    HW258550   3.037   6.084   4.572  0.0905 -0.5411 -0.2649
18745SOL     OW58551   2.821   9.708   8.802  0.0333 -0.4345  0.1731
18745SOL    HW158552   2.751   9.773   8.799  0.0486 -0.4497 -0.6457
18745SOL    HW258553   2.776   9.624   8.791  0.2382 -0.3930 -1.1752
18746SOL     OW58554   0.977   1.099   3.471 -0.0182  0.2501  0.2872
18746SOL    HW158555   1.038   1.047   3.418 -2.5098 -1.9253 -0.6771
18746SOL    HW258556   0.991   1.189   3.441  1.5668 -0.3742 -1.0276
18747SOL     OW58557   5.377   7.220   4.495  0.2243  0.1372 -0.4464
18747SOL    HW158558   5.402   7.249   4.583 -0.5224  0.5305 -0.3564
18747SOL    HW258559   5.327   7.293   4.459  1.4046  0.3985 -1.6099
18748SOL     OW58560   7.980   3.279  10.228 -0.0851 -0.0675  1.0481
18748SOL    HW158561   8.032   3.238  10.297 -2.4496 -1.8865  1.8995
18748SOL    HW258562   7.944   3.358  10.268  0.7508  0.3939  0.9275
18749SOL     OW58563   6.389   3.838   9.210 -0.2002 -0.3532  0.8465
18749SOL    HW158564   6.402   3.919   9.161  2.2419 -1.0754  0.1956
18749SOL    HW258565   6.391   3.866   9.302  3.2345  0.1405  0.7538
18750SOL     OW58566   0.023   0.607   5.875  0.3899 -0.4513  0.3247
18750SOL    HW158567   0.034   0.512   5.872  0.5686 -0.4153 -0.3289
18750SOL    HW258568  -0.070   0.621   5.856  0.0808 -0.5450  1.6471
18751SOL     OW58569  10.399   8.375   0.008  0.5579  0.6282  0.3684
18751SOL    HW158570  10.304   8.377   0.018  0.6393 -0.7242  1.7624
18751SOL    HW258571  10.420   8.282  -0.001  1.9028  0.7029  2.1891
18752SOL     OW58572  10.089   2.322   4.674  0.0537 -0.1073  0.1842
18752SOL    HW158573  10.161   2.280   4.720 -1.3015 -2.3149  0.4533
18752SOL    HW258574  10.104   2.416   4.686  2.0832 -0.5343  1.4174
18753SOL     OW58575   1.127   6.353   7.426 -0.2731 -0.2868  0.2972
18753SOL    HW158576   1.117   6.315   7.339  0.3293  0.7103 -0.2299
18753SOL    HW258577   1.207   6.313   7.461  0.6071  0.7618 -0.4314
18754SOL     OW58578   0.732   8.407   5.799 -0.2470  0.2464 -0.4250
18754SOL    HW158579   0.637   8.395   5.797 -0.0296 -2.6534  1.2681
18754SOL    HW258580   0.765   8.360   5.723 -0.0408 -0.7841  0.2907
18755SOL     OW58581  10.031   4.447   1.731 -0.5207  0.0427 -0.2884
18755SOL    HW158582  10.083   4.382   1.683  0.1619 -0.4030  0.9807
18755SOL    HW258583  10.048   4.529   1.686 -0.3928 -0.4518 -1.1683
18756SOL     OW58584   4.562   6.059   4.533  0.5303 -0.4271 -0.4055
18756SOL    HW158585   4.469   6.041   4.518 -0.5401  1.5028  2.8747
18756SOL    HW258586   4.599   6.069   4.445 -2.5833 -0.1703 -1.8174
18757SOL     OW58587   3.599   0.677  10.184 -0.1590  1.2696 -0.7475
18757SOL    HW158588   3.506   0.657  10.174 -0.3473  0.3172  2.0819
18757SOL    HW258589   3.602   0.772  10.198 -0.7242  1.2632 -0.5884
18758SOL     OW58590   9.178   9.333   2.924  0.0736  0.3403  0.1980
18758SOL    HW158591   9.167   9.427   2.909 -1.5875  0.4201  1.6507
18758SOL    HW258592   9.190   9.297   2.836  0.1139  1.8222 -0.4435
18759SOL     OW58593   4.837   0.802   5.119  0.5883 -0.4495  0.2951
18759SOL    HW158594   4.823   0.757   5.203  0.5211  2.2025  1.8258
18759SOL    HW258595   4.930   0.789   5.100  0.8249 -0.3268  1.2966
18760SOL     OW58596   3.310   5.214   5.375 -0.3310 -0.0123  0.0071
18760SOL    HW158597   3.400   5.226   5.343 -0.3761  1.1731  0.2786
18760SOL    HW258598   3.296   5.287   5.436 -1.3314 -0.4258  0.2908
18761SOL     OW58599   1.886   7.198   5.066  0.4034 -0.8047 -0.4426
18761SOL    HW158600   1.916   7.132   5.003 -0.5510 -1.8307  0.1331
18761SOL    HW258601   1.802   7.228   5.031  1.3015  0.9065 -1.2400
18762SOL     OW58602   2.368   6.576   2.013 -0.0344  0.1448  0.0622
18762SOL    HW158603   2.420   6.539   1.942  0.9389  0.5271  0.5523
18762SOL    HW258604   2.397   6.529   2.091 -0.1591  0.6101  0.3955
18763SOL     OW58605   7.739   4.109   8.426 -0.0008  0.3269  0.2820
18763SOL    HW158606   7.697   4.178   8.375 -0.0249  0.2987  0.2633
18763SOL    HW258607   7.686   4.103   8.506 -0.6905 -0.4514 -0.2100
18764SOL     OW58608   5.667  10.389   7.662 -0.5261  0.2021  0.3060
18764SOL    HW158609   5.617  10.342   7.595 -1.6370  2.2758 -0.4040
18764SOL    HW258610   5.643  10.346   7.744 -2.1622  0.0498 -0.2221
18765SOL     OW58611   2.277   2.148   1.745 -0.0599 -0.2138 -0.5060
18765SOL    HW158612   2.339   2.135   1.817  0.1692  1.0079 -0.4495
18765SOL    HW258613   2.225   2.068   1.743 -1.8600  0.6807  2.7607
18766SOL     OW58614   1.750   8.621   7.938 -0.1886  0.1133 -0.6070
18766SOL    HW158615   1.756   8.716   7.932  0.2005  0.2461  1.2700
18766SOL    HW258616   1.840   8.590   7.929 -0.2657 -0.0599 -0.8058
18767SOL     OW58617   5.531   0.664   2.662 -0.0913  0.0060 -0.5809
18767SOL    HW158618   5.486   0.748   2.661 -1.8290 -0.8887 -1.5590
18767SOL    HW258619   5.622   0.686   2.639 -0.8680  1.4500 -2.5873
18768SOL     OW58620   8.745   9.112   0.834  0.0593 -0.1843  0.2137
18768SOL    HW158621   8.753   9.196   0.789 -0.1486 -0.7030 -0.8340
18768SOL    HW258622   8.736   9.134   0.926 -0.7936  0.9815 -0.1267
18769SOL     OW58623   2.313   8.989   6.560 -0.2599 -0.5985  0.0984
18769SOL    HW158624   2.270   9.069   6.531  0.8582 -0.5803 -1.6846
18769SOL    HW258625   2.325   9.000   6.654 -1.1818  0.7844  0.0843
18770SOL     OW58626  10.200  10.576   4.880 -0.4524  0.0120 -0.2482
18770SOL    HW158627  10.215  10.501   4.822 -2.6941 -0.8246  0.1207
18770SOL    HW258628  10.287  10.603   4.908  0.6441 -0.2806 -3.0561
18771SOL     OW58629   0.550   3.884   9.520 -0.2148  0.2031 -0.6183
18771SOL    HW158630   0.467   3.887   9.568 -1.5129 -4.2632 -2.0506
18771SOL    HW258631   0.528   3.916   9.433 -0.4480 -0.7764 -0.9343
18772SOL     OW58632   5.619   3.989   2.656  0.3584 -0.3426 -0.4041
18772SOL    HW158633   5.659   3.987   2.743  1.2315 -0.2275 -0.7929
18772SOL    HW258634   5.650   3.909   2.613  0.8279  0.1441 -0.9912
18773SOL     OW58635   2.152   3.692   0.556 -0.3954 -0.2879  0.0971
18773SOL    HW158636   2.176   3.659   0.469 -2.7168  0.0904 -0.7528
18773SOL    HW258637   2.114   3.778   0.540 -0.4601 -0.0149  1.5498
18774SOL     OW58638   0.933   3.120   9.141 -0.3311 -0.1384  0.0792
18774SOL    HW158639   1.022   3.091   9.125 -0.2861  0.9344 -1.8682
18774SOL    HW258640   0.934   3.153   9.232  1.2374 -0.1491  0.0836
18775SOL     OW58641   6.363   8.746   2.649  0.1112  0.1795 -0.0673
18775SOL    HW158642   6.443   8.779   2.607 -0.6599  0.7973 -1.1058
18775SOL    HW258643   6.395   8.694   2.723  1.4290  2.9409  1.4621
18776SOL     OW58644   8.072   6.165   7.967 -0.1161 -0.3740  0.1457
18776SOL    HW158645   8.156   6.183   7.926  0.3417 -0.6876  0.9200
18776SOL    HW258646   8.021   6.245   7.953  0.8256  0.3945  0.9281
18777SOL     OW58647   0.670   2.884   3.016  0.0997  0.0055 -0.3645
18777SOL    HW158648   0.761   2.872   2.987  0.3867  2.5000 -0.7145
18777SOL    HW258649   0.618   2.875   2.937  0.3846  1.5910 -0.7741
18778SOL     OW58650   4.223   8.592   8.891  0.2917 -0.1287  0.1280
18778SOL    HW158651   4.246   8.660   8.828  0.2455  0.9160  1.2091
18778SOL    HW258652   4.127   8.588   8.887  0.2063  0.7736  0.9595
18779SOL     OW58653   3.358   2.037   7.842 -0.3346 -0.3018 -0.8215
18779SOL    HW158654   3.273   2.025   7.799 -0.4781  2.2373 -1.3813
18779SOL    HW258655   3.360   2.129   7.867  2.0470 -0.4194 -0.3115
18780SOL     OW58656   0.931   0.956   1.665 -0.4386  0.4922  0.0939
18780SOL    HW158657   0.961   1.014   1.734 -0.0906  2.7281 -1.8053
18780SOL    HW258658   1.008   0.940   1.611 -0.4773 -2.0013  0.6635
18781SOL     OW58659   9.459   9.032   3.290  0.0547 -0.1084 -0.0562
18781SOL    HW158660   9.389   9.002   3.234  0.9327 -1.0540 -0.6790
18781SOL    HW258661   9.507   8.952   3.315  0.1477  0.3625  1.4121
18782SOL     OW58662   1.685   3.745   0.505  0.0128  0.5432  0.0619
18782SOL    HW158663   1.684   3.712   0.596 -2.3578 -0.6522 -0.3181
18782SOL    HW258664   1.764   3.706   0.467 -1.0775 -2.4139  0.5270
18783SOL     OW58665   1.824   3.441   8.342 -0.1471  0.1909  0.1846
18783SOL    HW158666   1.897   3.410   8.397 -1.2153 -2.1233  0.4215
18783SOL    HW258667   1.857   3.433   8.253  0.1922 -0.0490  0.3275
18784SOL     OW58668   0.365   3.714   0.681  0.3981  0.1161  0.7447
18784SOL    HW158669   0.291   3.765   0.647  0.4551 -0.8176 -0.9187
18784SOL    HW258670   0.327   3.630   0.706  0.9226 -0.5477 -0.5754
18785SOL     OW58671   4.952   5.293   1.135  0.4022 -0.1789 -0.2218
18785SOL    HW158672   5.042   5.325   1.138  0.1696  0.4168  1.3509
18785SOL    HW258673   4.898   5.370   1.149 -0.4485 -0.3215 -2.3849
18786SOL     OW58674   0.086   1.963   5.245 -0.2489  0.1611  0.0429
18786SOL    HW158675   0.136   1.910   5.184  2.2147  1.2042  1.0243
18786SOL    HW258676   0.016   1.905   5.277 -0.0898 -1.1519 -1.8557
18787SOL     OW58677   4.160   0.190   3.086 -0.1011 -0.0495  0.5019
18787SOL    HW158678   4.204   0.271   3.113 -0.8266  0.3733  0.4428
18787SOL    HW258679   4.069   0.202   3.115 -0.2677 -0.7391  0.2693
18788SOL     OW58680   1.599   7.410   3.988  0.0684 -0.2621  0.0732
18788SOL    HW158681   1.517   7.453   3.963 -0.2480 -0.2763  1.0593
18788SOL    HW258682   1.624   7.451   4.070  0.8583 -0.5331 -0.0206
18789SOL     OW58683   4.446   2.661   2.424 -0.5678  0.1701  0.0072
18789SOL    HW158684   4.404   2.690   2.343  0.4545  2.1201  0.1180
18789SOL    HW258685   4.412   2.720   2.491  0.9514  0.6427  0.4016
18790SOL     OW58686  10.107   3.064   0.716 -0.0347  0.2581  0.1718
18790SOL    HW158687  10.051   3.053   0.639 -1.6197  1.1711  1.1521
18790SOL    HW258688  10.047   3.071   0.789  1.3819  1.0183  1.3151
18791SOL     OW58689   2.462   1.539   3.162  0.3116 -0.4793 -0.0015
18791SOL    HW158690   2.484   1.608   3.225 -2.2422 -0.6311  1.1878
18791SOL    HW258691   2.530   1.473   3.174 -0.3266 -0.7455  3.1003
18792SOL     OW58692  10.225   3.036   5.328 -0.0868  0.0049 -0.2240
18792SOL    HW158693  10.297   2.973   5.323 -1.3345 -1.4020 -1.9919
18792SOL    HW258694  10.260   3.116   5.289  0.5586 -0.6122 -0.9315
18793SOL     OW58695   7.348   6.320   4.862 -0.1228  0.4277 -0.1825
18793SOL    HW158696   7.398   6.371   4.798  0.9696  1.2923  1.3085
18793SOL    HW258697   7.408   6.251   4.890  0.1545  1.2510  1.3558
18794SOL     OW58698   8.929   1.717   4.263  0.6358 -0.4939  0.1086
18794SOL    HW158699   8.859   1.737   4.325 -1.1004 -1.7181 -1.3531
18794SOL    HW258700   8.981   1.798   4.259 -1.3545  0.8927  0.4238
18795SOL     OW58701   7.037   7.138   1.205 -0.1878  0.1580 -0.2076
18795SOL    HW158702   6.970   7.079   1.238  0.8675 -1.1427 -0.2987
18795SOL    HW258703   7.057   7.106   1.117  0.9931  0.1088  0.0590
18796SOL     OW58704   9.326   7.344   1.502 -0.1275 -0.1546  0.4799
18796SOL    HW158705   9.378   7.413   1.544  1.4189 -0.0293 -1.5088
18796SOL    HW258706   9.389   7.273   1.487 -1.2109 -1.1569  0.5520
18797SOL     OW58707   5.099   0.244   7.791 -0.0792 -0.5172  0.0728
18797SOL    HW158708   5.008   0.273   7.785  0.1686  0.1575 -0.6765
18797SOL    HW258709   5.143   0.315   7.838  0.5064  0.3156 -1.6468
18798SOL     OW58710   0.295   3.063   7.718 -0.4057 -0.5896  0.0884
18798SOL    HW158711   0.257   3.054   7.805 -2.4336 -2.0493 -0.8827
18798SOL    HW258712   0.360   3.132   7.728 -0.6201 -0.6586  2.7282
18799SOL     OW58713   5.903   2.095   0.422  0.0014 -0.3854 -0.1131
18799SOL    HW158714   5.896   2.173   0.366 -0.0895 -1.7233 -2.0479
18799SOL    HW258715   5.954   2.033   0.370  0.2807 -1.5496  1.4892
18800SOL     OW58716   4.939   5.800   9.645  0.1693 -0.7446 -0.2904
18800SOL    HW158717   5.026   5.800   9.684 -0.2853 -0.5371  0.7779
18800SOL    HW258718   4.952   5.770   9.555  1.6235  1.3210 -0.8258
18801SOL     OW58719   5.059   2.296   7.513 -0.7161 -0.3389  0.5122
18801SOL    HW158720   4.966   2.295   7.490 -0.1337 -0.7835 -2.1557
18801SOL    HW258721   5.102   2.339   7.439  1.4942 -2.8823  0.1630
18802SOL     OW58722  10.241   6.074   9.301 -0.0755 -0.7191  0.6412
18802SOL    HW158723  10.264   6.026   9.221  0.9858 -1.5100  1.3738
18802SOL    HW258724  10.289   6.028   9.370 -3.3303 -2.0260  2.2436
18803SOL     OW58725   6.379  10.051   2.969  0.1424 -0.1633 -0.2650
18803SOL    HW158726   6.332   9.991   2.910 -0.8879 -0.5484  0.9112
18803SOL    HW258727   6.316  10.120   2.988  1.4914  1.6935 -2.0461
18804SOL     OW58728   9.770   6.620   3.611  0.3235 -0.4867 -0.5922
18804SOL    HW158729   9.855   6.645   3.647  0.4880 -1.5414 -0.2052
18804SOL    HW258730   9.787   6.539   3.564 -0.9063 -2.2316  1.7523
18805SOL     OW58731   3.681   9.030   3.455  0.6549 -0.3098 -0.6774
18805SOL    HW158732   3.725   8.987   3.382  0.4083 -1.1294 -0.3532
18805SOL    HW258733   3.612   9.081   3.414  1.7033  0.7595 -1.1668
18806SOL     OW58734   4.418  10.590   6.342 -0.1514  0.3154  0.1720
18806SOL    HW158735   4.399  10.622   6.430  2.3347 -0.2582  0.9971
18806SOL    HW258736   4.442  10.668   6.292 -0.9862  0.5685  0.1582
18807SOL     OW58737   3.414   6.279   9.918 -0.2884 -0.5373  0.4018
18807SOL    HW158738   3.411   6.241   9.830  1.5831 -0.0634  0.0847
18807SOL    HW258739   3.447   6.368   9.904 -1.1966 -0.0082  1.4815
18808SOL     OW58740   4.262   1.082  10.467  0.2994 -0.0836 -0.1346
18808SOL    HW158741   4.339   1.054  10.517 -0.1122 -1.6967 -0.3793
18808SOL    HW258742   4.227   1.156  10.517 -0.1093 -1.6379  2.0194
18809SOL     OW58743   0.989   8.629   0.346 -0.2683 -0.1127  0.1143
18809SOL    HW158744   0.906   8.581   0.348 -0.0791 -0.4766 -0.8252
18809SOL    HW258745   1.034   8.601   0.426 -0.8390 -0.2730  0.3903
18810SOL     OW58746   4.115   6.368   4.365 -0.1595  0.3832 -0.4818
18810SOL    HW158747   4.209   6.381   4.380  0.0060 -0.3487 -0.8401
18810SOL    HW258748   4.074   6.401   4.445  0.2200  2.7548 -1.1883
18811SOL     OW58749   1.177   5.238   2.962 -0.0375  0.6507  0.3253
18811SOL    HW158750   1.093   5.243   2.916  1.4186 -0.1402 -2.6628
18811SOL    HW258751   1.217   5.324   2.948  0.5073  0.3343 -0.1134
18812SOL     OW58752   4.164   8.115   8.401  0.2764 -0.0839  0.0349
18812SOL    HW158753   4.174   8.055   8.475  0.8752 -0.0943 -0.0520
18812SOL    HW258754   4.252   8.146   8.382  0.0118  0.6421 -0.0785
18813SOL     OW58755   3.239   1.116   2.286 -0.6005 -0.4855  0.7063
18813SOL    HW158756   3.242   1.028   2.249 -0.0852  0.3881 -1.4527
18813SOL    HW258757   3.160   1.116   2.340 -0.8373 -2.1393  0.4198
18814SOL     OW58758   4.080   5.026   7.883 -0.0629 -0.0761 -0.6317
18814SOL    HW158759   4.034   4.956   7.839  0.6864 -0.5238 -0.7216
18814SOL    HW258760   4.021   5.053   7.954  0.1107 -1.5724  0.1305
18815SOL     OW58761  10.293   2.662   3.380  0.4578 -0.1091 -0.3839
18815SOL    HW158762  10.327   2.687   3.466  1.2047  0.7951 -0.9169
18815SOL    HW258763  10.251   2.577   3.394  0.5476  0.0346  0.8710
18816SOL     OW58764   6.030  10.493   1.336 -0.2906  0.7263  0.2601
18816SOL    HW158765   6.089  10.458   1.402  1.5131  1.8950 -0.6551
18816SOL    HW258766   5.970  10.550   1.385  1.1540  1.7541  0.9034
18817SOL     OW58767   2.697   2.789   5.105 -0.3128 -0.1801  0.3992
18817SOL    HW158768   2.631   2.725   5.132 -1.0913  0.1368 -0.6745
18817SOL    HW258769   2.753   2.741   5.044 -0.4716 -0.0491  0.1448
18818SOL     OW58770   7.510   2.093   4.090 -0.3003 -0.0705  0.0254
18818SOL    HW158771   7.600   2.087   4.059 -0.4073 -2.1191 -0.0396
18818SOL    HW258772   7.496   2.011   4.138 -2.2317  0.0412 -0.2695
18819SOL     OW58773   7.717   2.178   6.272 -0.1115 -0.0320 -0.0321
18819SOL    HW158774   7.721   2.221   6.186 -0.3311  0.4112  0.1763
18819SOL    HW258775   7.681   2.245   6.330  1.0346  0.0365  0.6331
18820SOL     OW58776   7.503   9.093   4.564  0.3565  0.2138 -0.8140
18820SOL    HW158777   7.497   9.020   4.625 -2.4241  2.0392  1.4103
18820SOL    HW258778   7.560   9.156   4.607  2.1681 -0.2814 -2.3821
18821SOL     OW58779   9.141   3.338   8.231  0.2866 -0.1436 -0.1149
18821SOL    HW158780   9.201   3.407   8.260  1.7286 -0.0324 -3.0273
18821SOL    HW258781   9.055   3.380   8.227  0.7809  0.9080  0.0814
18822SOL     OW58782   7.916   2.719   2.734  0.5279  0.0528  0.5329
18822SOL    HW158783   8.004   2.736   2.769  1.1847  0.6313 -1.2494
18822SOL    HW258784   7.921   2.748   2.642 -1.4908 -0.0415  0.3443
18823SOL     OW58785   8.982   9.735   1.472  0.8608 -0.0541 -0.2910
18823SOL    HW158786   8.968   9.806   1.535  1.3970  0.3630 -0.6348
18823SOL    HW258787   8.910   9.742   1.410 -0.8869 -1.7287  1.3741
18824SOL     OW58788   7.959   5.987   1.244 -0.7329 -0.2829 -0.2636
18824SOL    HW158789   7.949   6.011   1.152  0.2431  3.2467  0.4227
18824SOL    HW258790   7.871   5.991   1.280 -1.0542 -1.2540 -0.8836
18825SOL     OW58791   0.319   2.413   9.989 -0.4561  0.3688  0.7505
18825SOL    HW158792   0.353   2.502   9.994  0.2223  0.0979  1.1066
18825SOL    HW258793   0.270   2.401  10.070  0.7959 -0.1041  1.4753
18826SOL     OW58794   0.991   8.031   5.682  0.7984 -0.3795  0.3552
18826SOL    HW158795   1.063   7.987   5.635  0.2074 -0.8306 -0.1437
18826SOL    HW258796   0.989   7.987   5.767 -0.6840 -2.3586 -0.6201
18827SOL     OW58797   4.225   8.800   4.964 -0.0772 -0.3343 -0.4469
18827SOL    HW158798   4.160   8.787   5.033  1.0163  1.3870  1.0031
18827SOL    HW258799   4.300   8.839   5.009  1.0824 -0.1078 -2.4553
18828SOL     OW58800   2.057   6.887   4.004  0.4751 -0.0056 -0.0722
18828SOL    HW158801   2.106   6.816   3.961 -0.8862 -0.4520 -0.9535
18828SOL    HW258802   1.989   6.911   3.941 -2.6324 -1.7422  2.2813
18829SOL     OW58803   0.127   9.234   3.508  0.9780  0.3095  0.6267
18829SOL    HW158804   0.087   9.269   3.429 -1.8811 -0.6560  1.5008
18829SOL    HW258805   0.132   9.308   3.568 -0.4654  0.2743  0.8139
18830SOL     OW58806   4.960   9.739   0.212 -0.1018  0.6675 -0.1099
18830SOL    HW158807   5.049   9.712   0.237 -0.0274  1.7909  0.9209
18830SOL    HW258808   4.970   9.769   0.121  1.2748  3.5449  0.8585
18831SOL     OW58809   5.281   4.410   6.912  0.0786  0.2357 -0.1124
18831SOL    HW158810   5.255   4.470   6.842  0.6695 -0.0625 -0.5903
18831SOL    HW258811   5.307   4.330   6.867 -3.0939 -1.3450  0.6006
18832SOL     OW58812   6.046   6.042   5.058 -0.3676 -0.0358 -0.3319
18832SOL    HW158813   6.095   5.982   5.114  0.3134  1.3013  0.5367
18832SOL    HW258814   6.017   5.987   4.985  0.0781 -1.4605  0.5139
18833SOL     OW58815   1.310   5.207   5.542  0.0742 -0.1846 -0.1609
18833SOL    HW158816   1.236   5.154   5.512  0.6805 -1.8593  1.0976
18833SOL    HW258817   1.325   5.177   5.632  1.1894  1.3574  0.2082
18834SOL     OW58818   3.704   6.187   8.497 -0.6620  0.2151 -0.0341
18834SOL    HW158819   3.731   6.120   8.559  2.3712  1.3877  0.1207
18834SOL    HW258820   3.675   6.260   8.551 -0.9053  0.1583 -0.0886
18835SOL     OW58821   9.715  10.041   4.617 -0.9131  0.3510  0.0135
18835SOL    HW158822   9.733  10.028   4.524 -1.2151 -0.0701  0.0102
18835SOL    HW258823   9.779   9.984   4.661 -1.0411  0.2373  0.0521
18836SOL     OW58824   9.055   3.502  10.260 -0.5227 -0.1626 -0.2270
18836SOL    HW158825   9.125   3.560  10.229 -1.0858  1.0073  0.6157
18836SOL    HW258826   9.053   3.431  10.196  2.8277 -1.3882  0.8318
18837SOL     OW58827   0.672   6.002   4.636  0.1327  0.3501 -0.1128
18837SOL    HW158828   0.584   6.016   4.670 -0.6886 -1.1235 -1.5106
18837SOL    HW258829   0.704   6.089   4.614 -0.8568  0.9222  0.6471
18838SOL     OW58830  10.298   8.507   2.472  0.8656 -0.7413  0.5476
18838SOL    HW158831  10.287   8.448   2.546  0.4084 -0.5257  0.6505
18838SOL    HW258832  10.319   8.449   2.398 -1.1848 -1.2195  0.2712
18839SOL     OW58833   0.753   2.386   4.808  0.3838 -0.3714  0.2689
18839SOL    HW158834   0.763   2.479   4.832  1.0369 -0.4330  0.2651
18839SOL    HW258835   0.673   2.359   4.852  0.3103  0.1366  0.4620
18840SOL     OW58836   4.079   6.106   6.502 -0.1030  0.1605  0.3236
18840SOL    HW158837   4.065   6.049   6.578 -1.2018  0.1365  0.1222
18840SOL    HW258838   4.109   6.188   6.540  0.5453 -0.2349  0.6915
18841SOL     OW58839   0.628   6.816   1.644  0.7536  0.1431  0.2200
18841SOL    HW158840   0.599   6.906   1.626  0.0315 -0.2213 -0.5236
18841SOL    HW258841   0.660   6.784   1.560 -1.0290 -1.0076 -0.0730
18842SOL     OW58842   9.107   3.774   5.758 -0.1992 -0.1044  0.1717
18842SOL    HW158843   9.067   3.837   5.818 -1.2592  1.3582 -1.9336
18842SOL    HW258844   9.115   3.694   5.809 -3.0965  0.4005  1.6394
18843SOL     OW58845   6.138   2.781   5.182 -0.1680 -0.8667 -0.5965
18843SOL    HW158846   6.147   2.686   5.171  0.3472 -0.8563 -0.2866
18843SOL    HW258847   6.182   2.800   5.265 -0.9796 -0.4666 -0.2503
18844SOL     OW58848   2.583   8.091   1.435 -0.0614  0.1331  0.3952
18844SOL    HW158849   2.654   8.155   1.428  0.1671 -0.1525  0.0341
18844SOL    HW258850   2.623   8.014   1.475 -0.5419  0.5099  1.6366
18845SOL     OW58851  10.023   4.641   2.690  0.1141  0.3618  0.6471
18845SOL    HW158852  10.062   4.564   2.649  0.8433  0.2514  1.5190
18845SOL    HW258853  10.055   4.715   2.638  0.9194  0.2147  0.9240
18846SOL     OW58854   1.703   0.507   8.702 -0.0071  0.7611 -0.1421
18846SOL    HW158855   1.610   0.486   8.705  0.0968  0.0886 -1.2208
18846SOL    HW258856   1.712   0.586   8.757 -1.1256  0.5867  0.3092
18847SOL     OW58857   2.576   5.171   8.340 -0.0180 -0.5265  0.1069
18847SOL    HW158858   2.529   5.243   8.297 -0.0724 -1.1161 -0.8567
18847SOL    HW258859   2.664   5.175   8.303  0.0629 -0.7688  0.2712
18848SOL     OW58860   4.754   2.757   1.834 -0.4927  0.2928  0.0852
18848SOL    HW158861   4.723   2.776   1.923 -0.8881  0.1671 -0.0233
18848SOL    HW258862   4.678   2.773   1.778 -0.4782 -0.4222 -0.1440
18849SOL     OW58863   5.752   0.545   9.020  0.3294 -0.2906 -0.3358
18849SOL    HW158864   5.716   0.530   9.107  2.1177  0.6080  0.6163
18849SOL    HW258865   5.796   0.629   9.027 -0.0145  0.1034 -2.3174
18850SOL     OW58866   2.362   0.454  10.161  0.0073 -0.4581 -0.0226
18850SOL    HW158867   2.430   0.439  10.226  0.6850 -1.4352 -0.9316
18850SOL    HW258868   2.408   0.457  10.077 -0.9740 -0.3784 -0.5757
18851SOL     OW58869   5.386   2.565   4.071  0.0123 -0.9377 -0.4669
18851SOL    HW158870   5.344   2.547   3.987 -0.9110  0.8952 -0.4635
18851SOL    HW258871   5.478   2.545   4.056 -0.3731 -2.1214 -1.4302
18852SOL     OW58872   9.652   1.401   3.265 -0.4458 -0.5442 -0.1175
18852SOL    HW158873   9.698   1.326   3.302  1.8097  0.3525 -0.9629
18852SOL    HW258874   9.572   1.364   3.228  1.8100 -3.0783 -2.9001
18853SOL     OW58875   6.838   0.248   6.488  0.3539  0.2145 -0.0798
18853SOL    HW158876   6.841   0.168   6.437  0.0060  0.2869 -0.2150
18853SOL    HW258877   6.749   0.281   6.477  0.3705  0.4021  0.3063
18854SOL     OW58878   1.941   0.537   9.414 -0.0581  0.1710 -0.2439
18854SOL    HW158879   1.851   0.504   9.411 -0.0265  0.0984 -0.4369
18854SOL    HW258880   1.965   0.536   9.506  0.3213 -1.3619 -0.3455
18855SOL     OW58881   3.336   3.954   4.993 -0.1375  0.1631  0.2210
18855SOL    HW158882   3.277   4.027   5.006  1.6906  1.5992  0.9205
18855SOL    HW258883   3.349   3.916   5.080 -1.6487 -1.5255 -0.2358
18856SOL     OW58884   3.032   1.117  10.081 -0.3893 -0.0917 -0.3729
18856SOL    HW158885   3.021   1.184  10.148  0.7511 -0.1429 -0.1274
18856SOL    HW258886   3.102   1.150  10.025  0.6438 -1.3507  0.1145
18857SOL     OW58887  10.198   4.992   2.110  0.5439  0.6032  0.0310
18857SOL    HW158888  10.160   4.940   2.181  2.1763 -0.0297  0.4768
18857SOL    HW258889  10.173   5.082   2.131  0.3308  0.3405  0.9732
18858SOL     OW58890   2.689   9.049   8.346  0.1577 -0.3517 -0.3340
18858SOL    HW158891   2.686   9.022   8.438  0.7572 -0.8435 -0.4515
18858SOL    HW258892   2.604   9.023   8.310  0.3638 -1.2557 -0.2084
18859SOL     OW58893   2.101   9.569   5.309 -0.0340  0.0172  0.0983
18859SOL    HW158894   2.097   9.646   5.366 -1.9251 -0.9993  1.4627
18859SOL    HW258895   2.143   9.502   5.362 -0.3326 -0.4871 -0.2868
18860SOL     OW58896   9.118   7.725   7.056 -0.1351 -0.1705 -0.3985
18860SOL    HW158897   9.141   7.684   6.973 -1.3279  0.6348 -1.1763
18860SOL    HW258898   9.145   7.663   7.123  0.4897 -1.0183 -1.4134
18861SOL     OW58899  10.531   2.862   4.734  0.0105 -0.5750 -0.2018
18861SOL    HW158900  10.473   2.918   4.786 -1.2095 -0.1378 -1.9773
18861SOL    HW258901  10.580   2.923   4.679 -0.7736 -1.1867 -1.6022
18862SOL     OW58902   3.963  10.118   5.081  0.2939  0.3201  0.0757
18862SOL    HW158903   4.007  10.034   5.071 -1.3321 -0.4821 -0.5593
18862SOL    HW258904   4.030  10.175   5.121  1.7663 -0.9377 -0.4871
18863SOL     OW58905   7.384   3.647   4.702  0.2170  0.1814  0.2495
18863SOL    HW158906   7.353   3.600   4.624 -1.0166  2.1327 -0.5450
18863SOL    HW258907   7.308   3.649   4.760  1.4287 -2.1702  2.0707
18864SOL     OW58908   3.164   5.646   9.325 -0.2975  0.1598 -0.4522
18864SOL    HW158909   3.109   5.713   9.365 -0.6296  1.5520 -3.0084
18864SOL    HW258910   3.151   5.568   9.379 -0.8157  1.8035  1.9435
18865SOL     OW58911   2.702   5.486  10.364 -0.0327 -0.1144 -0.1183
18865SOL    HW158912   2.642   5.498  10.290 -0.7039  0.9263  0.5653
18865SOL    HW258913   2.714   5.574  10.399 -0.9298 -0.7423  1.9247
18866SOL     OW58914   0.792   8.888   2.001 -0.0990  0.1853  0.2841
18866SOL    HW158915   0.858   8.851   1.943 -0.2640 -1.2581  0.9530
18866SOL    HW258916   0.766   8.815   2.058 -1.0373  1.1475  1.1614
18867SOL     OW58917   9.489   0.517   8.625  0.0110  0.4794  0.4165
18867SOL    HW158918   9.582   0.499   8.615 -0.0091  0.4883  0.2021
18867SOL    HW258919   9.468   0.574   8.551 -0.2597  0.1095  0.2037
18868SOL     OW58920   5.436   7.785   3.869  0.4075  0.1244 -0.0994
18868SOL    HW158921   5.484   7.804   3.950  2.5996  1.3502 -1.5875
18868SOL    HW258922   5.385   7.864   3.852  0.1185 -0.0480 -0.0471
18869SOL     OW58923   4.674   0.093   6.885  0.2613 -0.4585 -0.6346
18869SOL    HW158924   4.755   0.115   6.840  0.2991 -0.2677 -0.4753
18869SOL    HW258925   4.680   0.139   6.969 -0.0236 -0.4186 -0.6351
18870SOL     OW58926   3.559   8.615   4.244 -0.3355  0.0839 -0.6892
18870SOL    HW158927   3.530   8.679   4.178 -0.9439 -0.2755 -0.7755
18870SOL    HW258928   3.498   8.626   4.316 -0.5041 -0.4587 -0.7413
18871SOL     OW58929   9.461   2.822   5.303  0.0351  0.2417 -0.1759
18871SOL    HW158930   9.544   2.839   5.258 -0.4416  3.6256 -0.0760
18871SOL    HW258931   9.396   2.815   5.232 -0.0038  0.7075 -0.1940
18872SOL     OW58932   7.458   6.260   3.640  0.6164 -0.3678  0.1127
18872SOL    HW158933   7.404   6.325   3.685 -0.2917 -0.8053 -0.3089
18872SOL    HW258934   7.546   6.272   3.675  0.3171  0.6199  0.5396
18873SOL     OW58935   2.396   4.622   6.767  0.0241  0.0351  0.2010
18873SOL    HW158936   2.446   4.701   6.789  1.7791 -1.0667  0.3815
18873SOL    HW258937   2.457   4.569   6.714 -0.1044 -2.3350  2.2259
18874SOL     OW58938   0.933   2.325   2.747 -0.2089 -0.7911 -0.4832
18874SOL    HW158939   0.845   2.287   2.745 -0.2396 -0.7054 -1.9470
18874SOL    HW258940   0.971   2.300   2.663  1.0631 -0.5701  0.0155
18875SOL     OW58941   7.101   6.690   4.682  0.1952 -0.2619 -0.1658
18875SOL    HW158942   7.074   6.778   4.708 -0.6376  0.5216 -3.2349
18875SOL    HW258943   7.148   6.656   4.757 -0.5782  2.3081  1.6078
18876SOL     OW58944   3.211   6.463   7.554  0.8763 -0.2357 -0.1644
18876SOL    HW158945   3.116   6.460   7.543  0.8723 -0.1183 -0.1574
18876SOL    HW258946   3.244   6.484   7.467  0.7392  2.9182  0.4347
18877SOL     OW58947   6.568   4.053   7.149 -0.4163  0.2506  0.4085
18877SOL    HW158948   6.557   3.958   7.160 -0.9302  0.1350 -0.9413
18877SOL    HW258949   6.599   4.083   7.234  2.2020 -1.4992  0.2109
18878SOL     OW58950   0.849   7.165   5.633 -1.0251 -0.0730 -0.2524
18878SOL    HW158951   0.757   7.191   5.633 -1.2609 -0.7521  1.7325
18878SOL    HW258952   0.852   7.089   5.575 -1.1500  1.4872 -2.4677
18879SOL     OW58953   7.478   6.005   4.648 -0.3386  0.3204  0.2161
18879SOL    HW158954   7.542   6.069   4.617 -0.4885  0.0126 -0.7469
18879SOL    HW258955   7.512   5.977   4.733  1.0761 -0.2105 -0.5016
18880SOL     OW58956   7.359   7.446   1.058  0.4972  0.8513  0.2985
18880SOL    HW158957   7.392   7.519   1.005 -0.0655  0.9882  0.1345
18880SOL    HW258958   7.267   7.466   1.072 -0.0023 -0.4977 -0.8686
18881SOL     OW58959   8.988   2.697   5.736 -0.2087 -0.5267  0.2816
18881SOL    HW158960   9.018   2.767   5.795 -2.0239 -0.7621  1.5584
18881SOL    HW258961   8.987   2.738   5.650 -3.9256  2.0655  1.3206
18882SOL     OW58962   5.931   8.574   4.489 -0.0598  0.3907 -0.2417
18882SOL    HW158963   5.847   8.545   4.453  0.2255 -1.0890  0.2254
18882SOL    HW258964   5.921   8.668   4.499 -1.8332  0.1889  0.2232
18883SOL     OW58965   0.290   4.358  10.461 -0.0513  0.0003  0.1512
18883SOL    HW158966   0.259   4.299  10.392  0.4390 -0.0267 -0.0494
18883SOL    HW258967   0.318   4.436  10.414 -1.5648  0.7816  0.4893
18884SOL     OW58968  10.085   2.256   5.651  0.5399 -0.0424 -0.2792
18884SOL    HW158969  10.118   2.233   5.737  0.8825  2.2950  0.2689
18884SOL    HW258970  10.102   2.178   5.597  2.8659 -0.5551  1.0711
18885SOL     OW58971   2.001   4.628   6.342 -0.0151 -0.2478  0.2079
18885SOL    HW158972   1.957   4.658   6.422 -0.4282  2.7623 -0.9945
18885SOL    HW258973   1.952   4.551   6.315 -1.7896  0.4317  1.2935
18886SOL     OW58974   6.791   8.641   4.428  0.1125  0.1553 -0.2586
18886SOL    HW158975   6.856   8.654   4.497  2.2738 -3.5009 -1.3104
18886SOL    HW258976   6.811   8.707   4.363 -0.4883  2.1880  1.5106
18887SOL     OW58977   7.588   0.864   0.258  0.1977  0.1362 -0.3250
18887SOL    HW158978   7.511   0.887   0.206 -0.4388 -2.0351 -0.4330
18887SOL    HW258979   7.561   0.881   0.349 -0.0369  0.3718 -0.4372
18888SOL     OW58980   8.388   6.327   4.333 -0.1169 -0.0498 -0.2075
18888SOL    HW158981   8.416   6.369   4.251  0.6389 -0.4866 -0.1842
18888SOL    HW258982   8.308   6.280   4.310  0.1205 -0.2122 -0.7109
18889SOL     OW58983   0.807   4.972   0.525 -0.4133 -0.2017  0.2170
18889SOL    HW158984   0.884   4.960   0.580  0.7841  0.3724 -1.2720
18889SOL    HW258985   0.776   4.883   0.508  0.0329 -0.4501  0.6849
18890SOL     OW58986   5.769   2.965   8.361 -0.4991 -0.0733 -0.1183
18890SOL    HW158987   5.756   3.023   8.285 -2.0620 -0.3540 -0.0887
18890SOL    HW258988   5.864   2.954   8.366  0.3255  5.0044  1.7274
18891SOL     OW58989   8.921   9.905   2.505  0.2048 -0.4766 -0.2910
18891SOL    HW158990   8.830   9.929   2.522  0.9653  1.3912  1.6160
18891SOL    HW258991   8.958   9.980   2.458  0.9879 -0.7767 -0.1761
18892SOL     OW58992   2.256   2.688   7.320 -0.3948 -0.0908  0.9983
18892SOL    HW158993   2.247   2.783   7.332 -2.6280 -0.0612 -0.4655
18892SOL    HW258994   2.278   2.677   7.228 -0.8908 -1.0341  0.9827
18893SOL     OW58995   7.816   3.372   6.973  0.0687 -0.0062  0.2223
18893SOL    HW158996   7.840   3.283   6.997 -0.7712 -0.4984 -0.6930
18893SOL    HW258997   7.885   3.427   7.012  0.3948 -1.0065  1.1034
18894SOL     OW58998   7.005   4.936   7.481 -0.7865  0.1487  1.2060
18894SOL    HW158999   6.970   5.025   7.494  1.0797  0.8653  1.7296
18894SOL    HW259000   7.005   4.898   7.569 -1.5389 -0.3878  0.9877
18895SOL     OW59001   0.256   9.473  10.003  0.9442 -0.1435 -0.6654
18895SOL    HW159002   0.180   9.455   9.948 -1.6610 -0.2741  2.6430
18895SOL    HW259003   0.283   9.387  10.036  1.3309  0.0981 -0.3414
18896SOL     OW59004   8.676   0.903   0.484 -0.2130  0.2267 -0.7680
18896SOL    HW159005   8.769   0.883   0.491 -0.3407 -0.5267 -1.1634
18896SOL    HW259006   8.640   0.879   0.570 -0.4319 -1.6953 -1.3478
18897SOL     OW59007   5.501   3.289   5.422 -0.4319 -0.3565  0.2388
18897SOL    HW159008   5.412   3.325   5.419 -0.4400 -0.4239 -0.4420
18897SOL    HW259009   5.556   3.364   5.445 -0.6321 -0.2538  0.3896
18898SOL     OW59010   0.947   8.792   1.813 -0.2272  0.2973 -0.1193
18898SOL    HW159011   1.015   8.734   1.779 -0.2556  0.5341 -0.5803
18898SOL    HW259012   0.867   8.763   1.769 -0.1956  0.8567 -0.5563
18899SOL     OW59013   6.948   2.129   6.720 -0.3461  0.8235  0.6294
18899SOL    HW159014   6.914   2.061   6.778  0.6378 -0.3818 -0.1691
18899SOL    HW259015   7.004   2.182   6.777  0.5368 -0.2918  0.8486
18900SOL     OW59016   6.306   9.566   5.698  0.0692  0.0636  0.2831
18900SOL    HW159017   6.280   9.478   5.670  0.4572  0.2381 -0.6785
18900SOL    HW259018   6.282   9.622   5.624  1.8387  0.4384 -0.0649
18901SOL     OW59019   9.667   2.857   2.027 -0.5120 -0.0753  0.2165
18901SOL    HW159020   9.679   2.769   2.062  2.0060 -0.4013 -1.2163
18901SOL    HW259021   9.575   2.861   2.001 -0.7524 -2.1636  0.5932
18902SOL     OW59022   4.909   2.511   5.769 -0.2672  0.1458  0.1564
18902SOL    HW159023   4.894   2.600   5.737 -0.8975  0.3226  0.9368
18902SOL    HW259024   4.955   2.522   5.852 -0.9728 -0.2297  0.6061
18903SOL     OW59025   8.112   4.024   0.741 -0.5161 -0.8609 -0.2106
18903SOL    HW159026   8.045   3.976   0.790  0.8020 -2.3919  0.1840
18903SOL    HW259027   8.176   4.049   0.808  0.0494 -0.7564 -0.7863
18904SOL     OW59028   8.729   9.003   8.213 -0.1427 -0.0634 -0.0118
18904SOL    HW159029   8.713   9.014   8.307 -0.5437 -0.0396 -0.0789
18904SOL    HW259030   8.693   9.083   8.175  1.3154  0.6007 -0.0549
18905SOL     OW59031   0.093   2.419   6.839 -0.6470  0.1351  0.3786
18905SOL    HW159032   0.074   2.404   6.931 -1.3042  1.5215  0.4850
18905SOL    HW259033   0.058   2.341   6.794 -0.3374 -0.5403  1.2737
18906SOL     OW59034   0.101   3.307   9.607 -0.1431  0.0264  0.1115
18906SOL    HW159035   0.104   3.283   9.699 -0.0289  0.2225  0.1585
18906SOL    HW259036   0.084   3.224   9.561 -2.0556  0.2076  0.4406
18907SOL     OW59037   9.563   4.668   2.722 -0.1931 -0.0181 -0.1203
18907SOL    HW159038   9.608   4.600   2.772 -0.3492 -0.7402 -0.9390
18907SOL    HW259039   9.471   4.663   2.750 -0.3409 -0.6365 -0.6996
18908SOL     OW59040   2.754   2.255   3.692 -0.1822 -0.8647 -0.3840
18908SOL    HW159041   2.838   2.244   3.649 -1.1158 -0.2728 -2.4817
18908SOL    HW259042   2.759   2.340   3.735  0.7946 -1.5047  0.8333
18909SOL     OW59043   6.280   4.999   0.778 -0.2060 -0.1773  0.2344
18909SOL    HW159044   6.325   5.069   0.731 -0.4481 -0.4785 -0.4570
18909SOL    HW259045   6.195   5.036   0.801 -1.6441 -1.1842 -2.8874
18910SOL     OW59046  10.330   7.785  10.407  0.2653 -0.3888  0.3351
18910SOL    HW159047  10.346   7.710  10.350 -1.0729  0.0186 -0.6332
18910SOL    HW259048  10.331   7.749  10.496  1.4777 -1.1954  0.0115
18911SOL     OW59049   3.519   9.618   6.608  0.5853  0.1821  0.2987
18911SOL    HW159050   3.603   9.658   6.631  1.0458 -0.3050 -0.4820
18911SOL    HW259051   3.484   9.673   6.539  1.2110 -0.6958 -0.7640
18912SOL     OW59052   9.990   7.124   2.701 -0.4789 -0.5787  0.1117
18912SOL    HW159053  10.012   7.212   2.731 -2.1539  0.2635 -0.9636
18912SOL    HW259054   9.958   7.137   2.611  0.0127 -2.3921 -0.3625
18913SOL     OW59055   9.178   0.233   7.726 -0.7305  0.6392 -0.0031
18913SOL    HW159056   9.106   0.269   7.674 -0.4185  1.0313 -0.1672
18913SOL    HW259057   9.257   0.252   7.675 -0.3252  1.7585  0.9632
18914SOL     OW59058   5.759   0.030   0.014 -0.0133  0.1106 -0.4247
18914SOL    HW159059   5.792   0.097  -0.045  0.4759  0.0680 -0.2018
18914SOL    HW259060   5.674   0.006  -0.023  0.9275 -1.0014 -1.9866
18915SOL     OW59061   4.517   7.163   9.057 -0.1539  0.0040 -0.2440
18915SOL    HW159062   4.436   7.114   9.075  0.0224 -0.2595 -0.1529
18915SOL    HW259063   4.488   7.241   9.011 -0.3964 -0.4297 -0.8343
18916SOL     OW59064   7.759   2.834   8.130 -0.9570 -0.6035 -0.0198
18916SOL    HW159065   7.836   2.814   8.077  0.5104 -0.4895  1.9515
18916SOL    HW259066   7.752   2.929   8.127  0.1368 -0.4556  1.2607
18917SOL     OW59067   1.912   4.412   6.169 -0.8164  0.0990  0.5387
18917SOL    HW159068   1.948   4.354   6.102 -0.7665  0.1741  0.4999
18917SOL    HW259069   1.828   4.373   6.192 -0.8280  0.0660  0.4408
18918SOL     OW59070   9.401   4.139   3.747  0.0388  0.3891 -0.0064
18918SOL    HW159071   9.427   4.056   3.789 -1.4266 -0.6814 -1.1015
18918SOL    HW259072   9.323   4.166   3.795 -1.0410 -0.2977 -1.3045
18919SOL     OW59073   0.762   1.305   2.495 -0.3288 -0.5492 -0.2090
18919SOL    HW159074   0.815   1.380   2.468  0.4437  0.3886  3.3355
18919SOL    HW259075   0.723   1.332   2.578  0.6774 -4.3233  1.7047
18920SOL     OW59076   8.416   6.390   4.859  0.1366  0.5173  0.0382
18920SOL    HW159077   8.473   6.464   4.879  1.2374 -0.8956  2.6784
18920SOL    HW259078   8.339   6.429   4.819  1.7031  2.8045 -0.9202
18921SOL     OW59079   2.479   7.594   6.071  0.2781 -0.5118 -0.5343
18921SOL    HW159080   2.538   7.521   6.052  1.5829  0.3851 -0.0580
18921SOL    HW259081   2.504   7.623   6.159  0.6879  1.3156 -1.2041
18922SOL     OW59082   2.452   9.072   5.880 -0.0962 -0.7514 -0.2407
18922SOL    HW159083   2.407   9.028   5.952  0.8010  1.1011  1.5519
18922SOL    HW259084   2.475   9.001   5.819 -0.5041 -2.4540  1.4996
18923SOL     OW59085   0.020   2.170   6.772 -0.1400 -0.1898  0.4798
18923SOL    HW159086  -0.045   2.156   6.703  1.4211 -1.9680 -0.7444
18923SOL    HW259087   0.064   2.085   6.781  2.2450  1.0103  0.9521
18924SOL     OW59088   2.044   4.470   4.961  0.5365  0.4875  0.1897
18924SOL    HW159089   2.058   4.531   5.034  0.9570  0.4945  0.1032
18924SOL    HW259090   1.963   4.501   4.920  0.1347  0.3128  0.8264
18925SOL     OW59091   0.434   8.622   1.007 -0.0040 -0.5429 -0.3036
18925SOL    HW159092   0.516   8.662   1.036 -0.2193 -0.0997 -0.2998
18925SOL    HW259093   0.370   8.647   1.074  0.4764 -3.5162  1.4731
18926SOL     OW59094  10.511   9.430   3.750  0.3063  0.1124  0.1554
18926SOL    HW159095  10.459   9.461   3.824  0.6401  0.6973  0.1515
18926SOL    HW259096  10.512   9.335   3.760 -0.3215  0.1267  0.4495
18927SOL     OW59097   9.840   0.061   0.413 -0.3666 -0.1492  0.3796
18927SOL    HW159098   9.785   0.003   0.465  0.5014 -1.5673 -0.2333
18927SOL    HW259099   9.811   0.149   0.437 -0.8125 -0.7877  2.3246
18928SOL     OW59100   6.401   0.518   3.413 -0.2975 -0.4042 -0.3932
18928SOL    HW159101   6.375   0.438   3.459 -1.3551  0.1313 -0.0289
18928SOL    HW259102   6.439   0.573   3.482  0.0295 -0.4162 -0.5620
18929SOL     OW59103   9.894   4.963   6.607  0.1597  0.3253 -0.2915
18929SOL    HW159104   9.936   4.879   6.628 -0.6382  0.0784  0.3771
18929SOL    HW259105   9.805   4.954   6.642 -0.3630  0.9371 -1.4295
18930SOL     OW59106   8.557   7.827   9.372  0.1364 -0.2195 -0.0851
18930SOL    HW159107   8.493   7.889   9.406  0.4945 -1.2790  2.7462
18930SOL    HW259108   8.617   7.880   9.321 -0.6160  1.4513  0.7039
18931SOL     OW59109   5.468   1.898   0.191 -0.0638  0.3773 -0.4583
18931SOL    HW159110   5.555   1.882   0.227 -0.2250  0.8036  0.1250
18931SOL    HW259111   5.484   1.930   0.103  0.3804  0.7639 -0.2385
18932SOL     OW59112   2.498   7.469   7.145  0.2732 -0.2061 -0.2484
18932SOL    HW159113   2.540   7.443   7.063 -0.0041 -1.1919 -0.0917
18932SOL    HW259114   2.417   7.513   7.118  0.1869 -0.5173 -0.4985
18933SOL     OW59115   8.270  10.214   3.674 -0.0169 -0.2019  0.4315
18933SOL    HW159116   8.305  10.284   3.729  0.0979  0.7780 -0.8351
18933SOL    HW259117   8.345  10.157   3.656 -0.1321 -0.7240  1.5488
18934SOL     OW59118   2.052   2.384   9.447  0.0585  0.4622 -0.0815
18934SOL    HW159119   2.025   2.443   9.377 -0.2036 -1.3719 -1.6378
18934SOL    HW259120   2.090   2.309   9.401  1.6054 -0.0061  1.8467
18935SOL     OW59121   9.721   1.424   1.381 -0.0614 -0.6558  0.1698
18935SOL    HW159122   9.806   1.411   1.340  0.0702 -1.3508  0.6569
18935SOL    HW259123   9.664   1.361   1.337  0.0466 -1.3029  0.9483
18936SOL     OW59124   7.862   0.852   2.195 -0.0138  0.2136 -0.4414
18936SOL    HW159125   7.912   0.847   2.113  0.7894 -1.7839  0.1100
18936SOL    HW259126   7.889   0.775   2.244  0.6038  2.0630  2.3578
18937SOL     OW59127   5.286   5.733   3.609  0.1076  0.0457 -0.4238
18937SOL    HW159128   5.345   5.661   3.632 -1.2575 -0.9238  0.1326
18937SOL    HW259129   5.201   5.708   3.645 -0.1379  2.5839  1.0851
18938SOL     OW59130  10.426   1.282   5.319  0.3326 -0.4659 -0.5811
18938SOL    HW159131  10.453   1.372   5.338  1.0061 -0.6307 -0.7451
18938SOL    HW259132  10.358   1.264   5.385  1.9615 -0.6926  1.1261
18939SOL     OW59133   4.860   9.968   6.943  0.4628  0.2148  0.2894
18939SOL    HW159134   4.851   9.997   6.852 -1.1091  0.5594  0.5215
18939SOL    HW259135   4.827   9.879   6.943 -0.9365  0.7031  0.7565
18940SOL     OW59136   2.255   8.564   1.326  0.1436  0.2092  0.1060
18940SOL    HW159137   2.183   8.519   1.280 -1.2611  1.7401  0.6960
18940SOL    HW259138   2.334   8.535   1.281 -0.8740 -1.2409 -0.8294
18941SOL     OW59139   1.589   9.613   7.090  0.6154  0.2309 -0.0395
18941SOL    HW159140   1.511   9.607   7.145  1.7168  1.1995  1.7523
18941SOL    HW259141   1.556   9.622   7.001 -1.2703 -1.6095  0.3852
18942SOL     OW59142   1.858   2.616   2.711 -0.3048  0.0498  0.5677
18942SOL    HW159143   1.805   2.543   2.742 -1.2226  0.5194  0.1312
18942SOL    HW259144   1.800   2.692   2.716  0.5447  0.7037  0.7377
18943SOL     OW59145   8.796   8.611  10.385 -0.0471  0.0825  0.0711
18943SOL    HW159146   8.822   8.596  10.294 -0.6626 -0.5344 -0.0093
18943SOL    HW259147   8.836   8.695  10.407  0.2516  0.1602 -0.7124
18944SOL     OW59148   8.594   9.375  10.284  0.7648  0.0511  0.1656
18944SOL    HW159149   8.530   9.445  10.300 -0.4441 -1.1669  0.8491
18944SOL    HW259150   8.585   9.355  10.191 -1.2226 -1.3339  0.5857
18945SOL     OW59151   9.049   2.972   6.379 -0.0706 -0.2186  0.2056
18945SOL    HW159152   8.961   2.975   6.341 -0.0086  0.2506  0.1009
18945SOL    HW259153   9.045   3.031   6.454  0.6682  1.2665 -0.8758
18946SOL     OW59154   3.018   6.717   0.614 -0.0397  0.0267  0.0062
18946SOL    HW159155   3.000   6.770   0.691  0.5258  0.2693 -0.0286
18946SOL    HW259156   2.956   6.644   0.621  0.6245 -0.4532  1.1696
18947SOL     OW59157   0.493   8.439   8.358  0.0772 -0.1432 -0.6578
18947SOL    HW159158   0.466   8.421   8.268  1.6435 -0.5442 -1.0734
18947SOL    HW259159   0.588   8.433   8.356  0.2051  1.0257  0.7863
18948SOL     OW59160   4.587   1.703   3.114 -0.0568  0.3674 -0.0618
18948SOL    HW159161   4.541   1.786   3.111  0.8417  0.8640 -0.6273
18948SOL    HW259162   4.571   1.663   3.028  1.1476  0.8889 -0.5524
18949SOL     OW59163   4.908   4.262   4.058 -0.1461 -0.2390  0.0258
18949SOL    HW159164   4.848   4.328   4.023 -0.2982 -0.5437 -0.3017
18949SOL    HW259165   4.897   4.187   3.999  1.2978  0.0484 -0.6616
18950SOL     OW59166   3.150   2.385   6.444 -0.9976 -0.9902  0.8174
18950SOL    HW159167   3.194   2.310   6.404  0.0669 -0.7194  1.4316
18950SOL    HW259168   3.150   2.365   6.538 -1.6905 -0.7251  0.8772
18951SOL     OW59169   2.616   7.657   7.303  0.5954 -0.2403 -0.2567
18951SOL    HW159170   2.653   7.612   7.379  0.5772  0.9712  0.4898
18951SOL    HW259171   2.594   7.586   7.242  1.9433 -1.1520  0.2502
18952SOL     OW59172   1.292   3.752   6.757 -0.0712  0.2933  0.5695
18952SOL    HW159173   1.368   3.801   6.726 -0.0729  0.3231  0.6123
18952SOL    HW259174   1.329   3.671   6.792 -0.0004  0.5708  1.1476
18953SOL     OW59175   1.511  10.484   8.226 -0.5978  0.2655 -0.2781
18953SOL    HW159176   1.512  10.398   8.267 -0.4918  0.0283 -0.7664
18953SOL    HW259177   1.425  10.489   8.184 -0.8073  0.6118  0.1838
18954SOL     OW59178   4.590   4.662   4.192  0.0972  0.2044  0.8101
18954SOL    HW159179   4.637   4.579   4.199 -0.1558 -0.0072  0.1852
18954SOL    HW259180   4.642   4.725   4.241  0.8316 -0.1038  0.4313
18955SOL     OW59181   8.707   8.195  10.276 -0.2010 -0.1119  0.3277
18955SOL    HW159182   8.654   8.252  10.220  1.5745  1.0283 -0.2851
18955SOL    HW259183   8.741   8.128  10.218  1.4935  0.9649  0.0112
18956SOL     OW59184   7.015  10.506   2.674  0.6852  0.1147 -0.0592
18956SOL    HW159185   7.087  10.492   2.613  1.2561  0.8389  0.4216
18956SOL    HW259186   7.050  10.478   2.759 -0.0720 -0.8188 -0.0393
18957SOL     OW59187   1.009   7.481   9.082  0.3711  0.0917 -0.4106
18957SOL    HW159188   0.960   7.475   9.000  1.5272 -1.2798 -1.0268
18957SOL    HW259189   0.943   7.507   9.147 -0.8643 -0.2699 -1.4792
18958SOL     OW59190   2.595   0.510   1.290  0.2046  0.6161  0.0525
18958SOL    HW159191   2.612   0.433   1.236 -0.4437  0.7582 -0.3596
18958SOL    HW259192   2.500   0.520   1.290  0.0599 -0.1280  2.2663
18959SOL     OW59193   8.321   8.017   8.744 -0.0044 -0.1080 -0.0015
18959SOL    HW159194   8.260   8.063   8.686  0.5067 -0.0210 -0.4744
18959SOL    HW259195   8.407   8.047   8.717  0.1949  1.4085  2.0395
18960SOL     OW59196   9.926   2.944   3.864  0.3158  0.2047 -0.3385
18960SOL    HW159197  10.002   2.951   3.922 -0.4514  0.3080  0.6841
18960SOL    HW259198   9.917   3.031   3.826  0.8337  0.1349 -0.6277
18961SOL     OW59199   1.121   1.849   9.759  0.1002 -0.3458 -0.0398
18961SOL    HW159200   1.025   1.847   9.760  0.0671  0.5740  0.4378
18961SOL    HW259201   1.144   1.914   9.826  1.0278  0.1346 -0.7959
18962SOL     OW59202   4.976   2.455   4.624  0.1593 -0.2610 -0.3242
18962SOL    HW159203   4.952   2.387   4.561  0.9779 -0.8337 -0.0311
18962SOL    HW259204   5.052   2.498   4.585 -0.0455  0.1670 -0.2671
18963SOL     OW59205   6.667   2.866   0.601  0.2318  0.2539 -0.4614
18963SOL    HW159206   6.626   2.930   0.544  1.6382 -0.1068 -1.9417
18963SOL    HW259207   6.669   2.785   0.550 -0.2156 -0.6073  0.8343
18964SOL     OW59208   8.122   4.634   7.395 -0.2440 -0.2208  0.1046
18964SOL    HW159209   8.098   4.717   7.434 -2.2183 -0.3973 -0.6217
18964SOL    HW259210   8.080   4.568   7.450 -0.1065 -0.6424 -0.2868
18965SOL     OW59211   8.729  10.053  10.321 -0.1884  0.0479  0.0617
18965SOL    HW159212   8.758   9.970  10.282 -1.2676 -0.5902  0.5622
18965SOL    HW259213   8.723  10.113  10.248 -1.1692 -0.8392 -0.6190
18966SOL     OW59214   1.594   3.746   4.850 -0.2649  0.1065  0.2890
18966SOL    HW159215   1.588   3.657   4.884  0.2171  0.0772  0.3130
18966SOL    HW259216   1.670   3.744   4.791  0.1780  0.6567  0.8228
18967SOL     OW59217   5.633   6.966   6.642  0.5004 -0.6875 -0.8958
18967SOL    HW159218   5.701   7.008   6.695  0.9146 -2.8059  0.4012
18967SOL    HW259219   5.661   6.980   6.551  0.5875  1.7348 -0.5369
18968SOL     OW59220   5.705   4.004   2.910  1.0900  0.1765  0.2985
18968SOL    HW159221   5.643   4.029   2.979 -0.5182 -0.9063 -0.6682
18968SOL    HW259222   5.784   3.979   2.957  0.4089  0.5263  1.6804
18969SOL     OW59223   7.230   0.359   2.326  0.3981 -0.3740 -0.0454
18969SOL    HW159224   7.188   0.444   2.341 -1.6021 -0.3099 -4.5131
18969SOL    HW259225   7.210   0.308   2.404 -0.6349  2.4023  1.6409
18970SOL     OW59226   6.267  10.509   0.999  0.3468 -0.0565  0.0771
18970SOL    HW159227   6.237  10.440   0.939 -0.4490  0.4807 -0.1606
18970SOL    HW259228   6.361  10.494   1.009  0.4612 -0.2280 -1.2033
18971SOL     OW59229   2.187   1.473   4.912  0.0205 -0.0527 -0.7635
18971SOL    HW159230   2.140   1.407   4.861 -0.5789 -0.8438  0.7604
18971SOL    HW259231   2.223   1.424   4.987  0.8415  1.0836 -0.3923
18972SOL     OW59232   7.639   5.915   5.156 -0.0244 -0.5917 -0.2298
18972SOL    HW159233   7.701   5.913   5.229 -2.4774 -0.7578  1.9918
18972SOL    HW259234   7.635   5.825   5.125  1.4640 -0.4131 -1.0111
18973SOL     OW59235   4.121   9.793  10.398  0.2556 -0.0470 -0.3232
18973SOL    HW159236   4.097   9.805  10.490  0.4516  0.7924 -0.3698
18973SOL    HW259237   4.043   9.757  10.357  0.3511 -0.9615  0.2805
18974SOL     OW59238   4.655   1.097   5.961 -0.2740 -0.4728  0.1518
18974SOL    HW159239   4.720   1.165   5.944  0.8772 -1.3311  0.9556
18974SOL    HW259240   4.571   1.141   5.950  0.4325  0.7747 -0.5081
18975SOL     OW59241   2.580  10.131   7.570  0.3444  0.6379 -0.1799
18975SOL    HW159242   2.542  10.152   7.485  1.4547  1.7726 -0.4245
18975SOL    HW259243   2.536  10.190   7.631 -1.7381 -1.3820  0.3853
18976SOL     OW59244   2.873   1.491   5.411 -0.3880  0.9613 -0.5735
18976SOL    HW159245   2.796   1.485   5.467  0.8360 -0.5296  1.0678
18976SOL    HW259246   2.841   1.468   5.323 -1.5816 -1.1512  0.3398
18977SOL     OW59247   5.710   5.411   5.753  0.4703  0.2289  0.3748
18977SOL    HW159248   5.805   5.400   5.748  0.4751  0.2592  0.4002
18977SOL    HW259249   5.688   5.388   5.843  0.9432  4.0672  1.6146
18978SOL     OW59250   0.799   4.912   1.689 -0.2210  0.1379  0.3007
18978SOL    HW159251   0.746   4.886   1.764  0.0703 -0.4861  0.2934
18978SOL    HW259252   0.880   4.947   1.727 -0.9674  1.9524  0.3505
18979SOL     OW59253   4.485   5.973   1.957 -0.1709  0.3109  0.4339
18979SOL    HW159254   4.490   5.948   1.865  0.3890 -2.2298  1.0778
18979SOL    HW259255   4.507   6.066   1.958 -2.2229  0.9298 -2.1811
18980SOL     OW59256   9.755   3.366   8.699  0.6337 -0.4091 -0.1201
18980SOL    HW159257   9.691   3.387   8.767 -1.7942 -1.2619 -1.9781
18980SOL    HW259258   9.799   3.287   8.732  0.0357 -0.3776  0.7957
18981SOL     OW59259   4.236   7.232  10.510  0.2440 -0.7502  0.6068
18981SOL    HW159260   4.290   7.311  10.511 -0.6022 -0.1637  0.3479
18981SOL    HW259261   4.279   7.173  10.573 -0.2660  0.6771  2.3652
18982SOL     OW59262   8.161   0.619   4.490  0.0948 -0.1985  0.3147
18982SOL    HW159263   8.224   0.617   4.562  0.9732  0.8282 -0.4024
18982SOL    HW259264   8.098   0.687   4.514 -0.8019 -1.2517  1.0505
18983SOL     OW59265   0.269   7.740   6.976  0.0962  0.2037  0.2988
18983SOL    HW159266   0.252   7.811   6.914  1.0368 -0.6335 -0.9965
18983SOL    HW259267   0.308   7.782   7.052 -0.2624  1.1712 -0.0417
18984SOL     OW59268   7.492   7.928   2.116  0.4072 -0.0160 -0.0285
18984SOL    HW159269   7.503   8.002   2.057 -1.8664  0.7642  0.4216
18984SOL    HW259270   7.439   7.865   2.067  1.9129 -1.1791 -0.2326
18985SOL     OW59271   6.950   8.783   6.766  0.1389 -0.1209  0.5473
18985SOL    HW159272   6.867   8.751   6.800  0.2092  0.1716  1.0123
18985SOL    HW259273   7.008   8.784   6.843  1.1199 -2.0739 -0.1274
18986SOL     OW59274   4.900   0.050   3.191 -0.2141  0.1036 -0.1794
18986SOL    HW159275   4.818   0.013   3.158 -0.7463  1.8842 -0.9588
18986SOL    HW259276   4.947  -0.026   3.227 -2.1345 -0.9864  0.2114
18987SOL     OW59277   7.520   6.561   1.124 -0.4444 -0.0665  0.1282
18987SOL    HW159278   7.432   6.566   1.160  0.4405  0.2688  2.4005
18987SOL    HW259279   7.540   6.651   1.098 -1.2578 -0.3889 -1.7803
18988SOL     OW59280   1.278   1.361   1.403  0.4862  0.1835  0.4432
18988SOL    HW159281   1.200   1.335   1.451 -0.3422  2.9842  0.8232
18988SOL    HW259282   1.342   1.384   1.470  0.7157  0.3679  0.1653
18989SOL     OW59283   3.294   1.717   2.644  0.1110  0.0315 -0.2868
18989SOL    HW159284   3.215   1.722   2.590  2.0027 -0.1271 -3.3230
18989SOL    HW259285   3.297   1.627   2.675 -1.8797  0.5462  1.7041
18990SOL     OW59286   3.035   9.934   5.841 -0.4464  0.3966 -0.0282
18990SOL    HW159287   3.038  10.006   5.778  0.7166 -0.1552 -0.6433
18990SOL    HW259288   3.083   9.863   5.798 -1.4387 -0.7037  0.6151
18991SOL     OW59289   8.987   7.696   6.789  0.6794 -0.4279 -0.4023
18991SOL    HW159290   8.968   7.744   6.709  1.5763 -2.2489 -1.7833
18991SOL    HW259291   9.064   7.643   6.768  1.1096 -0.7859  1.7605
18992SOL     OW59292   2.955   2.599   1.534  0.1001 -0.1082 -0.1920
18992SOL    HW159293   2.941   2.569   1.624  0.6203  1.3458  0.3905
18992SOL    HW259294   2.871   2.638   1.508 -0.2663 -1.1211 -0.6083
18993SOL     OW59295   3.164   8.076   0.409 -0.3790  0.5416 -0.0044
18993SOL    HW159296   3.112   8.009   0.454 -0.2166  0.2815 -0.1954
18993SOL    HW259297   3.142   8.158   0.453 -1.3302  0.5139 -0.4024
18994SOL     OW59298   2.634   4.281   8.612  0.1632 -0.0296  0.0748
18994SOL    HW159299   2.706   4.337   8.585 -0.0446  0.1049 -0.2140
18994SOL    HW259300   2.599   4.323   8.691 -0.6450  0.8349 -0.7180
18995SOL     OW59301   3.174   9.329   4.778  0.2817  0.4632  0.7494
18995SOL    HW159302   3.137   9.351   4.864 -0.8560 -1.5368  0.8638
18995SOL    HW259303   3.118   9.257   4.747  1.1951  0.5773 -1.2968
18996SOL     OW59304   3.638   5.851   6.526  0.1579 -0.3550 -0.2242
18996SOL    HW159305   3.648   5.931   6.578 -0.6946  0.5507 -1.3883
18996SOL    HW259306   3.631   5.781   6.591 -0.6467  0.6994  0.8822
18997SOL     OW59307   5.484   3.470   8.455  0.1145 -0.1925 -0.4503
18997SOL    HW159308   5.557   3.445   8.399  1.3793  0.1825  0.9655
18997SOL    HW259309   5.482   3.403   8.523  0.8168  1.1520  0.9664
18998SOL     OW59310   2.133   9.324   2.494  0.4803 -0.3562  0.8237
18998SOL    HW159311   2.112   9.399   2.437 -1.3411 -1.7974 -0.5183
18998SOL    HW259312   2.052   9.273   2.497  1.3922 -1.7952  2.4975
18999SOL     OW59313   1.097   9.070   2.966  0.3643 -0.0730 -0.0106
18999SOL    HW159314   1.134   9.154   2.994 -0.7733  0.2221  0.6473
18999SOL    HW259315   1.086   9.020   3.046  0.9279 -0.8206 -0.3884
19000SOL     OW59316   6.719  10.185   8.048  0.1678  0.5828 -0.0213
19000SOL    HW159317   6.810  10.157   8.039 -0.0539 -0.5073  0.9629
19000SOL    HW259318   6.724  10.278   8.068  0.9911  0.8669 -1.4152
19001SOL     OW59319   6.768   5.291   1.796  0.0257  0.3163 -0.0768
19001SOL    HW159320   6.821   5.336   1.862 -2.6123  0.8259  1.8371
19001SOL    HW259321   6.691   5.347   1.784 -1.2727 -1.5363 -0.9041
19002SOL     OW59322   0.497   5.693   1.496  0.0424 -0.2077 -0.3173
19002SOL    HW159323   0.487   5.677   1.402 -1.2331  1.2978 -0.4971
19002SOL    HW259324   0.482   5.608   1.537 -0.2965 -0.7096 -1.4414
19003SOL     OW59325   9.528   1.283   0.165  0.0041 -0.2571  0.7790
19003SOL    HW159326   9.476   1.208   0.135  1.8222 -0.8822 -1.0249
19003SOL    HW259327   9.479   1.360   0.136 -1.1334 -0.7494  1.3224
19004SOL     OW59328   9.702   3.737   9.186 -0.0683 -0.4345 -0.0275
19004SOL    HW159329   9.644   3.741   9.110 -0.7132  0.6968  0.4992
19004SOL    HW259330   9.646   3.707   9.257 -0.5330  2.3884  0.9073
19005SOL     OW59331   9.917   1.111   1.812 -0.4728 -0.0604 -0.0857
19005SOL    HW159332   9.973   1.111   1.889 -2.5175  0.9627  1.4948
19005SOL    HW259333   9.904   1.203   1.791  0.5739 -0.3103 -2.1473
19006SOL     OW59334   2.293   2.747   4.823 -0.5705  0.1635 -0.0655
19006SOL    HW159335   2.337   2.671   4.861  0.3300  0.0261 -1.3120
19006SOL    HW259336   2.361   2.791   4.773 -1.0389  1.9217  0.7777
19007SOL     OW59337   5.754   0.605   0.040 -0.3659 -0.2106 -0.3652
19007SOL    HW159338   5.770   0.550  -0.037  3.0129 -1.1253  0.8130
19007SOL    HW259339   5.794   0.689   0.019 -0.9210  0.0944 -0.2167
19008SOL     OW59340   7.422   0.485   3.314  0.8183 -0.0265  0.1688
19008SOL    HW159341   7.408   0.579   3.325  1.6167  0.2800 -1.2882
19008SOL    HW259342   7.470   0.476   3.232 -0.7254 -1.8312 -0.6325
19009SOL     OW59343   5.899   6.681   3.295 -0.1603 -0.0500 -0.3738
19009SOL    HW159344   5.863   6.749   3.351 -1.4893 -0.9025 -0.1477
19009SOL    HW259345   5.918   6.608   3.355  0.8087 -0.0689 -0.6777
19010SOL     OW59346   4.214   7.768   7.275  0.3098 -0.2010 -0.0733
19010SOL    HW159347   4.193   7.717   7.354 -2.0032  0.4398 -0.1960
19010SOL    HW259348   4.157   7.732   7.208  1.4983 -0.0275 -1.2181
19011SOL     OW59349   1.022   5.868   3.883  0.4199 -0.0886  0.3953
19011SOL    HW159350   1.016   5.963   3.871  0.0810 -0.2799 -1.1588
19011SOL    HW259351   1.057   5.835   3.800  0.6443 -1.3194  0.9491
19012SOL     OW59352   7.518   8.077   6.991  0.1574  0.3025  0.2558
19012SOL    HW159353   7.516   8.049   6.899  0.7403 -0.8475  0.5736
19012SOL    HW259354   7.458   8.152   6.995  0.0444  0.3016 -1.0354
19013SOL     OW59355   6.260   1.306   1.035 -0.1447 -0.2341  0.4471
19013SOL    HW159356   6.217   1.348   1.109  0.6772  1.1850  0.1539
19013SOL    HW259357   6.214   1.340   0.958  1.5853  1.5264  0.1102
19014SOL     OW59358   4.743   6.069   1.772  0.3495  0.0241 -0.3283
19014SOL    HW159359   4.668   6.015   1.747 -1.0191  0.5411  2.3871
19014SOL    HW259360   4.740   6.143   1.711 -0.2584 -0.8414 -1.3917
19015SOL     OW59361   1.083   2.522   3.619  0.1386 -0.5833 -0.1642
19015SOL    HW159362   1.035   2.597   3.584  1.9603  1.4956  1.5146
19015SOL    HW259363   1.034   2.498   3.698  0.3183 -0.2137  0.0659
19016SOL     OW59364   3.695   6.514   5.330 -0.5758 -0.1156 -0.2149
19016SOL    HW159365   3.696   6.444   5.395 -1.2256 -0.6857 -0.8089
19016SOL    HW259366   3.705   6.469   5.246  0.7677  0.6485 -0.4945
19017SOL     OW59367   0.240   2.776   4.331  0.1210  0.2386 -0.1161
19017SOL    HW159368   0.307   2.845   4.336  0.1450  0.2299 -0.2880
19017SOL    HW259369   0.248   2.743   4.241  0.4150 -0.2951  0.1039
19018SOL     OW59370   9.765   1.332   9.906 -0.2835 -0.4464  0.2261
19018SOL    HW159371   9.808   1.383   9.975 -1.4382  2.2789 -0.8990
19018SOL    HW259372   9.672   1.338   9.928 -0.5273 -1.0098 -0.6495
19019SOL     OW59373   8.128   9.811   8.600 -0.4935 -0.2433 -0.0919
19019SOL    HW159374   8.190   9.786   8.669 -1.4923 -0.6769  0.6700
19019SOL    HW259375   8.063   9.741   8.600  0.6195 -1.4338 -2.9821
19020SOL     OW59376   4.895   8.467   7.299 -0.3317 -0.1813 -0.0743
19020SOL    HW159377   4.811   8.454   7.255 -1.3962 -0.6704  1.9801
19020SOL    HW259378   4.873   8.512   7.381  1.2606 -1.1468  0.9462
19021SOL     OW59379   2.629   6.943   0.433  0.3157  0.2501 -0.1100
19021SOL    HW159380   2.549   6.919   0.386 -0.4136  0.6589  0.8977
19021SOL    HW259381   2.614   7.034   0.461  1.6009  0.7325 -0.8743
19022SOL     OW59382   2.454   4.780   4.208 -0.2278 -0.2901 -0.2872
19022SOL    HW159383   2.362   4.779   4.181 -0.7911 -0.1286  1.4874
19022SOL    HW259384   2.496   4.715   4.151 -1.7341 -1.3893 -0.2166
19023SOL     OW59385   7.798   8.673   7.367  0.2050 -0.4290  0.6195
19023SOL    HW159386   7.747   8.594   7.346  0.0068 -0.1337 -0.0603
19023SOL    HW259387   7.748   8.744   7.327  0.5968 -0.0090  0.8745
19024SOL     OW59388   3.476   7.124   1.863 -0.0241 -0.6298  0.1942
19024SOL    HW159389   3.411   7.055   1.873  1.1362 -1.6105  1.2642
19024SOL    HW259390   3.542   7.087   1.803  1.4059 -1.1234  1.9862
19025SOL     OW59391   4.868   5.040   6.893  0.1464 -0.0439 -0.7805
19025SOL    HW159392   4.786   5.027   6.940  0.3015  1.1476 -0.1532
19025SOL    HW259393   4.926   5.083   6.956  1.1909 -0.6748 -1.2824
19026SOL     OW59394   3.506  10.566   6.378  0.5054 -0.1090  0.1052
19026SOL    HW159395   3.576  10.613   6.333  1.1444 -0.5590  0.6067
19026SOL    HW259396   3.476  10.500   6.316  0.0951  0.4855 -0.3380
19027SOL     OW59397   6.795   2.641   6.071 -0.6679  0.5230  0.0577
19027SOL    HW159398   6.769   2.583   5.998 -0.4555 -0.0609  0.4378
19027SOL    HW259399   6.842   2.713   6.028 -0.3502  0.0725 -0.3720
19028SOL     OW59400   1.366   4.820   8.311 -0.3717 -0.1703 -0.0110
19028SOL    HW159401   1.360   4.829   8.406  1.4157  0.3116  0.0957
19028SOL    HW259402   1.342   4.906   8.276 -0.7337 -0.2614  0.0060
19029SOL     OW59403   1.548   2.020   0.676 -0.0252  0.0685  0.3859
19029SOL    HW159404   1.616   2.011   0.609 -0.8134 -0.0592 -0.4230
19029SOL    HW259405   1.485   1.951   0.654 -0.3610  0.1103  1.1950
19030SOL     OW59406   0.880   2.525   3.964 -0.0338 -0.5970  0.5294
19030SOL    HW159407   0.952   2.498   4.021  1.2927 -2.1274 -1.7181
19030SOL    HW259408   0.889   2.620   3.957  1.5251 -0.7229  0.6030
19031SOL     OW59409   6.256   3.564   7.916  0.0749  0.1276  0.3813
19031SOL    HW159410   6.187   3.586   7.854  0.2468  0.7114  0.3848
19031SOL    HW259411   6.304   3.646   7.928  1.7695 -0.6096 -0.8662
19032SOL     OW59412   0.068  10.493   1.734 -0.3288 -0.2277  0.0650
19032SOL    HW159413  -0.018  10.461   1.763 -0.9356  1.1535 -0.1360
19032SOL    HW259414   0.089  10.564   1.794  0.9333 -0.8656  0.4225
19033SOL     OW59415   3.657   0.598   7.517 -1.0364 -0.2289  0.4483
19033SOL    HW159416   3.731   0.653   7.545  1.6993 -1.4312 -3.4679
19033SOL    HW259417   3.676   0.512   7.553 -0.1706 -0.6310 -0.8711
19034SOL     OW59418   5.814   7.897   2.724 -0.1998  0.0458  0.0148
19034SOL    HW159419   5.835   7.886   2.817  0.0292 -0.3368 -0.0812
19034SOL    HW259420   5.753   7.825   2.705 -1.1214  0.7734  0.1383
19035SOL     OW59421   2.181   2.385   3.003 -0.3063 -0.8993  0.2912
19035SOL    HW159422   2.130   2.348   2.930  0.0342 -1.9180  0.5584
19035SOL    HW259423   2.233   2.454   2.962 -2.0775  0.3715  0.0537
19036SOL     OW59424   4.993   6.460   0.327 -0.9051  0.8376  0.4664
19036SOL    HW159425   4.931   6.467   0.254 -0.5453 -0.0144  0.0677
19036SOL    HW259426   5.011   6.550   0.352 -1.3148  1.1306 -0.2639
19037SOL     OW59427   0.218   6.324   4.987 -0.6421  0.0815 -0.6158
19037SOL    HW159428   0.275   6.283   5.052 -0.6855  0.3551 -0.4008
19037SOL    HW259429   0.203   6.413   5.021  0.8608  0.8939 -1.9366
19038SOL     OW59430   1.981   7.568   9.689 -0.4319 -0.6915  0.0851
19038SOL    HW159431   1.935   7.624   9.626  1.2331  1.1814  0.4167
19038SOL    HW259432   2.041   7.516   9.634 -0.0965 -0.1883 -0.0420
19039SOL     OW59433   8.698   8.005   5.381  0.0178 -0.0619  0.0248
19039SOL    HW159434   8.755   8.017   5.457  0.5678  0.3330 -0.4444
19039SOL    HW259435   8.623   8.062   5.399  1.0430  1.5593 -0.6088
19040SOL     OW59436   0.630   5.510   3.742  0.4682  0.2415 -0.3099
19040SOL    HW159437   0.577   5.500   3.663  0.8266 -0.5329 -0.4622
19040SOL    HW259438   0.588   5.453   3.806  0.4396  0.5257 -0.0738
19041SOL     OW59439   0.085   8.431   9.055  0.0021  0.4182 -0.1934
19041SOL    HW159440   0.005   8.386   9.029 -0.3339  0.3827  0.8445
19041SOL    HW259441   0.121   8.467   8.974 -0.0728 -1.1446 -0.9381
19042SOL     OW59442   0.264   1.720   0.670  0.6153 -0.1418  0.2538
19042SOL    HW159443   0.265   1.810   0.637  0.4293 -0.5539 -0.9132
19042SOL    HW259444   0.260   1.730   0.765 -1.0165  1.0842  0.1041
19043SOL     OW59445   9.192   7.035   2.793  0.0086  0.2012 -0.0449
19043SOL    HW159446   9.208   7.018   2.886  3.2108  0.1600 -0.5012
19043SOL    HW259447   9.096   7.041   2.786 -0.3244  1.4834  3.4520
19044SOL     OW59448   9.349   3.144   2.157 -0.0456  0.4402 -0.3235
19044SOL    HW159449   9.418   3.146   2.090  0.5452 -0.6021  0.2255
19044SOL    HW259450   9.269   3.167   2.110  0.3936 -0.0698 -1.3455
19045SOL     OW59451   0.935   2.477   5.996  0.5705 -0.0537  0.1408
19045SOL    HW159452   0.882   2.538   6.048  1.5576  0.6842  0.3253
19045SOL    HW259453   0.992   2.434   6.060  0.4173 -0.6084 -0.0915
19046SOL     OW59454   5.245   2.747   5.246 -0.5459  0.2913 -0.7484
19046SOL    HW159455   5.275   2.751   5.155  1.8563 -0.1098 -0.0550
19046SOL    HW259456   5.280   2.664   5.279  1.0271  1.6677  1.2727
19047SOL     OW59457   5.662   0.019   1.105 -0.3404 -0.3320 -0.8320
19047SOL    HW159458   5.755   0.011   1.124 -0.3266  1.9944  0.4880
19047SOL    HW259459   5.658   0.055   1.016  0.1928  2.0390  0.0310
19048SOL     OW59460   8.894   7.004   3.253 -0.1394  0.4880  0.0153
19048SOL    HW159461   8.898   7.074   3.188  1.0925 -0.0036 -0.4775
19048SOL    HW259462   8.924   6.926   3.205 -1.3838 -0.3676  0.5702
19049SOL     OW59463   5.347   6.130   3.184 -0.2576  0.0224 -0.0165
19049SOL    HW159464   5.325   6.075   3.109  0.2156 -0.2506  0.0394
19049SOL    HW259465   5.308   6.215   3.164 -3.1217 -0.9390  0.9760
19050SOL     OW59466   1.739   8.785   6.420  0.3969 -0.6149  0.0714
19050SOL    HW159467   1.756   8.702   6.464  0.8166 -0.4719  0.1822
19050SOL    HW259468   1.682   8.833   6.481 -0.8247 -1.2823 -0.5127
19051SOL     OW59469   1.650   6.977   0.543  0.6189 -1.0785 -0.0619
19051SOL    HW159470   1.633   7.060   0.587  1.3010 -0.5410 -0.7764
19051SOL    HW259471   1.568   6.957   0.497  0.2674 -1.0997  0.5622
19052SOL     OW59472   5.388   7.727   5.651  0.5851  0.2232 -0.7296
19052SOL    HW159473   5.397   7.633   5.635 -1.4455 -0.0179 -0.6879
19052SOL    HW259474   5.435   7.742   5.733  1.2423 -0.6749 -0.9294
19053SOL     OW59475   5.669   1.995   8.816 -0.2095 -0.8589  0.3978
19053SOL    HW159476   5.712   1.924   8.863 -0.1551 -0.4733  0.9456
19053SOL    HW259477   5.708   2.075   8.852  2.8701 -0.5254 -3.0700
19054SOL     OW59478   0.323   7.524   3.575 -0.6402 -0.5626 -0.5447
19054SOL    HW159479   0.297   7.568   3.655  1.5321 -1.1681  0.5949
19054SOL    HW259480   0.367   7.591   3.523  1.1416 -0.8910  0.4335
19055SOL     OW59481   5.726   7.768   2.374 -0.2850  0.1196  1.0939
19055SOL    HW159482   5.650   7.825   2.385 -0.3091  0.3058  0.0920
19055SOL    HW259483   5.800   7.829   2.367 -0.5857  0.2644 -2.5157
19056SOL     OW59484   8.617   7.864   8.526  0.0296  0.2570 -0.4025
19056SOL    HW159485   8.575   7.925   8.586  0.7038 -0.1689  0.5300
19056SOL    HW259486   8.680   7.916   8.477  0.0906  0.4469 -0.1217
19057SOL     OW59487   8.741   5.587   9.558 -0.0499 -0.2663 -0.1890
19057SOL    HW159488   8.702   5.541   9.632 -1.1539 -2.0076 -1.7608
19057SOL    HW259489   8.667   5.629   9.515  0.7149  1.6070  0.2059
19058SOL     OW59490   7.145  10.473   1.773  0.0682  0.5080  0.1968
19058SOL    HW159491   7.168  10.438   1.860 -1.6956 -2.1557 -0.2996
19058SOL    HW259492   7.221  10.453   1.719 -0.6518 -2.3420  0.0674
19059SOL     OW59493   8.913   4.259   7.665 -0.0008  0.1475  0.0688
19059SOL    HW159494   8.846   4.314   7.624  1.1093  2.4776  1.2206
19059SOL    HW259495   8.874   4.232   7.748 -0.3521 -0.3913 -0.2676
19060SOL     OW59496  10.329   0.417   4.091 -0.1441 -0.3919  0.9082
19060SOL    HW159497  10.383   0.471   4.033  2.1254 -2.5042  0.9228
19060SOL    HW259498  10.319   0.470   4.170  0.2840  0.8154  0.1817
19061SOL     OW59499   2.958   2.951   9.571  0.0494  0.4648 -0.6081
19061SOL    HW159500   2.960   2.999   9.488  0.9320 -0.1659 -0.9718
19061SOL    HW259501   2.866   2.931   9.586 -0.4169  2.6772 -0.1917
19062SOL     OW59502   9.903   8.824  10.252 -0.6648 -0.5322 -0.2006
19062SOL    HW159503   9.898   8.736  10.290 -2.0524  0.1130  1.2222
19062SOL    HW259504   9.996   8.835  10.230 -0.0054 -1.4883  1.8132
19063SOL     OW59505   7.799   8.804   0.962  0.1957 -0.3856 -0.2095
19063SOL    HW159506   7.737   8.736   0.937  0.1713 -1.7502  2.9999
19063SOL    HW259507   7.883   8.775   0.925 -0.3938 -0.4295 -1.5474
19064SOL     OW59508   9.541   4.443   0.887 -0.0381  0.0211 -0.2184
19064SOL    HW159509   9.573   4.368   0.837  2.0165 -0.2877  1.4111
19064SOL    HW259510   9.449   4.452   0.862 -0.5509 -3.4192 -0.0369
19065SOL     OW59511   9.952   3.126  10.033 -0.4201  0.2158 -0.2836
19065SOL    HW159512   9.994   3.186  10.095 -3.9321  1.6683  0.9304
19065SOL    HW259513   9.934   3.179   9.956  0.3430 -0.5384 -1.0138
19066SOL     OW59514   2.861   6.569   8.308 -0.4675  0.0894 -0.6831
19066SOL    HW159515   2.858   6.473   8.313 -0.2264  0.0915 -0.4665
19066SOL    HW259516   2.932   6.594   8.367 -1.0586  0.4504 -0.1002
19067SOL     OW59517   4.329   7.303   5.921 -0.0658 -0.0527 -0.4108
19067SOL    HW159518   4.267   7.372   5.895  2.1481  1.7786 -1.1259
19067SOL    HW259519   4.281   7.221   5.906 -2.0648  1.2404 -1.5772
19068SOL     OW59520   3.206   6.293   8.302 -0.1672  0.0463 -0.0598
19068SOL    HW159521   3.268   6.315   8.232  0.4660 -4.0407 -1.0218
19068SOL    HW259522   3.257   6.301   8.382  1.0543 -1.2069 -0.6661
19069SOL     OW59523   9.333   2.751   9.096 -0.1160  0.0815  0.3559
19069SOL    HW159524   9.354   2.688   9.164  0.1910 -0.8397 -0.5666
19069SOL    HW259525   9.282   2.819   9.141  0.3549 -0.3301  1.5516
19070SOL     OW59526   0.606   7.283   7.982  0.0995 -0.0743 -0.1954
19070SOL    HW159527   0.574   7.268   8.071  0.0074  0.4309 -0.1440
19070SOL    HW259528   0.701   7.287   7.991  0.0324  1.1509  0.0603
19071SOL     OW59529   6.511   0.889   7.490 -0.3668 -0.1598 -0.3874
19071SOL    HW159530   6.445   0.948   7.526  1.0762  1.4986 -0.2886
19071SOL    HW259531   6.472   0.802   7.496 -1.0976  0.2671  3.1357
19072SOL     OW59532   8.106   9.918   6.480  0.3362  0.7838  0.1990
19072SOL    HW159533   8.072  10.006   6.493 -0.2957  0.2624  2.5748
19072SOL    HW259534   8.200   9.931   6.462  0.1174  1.9495 -0.1502
19073SOL     OW59535   5.943   3.900   2.347  0.0530 -0.3436  0.1992
19073SOL    HW159536   5.897   3.867   2.424  0.7697  0.2781  0.9233
19073SOL    HW259537   5.951   3.994   2.364 -1.7558  0.2151 -1.6967
19074SOL     OW59538   3.442   4.004   2.385  0.3216 -0.2930  0.6334
19074SOL    HW159539   3.524   4.012   2.433  0.2270 -0.0604  0.7608
19074SOL    HW259540   3.378   4.050   2.439 -0.0620 -1.1527  0.9257
19075SOL     OW59541   6.128   0.795  10.309  0.0276  0.3158  0.6675
19075SOL    HW159542   6.200   0.732  10.314  0.7055  1.0872  0.7717
19075SOL    HW259543   6.154   0.866  10.367 -1.5485 -0.1062  1.9887
19076SOL     OW59544   6.847   6.612   0.845  0.0414  0.1837  0.0774
19076SOL    HW159545   6.872   6.684   0.787 -0.9419 -0.9903 -1.8962
19076SOL    HW259546   6.756   6.632   0.870 -1.6547 -2.0327 -3.4843
19077SOL     OW59547   5.942  10.470   7.076  0.0521  0.0055  0.1854
19077SOL    HW159548   6.038  10.461   7.080 -0.0149 -0.2730  1.5632
19077SOL    HW259549   5.914  10.398   7.019  0.6412 -0.0105 -0.0946
19078SOL     OW59550   6.063   9.157   6.675 -0.3000 -0.3280  0.5300
19078SOL    HW159551   6.015   9.075   6.689 -0.7565 -0.1647 -0.0526
19078SOL    HW259552   6.016   9.201   6.605 -0.4468  0.7464  1.2723
19079SOL     OW59553   6.588   1.243   7.644  0.5001  0.1723  0.6761
19079SOL    HW159554   6.633   1.194   7.575  1.8188  1.9778  0.1734
19079SOL    HW259555   6.501   1.204   7.649  0.5132 -0.2927 -1.7041
19080SOL     OW59556   7.749   2.708   1.945 -0.2190 -0.5813 -0.0574
19080SOL    HW159557   7.678   2.745   1.998 -0.1832 -1.0091  0.2933
19080SOL    HW259558   7.809   2.781   1.930 -1.4790  0.1892 -1.6597
19081SOL     OW59559   2.237   3.194   2.126 -0.4047 -0.5557  0.0350
19081SOL    HW159560   2.248   3.152   2.041 -1.4089 -1.8835  0.5256
19081SOL    HW259561   2.326   3.217   2.154  0.0845 -1.5467 -0.6648
19082SOL     OW59562   8.512   8.128   0.512 -0.2818  0.3408 -0.2460
19082SOL    HW159563   8.491   8.190   0.442  1.1900  1.2836  0.1143
19082SOL    HW259564   8.566   8.061   0.469 -0.3218  0.3155 -0.2560
19083SOL     OW59565   8.605   5.843  10.531  0.2067 -0.2500  0.3952
19083SOL    HW159566   8.633   5.757  10.499 -2.3878 -0.9355 -0.2759
19083SOL    HW259567   8.686   5.886  10.558  1.5549 -3.1743  1.4690
19084SOL     OW59568   3.092   0.416   9.651  0.2495 -0.2141  0.0797
19084SOL    HW159569   2.997   0.409   9.657  0.3326 -0.5222  1.2284
19084SOL    HW259570   3.107   0.456   9.565 -0.9349  0.3436  0.1061
19085SOL     OW59571   7.482   7.731   5.482  0.1981  0.2336  0.0515
19085SOL    HW159572   7.564   7.698   5.447 -0.8803  0.0668 -2.5961
19085SOL    HW259573   7.491   7.827   5.479  1.9041  0.4137  4.1787
19086SOL     OW59574   9.379   9.850  10.227 -0.1828  0.3860  0.6914
19086SOL    HW159575   9.376   9.759  10.196 -1.4528  1.0557 -1.4021
19086SOL    HW259576   9.448   9.851  10.293  0.1572 -2.0007  0.4645
19087SOL     OW59577  10.573   6.020   3.376  0.5359 -0.1185  0.1256
19087SOL    HW159578  10.590   5.935   3.335 -0.7005 -0.1635 -0.3350
19087SOL    HW259579  10.582   6.084   3.305 -1.3836 -0.1756 -0.2289
19088SOL     OW59580   8.050   5.601   9.033  0.2292  0.0719  0.2836
19088SOL    HW159581   7.974   5.626   9.084 -0.5150 -0.8033 -0.3654
19088SOL    HW259582   8.057   5.667   8.964 -0.9188 -0.6997 -0.6123
19089SOL     OW59583   9.703   1.144   0.332  0.1776  0.1960 -0.1853
19089SOL    HW159584   9.649   1.222   0.317  1.4004  0.8015 -1.7417
19089SOL    HW259585   9.733   1.118   0.245  0.7917 -1.2958  0.4345
19090SOL     OW59586   0.909   6.963   3.406 -0.3561 -0.3699 -0.3735
19090SOL    HW159587   0.887   7.055   3.423  1.7098  0.2348 -0.7158
19090SOL    HW259588   0.897   6.952   3.312 -1.2411 -0.6687 -0.2399
19091SOL     OW59589   4.252  10.497   3.857 -0.0700 -0.0509 -0.2176
19091SOL    HW159590   4.293  10.576   3.823 -1.1656  0.9816  0.7721
19091SOL    HW259591   4.158  10.514   3.849 -0.3163 -1.1924  0.1599
19092SOL     OW59592   5.672   6.562   5.582 -0.1542 -0.1970  0.1289
19092SOL    HW159593   5.592   6.524   5.546 -0.2038 -0.5165  0.5642
19092SOL    HW259594   5.671   6.537   5.674  0.5683 -0.3998  0.0865
19093SOL     OW59595   8.775   3.515   8.720 -0.5172  0.0873 -0.0285
19093SOL    HW159596   8.764   3.601   8.761 -1.9097 -0.0361 -0.0891
19093SOL    HW259597   8.865   3.489   8.742 -0.2459  1.3295  0.4083
19094SOL     OW59598   4.240   4.368   6.565  0.3244  0.2825 -0.4179
19094SOL    HW159599   4.305   4.300   6.548  0.3621  0.1882  0.0805
19094SOL    HW259600   4.191   4.336   6.640 -0.4145  0.2734 -0.8926
19095SOL     OW59601   1.380   6.432   5.697  0.2550 -0.1315 -0.1231
19095SOL    HW159602   1.444   6.401   5.762 -0.0031 -0.0293  0.1801
19095SOL    HW259603   1.302   6.452   5.748 -0.1843 -0.7063 -0.5525
19096SOL     OW59604   2.712   0.308   7.314  0.0403 -0.6468  0.0239
19096SOL    HW159605   2.741   0.218   7.324  0.5018 -0.4008  0.9545
19096SOL    HW259606   2.791   0.357   7.289 -0.5001 -0.7383 -2.0198
19097SOL     OW59607   3.204   9.351   2.656 -0.0226  0.1093 -0.4116
19097SOL    HW159608   3.184   9.412   2.585 -0.5303 -1.5069 -1.7052
19097SOL    HW259609   3.123   9.343   2.705  0.5752  1.9619  1.0189
19098SOL     OW59610   9.254   8.803   6.166 -0.0370 -0.1515 -0.4212
19098SOL    HW159611   9.163   8.777   6.180  0.5345 -2.5215 -0.7210
19098SOL    HW259612   9.286   8.824   6.254 -0.4021 -0.9913 -0.0795
19099SOL     OW59613   9.396   7.536   5.761  0.0506 -0.0837  0.2981
19099SOL    HW159614   9.471   7.500   5.807 -0.3140 -0.2859  0.7443
19099SOL    HW259615   9.369   7.611   5.815  1.4279  1.5354 -1.1525
19100SOL     OW59616   1.117   1.713   7.866 -0.0992  0.1348  0.6504
19100SOL    HW159617   1.099   1.633   7.818  1.8924  0.1935 -0.2944
19100SOL    HW259618   1.053   1.776   7.833 -0.5716 -0.5890  0.1571
19101SOL     OW59619  10.044   8.393   4.929  0.5074  0.0934  0.0809
19101SOL    HW159620  10.117   8.437   4.973  0.0949 -0.3037  1.1895
19101SOL    HW259621  10.063   8.300   4.940 -0.6312 -0.0226  1.1900
19102SOL     OW59622   7.618   3.005   4.799  0.1784  0.3626  0.3531
19102SOL    HW159623   7.701   3.040   4.830  0.7961 -1.4350  0.8668
19102SOL    HW259624   7.632   2.910   4.794 -1.6206  0.0821 -0.2388
19103SOL     OW59625   3.489  10.386   6.839 -0.1874 -0.1635 -0.7950
19103SOL    HW159626   3.538  10.417   6.916 -0.6548  0.2160 -0.6505
19103SOL    HW259627   3.438  10.312   6.872 -1.2383  0.6922 -0.4726
19104SOL     OW59628   9.228   0.362   2.162 -0.5188  0.1856  0.4039
19104SOL    HW159629   9.242   0.440   2.108  0.3784 -1.0114 -1.2016
19104SOL    HW259630   9.137   0.368   2.190 -0.1815  2.3140  1.2096
19105SOL     OW59631   3.402   7.484   2.780  0.2676 -0.0930  0.3889
19105SOL    HW159632   3.351   7.563   2.797 -0.1037  0.2853 -2.0756
19105SOL    HW259633   3.490   7.517   2.762  0.3490 -0.3294  0.3629
19106SOL     OW59634   4.854   5.225   5.680 -0.0792  0.1519  0.1058
19106SOL    HW159635   4.844   5.160   5.750  2.9244 -1.0419 -0.4249
19106SOL    HW259636   4.780   5.208   5.621 -1.1389 -0.6189  1.5915
19107SOL     OW59637   7.958   8.662   8.851  0.3026 -0.2748 -0.1992
19107SOL    HW159638   7.935   8.647   8.759  0.2153 -0.0893 -0.2089
19107SOL    HW259639   7.973   8.757   8.856 -1.3898 -0.0121  0.3541
19108SOL     OW59640   2.491   7.247   0.512 -0.2266 -0.2268 -0.0692
19108SOL    HW159641   2.538   7.283   0.437  2.6752  0.2159  1.8041
19108SOL    HW259642   2.447   7.322   0.551 -1.1984 -0.3431 -0.8927
19109SOL     OW59643   3.231   9.855   2.267 -0.1173 -0.0794 -0.1330
19109SOL    HW159644   3.201   9.939   2.303  3.9520  1.8712 -0.6468
19109SOL    HW259645   3.163   9.830   2.205 -1.4709  2.9076 -0.0426
19110SOL     OW59646   8.215   7.960   8.159 -0.1804 -0.2948 -0.4780
19110SOL    HW159647   8.223   7.870   8.191  1.0937 -0.0940 -0.2087
19110SOL    HW259648   8.284   7.969   8.093  0.2620  0.7343  0.0986
19111SOL     OW59649   7.335   3.976   6.725 -0.3400  0.5112  0.0797
19111SOL    HW159650   7.275   3.901   6.718  0.6736 -0.1974 -1.7612
19111SOL    HW259651   7.310   4.019   6.807 -0.9353 -1.8687  1.2464
19112SOL     OW59652   0.924   5.965   7.161 -0.0504  0.4340 -0.2590
19112SOL    HW159653   0.868   5.946   7.086 -0.1404  1.2316 -0.4037
19112SOL    HW259654   0.867   6.014   7.221 -0.0897 -0.5083  0.4977
19113SOL     OW59655   9.617   5.881   0.714 -0.4582  0.1975 -0.0548
19113SOL    HW159656   9.542   5.848   0.666 -0.2183 -2.4107  1.2221
19113SOL    HW259657   9.681   5.810   0.712  1.2780  1.6546  0.4322
19114SOL     OW59658   7.784   7.384   0.042  0.6153  0.1602  0.1809
19114SOL    HW159659   7.783   7.477   0.019  1.4188  0.0135 -0.5149
19114SOL    HW259660   7.769   7.383   0.136 -0.1280  0.9475  0.0888
19115SOL     OW59661   3.034   1.761   7.366 -0.2109  0.2194  0.2664
19115SOL    HW159662   3.010   1.670   7.385 -1.1175  0.6528  1.2966
19115SOL    HW259663   2.952   1.802   7.339  0.3637  0.5342 -1.0869
19116SOL     OW59664   4.904   3.799   1.547 -0.2636  0.1014 -0.3251
19116SOL    HW159665   4.846   3.875   1.541  0.7098  0.7836 -2.1435
19116SOL    HW259666   4.987   3.830   1.510  0.5346 -1.5097  0.0268
19117SOL     OW59667   5.959   3.704   7.855 -0.3613 -0.2624  0.0110
19117SOL    HW159668   5.997   3.787   7.884 -0.2268 -1.1579  2.7244
19117SOL    HW259669   5.868   3.725   7.834 -0.1315  0.6857 -0.0896
19118SOL     OW59670   2.552   5.017   8.982 -0.2712  0.3674 -0.6478
19118SOL    HW159671   2.551   4.978   9.069 -0.0851 -1.9780 -1.6359
19118SOL    HW259672   2.473   4.984   8.940 -0.6029  1.8459 -1.2443
19119SOL     OW59673   3.867   0.108   0.711  0.5135  0.1409  0.4816
19119SOL    HW159674   3.817   0.051   0.653  0.9898 -0.1144  0.3093
19119SOL    HW259675   3.901   0.177   0.653  0.3974  0.2850  0.5862
19120SOL     OW59676   4.933   8.858   0.325  0.0151 -0.2335 -0.4741
19120SOL    HW159677   4.961   8.949   0.316  2.2638 -0.8234 -0.0074
19120SOL    HW259678   4.904   8.833   0.238  0.5314  0.5807 -0.8883
19121SOL     OW59679   4.680   5.448   3.849  0.2439 -0.1575 -0.6266
19121SOL    HW159680   4.586   5.461   3.832  0.1408 -0.9650 -0.7051
19121SOL    HW259681   4.718   5.535   3.840 -0.2413 -0.0771 -2.2084
19122SOL     OW59682   5.838   0.856  10.572  0.0773  0.4774 -0.0025
19122SOL    HW159683   5.859   0.871  10.480  0.7632 -0.4344 -0.0042
19122SOL    HW259684   5.752   0.895  10.583  0.5477  1.7684 -0.7009
19123SOL     OW59685   5.972   1.798   2.604 -0.3839  0.1202  0.0159
19123SOL    HW159686   6.050   1.852   2.589 -0.5930  0.6296  0.7112
19123SOL    HW259687   5.956   1.756   2.519 -1.0893  2.3409 -1.0434
19124SOL     OW59688   8.655   9.245   2.344  0.1776  0.2451 -0.4979
19124SOL    HW159689   8.673   9.151   2.334 -0.8243 -0.2704  1.8676
19124SOL    HW259690   8.726   9.277   2.400 -0.0643  0.6878 -0.4448
19125SOL     OW59691   5.685   0.694   3.688 -0.1699  0.5061 -0.0752
19125SOL    HW159692   5.589   0.696   3.688 -0.2531 -1.1671 -0.7056
19125SOL    HW259693   5.709   0.740   3.607 -0.4302  1.0185  0.1340
19126SOL     OW59694   7.278  10.368   1.408  0.3430 -0.2993  0.4684
19126SOL    HW159695   7.291  10.455   1.445  1.0696 -0.6118  0.9844
19126SOL    HW259696   7.364  10.345   1.373  0.0564 -0.6520 -0.0008
19127SOL     OW59697   0.097  10.472   0.455 -0.3113  0.0602  0.3873
19127SOL    HW159698   0.072  10.534   0.387 -1.1893  0.9897  1.4985
19127SOL    HW259699   0.192  10.463   0.445 -0.2949  0.8877 -0.3815
19128SOL     OW59700   7.695  10.366   3.491 -0.2036 -0.0929 -0.5515
19128SOL    HW159701   7.609  10.407   3.485 -0.1681  0.1629  0.4377
19128SOL    HW259702   7.739  10.413   3.562  0.0209 -1.5021  0.2807
19129SOL     OW59703   2.426   9.982   6.698 -0.0477 -0.5842  0.5839
19129SOL    HW159704   2.386  10.067   6.677 -0.6091 -0.6532  1.3333
19129SOL    HW259705   2.368   9.944   6.764 -0.3393 -1.9820 -0.4322
19130SOL     OW59706   2.582   4.453   7.057 -0.0237 -0.1521 -0.1865
19130SOL    HW159707   2.600   4.520   6.991 -2.1885  0.0681 -0.6543
19130SOL    HW259708   2.572   4.502   7.138 -2.2977  0.2773 -0.6490
19131SOL     OW59709  10.000   1.939   6.476 -0.3818  0.4090  0.5044
19131SOL    HW159710  10.089   1.935   6.511 -0.8243  2.5300  2.0664
19131SOL    HW259711  10.011   1.927   6.382  1.5956  0.8464  0.6369
19132SOL     OW59712   0.747   5.945   0.712  1.2966  0.3041  0.2113
19132SOL    HW159713   0.733   6.032   0.748  0.9436 -0.2464  1.4436
19132SOL    HW259714   0.713   5.950   0.622  0.8332  1.2973  0.4347
19133SOL     OW59715   9.237   9.140   1.043 -0.1421  0.0877 -0.2151
19133SOL    HW159716   9.226   9.092   0.960 -0.4190  1.7135 -1.1690
19133SOL    HW259717   9.317   9.190   1.031  0.1411 -0.1083  0.7676
19134SOL     OW59718   2.061   5.350   0.747 -0.5471 -0.2331 -0.1497
19134SOL    HW159719   1.983   5.356   0.692 -1.0690 -2.5187  0.2405
19134SOL    HW259720   2.124   5.301   0.694 -0.2127 -0.4062  0.3991
19135SOL     OW59721   2.354   9.667   1.668 -0.6241  1.1322  0.4487
19135SOL    HW159722   2.270   9.687   1.710 -0.0039  1.0762  1.7488
19135SOL    HW259723   2.329   9.631   1.583 -1.9111  1.5173  0.6365
19136SOL     OW59724   1.539   0.774   3.291 -0.1663  0.3558 -0.4052
19136SOL    HW159725   1.632   0.752   3.295 -0.5226 -1.1809  0.1998
19136SOL    HW259726   1.507   0.759   3.380 -1.0289  0.7075 -0.6485
19137SOL     OW59727   3.406   7.266   0.620 -0.9078 -0.4675 -0.6592
19137SOL    HW159728   3.387   7.173   0.608 -2.3231 -0.1348 -1.2758
19137SOL    HW259729   3.329   7.300   0.666 -1.3127  0.7587 -2.1675
19138SOL     OW59730   6.419   6.762   3.873 -0.0429 -0.4605 -0.0550
19138SOL    HW159731   6.423   6.712   3.792  1.3883  0.9541 -0.9258
19138SOL    HW259732   6.342   6.818   3.863  0.5339  0.2209 -0.7835
19139SOL     OW59733   6.840   3.855   5.007 -0.2769  0.2102  0.3567
19139SOL    HW159734   6.766   3.845   5.067  0.3305  0.4695  1.1662
19139SOL    HW259735   6.915   3.873   5.064  0.5870 -0.9092 -0.3938
19140SOL     OW59736   8.065  10.125   6.061 -0.4773  0.0633 -0.7064
19140SOL    HW159737   7.989  10.130   6.120 -1.0987  0.9742 -1.5484
19140SOL    HW259738   8.140  10.145   6.117 -1.1334  1.6425 -0.3356
19141SOL     OW59739   2.369   7.720  10.262  0.0868 -0.1846 -0.0440
19141SOL    HW159740   2.353   7.763  10.178 -2.5338  0.5312  0.7082
19141SOL    HW259741   2.445   7.765  10.298  1.5989 -0.8616 -2.2060
19142SOL     OW59742   6.209  10.380   5.940  0.1968  0.4318  0.0177
19142SOL    HW159743   6.273  10.309   5.943  1.3562  1.3362 -1.5147
19142SOL    HW259744   6.127  10.338   5.915  0.3889 -0.6266  1.1018
19143SOL     OW59745   1.173   2.798   3.380  0.0319  0.3907 -0.2393
19143SOL    HW159746   1.082   2.768   3.377 -0.6452  1.1376  4.6738
19143SOL    HW259747   1.223   2.719   3.403 -0.6257  1.0872  4.4778
19144SOL     OW59748   3.534   5.669   8.829 -0.2376 -0.0061  0.5501
19144SOL    HW159749   3.515   5.693   8.920 -0.0116 -0.1505  0.6347
19144SOL    HW259750   3.473   5.598   8.810 -1.1765  0.8742  0.1787
19145SOL     OW59751   5.212   4.446   3.805 -0.8661 -0.0258 -0.1633
19145SOL    HW159752   5.295   4.431   3.849 -1.7426 -0.4543  1.4489
19145SOL    HW259753   5.235   4.458   3.713  0.9418 -0.3404  0.2072
19146SOL     OW59754   7.814   7.514   0.294  0.2688  0.1874 -0.2287
19146SOL    HW159755   7.817   7.585   0.230 -0.1663 -0.1837 -0.6651
19146SOL    HW259756   7.904   7.507   0.326  0.1563  1.5240  0.4803
19147SOL     OW59757   3.680   7.256   5.257  0.1589 -0.4420  0.6526
19147SOL    HW159758   3.642   7.169   5.242 -1.0862  0.3649 -1.4280
19147SOL    HW259759   3.747   7.265   5.189  0.4855  0.1187  1.0393
19148SOL     OW59760   8.622   9.390   4.023 -0.2213  0.0063  0.4834
19148SOL    HW159761   8.701   9.422   3.978 -0.6493  0.3712 -0.0339
19148SOL    HW259762   8.570   9.469   4.038 -1.3181 -0.4100 -0.8396
19149SOL     OW59763   1.138   7.425   7.539  0.2066  0.1734 -0.0844
19149SOL    HW159764   1.226   7.389   7.537 -0.3034 -1.2179 -2.5995
19149SOL    HW259765   1.143   7.499   7.599  2.9289 -0.2041  0.2671
19150SOL     OW59766   0.373   1.913  10.550 -0.2157  0.1694 -0.0126
19150SOL    HW159767   0.388   1.982  10.485 -0.3413 -0.1596 -0.3913
19150SOL    HW259768   0.365   1.833  10.499 -0.7205 -0.0341  0.3752
19151SOL     OW59769   5.728   6.626   1.214 -0.0376 -0.8844 -0.1967
19151SOL    HW159770   5.664   6.628   1.285  1.3426 -2.9687  1.2574
19151SOL    HW259771   5.687   6.572   1.146  0.2598 -2.6302  0.9285
19152SOL     OW59772   7.601   5.392   5.069 -0.0539  0.3809  0.6221
19152SOL    HW159773   7.671   5.379   5.132 -0.7167 -1.0175  1.1127
19152SOL    HW259774   7.607   5.317   5.010 -0.4959  0.7948  0.0274
19153SOL     OW59775   9.027   8.493   6.572 -0.3516 -0.9550 -0.9985
19153SOL    HW159776   9.032   8.577   6.526 -2.5887  0.8265  1.6480
19153SOL    HW259777   9.097   8.498   6.637 -0.3332 -1.2742 -0.9940
19154SOL     OW59778   8.808   8.143   9.570 -0.1293 -0.4699 -0.4501
19154SOL    HW159779   8.865   8.200   9.622  1.0887 -0.0338 -2.1706
19154SOL    HW259780   8.859   8.064   9.556  0.8917  0.5629 -3.4267
19155SOL     OW59781   9.163   6.049   4.872  0.2959  0.3099 -0.2666
19155SOL    HW159782   9.255   6.026   4.883  0.4274 -0.2724 -2.2221
19155SOL    HW259783   9.122   5.970   4.838 -0.3553  1.3306 -1.9752
19156SOL     OW59784   6.783   6.185   2.732 -0.8511  0.0402  0.5616
19156SOL    HW159785   6.736   6.151   2.656  0.7262 -1.5571  0.2269
19156SOL    HW259786   6.724   6.251   2.769 -2.4768 -0.4871 -0.9321
19157SOL     OW59787   7.475   2.122   3.645 -0.2496  0.5032  0.3215
19157SOL    HW159788   7.550   2.132   3.703 -0.0161 -0.2959  0.1706
19157SOL    HW259789   7.458   2.210   3.612  0.1072  0.8255  0.9876
19158SOL     OW59790   5.610  10.132   3.227  0.0994  0.5489 -0.1062
19158SOL    HW159791   5.563  10.076   3.165  0.0957 -1.2193  1.4030
19158SOL    HW259792   5.702  10.114   3.210  0.1066  0.3722  0.1101
19159SOL     OW59793   8.666   7.948   9.783 -0.0444  0.4249 -0.2401
19159SOL    HW159794   8.710   7.904   9.710  1.4835  1.7718 -0.2084
19159SOL    HW259795   8.677   8.041   9.764 -2.1218  0.8097  0.2933
19160SOL     OW59796   6.821   9.724   1.106 -0.3477 -0.0200 -0.1616
19160SOL    HW159797   6.893   9.748   1.048  1.0378 -0.3247  1.3668
19160SOL    HW259798   6.749   9.783   1.081  0.5466  0.5433 -1.4735
19161SOL     OW59799   0.888   1.258   1.295  0.0749 -0.4325  0.3413
19161SOL    HW159800   0.796   1.250   1.267  0.4353  0.8104 -1.3837
19161SOL    HW259801   0.916   1.168   1.311 -1.6545 -0.7770  1.6918
19162SOL     OW59802   0.809   5.614   3.253 -0.2995 -0.2937 -0.2529
19162SOL    HW159803   0.859   5.693   3.233 -1.7725  0.1131 -2.7065
19162SOL    HW259804   0.854   5.576   3.329  0.3449  2.9685  1.1878
19163SOL     OW59805   4.453  10.310  10.316 -0.2192  0.1892 -0.8683
19163SOL    HW159806   4.486  10.226  10.286 -0.3232  0.0613 -0.6255
19163SOL    HW259807   4.386  10.334  10.251 -0.8535 -0.3596 -0.4354
19164SOL     OW59808   1.763   3.508   0.790  0.2894  0.0766 -0.0324
19164SOL    HW159809   1.834   3.567   0.768 -0.1254  1.3633  1.8031
19164SOL    HW259810   1.752   3.518   0.884 -0.1067 -2.6419  0.2943
19165SOL     OW59811   1.530   0.169   4.085 -0.2745 -0.4527  0.2256
19165SOL    HW159812   1.572   0.236   4.030  0.2787  0.7469  2.0339
19165SOL    HW259813   1.436   0.178   4.067 -0.3935  2.0429  1.6449
19166SOL     OW59814   8.481   8.561   2.319  0.1087  0.0233 -0.3045
19166SOL    HW159815   8.539   8.542   2.393  0.6052 -1.1239 -0.9447
19166SOL    HW259816   8.426   8.483   2.312 -0.0530  0.1974 -1.0212
19167SOL     OW59817   5.048   5.398   0.286 -0.0467 -0.4238 -0.0702
19167SOL    HW159818   4.952   5.404   0.284 -0.2446 -2.5757 -0.7568
19167SOL    HW259819   5.077   5.476   0.332 -2.3018 -1.2083  3.0010
19168SOL     OW59820   6.144   6.538   2.284 -0.0107  0.4923  0.4339
19168SOL    HW159821   6.222   6.593   2.280  0.5354 -0.2960  0.1795
19168SOL    HW259822   6.131   6.508   2.194 -0.4534  0.4035  0.5234
19169SOL     OW59823  10.299   9.567   5.695 -0.1614 -0.0423 -0.1640
19169SOL    HW159824  10.213   9.564   5.653  0.5237  0.2553 -1.6818
19169SOL    HW259825  10.318   9.660   5.704  0.6447 -0.0766 -1.2946
19170SOL     OW59826   3.382   2.544   6.148 -0.3646 -0.3404 -0.4183
19170SOL    HW159827   3.400   2.626   6.102  0.6478 -0.2302  0.1339
19170SOL    HW259828   3.397   2.476   6.082  0.4643 -0.1544 -0.4415
19171SOL     OW59829   3.829   0.603   5.959  0.2820  0.0447  0.5139
19171SOL    HW159830   3.790   0.561   5.883 -0.7778  1.5625  0.1569
19171SOL    HW259831   3.860   0.688   5.926  2.4570 -0.4355  1.1648
19172SOL     OW59832   2.438   7.190   0.067  0.5534  0.1701  0.0181
19172SOL    HW159833   2.467   7.236   0.146  1.1976 -0.8178  0.3654
19172SOL    HW259834   2.515   7.141   0.038 -0.0787 -0.5727 -0.4330
19173SOL     OW59835   2.130   4.369   1.129 -0.3459 -0.2573 -0.0559
19173SOL    HW159836   2.181   4.298   1.089 -2.2820 -2.1148  0.5581
19173SOL    HW259837   2.195   4.422   1.175  1.2817 -1.1083 -1.2622
19174SOL     OW59838   5.995   9.450   0.694  0.5787  0.1885  0.2960
19174SOL    HW159839   5.935   9.401   0.750 -1.5218  1.8224 -0.3718
19174SOL    HW259840   5.996   9.538   0.732  0.8233  0.7627 -0.9862
19175SOL     OW59841   7.369   3.250   1.716 -0.3351  0.1632  0.4285
19175SOL    HW159842   7.281   3.255   1.681 -0.2928 -0.5550  0.1886
19175SOL    HW259843   7.401   3.340   1.716 -1.2876  0.5151  1.1039
19176SOL     OW59844   4.571   3.301   1.264 -0.5074  0.0187 -0.1018
19176SOL    HW159845   4.536   3.327   1.350 -0.8548 -0.3010 -0.1447
19176SOL    HW259846   4.584   3.384   1.218 -1.8743  0.1175 -0.3385
19177SOL     OW59847   5.893   7.697   1.728  0.2910  0.5859 -0.0698
19177SOL    HW159848   5.839   7.699   1.648 -1.0796  1.9648  0.8365
19177SOL    HW259849   5.871   7.614   1.770 -0.5273  0.7671 -0.1243
19178SOL     OW59850   8.854   8.272  10.002 -0.6111  0.0024 -0.2856
19178SOL    HW159851   8.815   8.185  10.014 -0.6294 -0.0372 -0.6282
19178SOL    HW259852   8.877   8.275   9.909 -0.2770  0.2258 -0.1979
19179SOL     OW59853  10.578   2.575   0.488  0.1206 -0.4292 -0.1523
19179SOL    HW159854  10.498   2.628   0.496  0.0341 -0.3077 -1.5607
19179SOL    HW259855  10.633   2.624   0.426  0.9724 -0.8982  0.2206
19180SOL     OW59856   7.135   7.156   4.553 -0.3122 -0.3539  0.1110
19180SOL    HW159857   7.133   7.181   4.646  2.3958  0.1275  0.1153
19180SOL    HW259858   7.126   7.238   4.506 -2.7625 -0.6981 -0.1587
19181SOL     OW59859   6.336   9.077   3.934  0.4981 -0.6683 -0.2759
19181SOL    HW159860   6.350   8.989   3.897  0.7408 -0.6892 -0.1398
19181SOL    HW259861   6.272   9.064   4.004  0.3714 -0.7014 -0.3971
19182SOL     OW59862   7.962   8.701   4.141 -0.3584 -0.0776 -0.3009
19182SOL    HW159863   7.947   8.607   4.145 -0.0382 -0.1069  0.6144
19182SOL    HW259864   8.010   8.715   4.060  3.0136 -1.2547  1.2782
19183SOL     OW59865   6.127   4.711   1.050 -0.3729  0.4960  0.0830
19183SOL    HW159866   6.102   4.636   1.104 -2.5683  0.0371 -1.4745
19183SOL    HW259867   6.216   4.691   1.020 -0.7552 -1.2509  0.0583
19184SOL     OW59868   5.793   6.985   8.272  0.3670  0.5803  0.2814
19184SOL    HW159869   5.779   7.004   8.179  2.2974  1.8697  0.1888
19184SOL    HW259870   5.866   6.922   8.273 -1.2971 -1.4484  0.8846
19185SOL     OW59871   7.940   3.673   2.408  0.2085 -0.0671  0.4807
19185SOL    HW159872   7.935   3.681   2.504 -1.9668 -3.0058  0.7546
19185SOL    HW259873   7.891   3.748   2.375  0.4732  0.6553  1.6713
19186SOL     OW59874   5.940   8.129   0.960 -0.1258 -0.3528  0.4678
19186SOL    HW159875   5.951   8.035   0.976 -0.8056 -0.2619  1.5697
19186SOL    HW259876   5.930   8.167   1.047  0.7506  0.8379  0.0731
19187SOL     OW59877   8.524   5.289   6.276  0.0723  0.1110  0.9387
19187SOL    HW159878   8.445   5.312   6.227  0.2456 -1.3664 -0.1026
19187SOL    HW259879   8.595   5.331   6.227  0.2039 -1.0308  0.1052
19188SOL     OW59880   6.769   1.843   2.486 -0.2549 -0.7382 -0.5758
19188SOL    HW159881   6.797   1.773   2.545  1.0850 -1.1698 -1.6559
19188SOL    HW259882   6.694   1.883   2.529 -1.9662 -3.6976 -0.5144
19189SOL     OW59883   0.379   5.228   1.265  0.2813 -0.0913  0.5357
19189SOL    HW159884   0.287   5.215   1.245  0.2164 -1.4990  1.5989
19189SOL    HW259885   0.417   5.140   1.265  1.4003  0.3621  1.1235
19190SOL     OW59886   6.982   4.140   7.146  0.0369  0.3243  0.0630
19190SOL    HW159887   6.942   4.085   7.214  0.4079 -0.2086 -0.1452
19190SOL    HW259888   6.907   4.178   7.100 -0.2391  1.6981  1.5358
19191SOL     OW59889   2.266   1.545   1.204  0.1668 -0.6835 -0.5558
19191SOL    HW159890   2.181   1.580   1.176  0.3633  0.2593  0.0033
19191SOL    HW259891   2.265   1.552   1.299  1.2806  0.3034 -0.6082
19192SOL     OW59892   4.397   5.150   6.564 -0.3422  0.5103 -0.5518
19192SOL    HW159893   4.462   5.175   6.630 -1.1588 -0.3573  0.6268
19192SOL    HW259894   4.343   5.228   6.552 -0.4540  0.5422  0.1411
19193SOL     OW59895   3.856   0.058   9.716 -0.0854 -0.0313  0.3616
19193SOL    HW159896   3.874   0.017   9.800  3.3198  0.6237  0.1142
19193SOL    HW259897   3.896   0.145   9.723 -1.7989  0.9475 -1.1675
19194SOL     OW59898   8.583   4.022   5.717  0.4712 -0.0292 -0.3501
19194SOL    HW159899   8.568   4.084   5.789  0.0181  0.7383 -1.0795
19194SOL    HW259900   8.678   4.023   5.705  0.5238  0.0540  0.0582
19195SOL     OW59901   9.935   4.933   7.456 -0.0513 -0.0999 -0.6796
19195SOL    HW159902   9.885   5.011   7.480  0.0658 -0.1489 -0.2699
19195SOL    HW259903   9.870   4.863   7.454 -0.3871  0.2195 -2.2665
19196SOL     OW59904   5.994  10.495   5.202 -0.0759 -0.1540 -0.3459
19196SOL    HW159905   5.899  10.479   5.206 -0.0584 -0.1112  0.4077
19196SOL    HW259906   6.006  10.575   5.252  0.4273 -0.4585  0.0210
19197SOL     OW59907   2.344   8.217  10.380 -0.4998  0.2677  0.0944
19197SOL    HW159908   2.400   8.295  10.378 -0.6683  0.3918  0.2082
19197SOL    HW259909   2.277   8.238  10.445 -0.2274 -0.1892  0.5327
19198SOL     OW59910   6.849   7.431   6.306  0.1079 -0.1805  0.2749
19198SOL    HW159911   6.838   7.522   6.335  1.6005 -0.4362  1.7528
19198SOL    HW259912   6.786   7.381   6.358 -2.7248  0.2448 -2.4622
19199SOL     OW59913   3.899   3.249   9.266 -0.1684 -0.1186 -0.2820
19199SOL    HW159914   3.899   3.284   9.355 -0.7306 -1.0192  0.0921
19199SOL    HW259915   3.901   3.154   9.278  3.6616 -0.2938 -1.2603
19200SOL     OW59916   3.227  10.498   4.936 -0.4158 -0.0399  0.8691
19200SOL    HW159917   3.310  10.471   4.898 -2.1360 -2.5383 -1.5447
19200SOL    HW259918   3.213  10.439   5.010 -1.3797 -1.8802 -0.6846
19201SOL     OW59919   0.429   5.263   4.199  0.5055 -0.0756 -0.3146
19201SOL    HW159920   0.419   5.344   4.248  0.1372  0.6002 -1.4726
19201SOL    HW259921   0.345   5.218   4.212  0.9442 -0.6085  0.8653
19202SOL     OW59922   8.334   6.249   8.617 -0.1194 -1.3399 -0.3548
19202SOL    HW159923   8.381   6.323   8.654 -2.8199  1.5337 -2.1258
19202SOL    HW259924   8.373   6.237   8.530 -1.7276  0.2729 -1.3591
19203SOL     OW59925   8.854   5.470   9.125 -0.1281  0.8437  0.0714
19203SOL    HW159926   8.841   5.554   9.083  0.0040  0.2762 -1.1464
19203SOL    HW259927   8.926   5.485   9.187 -0.4241  1.7284  0.2068
19204SOL     OW59928   7.863   2.553   9.428 -0.0262  0.0974 -0.3258
19204SOL    HW159929   7.805   2.480   9.406  0.7812 -0.8143  0.5007
19204SOL    HW259930   7.905   2.527   9.509 -0.7370  2.1070  0.7430
19205SOL     OW59931  10.433   2.253   6.128 -0.5376 -0.2753  0.2432
19205SOL    HW159932  10.437   2.290   6.040  0.9047 -1.3101 -0.1604
19205SOL    HW259933  10.439   2.328   6.186 -1.5611  0.4288 -0.5227
19206SOL     OW59934   1.084   8.687   6.238 -0.0610  0.6404 -0.3212
19206SOL    HW159935   1.112   8.597   6.222  1.1746  0.8898  0.3606
19206SOL    HW259936   1.001   8.678   6.285  0.1249 -0.1357 -0.1333
19207SOL     OW59937   9.715   8.360   6.834 -0.3154  0.0441  0.0207
19207SOL    HW159938   9.807   8.362   6.808  0.1577 -2.8411  1.0580
19207SOL    HW259939   9.716   8.388   6.926 -0.7292  1.5196 -0.4038
19208SOL     OW59940   8.858   4.540   5.801  0.3317  0.3164 -0.3627
19208SOL    HW159941   8.926   4.545   5.868 -0.3498 -0.1246  0.3823
19208SOL    HW259942   8.792   4.481   5.838 -0.9388  1.5094 -0.6053
19209SOL     OW59943   5.454   2.582   9.557  0.1056  0.2424 -0.1298
19209SOL    HW159944   5.475   2.600   9.648 -1.4952 -1.6844  0.7166
19209SOL    HW259945   5.519   2.517   9.529  0.0246  0.1214 -0.0389
19210SOL     OW59946   1.849   5.596   8.324 -0.1086  0.3681  0.3600
19210SOL    HW159947   1.765   5.637   8.304 -0.0538  0.6462  0.6815
19210SOL    HW259948   1.868   5.623   8.414  0.8203  1.1775 -0.0556
19211SOL     OW59949   5.597   1.672   9.239  0.1288 -0.6890  0.8064
19211SOL    HW159950   5.568   1.762   9.227  1.4197  0.4188  4.5800
19211SOL    HW259951   5.677   1.665   9.188 -0.2169  0.1412  0.1269
19212SOL     OW59952   1.912   5.484   2.779  0.3278  0.2723 -0.4251
19212SOL    HW159953   1.970   5.441   2.842  0.1480 -1.8555 -1.6340
19212SOL    HW259954   1.971   5.536   2.724  0.9436 -0.6216 -0.6473
19213SOL     OW59955   8.882   1.763   6.714  0.3905  0.0611  0.1886
19213SOL    HW159956   8.828   1.841   6.716 -0.6200 -0.6288  1.4818
19213SOL    HW259957   8.821   1.691   6.700  1.2197 -0.5597 -0.3395
19214SOL     OW59958   4.299   2.780   0.983  0.1799 -0.8134 -0.2132
19214SOL    HW159959   4.338   2.797   0.897 -1.6455 -0.5344 -1.0393
19214SOL    HW259960   4.312   2.861   1.032  1.9688 -1.2566  0.1057
19215SOL     OW59961   6.291   0.962   8.345  0.0945  0.4908  0.8494
19215SOL    HW159962   6.291   1.050   8.307 -1.4766  0.7402  1.3280
19215SOL    HW259963   6.343   0.909   8.284 -0.6042  1.3316 -0.5365
19216SOL     OW59964   0.266   0.949   3.506  0.1534 -0.7114 -0.0634
19216SOL    HW159965   0.248   0.856   3.510 -1.5871 -0.4143 -0.3851
19216SOL    HW259966   0.345   0.956   3.452  0.4112 -1.9908  0.1265
19217SOL     OW59967   4.595   3.655   0.110 -0.1378 -0.5041 -0.2872
19217SOL    HW159968   4.670   3.656   0.050 -1.4071  2.0489 -2.0509
19217SOL    HW259969   4.607   3.732   0.165 -0.6773 -0.9720  0.5048
19218SOL     OW59970   5.591   4.708   3.666 -0.9844 -0.0484 -0.6530
19218SOL    HW159971   5.556   4.788   3.626  0.3732  0.1439 -1.5496
19218SOL    HW259972   5.672   4.737   3.709 -0.5619 -0.9043 -0.8511
19219SOL     OW59973   7.332   3.358   6.108  0.2507 -0.0306  0.3708
19219SOL    HW159974   7.253   3.403   6.139  0.3848 -1.0000  2.2387
19219SOL    HW259975   7.315   3.265   6.123  1.7718 -0.2569  0.9156
19220SOL     OW59976   5.157  10.555   1.231 -0.2349 -0.0680 -0.2632
19220SOL    HW159977   5.150  10.487   1.164  1.6248 -0.4868 -0.0926
19220SOL    HW259978   5.248  10.583   1.226 -0.7286  1.7466  0.3344
19221SOL     OW59979   1.262   8.519   4.477  0.1513  0.1590  0.3351
19221SOL    HW159980   1.224   8.516   4.389  2.0611 -0.4047 -0.5035
19221SOL    HW259981   1.252   8.611   4.503  0.1918  0.4874 -0.7495
19222SOL     OW59982   0.640   3.051   0.785 -0.4009 -0.1205 -0.3218
19222SOL    HW159983   0.674   2.961   0.786 -0.7913 -0.2748 -0.6911
19222SOL    HW259984   0.545   3.041   0.789 -0.3977  0.3253  1.4587
19223SOL     OW59985   0.763   0.977   4.606 -0.0200  0.4301  0.1168
19223SOL    HW159986   0.853   0.958   4.580  0.3082 -0.6359  1.8987
19223SOL    HW259987   0.764   1.070   4.628  1.3789 -0.0762  2.6188
19224SOL     OW59988   5.583   1.618   0.140  0.2324  0.4055  0.2248
19224SOL    HW159989   5.489   1.621   0.155  0.3280  0.0199  0.9818
19224SOL    HW259990   5.611   1.535   0.178  0.8077  0.2835 -0.4490
19225SOL     OW59991   8.236   4.640   7.134  0.4201 -0.2021 -0.0242
19225SOL    HW159992   8.147   4.631   7.101  0.3374 -1.8534  0.5491
19225SOL    HW259993   8.227   4.648   7.229  0.8645 -0.0041  0.0064
19226SOL     OW59994   4.551   8.113   3.310 -0.1051  0.3920  0.0195
19226SOL    HW159995   4.489   8.055   3.354  0.4990 -0.1813  0.1390
19226SOL    HW259996   4.561   8.077   3.222  0.1504  0.4061  0.0411
19227SOL     OW59997   3.913   1.777  10.260  0.0414 -0.3775 -0.6948
19227SOL    HW159998   3.996   1.732  10.274  0.0266  0.3312  2.5107
19227SOL    HW259999   3.862   1.719  10.203  0.7933 -3.4413  1.5676
19228SOL     OW60000   7.958   8.032   5.845 -0.3899 -0.0498  0.3615
19228SOL    HW160001   8.014   8.028   5.768 -0.1192 -2.4085  0.6008
19228SOL    HW260002   7.879   7.984   5.820 -0.3615 -0.7194  1.4681
19229SOL     OW60003   4.678  10.345   3.834  0.3289 -0.4877 -0.0042
19229SOL    HW160004   4.624  10.323   3.910  2.3498 -0.3338  1.5409
19229SOL    HW260005   4.680  10.264   3.783  0.1144 -1.0446  0.8458
19230SOL     OW60006   8.377   6.306   3.852 -0.1071 -0.3765  0.6393
19230SOL    HW160007   8.290   6.281   3.823 -0.0602 -1.2485  1.2095
19230SOL    HW260008   8.395   6.388   3.807 -0.1821 -1.4555 -1.4509
19231SOL     OW60009   7.191   1.901   4.063 -0.2112 -0.2252  0.0708
19231SOL    HW160010   7.130   1.903   3.989  1.2896  2.2530 -1.2388
19231SOL    HW260011   7.273   1.867   4.026  0.3204  0.2531  0.7720
19232SOL     OW60012   7.307   2.489  10.158  0.3305 -0.3410  0.3127
19232SOL    HW160013   7.305   2.483  10.254  0.3241  0.3217  0.3602
19232SOL    HW260014   7.214   2.493  10.133  0.2837 -1.6412  0.1841
19233SOL     OW60015   3.625   7.130   2.515 -0.2393  0.2902  0.0757
19233SOL    HW160016   3.705   7.111   2.564  0.2072  0.3333 -0.6290
19233SOL    HW260017   3.574   7.185   2.575  0.6670  1.0575  0.1780
19234SOL     OW60018   4.030   2.151   0.907  0.1001 -0.0213 -0.3591
19234SOL    HW160019   4.016   2.242   0.933 -0.7168 -0.3281  0.3411
19234SOL    HW260020   4.065   2.108   0.985  2.0346  0.0190 -1.1590
19235SOL     OW60021   4.492   8.944   8.348 -0.2604 -0.5577  0.3987
19235SOL    HW160022   4.493   8.873   8.284  1.7795 -1.3424  1.1856
19235SOL    HW260023   4.500   8.899   8.433  2.2097  0.5661  0.8665
19236SOL     OW60024   9.975   5.760   4.700 -0.2242  0.0332 -0.1919
19236SOL    HW160025   9.981   5.853   4.719  1.3722 -0.0016 -0.4423
19236SOL    HW260026  10.033   5.718   4.764 -0.1082 -0.6871 -0.7520
19237SOL     OW60027   9.313   9.297   7.868  0.0254 -0.0723 -0.0932
19237SOL    HW160028   9.319   9.256   7.954  0.0655 -0.2185 -0.1646
19237SOL    HW260029   9.219   9.309   7.853  0.0661  2.2942  1.0603
19238SOL     OW60030   1.632   0.089   8.104  0.4932  0.2785  0.7801
19238SOL    HW160031   1.684   0.128   8.174  1.1782  2.0386 -0.6295
19238SOL    HW260032   1.568   0.034   8.149 -0.1353  2.5857  2.8999
19239SOL     OW60033   2.155   6.693   8.371 -0.5982  0.3752 -0.0632
19239SOL    HW160034   2.225   6.631   8.351 -1.2684 -0.8947  1.3811
19239SOL    HW260035   2.200   6.778   8.375  0.7388 -0.3028  0.0968
19240SOL     OW60036   8.097   1.853   5.984 -0.0571 -0.1058 -0.1414
19240SOL    HW160037   8.020   1.797   5.996 -0.4876  0.1614 -1.4984
19240SOL    HW260038   8.061   1.942   5.980  0.4898  0.1619  0.6956
19241SOL     OW60039   3.882   6.985   5.975 -0.1623  0.3190 -0.7277
19241SOL    HW160040   3.802   7.032   5.950 -0.1513 -0.0210 -1.4466
19241SOL    HW260041   3.899   6.928   5.900 -0.1204 -0.7554  0.0935
19242SOL     OW60042   8.070   8.981   3.912  0.4062  0.0109  0.2188
19242SOL    HW160043   8.005   8.996   3.980 -0.6340 -0.8580 -0.5374
19242SOL    HW260044   8.105   9.068   3.891 -1.1064  0.6041  0.0802
19243SOL     OW60045   3.195   0.098   3.523 -0.2539  0.3813 -0.2404
19243SOL    HW160046   3.188   0.118   3.616 -0.6389 -0.4612 -0.0807
19243SOL    HW260047   3.211   0.003   3.520 -0.1641  0.4152 -1.0266
19244SOL     OW60048   3.034   3.125   4.593  0.3064  0.0660 -0.1432
19244SOL    HW160049   3.086   3.187   4.543  0.4269  0.5507  0.5748
19244SOL    HW260050   2.969   3.092   4.530 -0.2971  1.5422 -0.3315
19245SOL     OW60051   0.644   6.387   4.353  0.3755  0.0493 -0.2633
19245SOL    HW160052   0.641   6.347   4.440  1.9672  0.4313 -0.0120
19245SOL    HW260053   0.707   6.334   4.305  0.8775  0.9381 -0.6073
19246SOL     OW60054   0.824   7.169   5.128 -0.5997  0.3380 -0.1073
19246SOL    HW160055   0.894   7.131   5.076 -1.3114 -0.9065 -0.2090
19246SOL    HW260056   0.757   7.100   5.132 -1.8036  1.4663 -0.0000
19247SOL     OW60057   2.782   4.573   4.847 -0.1900  0.0511 -0.5192
19247SOL    HW160058   2.836   4.580   4.769  1.5881  1.1306  0.7213
19247SOL    HW260059   2.841   4.595   4.919 -1.9044 -0.3066  1.0814
19248SOL     OW60060   8.241   7.405   2.388  0.5493  0.5909 -0.2047
19248SOL    HW160061   8.178   7.339   2.357  1.8114 -0.4055 -0.7306
19248SOL    HW260062   8.191   7.458   2.450 -0.5440 -0.7754  0.1358
19249SOL     OW60063   7.403   8.847   1.276  0.1379  0.3168 -0.8575
19249SOL    HW160064   7.325   8.899   1.293 -0.4249 -0.8132  0.1706
19249SOL    HW260065   7.447   8.893   1.205 -0.4129  2.0866 -0.1151
19250SOL     OW60066   5.645   5.283   7.986 -0.5839 -0.1520 -0.1372
19250SOL    HW160067   5.555   5.312   7.970 -0.6316 -0.7087 -0.9763
19250SOL    HW260068   5.635   5.194   8.020 -0.3473 -0.3436 -0.5582
19251SOL     OW60069   7.015   4.582   5.844 -0.1910 -0.1591  0.0741
19251SOL    HW160070   7.048   4.492   5.853 -2.2778 -1.1858 -1.5988
19251SOL    HW260071   6.949   4.576   5.776  0.0544  2.8217 -0.5520
19252SOL     OW60072   0.139   1.500   8.474 -0.6188  0.1620 -0.3017
19252SOL    HW160073   0.110   1.587   8.500 -1.5149  0.1034 -1.0243
19252SOL    HW260074   0.060   1.446   8.482 -0.6405 -0.0909 -1.9976
19253SOL     OW60075  10.529   8.715   0.444  0.3827  0.3232 -0.1012
19253SOL    HW160076  10.491   8.784   0.389 -0.5018 -1.1802 -1.4835
19253SOL    HW260077  10.484   8.635   0.416  0.6940 -0.6936  2.0995
19254SOL     OW60078   5.217   9.913  10.332 -0.4514 -0.2290 -0.1011
19254SOL    HW160079   5.123   9.929  10.342 -0.1917  0.9989  0.6006
19254SOL    HW260080   5.234   9.836  10.387 -0.7458  0.6441  1.2595
19255SOL     OW60081   2.779   7.844   0.551 -0.0875  0.5651  0.3013
19255SOL    HW160082   2.761   7.787   0.477  0.9030 -1.9776  1.8674
19255SOL    HW260083   2.695   7.854   0.596 -0.2268  0.1591  0.1273
19256SOL     OW60084   9.118   4.290   5.956  0.4785 -0.4270  0.2489
19256SOL    HW160085   9.057   4.245   6.015 -0.4879  0.6732  0.1187
19256SOL    HW260086   9.114   4.382   5.982 -0.4972  0.2245 -1.9322
19257SOL     OW60087   0.718   9.096   9.752  0.3297 -0.2268 -0.0486
19257SOL    HW160088   0.741   9.187   9.774 -1.7312  0.1824  0.6104
19257SOL    HW260089   0.713   9.095   9.657 -0.6423  0.6439 -0.0211
19258SOL     OW60090   8.995   3.053   0.346  0.1800 -0.1686  0.0469
19258SOL    HW160091   9.014   3.102   0.266  0.6914  0.5149  0.5741
19258SOL    HW260092   8.986   3.120   0.413 -0.7482 -0.7010  0.4794
19259SOL     OW60093   6.821   0.429   5.461 -0.0008  0.2918 -0.9509
19259SOL    HW160094   6.895   0.406   5.405  0.7868  0.2892  0.0718
19259SOL    HW260095   6.814   0.356   5.523  0.4552  1.2360  0.2452
19260SOL     OW60096   1.503   9.828   4.962 -0.1609  0.2877  0.3622
19260SOL    HW160097   1.443   9.845   4.890  0.0511  3.0510  0.7445
19260SOL    HW260098   1.536   9.739   4.946 -1.8076 -0.0153 -1.6568
19261SOL     OW60099   7.379   0.528   4.937  0.4264  0.0745  0.0814
19261SOL    HW160100   7.368   0.611   4.889  0.6294 -0.5436 -1.0764
19261SOL    HW260101   7.429   0.552   5.015 -0.5211  1.2362  0.3568
19262SOL     OW60102   9.895   5.297   3.471  0.0015  0.1563  0.8623
19262SOL    HW160103   9.816   5.252   3.440 -0.5617  1.8682 -0.3110
19262SOL    HW260104   9.935   5.234   3.531 -1.7736 -1.1205  0.8172
19263SOL     OW60105   9.845   7.359   5.352 -0.5073  0.5592 -0.0058
19263SOL    HW160106   9.843   7.286   5.291 -1.9023  1.0763 -0.5972
19263SOL    HW260107   9.802   7.326   5.431 -0.1664  0.4180  0.1263
19264SOL     OW60108   3.902   5.781   3.848  0.2138  0.5239  0.1652
19264SOL    HW160109   3.813   5.794   3.816  0.0654 -0.2223  0.2499
19264SOL    HW260110   3.947   5.862   3.828 -0.5750  1.0383  0.4096
19265SOL     OW60111   6.593   1.901  10.080 -0.4215 -0.2618 -0.4440
19265SOL    HW160112   6.548   1.981  10.052  0.4133  0.4962  0.3204
19265SOL    HW260113   6.641   1.873  10.002  0.6501  0.9639 -0.2695
19266SOL     OW60114   8.823   7.692   3.892  0.3950 -0.1072 -0.5533
19266SOL    HW160115   8.819   7.608   3.937 -0.4842  0.3065  0.1726
19266SOL    HW260116   8.915   7.717   3.896  0.8720 -1.5500 -1.7814
19267SOL     OW60117   4.277   6.701   7.224  0.6705 -0.4072  0.0927
19267SOL    HW160118   4.339   6.672   7.158 -0.3950 -1.1512 -0.6024
19267SOL    HW260119   4.230   6.774   7.183 -0.6128 -1.4461 -0.3484
19268SOL     OW60120   5.417   5.496   3.736  0.5402 -0.1482 -0.3229
19268SOL    HW160121   5.506   5.497   3.700  0.0758 -0.7636 -1.5335
19268SOL    HW260122   5.412   5.413   3.783  0.6024 -0.1255 -0.2756
19269SOL     OW60123   8.240   2.492   9.505 -0.2462  0.1968 -0.4948
19269SOL    HW160124   8.164   2.474   9.559 -1.0113  1.1896 -1.2169
19269SOL    HW260125   8.272   2.577   9.535  0.2135  0.0745 -0.6182
19270SOL     OW60126   3.693   1.505   0.502  0.1853 -0.4241  0.2472
19270SOL    HW160127   3.724   1.566   0.434 -3.1723  0.8540 -0.3347
19270SOL    HW260128   3.703   1.554   0.584 -1.5454  0.5996 -0.1067
19271SOL     OW60129   7.276   7.257   5.938 -0.2736  0.4054 -0.3060
19271SOL    HW160130   7.278   7.329   5.875 -0.0791  0.3257 -0.3928
19271SOL    HW260131   7.314   7.294   6.018 -0.8130  0.5989 -0.1331
19272SOL     OW60132   4.283   7.442   4.867 -0.1598 -0.9011 -0.1129
19272SOL    HW160133   4.371   7.416   4.840 -0.2481  0.0819 -1.4523
19272SOL    HW260134   4.265   7.388   4.944  1.2805 -1.7105 -0.2973
19273SOL     OW60135   7.858   6.041   8.553  0.8221  0.5318  0.0487
19273SOL    HW160136   7.952   6.051   8.564  0.9200 -1.1643  1.0155
19273SOL    HW260137   7.831   5.985   8.626 -0.9675  1.1028 -0.1260
19274SOL     OW60138  10.050   7.737   4.522 -0.3132 -0.0538  0.4811
19274SOL    HW160139  10.011   7.682   4.453 -4.0753  1.0477  1.4642
19274SOL    HW260140  10.079   7.816   4.476 -0.1730 -0.4937 -0.2060
19275SOL     OW60141   5.616   4.282   1.017  0.2454  0.2169  0.0596
19275SOL    HW160142   5.651   4.214   0.959 -1.8665 -0.4819 -0.4873
19275SOL    HW260143   5.681   4.352   1.015  1.2278 -0.6949 -1.4570
19276SOL     OW60144   5.713  10.024   7.389  0.3527 -0.1556 -0.2429
19276SOL    HW160145   5.680   9.954   7.332  0.0188 -0.5257  0.3912
19276SOL    HW260146   5.635  10.074   7.413  0.4086 -0.3273  0.3177
19277SOL     OW60147   8.632   8.096   1.189  0.0086  0.6538 -0.1836
19277SOL    HW160148   8.635   8.189   1.169  1.0906  0.7627  0.4196
19277SOL    HW260149   8.696   8.057   1.130  1.8237  0.7281  1.6342
19278SOL     OW60150   1.648   7.042   6.353  0.9078 -0.4111 -0.0542
19278SOL    HW160151   1.622   7.049   6.262  0.5026 -0.7901  0.0274
19278SOL    HW260152   1.712   7.111   6.366  1.9631 -1.1915 -0.9710
19279SOL     OW60153   2.845   9.136   1.831 -0.7379  0.3667 -0.4479
19279SOL    HW160154   2.868   9.133   1.738 -0.9384 -1.2122 -0.4675
19279SOL    HW260155   2.926   9.113   1.877 -1.0214 -0.4161 -0.3164
19280SOL     OW60156   6.838   0.179   0.886 -0.0701  0.8809  0.4128
19280SOL    HW160157   6.742   0.175   0.885 -0.0454 -1.2396  1.0151
19280SOL    HW260158   6.863   0.140   0.969  1.3294  2.5806  0.8441
19281SOL     OW60159   5.320   4.262   4.651 -0.4584  0.6638  0.4136
19281SOL    HW160160   5.254   4.331   4.640  0.1585  1.0241 -1.3807
19281SOL    HW260161   5.271   4.180   4.639 -0.3477  0.9593 -2.9893
19282SOL     OW60162   6.695   3.430   8.086 -0.4915 -0.2346 -0.1752
19282SOL    HW160163   6.623   3.381   8.044 -0.8099  1.1942 -1.3532
19282SOL    HW260164   6.679   3.521   8.063  1.1000  0.2429  0.4863
19283SOL     OW60165   0.924   3.470   9.421  0.8045  0.4021  0.3831
19283SOL    HW160166   0.983   3.525   9.370  2.5993 -0.8329  1.0367
19283SOL    HW260167   0.890   3.527   9.489 -0.3497  1.6418 -1.1445
19284SOL     OW60168   7.355   2.928   2.935  0.2333 -0.1600 -0.3154
19284SOL    HW160169   7.334   2.948   3.026  2.7053 -0.1115  0.3233
19284SOL    HW260170   7.436   2.976   2.918  0.7961 -1.5774 -1.9504
19285SOL     OW60171   7.467   7.322   0.213 -0.1664 -0.3984  0.1667
19285SOL    HW160172   7.524   7.357   0.281 -0.3940 -0.2374  0.2785
19285SOL    HW260173   7.380   7.322   0.252 -0.2629 -0.5254 -0.0437
19286SOL     OW60174   5.082   5.612   3.742  0.1157 -0.2242  0.0202
19286SOL    HW160175   5.000   5.659   3.758  0.2990  0.4372 -0.8766
19286SOL    HW260176   5.117   5.593   3.829 -0.0238  1.2131  0.4150
19287SOL     OW60177   1.598   4.942   4.106 -0.3542  0.0810 -0.1806
19287SOL    HW160178   1.513   4.920   4.068 -0.6750 -0.9426  1.0714
19287SOL    HW260179   1.642   4.857   4.118  0.4282  0.5206  0.1409
19288SOL     OW60180   8.290  10.169   8.942  0.2479  0.1701  0.2118
19288SOL    HW160181   8.336  10.136   9.019  1.0938  1.0413  0.0973
19288SOL    HW260182   8.250  10.251   8.971  1.4406  1.0425 -0.5257
19289SOL     OW60183   6.635   5.908   8.822 -0.1141 -0.1655  0.1328
19289SOL    HW160184   6.612   5.831   8.874  1.9952 -1.1805 -0.3742
19289SOL    HW260185   6.568   5.912   8.754 -1.8532  0.1222  1.7421
19290SOL     OW60186   8.313   0.608   6.733 -0.2645  0.2698 -0.8334
19290SOL    HW160187   8.271   0.561   6.806  0.4643 -0.2677 -0.7479
19290SOL    HW260188   8.404   0.578   6.734 -0.0366  0.9112 -1.4345
19291SOL     OW60189   7.733   6.407  10.272 -0.1766  0.3681  0.3069
19291SOL    HW160190   7.677   6.343  10.315  2.0206 -1.2420  0.9489
19291SOL    HW260191   7.802   6.426  10.336  0.1771  2.1137 -0.5170
19292SOL     OW60192   2.643   6.707   8.535  0.1211 -1.0192 -0.1623
19292SOL    HW160193   2.706   6.678   8.600  0.2449  1.3270  0.8532
19292SOL    HW260194   2.695   6.757   8.472 -0.5115 -0.2523 -0.0867
19293SOL     OW60195   5.455  10.389   8.764  0.3693 -0.3562  0.0710
19293SOL    HW160196   5.519  10.329   8.727  0.3222 -0.0435 -0.5310
19293SOL    HW260197   5.505  10.446   8.822  0.5229 -0.5473  0.1240
19294SOL     OW60198   1.786   9.172   0.668 -0.5171 -0.1178 -0.5110
19294SOL    HW160199   1.740   9.088   0.674 -0.7193  0.0236 -0.0711
19294SOL    HW260200   1.823   9.185   0.755  0.5023 -0.3084 -0.9017
19295SOL     OW60201   4.309   7.645  10.330 -0.3503 -0.1374  0.1151
19295SOL    HW160202   4.360   7.637  10.250 -0.1777  2.6123 -0.1456
19295SOL    HW260203   4.368   7.614  10.399  0.4775 -0.0594 -0.5409
19296SOL     OW60204   8.814   4.533   1.748 -0.0282  0.0744  0.1227
19296SOL    HW160205   8.865   4.463   1.790 -1.7887 -2.1912 -1.2980
19296SOL    HW260206   8.726   4.524   1.785 -0.4934  0.9753 -0.7436
19297SOL     OW60207   5.632   6.475   1.003  0.3208  0.5439 -0.3979
19297SOL    HW160208   5.580   6.401   1.035  1.3373 -0.4817 -1.0657
19297SOL    HW260209   5.578   6.514   0.933  0.1653 -0.0934 -0.6333
19298SOL     OW60210   3.493   0.509   2.238  0.0764  0.0198  0.4967
19298SOL    HW160211   3.538   0.502   2.153 -0.8001  2.5117 -0.2586
19298SOL    HW260212   3.452   0.595   2.236 -2.0077 -0.8334  2.5087
19299SOL     OW60213   1.684   5.522   1.840 -0.8190  0.0826  0.0959
19299SOL    HW160214   1.649   5.598   1.885  0.4336  1.3931 -1.0720
19299SOL    HW260215   1.775   5.544   1.821 -0.4147 -1.7095 -0.2577
19300SOL     OW60216   2.124   9.350   0.285 -0.3340 -0.0485 -0.1866
19300SOL    HW160217   2.049   9.372   0.229 -0.8787  2.2137  1.3158
19300SOL    HW260218   2.096   9.274   0.335 -0.9956 -0.1921 -0.7648
19301SOL     OW60219   1.228   4.423   3.213 -0.5341  0.0301  0.4250
19301SOL    HW160220   1.152   4.391   3.166 -0.7745  0.5097  0.4814
19301SOL    HW260221   1.198   4.434   3.303 -1.2238  2.8259 -0.0510
19302SOL     OW60222   5.429  10.587   6.397 -0.4104 -0.3030 -0.7124
19302SOL    HW160223   5.520  10.584   6.425 -0.1180 -0.7431 -1.6614
19302SOL    HW260224   5.423  10.664   6.340 -1.3751  1.5332  1.7208
19303SOL     OW60225   1.956   1.416   3.415 -0.5146  0.1028  0.4605
19303SOL    HW160226   2.001   1.394   3.496 -0.2895  0.3620  0.4076
19303SOL    HW260227   1.875   1.459   3.443 -0.7587 -0.4103  0.5559
19304SOL     OW60228   5.395   3.999   0.052 -0.1275  0.3680 -0.2619
19304SOL    HW160229   5.395   3.906   0.027 -0.5707  1.1447 -3.6225
19304SOL    HW260230   5.482   4.030   0.028 -0.8809  1.3795 -1.8077
19305SOL     OW60231   3.948   4.840   1.048  0.2072  0.8437 -0.2599
19305SOL    HW160232   3.956   4.749   1.021 -0.1570  1.1966 -1.6440
19305SOL    HW260233   4.003   4.847   1.126 -0.5613 -0.7826  0.4719
19306SOL     OW60234   2.605   6.007   7.568 -0.0523 -0.1209 -0.0683
19306SOL    HW160235   2.646   6.082   7.612  1.0588 -0.4136 -0.5642
19306SOL    HW260236   2.540   6.046   7.510  2.7250  0.7923 -2.8141
19307SOL     OW60237   2.590  10.350   3.639 -0.0091  0.3336 -0.4554
19307SOL    HW160238   2.547  10.371   3.557  1.4978 -0.6313 -1.5374
19307SOL    HW260239   2.529  10.291   3.684 -0.8223  0.8434 -0.8860
19308SOL     OW60240   7.747   5.875   0.722  0.4616 -0.0675 -0.5220
19308SOL    HW160241   7.725   5.792   0.763 -0.6695  0.1219 -0.7144
19308SOL    HW260242   7.697   5.941   0.771 -1.6685  0.0618 -2.7012
19309SOL     OW60243   1.322   0.865   8.428  0.0284  0.2891  0.2605
19309SOL    HW160244   1.400   0.812   8.448  1.3709  1.8853 -0.4758
19309SOL    HW260245   1.274   0.868   8.510  1.7951  0.9165  1.3346
19310SOL     OW60246   7.789   2.225   9.649  0.1607  0.2977  0.2055
19310SOL    HW160247   7.722   2.236   9.717  0.2502  0.2519  0.3021
19310SOL    HW260248   7.741   2.192   9.574  0.1036  0.0760  0.3374
19311SOL     OW60249   6.351   7.340   5.315  0.5843  0.3434  0.1191
19311SOL    HW160250   6.428   7.284   5.299 -0.6474 -1.1974 -0.7367
19311SOL    HW260251   6.381   7.404   5.379  2.6257 -0.1239 -0.2902
19312SOL     OW60252   3.080   7.556   5.158 -0.4832  0.0724 -0.4400
19312SOL    HW160253   3.003   7.571   5.214 -0.4036  0.3976 -0.4145
19312SOL    HW260254   3.154   7.585   5.211 -0.0508 -2.4896  0.5058
19313SOL     OW60255  10.350   0.266   7.935 -0.0714  0.0866  0.0048
19313SOL    HW160256  10.364   0.343   7.991  0.2214  0.0222  0.0212
19313SOL    HW260257  10.390   0.194   7.984  1.7437  0.3041 -1.0492
19314SOL     OW60258   2.898  10.005   9.413  0.2512  0.1373 -0.2049
19314SOL    HW160259   2.872  10.089   9.450 -1.7360 -0.1185 -0.8662
19314SOL    HW260260   2.895   9.944   9.487  2.5419  0.7569  0.4560
19315SOL     OW60261   1.788   8.725   3.775 -0.6411  0.4585 -0.1341
19315SOL    HW160262   1.873   8.767   3.791 -0.1416 -1.0107  1.5735
19315SOL    HW260263   1.727   8.797   3.761  0.5787  1.6318  0.3577
19316SOL     OW60264  10.074   1.714   5.768 -0.0462  0.0186  0.7159
19316SOL    HW160265  10.087   1.635   5.716 -0.3177  1.5032 -1.8028
19316SOL    HW260266  10.149   1.769   5.747  0.4907  0.2142  2.9489
19317SOL     OW60267   0.272   7.475   0.787  0.5198  0.1312  0.3158
19317SOL    HW160268   0.315   7.522   0.716  0.0437  2.5819  1.5009
19317SOL    HW260269   0.253   7.543   0.852  1.2806 -2.0192  2.9831
19318SOL     OW60270   5.931  10.243   6.888  0.3855 -0.3190 -0.0541
19318SOL    HW160271   6.015  10.240   6.844 -0.1968 -0.3050 -1.1965
19318SOL    HW260272   5.901  10.152   6.889  0.2595 -0.2777  0.0515
19319SOL     OW60273   1.648   6.718   6.052 -0.5881 -0.2059  0.2367
19319SOL    HW160274   1.734   6.687   6.024 -0.1687  0.3134  0.9135
19319SOL    HW260275   1.647   6.702   6.146 -1.8933 -1.7610 -0.0046
19320SOL     OW60276   2.181   5.977   7.084  0.3934  0.2431  0.1583
19320SOL    HW160277   2.120   6.050   7.095  1.0512  0.7718  0.4038
19320SOL    HW260278   2.220   5.966   7.171  0.8521  0.1000 -0.0652
19321SOL     OW60279   0.194   5.640   3.357  0.5836 -0.3814  0.4179
19321SOL    HW160280   0.143   5.612   3.433 -0.1157 -0.2907 -0.0098
19321SOL    HW260281   0.227   5.727   3.380  0.6005 -0.4666  0.7188
19322SOL     OW60282  10.293  10.273   0.471  0.5475 -0.5384  0.2431
19322SOL    HW160283  10.286  10.179   0.460  0.7090 -0.3542 -1.8013
19322SOL    HW260284  10.377  10.287   0.514  0.3197 -1.3337  0.9634
19323SOL     OW60285   2.059   1.460   6.482  0.7538  0.3325 -0.0707
19323SOL    HW160286   2.098   1.460   6.394 -0.9478 -0.9850 -0.8722
19323SOL    HW260287   2.041   1.368   6.501 -0.8630  0.7778  0.7440
19324SOL     OW60288   7.103   1.759   7.918  0.2844  0.1464  0.3709
19324SOL    HW160289   7.111   1.831   7.980  1.2122  1.0715 -0.7679
19324SOL    HW260290   7.100   1.680   7.972 -1.3968  1.0472  1.6791
19325SOL     OW60291   1.477  10.310   7.959  0.2569  0.3911  0.2357
19325SOL    HW160292   1.549  10.301   8.022 -0.0246 -1.3425  0.3579
19325SOL    HW260293   1.398  10.289   8.010 -0.1885  0.9283 -0.2259
19326SOL     OW60294   8.147   5.065   9.256 -0.1400 -0.5467 -0.6458
19326SOL    HW160295   8.096   4.984   9.259  1.9875 -1.9193  1.1123
19326SOL    HW260296   8.215   5.049   9.190  0.4950 -0.3128 -0.0524
19327SOL     OW60297   6.382   0.661   3.075 -0.5902  0.5042  0.1158
19327SOL    HW160298   6.478   0.655   3.081 -0.1608  1.5367 -3.5805
19327SOL    HW260299   6.365   0.750   3.044 -2.6088 -0.2098 -1.0259
19328SOL     OW60300   4.879   5.544   8.062 -0.6711 -0.0365 -0.0027
19328SOL    HW160301   4.867   5.459   8.104  0.0576 -1.5865 -2.7589
19328SOL    HW260302   4.790   5.574   8.044 -0.9401 -1.6024 -1.5334
19329SOL     OW60303   1.778   3.448   9.639 -0.2774 -0.2925 -0.6622
19329SOL    HW160304   1.703   3.415   9.590 -0.2291  1.0711 -1.7127
19329SOL    HW260305   1.767   3.543   9.639  1.1579 -0.1036 -0.3795
19330SOL     OW60306   9.690   6.864   2.636 -0.1435  0.1653 -0.2968
19330SOL    HW160307   9.762   6.864   2.699 -1.1463  0.6137  0.8968
19330SOL    HW260308   9.661   6.955   2.631 -0.2250  0.1017 -1.2569
19331SOL     OW60309   0.279   1.662   2.620  0.1996  0.6741 -0.5620
19331SOL    HW160310   0.236   1.578   2.634  1.2046  0.4887  2.1391
19331SOL    HW260311   0.350   1.644   2.559  0.2818 -0.4066 -0.1652
19332SOL     OW60312   4.423   5.899   5.349 -0.2356 -0.0422 -0.1592
19332SOL    HW160313   4.432   5.980   5.300 -0.3057  0.0825  0.0329
19332SOL    HW260314   4.513   5.872   5.368 -0.2069 -0.1158 -0.3960
19333SOL     OW60315   7.248  10.539   3.274 -0.2587  0.0068 -0.0491
19333SOL    HW160316   7.186  10.580   3.214 -0.2227 -0.4164 -0.3819
19333SOL    HW260317   7.198  10.525   3.354 -0.0038  1.5829  0.4197
19334SOL     OW60318   9.218   6.550   7.969  0.2259  0.0552 -0.0983
19334SOL    HW160319   9.271   6.473   7.991 -0.8302 -0.4528  0.7077
19334SOL    HW260320   9.236   6.565   7.876  0.7219 -0.9451 -0.1784
19335SOL     OW60321   8.508   9.901   9.676  0.0436 -0.6568  0.0037
19335SOL    HW160322   8.478   9.869   9.591 -2.3129  1.2022  0.0216
19335SOL    HW260323   8.516   9.996   9.664 -1.6285 -0.1683  2.1300
19336SOL     OW60324   2.261  10.184   6.602  0.4422 -0.7966  0.3884
19336SOL    HW160325   2.220  10.181   6.688  0.1337  0.7021  0.3213
19336SOL    HW260326   2.331  10.249   6.610  1.6468 -1.9714 -0.0097
19337SOL     OW60327   0.176   3.455   0.300  0.2625 -0.0634  0.1417
19337SOL    HW160328   0.260   3.410   0.308  0.1250 -0.2162  0.7353
19337SOL    HW260329   0.121   3.417   0.368 -0.5441 -0.5010 -0.7273
19338SOL     OW60330   3.660   3.286  10.191  0.4394  0.5159  0.3223
19338SOL    HW160331   3.637   3.234  10.267  0.4656  1.2747  0.8621
19338SOL    HW260332   3.583   3.341  10.175  0.4264  0.3476 -0.2071
19339SOL     OW60333   9.494  10.282   6.478  0.4718  0.2304  0.1660
19339SOL    HW160334   9.519  10.373   6.460  2.7548 -0.4731 -0.7131
19339SOL    HW260335   9.470  10.248   6.392  0.4625 -0.2040  0.3425
19340SOL     OW60336   7.913  10.106   1.417 -0.0110  0.0345  0.2889
19340SOL    HW160337   7.937  10.033   1.474 -0.0758 -0.0436  0.2169
19340SOL    HW260338   7.997  10.145   1.391 -0.0148  0.6909  1.2356
19341SOL     OW60339   0.915   6.765   8.701  0.0311 -0.1300  0.1700
19341SOL    HW160340   0.981   6.707   8.663 -1.3597 -2.1868  0.7488
19341SOL    HW260341   0.942   6.777   8.792  0.9207  1.1384 -0.2187
19342SOL     OW60342   9.991   7.190   3.160 -0.3250 -0.1897 -0.4538
19342SOL    HW160343   9.997   7.283   3.180  0.2873 -0.6446  1.7788
19342SOL    HW260344  10.082   7.160   3.153 -0.5079 -0.6785 -0.8372
19343SOL     OW60345   5.394   7.218   1.858  0.4012 -0.2020 -0.0651
19343SOL    HW160346   5.341   7.285   1.816 -1.0859  0.3172  2.4556
19343SOL    HW260347   5.416   7.157   1.788 -1.4637  0.8791 -1.6792
19344SOL     OW60348   8.380   8.678   9.349  0.2225  0.1289  0.1246
19344SOL    HW160349   8.458   8.649   9.304 -0.5869 -0.3477 -1.0144
19344SOL    HW260350   8.412   8.725   9.426  1.6104  0.0720 -0.4035
19345SOL     OW60351   3.897   9.918   9.007  0.0301  0.0979 -0.5183
19345SOL    HW160352   3.826   9.870   9.050  0.9090 -0.7539  0.0312
19345SOL    HW260353   3.977   9.881   9.045  1.0900 -2.9808 -4.9355
19346SOL     OW60354   3.653  10.031   8.589 -0.3614 -0.1228 -0.1305
19346SOL    HW160355   3.728  10.065   8.540 -1.0066  2.1065  0.3306
19346SOL    HW260356   3.578  10.044   8.531 -0.9573  1.4949  0.9045
19347SOL     OW60357   8.400   0.371   6.501  0.6321  0.0000 -0.2487
19347SOL    HW160358   8.405   0.372   6.405  1.6820  0.2609 -0.2014
19347SOL    HW260359   8.466   0.434   6.529  1.1125 -0.8945  0.6759
19348SOL     OW60360   8.514   7.900  10.032 -0.2260 -0.0188 -0.2305
19348SOL    HW160361   8.554   7.890   9.946 -0.1286  0.1506 -0.2044
19348SOL    HW260362   8.438   7.841  10.029 -0.4924  0.3379 -0.5980
19349SOL     OW60363  10.263   6.002   8.135  0.6490 -0.0471 -0.2251
19349SOL    HW160364  10.303   5.951   8.065 -0.3110 -0.5182 -0.4469
19349SOL    HW260365  10.198   5.943   8.174  1.4635  0.0520  1.3648
19350SOL     OW60366   5.979   2.327   7.211 -0.0748  0.2869  0.2539
19350SOL    HW160367   5.973   2.234   7.190 -0.4160  0.0163  1.4585
19350SOL    HW260368   5.967   2.331   7.306  1.8176  1.3881  0.4983
19351SOL     OW60369   3.695   8.967   4.021 -0.3744  0.0053  0.0681
19351SOL    HW160370   3.696   9.043   4.080  0.0211 -0.2616  0.4060
19351SOL    HW260371   3.757   8.990   3.952  0.4348 -0.3913  0.6560
19352SOL     OW60372   4.978   1.725   6.488 -0.2614  0.0233 -0.3610
19352SOL    HW160373   4.933   1.719   6.404 -2.5719  0.4789  0.7842
19352SOL    HW260374   4.928   1.789   6.538  1.3117  0.0892  1.2410
19353SOL     OW60375   3.467   1.691   8.922  0.4979  0.9147 -0.1213
19353SOL    HW160376   3.452   1.766   8.864  2.3887  1.4185 -0.0371
19353SOL    HW260377   3.467   1.615   8.863  1.5158  1.3262 -0.6867
19354SOL     OW60378   1.362   0.652   2.467  0.3334 -0.6141  0.6772
19354SOL    HW160379   1.455   0.640   2.488  0.5598 -0.5005 -0.2311
19354SOL    HW260380   1.357   0.738   2.425  0.1017 -1.3217 -0.8107
19355SOL     OW60381   6.274   7.424   3.041  0.1391  0.1063  0.5994
19355SOL    HW160382   6.208   7.492   3.058 -0.9602 -0.8505  0.2855
19355SOL    HW260383   6.343   7.470   2.993 -0.2017  1.1708  1.0855
19356SOL     OW60384   3.241   7.081   1.660 -0.5197  0.0247 -0.1461
19356SOL    HW160385   3.229   7.052   1.751 -1.1423  1.6525  0.3202
19356SOL    HW260386   3.185   7.022   1.610  2.4551 -3.2839 -0.0426
19357SOL     OW60387   3.753   8.642   7.857  0.0260 -0.4693 -0.0258
19357SOL    HW160388   3.744   8.661   7.763 -3.0019 -0.6251  0.1385
19357SOL    HW260389   3.692   8.703   7.899  0.9851 -0.7341  1.8336
19358SOL     OW60390   1.946  10.546   3.219  0.1487 -0.2093 -0.0881
19358SOL    HW160391   1.902  10.462   3.212  0.2597 -0.3327  0.5767
19358SOL    HW260392   2.030  10.525   3.261  0.6217  0.0914 -0.8676
19359SOL     OW60393   2.197  10.280   7.749 -0.0424  0.1833  0.5850
19359SOL    HW160394   2.206  10.262   7.655  1.7425  0.3500  0.6817
19359SOL    HW260395   2.237  10.204   7.791 -1.5629 -0.2738  1.2523
19360SOL     OW60396   8.233   6.389   4.567  0.3484  0.5307 -0.2121
19360SOL    HW160397   8.161   6.357   4.513 -1.1250 -0.4287  2.1427
19360SOL    HW260398   8.309   6.390   4.508 -0.7535 -2.0186 -1.8734
19361SOL     OW60399   7.591   5.979   1.890 -0.1478  0.5040  0.1581
19361SOL    HW160400   7.497   5.968   1.900  0.0043  0.5841  2.0714
19361SOL    HW260401   7.625   5.890   1.881 -0.3568  0.4443 -0.0413
19362SOL     OW60402   5.717   6.737   4.363  0.3782  0.3969 -0.0020
19362SOL    HW160403   5.786   6.700   4.418 -0.6751 -0.0566  1.0607
19362SOL    HW260404   5.644   6.754   4.423 -0.3762  1.0401 -1.0526
19363SOL     OW60405  10.512   0.191   0.105  0.2411 -0.4869  0.1892
19363SOL    HW160406  10.419   0.171   0.120 -0.0478 -0.1915 -1.1477
19363SOL    HW260407  10.517   0.287   0.108 -0.1271 -0.2746 -2.9422
19364SOL     OW60408   3.942   8.286   6.501 -0.0532  0.1543  0.7360
19364SOL    HW160409   3.891   8.365   6.519  1.1167  1.4729 -1.3196
19364SOL    HW260410   3.997   8.309   6.426  0.2356 -2.6663 -0.0610
19365SOL     OW60411   7.985   1.567   4.725 -0.4320  0.4260  0.7349
19365SOL    HW160412   7.899   1.582   4.764 -0.6276  1.0258  0.0861
19365SOL    HW260413   8.032   1.515   4.790 -0.8090  1.2620  1.6839
19366SOL     OW60414   1.241   8.965   2.541  0.4096 -0.5448  0.1886
19366SOL    HW160415   1.146   8.972   2.537  0.3458 -1.8417 -1.2504
19366SOL    HW260416   1.267   9.032   2.606 -1.4022  0.2473  0.1584
19367SOL     OW60417   6.225   0.356   1.098 -0.1465 -0.2185 -0.2868
19367SOL    HW160418   6.156   0.403   1.146  1.1779  0.4297  1.0714
19367SOL    HW260419   6.207   0.264   1.114 -1.5993 -0.1260 -1.2697
19368SOL     OW60420   0.011   1.398   4.357 -0.0862  0.2457 -0.1510
19368SOL    HW160421   0.004   1.423   4.449 -0.0907  0.0510 -0.0988
19368SOL    HW260422  -0.053   1.453   4.312 -0.9997 -0.5589  0.1333
19369SOL     OW60423  10.065   2.847   1.471 -0.5039  0.3550 -0.7233
19369SOL    HW160424   9.969   2.839   1.474 -0.4317 -0.2410  0.9154
19369SOL    HW260425  10.097   2.760   1.492  0.3972  0.6474 -0.8626
19370SOL     OW60426   5.821   1.460   0.616 -0.5203  0.4469  0.2417
19370SOL    HW160427   5.728   1.467   0.595 -0.9921 -2.5978  0.9095
19370SOL    HW260428   5.858   1.407   0.546 -0.2348 -1.9806  2.1255
19371SOL     OW60429   1.480   1.958   3.797  0.5454  1.1309  0.4308
19371SOL    HW160430   1.555   1.993   3.749  0.5126  0.1539 -0.3596
19371SOL    HW260431   1.409   2.019   3.779  0.4982  0.7133 -0.8979
19372SOL     OW60432   6.746   9.608   0.242  0.5444  0.0005  0.1838
19372SOL    HW160433   6.728   9.694   0.206 -0.4547 -0.4479 -0.4154
19372SOL    HW260434   6.800   9.625   0.320  0.3531  1.1500  0.0733
19373SOL     OW60435   8.661   9.139   9.761 -0.2822 -0.2908 -0.2675
19373SOL    HW160436   8.660   9.072   9.830  0.0336 -0.7460 -0.6991
19373SOL    HW260437   8.577   9.184   9.770  0.5121  0.9293  1.6344
19374SOL     OW60438   9.622   5.173   0.727  0.5075  0.0216 -0.0542
19374SOL    HW160439   9.568   5.199   0.801 -0.4103 -3.1905  0.5356
19374SOL    HW260440   9.712   5.174   0.762  0.2710  0.1873  0.5635
19375SOL     OW60441   6.791   2.578   4.719 -0.0563 -0.1470  0.0573
19375SOL    HW160442   6.788   2.649   4.655  1.0242  0.0965  0.2474
19375SOL    HW260443   6.706   2.579   4.762 -0.0033  1.1232  0.1433
19376SOL     OW60444   0.583  10.039   7.220  0.1406 -0.1843  0.1462
19376SOL    HW160445   0.504  10.094   7.213 -0.6506 -0.9395  2.1993
19376SOL    HW260446   0.609  10.023   7.130 -0.6783  2.0325 -0.5451
19377SOL     OW60447   7.283   4.094   7.721 -0.1010 -0.6387 -0.2613
19377SOL    HW160448   7.198   4.135   7.704 -0.8971 -2.1335 -0.0518
19377SOL    HW260449   7.346   4.165   7.710 -1.2956  0.3264 -1.2710
19378SOL     OW60450   3.133   2.213   8.816 -0.0392 -0.3122 -0.1957
19378SOL    HW160451   3.120   2.118   8.820 -1.0624 -0.1426  0.7756
19378SOL    HW260452   3.048   2.247   8.789  0.7741  0.2374 -2.2507
19379SOL     OW60453   8.190   4.880   5.268 -0.5187 -0.5687 -0.0906
19379SOL    HW160454   8.129   4.954   5.273 -0.6953 -0.6261 -1.1603
19379SOL    HW260455   8.152   4.814   5.325 -1.5154 -0.6273 -0.7861
19380SOL     OW60456   6.827   9.497   4.868  0.6342 -0.3429  0.1388
19380SOL    HW160457   6.738   9.528   4.884  0.3777 -0.4449 -0.9644
19380SOL    HW260458   6.844   9.434   4.938 -0.0784 -0.1503  0.4920
19381SOL     OW60459   0.085   0.157   2.387 -0.3870  0.4916  0.1999
19381SOL    HW160460   0.057   0.241   2.353  0.4149  0.5112 -0.4456
19381SOL    HW260461   0.006   0.103   2.387 -0.7439  1.0114 -0.1005
19382SOL     OW60462   9.308   5.177   1.538  0.1756 -0.4190 -0.3357
19382SOL    HW160463   9.303   5.232   1.460  3.0049 -0.3507 -0.5791
19382SOL    HW260464   9.326   5.089   1.505 -1.2101 -0.9332  0.1850
19383SOL     OW60465   4.923   2.015   9.603 -0.1682  0.4511  0.0496
19383SOL    HW160466   4.854   2.065   9.560 -1.4918 -0.1674  1.3926
19383SOL    HW260467   4.992   2.080   9.621  0.4347  0.7657 -2.8247
19384SOL     OW60468   4.539  10.256   9.312 -0.8536  0.7534 -0.1252
19384SOL    HW160469   4.615  10.231   9.260 -0.3859  0.5043  0.6651
19384SOL    HW260470   4.558  10.344   9.342 -0.5174  0.4066  0.7074
19385SOL     OW60471  10.570   1.292   7.552  0.2920  0.2691 -0.2236
19385SOL    HW160472  10.541   1.338   7.630  0.6153 -0.8218  0.5593
19385SOL    HW260473  10.666   1.297   7.554  0.4205 -1.7997  0.7631
19386SOL     OW60474   0.832   2.144   0.251 -0.0470  0.1999  0.2526
19386SOL    HW160475   0.813   2.231   0.216  0.4364  0.4849  0.6814
19386SOL    HW260476   0.824   2.085   0.175  2.0189  0.9477 -0.6208
19387SOL     OW60477   8.976   3.266  10.070  0.0329  0.1057 -0.3921
19387SOL    HW160478   9.053   3.243  10.017  0.0880  2.1859 -1.3356
19387SOL    HW260479   8.969   3.195  10.134  1.7124 -1.0154 -1.3495
19388SOL     OW60480   8.794  10.144   9.779  0.0372 -0.2940 -0.3505
19388SOL    HW160481   8.873  10.132   9.831  0.2266 -0.9909 -0.7801
19388SOL    HW260482   8.723  10.112   9.834  0.0940  0.0006 -0.1026
19389SOL     OW60483   4.547   1.488   4.739  0.4892  0.4132  0.1649
19389SOL    HW160484   4.579   1.553   4.802 -0.0607  0.6946  0.1616
19389SOL    HW260485   4.601   1.503   4.661  0.9075  0.3259  0.4357
19390SOL     OW60486   1.639   5.543   2.851 -0.1968 -0.2221 -0.0204
19390SOL    HW160487   1.724   5.530   2.808  1.2505  1.9588  1.9450
19390SOL    HW260488   1.617   5.634   2.833 -2.4799 -0.8982 -0.9618
19391SOL     OW60489   7.229   1.018   5.894 -0.4436  0.0762  0.3670
19391SOL    HW160490   7.246   1.060   5.809 -1.0328  1.6177  0.9796
19391SOL    HW260491   7.281   1.069   5.956 -3.2297  1.7100  1.5298
19392SOL     OW60492   8.557   8.618   5.549 -0.4402  0.0640  0.4739
19392SOL    HW160493   8.618   8.545   5.562 -1.3071 -0.6009  0.8840
19392SOL    HW260494   8.503   8.618   5.628 -0.6214  0.9924  0.3562
19393SOL     OW60495   5.742   2.345   4.889 -0.0966 -0.2338  0.0693
19393SOL    HW160496   5.728   2.436   4.863  0.6269  0.3403  1.5810
19393SOL    HW260497   5.658   2.303   4.875 -0.9115  1.0689  0.8910
19394SOL     OW60498   8.559   5.276   5.389  0.2997  0.1743 -0.0906
19394SOL    HW160499   8.575   5.183   5.377 -0.4692 -0.6312  3.7424
19394SOL    HW260500   8.476   5.293   5.345  0.6607 -0.8326 -1.1803
19395SOL     OW60501   5.975   7.983   0.558  0.2264 -0.2938 -0.6674
19395SOL    HW160502   6.016   8.036   0.626 -1.3506  0.9293 -0.6204
19395SOL    HW260503   5.954   7.901   0.601  1.7778 -0.6058 -0.4579
19396SOL     OW60504   2.180   0.086   9.845  0.1518  0.1078 -0.4240
19396SOL    HW160505   2.097   0.095   9.798  1.1641  1.1723 -2.1214
19396SOL    HW260506   2.157   0.094   9.937 -1.9127 -1.9934 -0.6644
19397SOL     OW60507   6.129   4.639   0.128 -0.5222 -0.1014 -0.0636
19397SOL    HW160508   6.055   4.605   0.178  0.3627 -1.3454  0.4472
19397SOL    HW260509   6.127   4.733   0.143 -2.4321 -0.0054 -0.6765
19398SOL     OW60510   1.576   3.295   8.921 -0.6197  0.3203  0.2750
19398SOL    HW160511   1.623   3.378   8.935  1.7684 -0.8273 -0.3348
19398SOL    HW260512   1.645   3.229   8.922 -2.5557 -1.8679  2.0539
19399SOL     OW60513   6.927   0.364   5.053  0.2010 -0.4535  0.0787
19399SOL    HW160514   6.859   0.391   4.992  0.0464 -0.6177  0.1749
19399SOL    HW260515   6.923   0.429   5.123 -1.2037 -1.5396  1.0701
19400SOL     OW60516   4.980   2.925   3.103 -0.2544 -0.2856  0.3639
19400SOL    HW160517   5.002   3.018   3.096 -2.2299  0.2147  0.2922
19400SOL    HW260518   5.003   2.902   3.193 -0.2918  0.4375  0.5633
19401SOL     OW60519   0.332   3.390   0.000  0.3933  0.4987  0.4016
19401SOL    HW160520   0.351   3.443  -0.077  1.1059 -0.7876 -0.3347
19401SOL    HW260521   0.239   3.407   0.018 -0.3666 -0.6817 -1.9722
19402SOL     OW60522   2.644   5.571   1.912 -0.6535 -0.1443 -0.3176
19402SOL    HW160523   2.739   5.562   1.916 -0.5674 -0.0780 -1.6314
19402SOL    HW260524   2.629   5.628   1.837 -1.7312 -0.0362 -0.0375
19403SOL     OW60525   7.041   2.960   1.819 -0.4838 -0.0906 -0.3173
19403SOL    HW160526   7.102   2.960   1.745 -0.5170  1.1514 -0.3751
19403SOL    HW260527   6.974   3.025   1.795  0.0981  1.1551  1.2387
19404SOL     OW60528   5.150   9.966   0.833  0.1489 -0.0023  0.8125
19404SOL    HW160529   5.236   9.985   0.796 -0.6427 -0.8211 -1.5922
19404SOL    HW260530   5.118   9.893   0.782 -1.6757 -0.2260  2.1987
19405SOL     OW60531   3.119   4.928   1.109  0.2893  0.5755  0.0944
19405SOL    HW160532   3.207   4.936   1.147 -0.4122 -1.4593  2.4007
19405SOL    HW260533   3.092   4.839   1.130 -1.6633  0.5546 -2.1530
19406SOL     OW60534   3.301   9.934   0.713  0.1161 -0.0761  0.3836
19406SOL    HW160535   3.326   9.843   0.731 -0.1392 -0.1943  0.1292
19406SOL    HW260536   3.210   9.930   0.686  0.7010  0.0108 -1.7283
19407SOL     OW60537   6.811   8.537   2.572  0.3146 -0.2634  0.6637
19407SOL    HW160538   6.748   8.513   2.504 -0.9183 -0.7496  1.9331
19407SOL    HW260539   6.892   8.556   2.524  0.3276 -3.2795 -0.7380
19408SOL     OW60540   4.040   4.943  10.063  0.2702  0.3985  0.1086
19408SOL    HW160541   4.126   4.970  10.031 -0.1394  1.9527  0.2220
19408SOL    HW260542   3.989   5.024  10.067 -0.6357 -0.1956  1.7929
19409SOL     OW60543  10.073   5.132  10.045 -0.3775  0.4014  0.1589
19409SOL    HW160544   9.990   5.092  10.017 -0.4812  1.5525 -1.3457
19409SOL    HW260545  10.103   5.179   9.967  1.4526  0.4126  0.8407
19410SOL     OW60546   8.547   3.359   5.303  0.5766  0.2559 -0.6595
19410SOL    HW160547   8.515   3.410   5.377 -2.9927 -0.6280 -1.3765
19410SOL    HW260548   8.620   3.308   5.338  1.0060  2.1167  1.3426
19411SOL     OW60549   3.971   2.795   8.939  0.4155  0.0590 -0.0774
19411SOL    HW160550   3.978   2.851   9.017 -1.0683  1.1898 -0.7063
19411SOL    HW260551   4.030   2.836   8.875  0.6654 -0.1261  0.0344
19412SOL     OW60552   1.869   6.721   2.745  0.2315  0.4108 -0.4571
19412SOL    HW160553   1.963   6.717   2.759  0.3063  0.7831 -0.8581
19412SOL    HW260554   1.856   6.795   2.686 -0.3967  1.0245  0.4118
19413SOL     OW60555   9.215   9.513   7.722  0.2275 -0.3609 -0.7404
19413SOL    HW160556   9.273   9.456   7.773 -1.0778 -0.7480  0.3477
19413SOL    HW260557   9.225   9.482   7.632  0.2427 -1.7149 -0.3031
19414SOL     OW60558   6.629   2.840   1.499  0.1797  0.4013  0.3313
19414SOL    HW160559   6.668   2.913   1.451  0.6175 -0.3831 -0.5431
19414SOL    HW260560   6.557   2.810   1.443 -0.7761  0.9287  1.2608
19415SOL     OW60561   4.088   7.930   4.038  0.0271  0.1572  0.3873
19415SOL    HW160562   4.077   8.013   3.993 -0.3793  1.5522  2.8909
19415SOL    HW260563   4.179   7.930   4.068  0.4725 -1.0234 -0.8509
19416SOL     OW60564   2.755   6.867   2.410  0.0503  0.1946 -0.5256
19416SOL    HW160565   2.738   6.794   2.470 -0.4061  0.5654 -0.1928
19416SOL    HW260566   2.699   6.938   2.443  0.7019  0.7845 -0.6700
19417SOL     OW60567  10.057   3.710   2.087 -0.3664  0.5963 -0.2969
19417SOL    HW160568  10.044   3.617   2.068 -1.4508  0.5788  0.4255
19417SOL    HW260569   9.973   3.751   2.063 -0.4987  1.1177  1.0044
19418SOL     OW60570   0.871   9.691   4.092  0.9609 -0.1785  0.0276
19418SOL    HW160571   0.816   9.631   4.042  1.7378 -1.0027  0.1286
19418SOL    HW260572   0.856   9.777   4.052 -0.5227 -0.3400  0.1816
19419SOL     OW60573   5.143   7.008   7.306 -0.1440 -0.4424 -0.3809
19419SOL    HW160574   5.116   7.094   7.338  1.1100  0.0482 -0.5721
19419SOL    HW260575   5.230   7.023   7.267 -0.8763 -1.3343 -2.5142
19420SOL     OW60576   9.808   3.818   0.656  0.4255  0.1765 -0.5621
19420SOL    HW160577   9.852   3.879   0.715  1.1370  0.9521 -1.8414
19420SOL    HW260578   9.791   3.741   0.709 -0.8853  1.6082  1.2321
19421SOL     OW60579   8.592   2.139   0.879  0.4617 -0.6491 -0.3826
19421SOL    HW160580   8.582   2.177   0.792  2.2825  1.0823  0.0735
19421SOL    HW260581   8.565   2.209   0.939 -1.1673 -1.9556  0.4765
19422SOL     OW60582   9.826   6.752   4.838 -0.0244 -0.1677  0.1831
19422SOL    HW160583   9.735   6.747   4.810 -0.2838 -0.1766  0.9930
19422SOL    HW260584   9.863   6.666   4.816  0.5900  0.7287 -2.7095
19423SOL     OW60585   1.393   9.740   0.054 -0.7311  0.3337  0.2565
19423SOL    HW160586   1.479   9.703   0.075 -0.4793  0.6495 -0.1937
19423SOL    HW260587   1.413   9.824   0.012 -1.2608  0.3575  0.0456
19424SOL     OW60588   8.071   3.216   8.440 -0.0385  0.4937 -0.1189
19424SOL    HW160589   8.117   3.273   8.378  0.1151 -1.0249 -1.4411
19424SOL    HW260590   8.118   3.133   8.436 -1.8417 -0.5721 -0.2137
19425SOL     OW60591   7.749   3.228  10.489 -0.5033  0.3142 -0.6859
19425SOL    HW160592   7.794   3.163  10.543 -0.0560  1.1035 -0.0810
19425SOL    HW260593   7.761   3.197  10.400 -1.5521 -1.1956 -0.3437
19426SOL     OW60594   8.008   7.380  10.076 -0.4113 -0.2172 -0.5547
19426SOL    HW160595   8.027   7.439  10.003 -0.3599  0.1373 -0.2546
19426SOL    HW260596   8.017   7.434  10.154 -0.6930 -0.5366 -0.2962
19427SOL     OW60597   1.458   9.285   7.669  0.1261 -0.7051  0.2332
19427SOL    HW160598   1.405   9.328   7.736 -0.7282 -0.3207 -0.6611
19427SOL    HW260599   1.400   9.217   7.633  0.6196 -0.9946 -0.0275
19428SOL     OW60600   1.191   4.892   5.646 -0.4632  0.1973 -0.0334
19428SOL    HW160601   1.173   4.911   5.738 -0.9487  1.7393 -0.4261
19428SOL    HW260602   1.285   4.872   5.643 -0.3569  0.5770  0.7239
19429SOL     OW60603   2.041   6.207  10.145 -0.3740 -0.0273 -0.8602
19429SOL    HW160604   1.960   6.213  10.195 -2.0260 -1.5488 -3.1711
19429SOL    HW260605   2.030   6.269  10.073  0.3327 -0.4956 -1.3927
19430SOL     OW60606   2.515   6.752   4.385  0.0957 -0.4753  0.1975
19430SOL    HW160607   2.569   6.811   4.332 -0.1107 -2.1736 -2.0011
19430SOL    HW260608   2.578   6.694   4.428  0.1769 -0.2830  0.3390
19431SOL     OW60609   1.590   3.517   5.515 -0.0917 -0.5078 -0.5368
19431SOL    HW160610   1.592   3.503   5.420  0.0509 -0.9015 -0.4744
19431SOL    HW260611   1.642   3.446   5.551 -0.1584 -0.3652 -0.1596
19432SOL     OW60612   3.318   2.851   6.067  0.0097 -0.6289 -0.7102
19432SOL    HW160613   3.259   2.924   6.087  0.3474 -0.6289  0.3444
19432SOL    HW260614   3.362   2.877   5.986 -1.2754 -0.5412 -1.4130
19433SOL     OW60615   9.888   9.272   2.315 -0.2732  0.1512 -0.8655
19433SOL    HW160616   9.973   9.317   2.324 -0.6135  0.4538  1.5231
19433SOL    HW260617   9.845   9.316   2.241  0.9802  1.1127 -1.0623
19434SOL     OW60618   9.386   9.212   7.151  0.4797  0.0006  0.3937
19434SOL    HW160619   9.366   9.127   7.188  1.5873 -0.3040  0.3333
19434SOL    HW260620   9.454   9.195   7.086 -0.9384  0.6016 -1.3591
19435SOL     OW60621   1.112   0.321   9.945 -0.2935  0.0067 -0.0277
19435SOL    HW160622   1.191   0.302   9.996  0.4051  0.8943 -0.7276
19435SOL    HW260623   1.080   0.404   9.981 -0.6865 -0.1610  0.0073
19436SOL     OW60624  10.538   3.617   4.570  0.4696 -0.0999 -0.4475
19436SOL    HW160625  10.593   3.542   4.548  0.1414 -0.5039  0.1102
19436SOL    HW260626  10.535   3.669   4.489  3.1740  0.8967 -0.0127
19437SOL     OW60627   7.746   9.295   5.140 -0.8190 -0.3513  0.3435
19437SOL    HW160628   7.839   9.309   5.122 -0.4030  1.7401  3.3404
19437SOL    HW260629   7.701   9.347   5.073  0.2264 -0.1339 -0.2072
19438SOL     OW60630   0.999   2.816   8.817  0.3373  0.5236  0.4172
19438SOL    HW160631   1.052   2.854   8.746 -1.2194  1.8444 -0.0755
19438SOL    HW260632   0.937   2.885   8.841 -0.3805 -0.5645  1.8140
19439SOL     OW60633  10.164   8.417   1.499 -0.4325  0.4035 -0.3934
19439SOL    HW160634  10.160   8.495   1.444 -1.3822  0.9081  0.3557
19439SOL    HW260635  10.253   8.417   1.535 -1.2788  2.8662  1.9885
19440SOL     OW60636   3.358   2.324   3.868  0.1765  0.3039 -0.4793
19440SOL    HW160637   3.398   2.260   3.809 -1.9073 -3.2239  1.5560
19440SOL    HW260638   3.266   2.325   3.844  0.1462  2.7509 -0.4839
19441SOL     OW60639   3.826   3.264   7.253 -0.1680 -0.7719 -0.0403
19441SOL    HW160640   3.751   3.225   7.297  1.0984 -0.5520  2.4763
19441SOL    HW260641   3.902   3.228   7.297  1.1552  3.8295  2.0749
19442SOL     OW60642   1.227   9.164   4.973 -0.5160  0.4919 -0.1731
19442SOL    HW160643   1.224   9.141   5.066  1.2640 -0.5626 -0.3408
19442SOL    HW260644   1.143   9.208   4.957 -1.2013 -0.0132  1.7293
19443SOL     OW60645   4.456   0.242   5.392  0.0730 -0.0509 -0.5764
19443SOL    HW160646   4.421   0.190   5.319  1.2575 -1.4704 -0.1889
19443SOL    HW260647   4.383   0.298   5.419 -0.4917  0.2982 -2.6360
19444SOL     OW60648   0.014   9.465   4.693 -0.1283  0.0356 -0.5139
19444SOL    HW160649  -0.046   9.462   4.767  0.4523  0.1796 -0.0329
19444SOL    HW260650   0.091   9.512   4.726  0.7295 -1.1375 -0.7725
19445SOL     OW60651   0.345   1.446   0.582 -0.2088 -0.0486 -0.3468
19445SOL    HW160652   0.352   1.384   0.655 -2.9900 -0.2735 -0.1661
19445SOL    HW260653   0.325   1.530   0.623  0.6939  0.3773 -0.7479
19446SOL     OW60654   5.223   2.769   1.426  0.3167  0.5694 -0.5296
19446SOL    HW160655   5.209   2.675   1.417  0.3027  0.6075 -0.9068
19446SOL    HW260656   5.167   2.794   1.500  2.0041 -0.0952  1.0258
19447SOL     OW60657   9.615   9.826   7.295 -0.3024  0.3575  0.6296
19447SOL    HW160658   9.638   9.734   7.310  2.0967  0.9982  1.4068
19447SOL    HW260659   9.575   9.855   7.378 -0.6299  0.1393  0.5484
19448SOL     OW60660   4.207   9.728   9.778 -0.3376 -0.3490  0.3878
19448SOL    HW160661   4.274   9.795   9.793 -0.8085  0.4142 -0.7708
19448SOL    HW260662   4.257   9.651   9.750  0.1746 -0.3574  1.2656
19449SOL     OW60663   1.994  10.294   5.183  0.2807  0.4900 -0.1728
19449SOL    HW160664   1.901  10.295   5.206 -0.3037 -1.8907 -1.9797
19449SOL    HW260665   2.012  10.380   5.146 -1.0510  1.1648  0.7121
19450SOL     OW60666   0.201   7.969   7.226 -0.1414 -0.7572 -0.0304
19450SOL    HW160667   0.216   7.971   7.321  0.1567  2.2774 -0.0538
19450SOL    HW260668   0.149   7.890   7.212 -1.6255 -0.4449  2.8935
19451SOL     OW60669   4.288   9.109   6.259 -0.0299 -0.1126  0.0619
19451SOL    HW160670   4.362   9.054   6.286 -0.7111 -1.6678 -1.0957
19451SOL    HW260671   4.227   9.104   6.332  0.3494 -0.0532  0.3901
19452SOL     OW60672   3.828   5.515   6.232 -0.7176 -0.5868  0.3944
19452SOL    HW160673   3.922   5.499   6.220 -0.8171 -1.0404  0.1923
19452SOL    HW260674   3.821   5.609   6.246 -0.1296 -0.6779  1.4056
19453SOL     OW60675   8.722   1.001   4.303  0.0950  0.2620  0.0615
19453SOL    HW160676   8.697   0.962   4.387  0.6031 -1.2231 -0.4473
19453SOL    HW260677   8.801   0.954   4.277 -0.8507 -0.3244 -1.9300
19454SOL     OW60678   9.510   6.003   3.618  0.2209 -0.1840  0.1251
19454SOL    HW160679   9.531   5.916   3.583 -0.2975 -0.0136 -0.6313
19454SOL    HW260680   9.472   5.986   3.704  0.9169 -0.6537  0.3513
19455SOL     OW60681   5.412  10.297   5.200  0.2026 -0.2406  0.4937
19455SOL    HW160682   5.445  10.307   5.289 -0.9429  1.0914  0.8034
19455SOL    HW260683   5.351  10.370   5.189  0.0700 -0.5788 -1.2691
19456SOL     OW60684   5.038   8.069   1.750  0.5469 -0.0358 -0.4174
19456SOL    HW160685   5.122   8.115   1.747  0.7761 -0.4965 -2.7636
19456SOL    HW260686   4.986   8.117   1.814  2.2576  0.8346  0.3754
19457SOL     OW60687  10.374   7.207   3.326 -0.1711 -0.5798  0.7299
19457SOL    HW160688  10.320   7.140   3.284  0.5160 -0.6946 -0.0095
19457SOL    HW260689  10.383   7.276   3.260  0.0834 -0.2904  1.0611
19458SOL     OW60690   2.593   4.901   8.423 -0.4133 -0.8963  0.1596
19458SOL    HW160691   2.543   4.888   8.503 -1.6138  1.4144 -0.1366
19458SOL    HW260692   2.575   4.992   8.397  0.6138 -1.2916 -2.2550
19459SOL     OW60693   0.729   1.903   5.020  0.0037 -0.1010 -0.5287
19459SOL    HW160694   0.806   1.856   4.987  0.6568  0.8083 -0.3517
19459SOL    HW260695   0.661   1.888   4.954  0.8410  0.4611 -1.5565
19460SOL     OW60696   4.579   0.973  10.397  0.0523 -0.3616 -0.2323
19460SOL    HW160697   4.562   0.893  10.448  0.0453 -1.1333 -1.4154
19460SOL    HW260698   4.651   1.015  10.443  0.3997 -1.3195  0.1357
19461SOL     OW60699  10.160   7.178   2.262 -0.6510  0.2104  0.3387
19461SOL    HW160700  10.244   7.141   2.287 -1.0105 -0.5050  0.5369
19461SOL    HW260701  10.132   7.229   2.338 -0.8435 -0.3584  0.6562
19462SOL     OW60702   6.924   3.498   0.664 -0.1569 -0.2822  0.4234
19462SOL    HW160703   6.958   3.441   0.595 -0.8165  1.1540 -1.1517
19462SOL    HW260704   7.002   3.524   0.713  0.4598 -0.5223 -0.4009
19463SOL     OW60705   6.774   7.713   3.947 -0.1856 -0.6577  0.6469
19463SOL    HW160706   6.742   7.627   3.920 -0.2282  0.3388 -3.1364
19463SOL    HW260707   6.695   7.768   3.952  0.0628 -0.2654  0.3780
19464SOL     OW60708   6.711   1.307  10.045 -0.2376 -0.7189  0.0571
19464SOL    HW160709   6.797   1.265  10.040  0.3294  0.4423 -0.6097
19464SOL    HW260710   6.650   1.239  10.016  0.3178 -1.8710  1.4783
19465SOL     OW60711   3.322   3.061   1.479  0.6907  0.1573  0.2139
19465SOL    HW160712   3.415   3.050   1.497  0.6677 -0.3827  0.0231
19465SOL    HW260713   3.310   3.022   1.392  0.1594 -0.4255  0.5384
19466SOL     OW60714  10.180   5.443   4.073  0.1835 -0.0088  0.3445
19466SOL    HW160715  10.136   5.394   4.142 -0.6675  1.3563  0.8227
19466SOL    HW260716  10.141   5.531   4.078  0.2109  0.1614 -1.7780
19467SOL     OW60717   5.719   0.799   7.366 -0.1442 -0.5792 -0.4198
19467SOL    HW160718   5.761   0.736   7.424  2.2012  0.7944 -0.5045
19467SOL    HW260719   5.648   0.835   7.418  1.0098 -0.4125  1.1198
19468SOL     OW60720   0.501   5.583   9.848 -0.0505  0.5550  0.1706
19468SOL    HW160721   0.548   5.603   9.767 -0.7614  0.5908 -0.2356
19468SOL    HW260722   0.561   5.611   9.918  1.1827 -0.8003 -0.2925
19469SOL     OW60723   2.832   6.300   2.727 -0.1469 -0.0077 -0.3816
19469SOL    HW160724   2.889   6.228   2.700 -1.2930 -1.2135  0.3110
19469SOL    HW260725   2.799   6.273   2.813 -1.8631  0.5835 -0.8145
19470SOL     OW60726   4.265   3.292   9.779  0.1503  0.0951  0.0066
19470SOL    HW160727   4.185   3.275   9.729  0.5454 -0.2572 -0.5107
19470SOL    HW260728   4.335   3.292   9.714  0.5734  0.4368  0.4513
19471SOL     OW60729   4.853   5.972   3.576 -0.4816  0.0736  0.5159
19471SOL    HW160730   4.807   6.029   3.638 -1.3830 -0.1203  0.0416
19471SOL    HW260731   4.799   5.974   3.497 -0.2030 -0.9595  0.2826
19472SOL     OW60732   5.685  10.306   2.001  0.2342 -0.1935 -0.1104
19472SOL    HW160733   5.754  10.343   2.056  0.3225 -0.8245  0.2093
19472SOL    HW260734   5.727  10.292   1.916  0.8008 -1.5101  0.3603
19473SOL     OW60735   8.539   0.758   3.262 -0.1835  0.3059 -0.0231
19473SOL    HW160736   8.625   0.719   3.277 -0.2148  0.3374  0.2430
19473SOL    HW260737   8.552   0.819   3.190 -0.2681 -0.6597 -0.8813
19474SOL     OW60738   9.709   8.794   2.760  0.6580  0.1713  0.4564
19474SOL    HW160739   9.783   8.735   2.772 -0.7862 -1.3834  2.4029
19474SOL    HW260740   9.648   8.745   2.705  0.5637  1.0079 -0.2174
19475SOL     OW60741   6.966   1.682  10.469  0.8894  0.1625  0.3568
19475SOL    HW160742   6.997   1.753  10.525 -0.0602  0.7914  0.1098
19475SOL    HW260743   6.870   1.684  10.478  0.8843 -1.6590  1.0303
19476SOL     OW60744  10.047   8.383  10.024  0.1869 -0.0387  0.1899
19476SOL    HW160745  10.023   8.390  10.116 -0.8133  1.2758 -0.1442
19476SOL    HW260746   9.999   8.307   9.992 -1.2812  0.8328  0.2363
19477SOL     OW60747   5.980   2.674   7.417  0.0409 -0.1734  0.3815
19477SOL    HW160748   5.915   2.644   7.480 -0.2672  0.0583  0.1749
19477SOL    HW260749   5.992   2.767   7.437  0.2992 -0.2118  0.4094
19478SOL     OW60750   5.357   1.512   8.432  0.2056 -0.5183  0.0509
19478SOL    HW160751   5.359   1.556   8.347  0.2554  0.4931  0.5534
19478SOL    HW260752   5.442   1.470   8.440  0.2064 -0.6037 -0.3873
19479SOL     OW60753   7.242   7.593   6.167 -0.1090  0.0062 -0.1593
19479SOL    HW160754   7.257   7.503   6.194  2.2203  0.1641 -0.7249
19479SOL    HW260755   7.330   7.629   6.151 -1.0095  2.1034 -0.8111
19480SOL     OW60756   5.629   2.829   7.889  0.3440  0.5374  0.3156
19480SOL    HW160757   5.603   2.916   7.919 -1.6254  0.1581 -0.1525
19480SOL    HW260758   5.594   2.823   7.800 -2.0084 -1.6418  1.2543
19481SOL     OW60759   7.941   0.950   4.931 -0.2291  0.4944  0.0092
19481SOL    HW160760   7.890   0.910   4.860 -2.3421 -2.0131  2.6911
19481SOL    HW260761   7.880   1.011   4.972  0.4463  0.7723  0.6167
19482SOL     OW60762   6.611   5.723   3.865 -0.0913 -0.1146  0.4444
19482SOL    HW160763   6.554   5.649   3.843  0.3602 -0.9201  1.8774
19482SOL    HW260764   6.657   5.742   3.783 -0.3011 -1.3432  0.0172
19483SOL     OW60765   9.363   6.439   8.257 -0.3738 -0.0341 -0.3929
19483SOL    HW160766   9.418   6.449   8.179 -0.3638 -1.5777 -0.6249
19483SOL    HW260767   9.309   6.518   8.259  0.3168  0.4872 -1.3969
19484SOL     OW60768   8.003   6.436   7.940 -0.5918 -0.2344 -0.8378
19484SOL    HW160769   7.979   6.490   8.015 -0.2091 -1.6458  0.3544
19484SOL    HW260770   8.099   6.434   7.941 -0.6071 -1.9879 -0.0296
19485SOL     OW60771   9.061   1.766   1.681 -0.3015 -0.2659  0.2297
19485SOL    HW160772   8.979   1.814   1.673  0.6755  1.5906  0.8139
19485SOL    HW260773   9.101   1.799   1.762  0.3499 -2.2250  0.7668
19486SOL     OW60774   1.493   3.384   5.877  0.1916 -0.1274  0.1251
19486SOL    HW160775   1.418   3.433   5.910  0.2789  0.4253 -0.4868
19486SOL    HW260776   1.459   3.336   5.801 -0.0759 -1.6015  1.1160
19487SOL     OW60777   7.466   7.968   0.694  0.0336  0.3273  0.5819
19487SOL    HW160778   7.471   8.009   0.780 -0.3979 -0.7365  1.1394
19487SOL    HW260779   7.381   7.924   0.692 -0.5429  1.4117 -0.9127
19488SOL     OW60780   1.908   5.385   2.047  0.0969 -0.1952 -0.2982
19488SOL    HW160781   1.956   5.315   2.002  1.0332  1.0757 -1.3563
19488SOL    HW260782   1.889   5.449   1.978 -1.4475  0.2307  0.4927
19489SOL     OW60783   7.085   9.423   4.869  0.3374 -0.7234 -0.0472
19489SOL    HW160784   6.998   9.458   4.847  0.8545  0.8608  0.2840
19489SOL    HW260785   7.084   9.417   4.965  0.3952 -1.2758 -0.0789
19490SOL     OW60786   4.115   6.286   0.935  0.4146 -0.0556  0.3616
19490SOL    HW160787   4.094   6.278   0.841  0.3662 -0.1015  0.3764
19490SOL    HW260788   4.150   6.375   0.943 -0.0301  0.1240  0.3805
19491SOL     OW60789  10.509   9.275   6.361 -0.1207  0.2172 -0.4814
19491SOL    HW160790  10.438   9.299   6.301  0.4057  1.2293 -0.7135
19491SOL    HW260791  10.570   9.348   6.356  0.5108 -0.2418  0.3950
19492SOL     OW60792   5.142   6.156   3.523  0.0952 -0.2282  0.1532
19492SOL    HW160793   5.061   6.126   3.564  0.2443 -0.9101 -0.0290
19492SOL    HW260794   5.194   6.191   3.595 -0.5380  0.6538  0.2049
19493SOL     OW60795   6.951   0.286   0.651  0.1224  0.5305 -0.4579
19493SOL    HW160796   6.990   0.232   0.582 -0.5117 -1.0645  0.3957
19493SOL    HW260797   6.917   0.224   0.715 -1.7799  1.9126 -0.0346
19494SOL     OW60798   9.451   0.138   2.463 -0.1586 -0.0924  0.3387
19494SOL    HW160799   9.488   0.203   2.522 -0.0162  0.2496 -0.1178
19494SOL    HW260800   9.441   0.059   2.517  0.0246  0.1934  0.7975
19495SOL     OW60801   5.411   0.279   6.779  0.0870 -0.3675 -0.5483
19495SOL    HW160802   5.348   0.208   6.770  1.8407 -1.8141 -2.2649
19495SOL    HW260803   5.367   0.356   6.743 -1.2685 -0.9283 -0.1325
19496SOL     OW60804   6.908   7.353   0.568 -0.1747  0.2118  0.1905
19496SOL    HW160805   6.930   7.262   0.586  0.0674  0.6162  2.0766
19496SOL    HW260806   6.917   7.361   0.473 -1.4493 -2.0422 -0.1875
19497SOL     OW60807   4.868   2.744   2.692  0.0780 -0.2786 -0.2048
19497SOL    HW160808   4.909   2.752   2.778 -0.1403 -1.6788  0.0514
19497SOL    HW260809   4.774   2.748   2.710  0.0411 -0.0825 -0.4384
19498SOL     OW60810   6.541   0.776   4.466  0.1226  0.1259  0.1594
19498SOL    HW160811   6.503   0.859   4.495 -0.7767  0.5488 -2.0049
19498SOL    HW260812   6.468   0.715   4.468 -0.2060  0.3774 -1.8493
19499SOL     OW60813   4.819   3.429   4.612 -0.3951 -0.3852  0.3231
19499SOL    HW160814   4.789   3.343   4.582 -0.1402 -0.6687  0.8720
19499SOL    HW260815   4.808   3.486   4.536 -3.3307 -0.2170  0.7447
19500SOL     OW60816   5.616   9.514   7.029  0.3255 -0.2652 -0.4100
19500SOL    HW160817   5.699   9.509   6.982  0.2535 -1.0628 -0.4702
19500SOL    HW260818   5.640   9.540   7.118  0.6867 -0.8520 -0.3272
19501SOL     OW60819   8.670   4.966   2.740 -0.6096  0.1653  0.1969
19501SOL    HW160820   8.752   4.916   2.738  0.2684  1.5586 -1.2303
19501SOL    HW260821   8.627   4.946   2.657 -1.6560 -0.4117  0.8571
19502SOL     OW60822   0.711   3.612  10.587 -0.3457 -0.5175 -0.4278
19502SOL    HW160823   0.622   3.627  10.620 -0.3888 -0.1346 -0.6998
19502SOL    HW260824   0.748   3.546  10.644 -0.8497 -0.7597 -0.3806
19503SOL     OW60825   2.200   4.783   6.660 -0.1444 -0.0095  0.5143
19503SOL    HW160826   2.243   4.707   6.701  1.2803  0.8820  0.7540
19503SOL    HW260827   2.252   4.799   6.581 -2.6517 -1.4983 -1.5998
19504SOL     OW60828  10.534   8.827   1.542  0.0548 -0.1956 -0.2877
19504SOL    HW160829  10.486   8.906   1.566 -2.8151 -2.4928  2.3417
19504SOL    HW260830  10.466   8.764   1.516  1.9951 -2.4247 -0.2891
19505SOL     OW60831   3.627   2.588   9.338 -0.4990 -0.4722 -0.0013
19505SOL    HW160832   3.581   2.626   9.264 -1.2766  1.1874  1.2650
19505SOL    HW260833   3.692   2.654   9.362 -2.6776  0.8311  3.0073
19506SOL     OW60834   9.479   4.704   6.731  0.0665 -0.3064 -0.2517
19506SOL    HW160835   9.516   4.617   6.742 -1.2420 -0.8873 -0.1971
19506SOL    HW260836   9.400   4.689   6.678 -0.9203  0.6527  0.9049
19507SOL     OW60837   2.280   0.834   7.843 -0.1737 -0.0059  0.2200
19507SOL    HW160838   2.302   0.885   7.921 -1.0926  1.8886 -0.6913
19507SOL    HW260839   2.185   0.819   7.850  0.0636 -1.6471  0.4495
19508SOL     OW60840   7.782   5.436   4.595 -0.3575  0.3130  0.1492
19508SOL    HW160841   7.792   5.496   4.669 -0.2302 -0.4359  0.7458
19508SOL    HW260842   7.866   5.390   4.590  0.3247  1.6540 -1.6367
19509SOL     OW60843  10.035   7.986   5.788  0.3579 -0.3473 -0.1202
19509SOL    HW160844   9.983   8.025   5.718  1.1536  2.0679  0.5490
19509SOL    HW260845   9.990   8.010   5.868  0.1051 -2.0925  0.3085
19510SOL     OW60846   6.249   5.596   2.041  1.0416 -0.6300  0.1692
19510SOL    HW160847   6.240   5.669   2.102  1.5592 -0.8957  0.5679
19510SOL    HW260848   6.244   5.637   1.954 -0.1946 -0.3083  0.3670
19511SOL     OW60849   6.992   4.240   9.681 -0.2771  0.4053 -0.1802
19511SOL    HW160850   7.051   4.165   9.682 -0.1607  0.4777  1.6025
19511SOL    HW260851   6.910   4.206   9.716 -0.1987  1.0967  0.7216
19512SOL     OW60852  10.216   7.728   7.371  0.7524  0.4708 -0.2704
19512SOL    HW160853  10.294   7.673   7.366 -0.0768 -0.6174 -2.1261
19512SOL    HW260854  10.228   7.793   7.302 -1.0233 -1.2360 -2.3353
19513SOL     OW60855   6.321   9.156   6.719 -0.1278  0.0305 -0.5190
19513SOL    HW160856   6.242   9.151   6.666  0.0140  1.6131 -0.9168
19513SOL    HW260857   6.391   9.124   6.661 -0.2922 -0.2401 -0.5674
19514SOL     OW60858   3.816   9.815   7.707 -0.2847 -0.4554  0.2477
19514SOL    HW160859   3.818   9.911   7.709  0.5033 -0.4777  0.7688
19514SOL    HW260860   3.723   9.793   7.715 -0.3420  0.2442  1.8886
19515SOL     OW60861   4.232   6.916   1.002  0.4209  0.4168 -0.5314
19515SOL    HW160862   4.280   6.870   0.934 -0.1203 -0.0545 -0.6085
19515SOL    HW260863   4.262   7.007   0.996  0.7874  0.2672 -1.0256
19516SOL     OW60864   1.424   2.468   8.708 -0.0056 -0.3134 -0.4217
19516SOL    HW160865   1.411   2.475   8.614  0.7828  2.1606 -0.4178
19516SOL    HW260866   1.342   2.499   8.746  0.4092  0.7750 -0.3540
19517SOL     OW60867   3.122   1.166   0.211  0.4592 -0.4967 -0.2464
19517SOL    HW160868   3.197   1.107   0.211 -0.6109 -1.9274 -0.8636
19517SOL    HW260869   3.046   1.108   0.212 -0.6719  0.8988  1.2992
19518SOL     OW60870   2.946   0.091   5.740  0.1813  0.2186 -0.2414
19518SOL    HW160871   2.851   0.087   5.738  0.0922  0.0848  1.9152
19518SOL    HW260872   2.970   0.128   5.655 -1.7036 -0.7895 -1.2696
19519SOL     OW60873   5.657   5.299   0.343  0.1270  0.3532  0.1339
19519SOL    HW160874   5.607   5.350   0.407 -1.0240  0.0368 -0.4828
19519SOL    HW260875   5.620   5.323   0.258  1.3638  0.4662 -0.3996
19520SOL     OW60876  10.233  10.029   5.318 -0.1009  0.0835 -0.0791
19520SOL    HW160877  10.201   9.943   5.347  0.2208 -0.4275 -1.2015
19520SOL    HW260878  10.155  10.085   5.320 -0.3230 -0.2332  0.6266
19521SOL     OW60879   9.027   4.962   3.278 -0.2546  0.0170 -0.0196
19521SOL    HW160880   8.975   5.036   3.308  0.8597  0.5055  0.7680
19521SOL    HW260881   8.987   4.936   3.195 -2.5427 -0.4480  1.1638
19522SOL     OW60882   8.278   2.042   2.335  0.6000  0.2172 -0.4091
19522SOL    HW160883   8.360   2.015   2.377  0.7327  1.2630  0.0245
19522SOL    HW260884   8.211   2.024   2.401  0.5759  0.0780 -0.4716
19523SOL     OW60885   6.983   5.909   0.574  0.3381  0.3610  0.1753
19523SOL    HW160886   6.980   5.902   0.669  0.3076 -0.2755  0.1271
19523SOL    HW260887   7.068   5.948   0.555  0.1895  0.8468  0.4793
19524SOL     OW60888   7.782   8.241   5.074  0.2354  0.2056  0.5663
19524SOL    HW160889   7.834   8.242   4.994  0.3523  0.2913  0.6421
19524SOL    HW260890   7.845   8.222   5.144  0.1283  0.0940  0.6339
19525SOL     OW60891   3.744   2.773   9.934  0.0255  0.4934 -0.1232
19525SOL    HW160892   3.692   2.851   9.951  0.7391  0.7139  1.1321
19525SOL    HW260893   3.774   2.783   9.843  0.1707  1.7231  0.0469
19526SOL     OW60894   4.200   9.225   3.702 -0.1943 -0.0808 -0.6120
19526SOL    HW160895   4.132   9.270   3.652 -1.0221 -0.4010  0.2069
19526SOL    HW260896   4.265   9.200   3.636 -1.0876 -0.1894 -1.4835
19527SOL     OW60897   6.468   4.404   8.447  0.1891 -0.7478  0.1716
19527SOL    HW160898   6.432   4.486   8.480  1.2403  1.4594 -3.5539
19527SOL    HW260899   6.391   4.350   8.427 -0.7225  0.6962 -0.3739
19528SOL     OW60900   7.668   3.721   7.162 -0.0918 -0.0772  0.4954
19528SOL    HW160901   7.601   3.775   7.118 -0.9691 -0.5473  1.2143
19528SOL    HW260902   7.737   3.711   7.097 -0.9173  0.0576 -0.4359
19529SOL     OW60903  10.500   3.568   3.181 -0.4177 -0.1694  0.0776
19529SOL    HW160904  10.410   3.558   3.212 -0.2933  0.8037  0.8064
19529SOL    HW260905  10.509   3.504   3.110 -1.9436  0.3041 -0.5757
19530SOL     OW60906   9.552   3.443   2.358 -0.0556  0.0139  0.2547
19530SOL    HW160907   9.509   3.511   2.305 -0.3183 -1.4130 -1.4629
19530SOL    HW260908   9.626   3.487   2.399 -0.2100  1.3374 -0.8212
19531SOL     OW60909   0.085   2.721   1.676  0.1124  0.0612 -1.1752
19531SOL    HW160910   0.166   2.760   1.643  0.9621 -1.2431 -0.7117
19531SOL    HW260911   0.075   2.756   1.764  1.0154 -0.9153 -0.6603
19532SOL     OW60912   0.463   1.987   8.495 -0.0858  0.4095 -0.3129
19532SOL    HW160913   0.532   1.991   8.562  0.3343 -0.0299 -0.7062
19532SOL    HW260914   0.488   1.913   8.440 -0.4735  0.7093 -0.9014
19533SOL     OW60915   0.674   3.056   3.931  0.6328  0.2877  1.0970
19533SOL    HW160916   0.648   2.965   3.918  2.4186  0.0393 -1.2564
19533SOL    HW260917   0.743   3.071   3.867  1.1728  2.9961  2.1885
19534SOL     OW60918   6.409   0.584   7.017  0.3437  0.1189  0.1413
19534SOL    HW160919   6.482   0.544   6.969  0.5305  0.6404 -0.0114
19534SOL    HW260920   6.427   0.564   7.109  0.4457 -0.1276  0.0692
19535SOL     OW60921   1.647   9.108   6.168  0.4211  0.3522  0.1401
19535SOL    HW160922   1.619   9.190   6.128  1.2676  0.2685 -0.6596
19535SOL    HW260923   1.690   9.134   6.250 -0.4918  0.5930  0.5584
19536SOL     OW60924   1.115   1.044   2.887 -0.1032  0.0368  0.0014
19536SOL    HW160925   1.172   0.995   2.827 -1.2229 -1.3009 -0.0241
19536SOL    HW260926   1.071   1.108   2.831 -0.8982 -0.9876 -0.5887
19537SOL     OW60927   8.727   0.295   6.257  0.1151 -0.9081 -0.2852
19537SOL    HW160928   8.757   0.381   6.227 -1.9011 -0.2964 -0.6612
19537SOL    HW260929   8.751   0.292   6.350 -1.5323  0.9075  0.2534
19538SOL     OW60930   1.310   2.133   8.851  0.2277  0.1434 -0.1172
19538SOL    HW160931   1.393   2.152   8.895  0.8051 -0.9315 -0.6873
19538SOL    HW260932   1.335   2.088   8.771 -0.8406  1.4309 -1.2127
19539SOL     OW60933   1.816   9.447   2.397  0.4006  0.2308 -0.2132
19539SOL    HW160934   1.893   9.472   2.346  0.6791  0.2424  0.2005
19539SOL    HW260935   1.791   9.528   2.443 -0.2367  0.3885 -0.8157
19540SOL     OW60936   2.219   0.179   3.225  0.0283  0.0307  0.1718
19540SOL    HW160937   2.183   0.134   3.302  0.2972 -0.3946  0.0477
19540SOL    HW260938   2.312   0.157   3.225 -0.3492 -1.7940 -1.5265
19541SOL     OW60939   8.649   5.602   4.731 -0.0997 -0.8303 -0.2060
19541SOL    HW160940   8.732   5.619   4.775  0.3023 -0.4705 -1.0946
19541SOL    HW260941   8.615   5.688   4.709 -0.2416 -1.0069 -0.6988
19542SOL     OW60942   8.236   5.640   9.395  0.4658  0.1926  0.5272
19542SOL    HW160943   8.251   5.681   9.310 -0.4480 -1.4361 -0.4688
19542SOL    HW260944   8.195   5.708   9.448 -0.8802  0.6414 -1.0152
19543SOL     OW60945   0.195   1.970   8.371 -0.2682 -0.0092  0.3609
19543SOL    HW160946   0.269   1.988   8.428 -0.3338 -0.1592  0.4956
19543SOL    HW260947   0.126   2.030   8.400 -0.2464  0.0291  0.3323
19544SOL     OW60948   5.112   3.331   4.829  0.2403  0.1147  0.5126
19544SOL    HW160949   5.090   3.424   4.836  0.4036  0.1639  0.3915
19544SOL    HW260950   5.048   3.287   4.883  1.3973  0.4645  2.2609
19545SOL     OW60951   8.422   0.211  10.162  0.3026  0.1761  0.5921
19545SOL    HW160952   8.336   0.173  10.179 -0.7094  1.8927 -0.4822
19545SOL    HW260953   8.479   0.170  10.227 -1.9368  1.3084  3.4602
19546SOL     OW60954   7.845   8.339   6.728  0.2916  0.5302  0.3423
19546SOL    HW160955   7.830   8.345   6.634  0.5563 -0.2469  0.2413
19546SOL    HW260956   7.895   8.417   6.750  0.8761  0.3437 -0.2966
19547SOL     OW60957   5.425   8.218   7.146 -0.7272 -0.0471  0.9069
19547SOL    HW160958   5.335   8.187   7.139 -0.3910 -0.8698 -0.0712
19547SOL    HW260959   5.459   8.174   7.224 -1.1615  0.2590  1.2736
19548SOL     OW60960   1.758   2.894   2.049  0.1836  0.0518 -0.0045
19548SOL    HW160961   1.714   2.979   2.055 -0.2219 -0.1546  0.0113
19548SOL    HW260962   1.753   2.860   2.138 -0.6469 -0.4700 -0.2373
19549SOL     OW60963   9.190   4.381   8.082  0.0526  0.0963  0.4427
19549SOL    HW160964   9.200   4.291   8.051 -0.6131  0.0428  0.3740
19549SOL    HW260965   9.253   4.388   8.154  0.0144 -0.4683  0.5377
19550SOL     OW60966   8.810   5.920   4.838  0.1017 -0.1967 -0.3008
19550SOL    HW160967   8.887   5.876   4.802 -0.4462  0.0701 -1.8915
19550SOL    HW260968   8.753   5.933   4.762  0.4206  3.6546 -0.0540
19551SOL     OW60969   4.692   1.713   8.266 -0.1673 -0.1135  0.4047
19551SOL    HW160970   4.681   1.628   8.307 -0.1162 -0.7394 -0.8292
19551SOL    HW260971   4.744   1.764   8.329 -0.1943 -0.9833  1.1486
19552SOL     OW60972   7.587   5.256   2.977 -0.0854  0.1673 -0.1787
19552SOL    HW160973   7.527   5.235   3.049  0.9816  0.3302  0.7960
19552SOL    HW260974   7.554   5.206   2.903  0.1859 -1.9858  1.0650
19553SOL     OW60975   6.474   2.503   1.093  0.3277 -0.2940  0.5040
19553SOL    HW160976   6.412   2.576   1.095  0.2152 -0.3714  0.0252
19553SOL    HW260977   6.511   2.506   1.004 -0.0409 -1.1265  0.3178
19554SOL     OW60978   0.780   1.721   2.803  0.1076 -0.0326  0.3292
19554SOL    HW160979   0.781   1.797   2.745 -1.0634  0.0024  0.3369
19554SOL    HW260980   0.844   1.742   2.871 -1.0994  1.5231  1.0405
19555SOL     OW60981   2.051   0.207   4.473  0.2423 -0.0855  0.3875
19555SOL    HW160982   1.965   0.189   4.512 -0.7604  0.6403 -1.3232
19555SOL    HW260983   2.041   0.179   4.382  2.0811 -0.6497  0.3359
19556SOL     OW60984   1.086   7.213   9.782  0.3884 -0.1825  0.8483
19556SOL    HW160985   1.181   7.199   9.783  0.2000 -2.3870 -1.1579
19556SOL    HW260986   1.072   7.280   9.715  0.5752  1.4858  2.4043
19557SOL     OW60987   8.488   6.450   8.229  0.1957 -0.3136 -0.3979
19557SOL    HW160988   8.521   6.493   8.308  0.3190  0.5975 -0.9444
19557SOL    HW260989   8.480   6.358   8.255 -1.8571  0.2597  1.3830
19558SOL     OW60990   5.094   9.336   8.237 -0.0544 -0.5171 -0.2816
19558SOL    HW160991   5.165   9.392   8.270  0.4112 -0.2838 -1.6287
19558SOL    HW260992   5.122   9.247   8.258  0.3951 -0.3933 -0.3517
19559SOL     OW60993   6.156  10.079   4.260  0.1061 -0.6260  0.3521
19559SOL    HW160994   6.185  10.001   4.214  2.2020  0.5244 -0.4308
19559SOL    HW260995   6.232  10.106   4.312 -0.8321  0.4432  1.2211
19560SOL     OW60996   3.978   4.312   9.318  0.4005  0.2349  0.6180
19560SOL    HW160997   3.953   4.403   9.304  0.1722  0.3039  1.4299
19560SOL    HW260998   3.925   4.283   9.392 -0.6814 -1.0320 -0.5877
19561SOL     OW60999   3.162   6.143   1.094 -0.2949 -0.2193 -0.5236
19561SOL    HW161000   3.111   6.218   1.124  0.6859  0.8454 -1.3905
19561SOL    HW261001   3.216   6.118   1.169  0.3520  0.8250 -0.6245
19562SOL     OW61002   4.391   8.611   0.605 -0.6202 -0.4676 -0.1490
19562SOL    HW161003   4.407   8.705   0.614 -1.6415 -0.3800  0.9099
19562SOL    HW261004   4.358   8.601   0.516 -3.1392  0.5983  0.5906
19563SOL     OW61005   4.896   8.781   6.426 -0.1620  0.8599  0.6833
19563SOL    HW161006   4.871   8.861   6.379 -0.7784  0.0476 -0.4086
19563SOL    HW261007   4.818   8.758   6.477 -0.3724  0.3633  0.1472
19564SOL     OW61008   0.803   3.188   1.919  0.6370 -0.0189 -0.1507
19564SOL    HW161009   0.727   3.205   1.864 -0.1917 -0.8015  0.7361
19564SOL    HW261010   0.809   3.265   1.976 -0.3963 -0.6019  0.7780
19565SOL     OW61011   8.348   2.195   7.177  0.7582  0.2069 -0.3491
19565SOL    HW161012   8.416   2.261   7.167  0.3628  0.2588 -3.3430
19565SOL    HW261013   8.267   2.240   7.156 -0.0763 -0.2656  1.6070
19566SOL     OW61014  10.186   7.730   5.784 -0.6912 -0.1466 -0.1909
19566SOL    HW161015  10.169   7.703   5.694  2.0395  0.3639 -0.9490
19566SOL    HW261016  10.155   7.820   5.789  1.8887  0.9513 -1.6858
19567SOL     OW61017   7.256   3.667   3.845 -0.1810 -0.0881  0.6363
19567SOL    HW161018   7.348   3.694   3.849  0.1096 -0.9039 -0.0558
19567SOL    HW261019   7.216   3.728   3.783 -0.5534  1.4024  2.2706
19568SOL     OW61020   1.593   2.890   4.987 -0.3891  0.4414  0.2415
19568SOL    HW161021   1.641   2.857   4.911  1.0752  1.1894  0.8168
19568SOL    HW261022   1.624   2.836   5.060 -1.1456  0.3040  0.4739
19569SOL     OW61023   1.040  10.501   8.574 -0.3566  0.6740  0.2480
19569SOL    HW161024   1.123  10.497   8.621  0.7044  0.0550 -1.5727
19569SOL    HW261025   1.042  10.585   8.528 -0.7000  0.6307  0.1519
19570SOL     OW61026   0.053   8.126   0.048  0.2652  0.0084 -0.5233
19570SOL    HW161027  -0.041   8.125   0.033  0.0875  2.4612  0.0888
19570SOL    HW261028   0.063   8.120   0.143  0.7194 -0.0551 -0.5722
19571SOL     OW61029   3.934   4.675   6.054  0.7576  0.3985  0.6008
19571SOL    HW161030   4.011   4.685   6.110 -0.0469 -0.6162  1.9487
19571SOL    HW261031   3.865   4.647   6.114 -0.9136  2.1471 -0.3980
19572SOL     OW61032   0.736   4.936   5.330 -0.7021  0.0889 -0.4024
19572SOL    HW161033   0.701   4.889   5.255  0.5564  0.2134 -1.0964
19572SOL    HW261034   0.755   5.024   5.298  0.2972  0.0010 -0.0839
19573SOL     OW61035  10.353   8.665   6.749 -0.1907  0.8463 -0.2130
19573SOL    HW161036  10.332   8.702   6.663 -3.1195  0.6513  0.3307
19573SOL    HW261037  10.379   8.741   6.801  0.5190  1.1263 -0.9544
19574SOL     OW61038  10.368   3.372   6.936 -0.0286 -0.1356  0.0532
19574SOL    HW161039  10.307   3.445   6.942  0.0254  0.1645 -2.1026
19574SOL    HW261040  10.314   3.298   6.910  0.3029 -0.2147 -0.4205
19575SOL     OW61041   2.472   0.583   6.731  0.3141 -0.2904 -0.3299
19575SOL    HW161042   2.475   0.678   6.719 -0.0750 -0.2555 -0.1323
19575SOL    HW261043   2.391   0.566   6.778  0.8083 -0.6339  0.4333
19576SOL     OW61044   9.951   8.490   1.997 -0.0808  0.0754 -0.0313
19576SOL    HW161045  10.019   8.495   1.931 -0.1384  0.0062 -0.0960
19576SOL    HW261046   9.909   8.576   1.995  1.1212  0.7377  1.2127
19577SOL     OW61047   9.084   5.434   9.288  0.2824 -0.0478 -0.3041
19577SOL    HW161048   9.127   5.365   9.340  0.6585 -0.7470 -1.5127
19577SOL    HW261049   9.130   5.433   9.204  0.2146  1.6192 -0.3840
19578SOL     OW61050   1.892   2.551   2.428  0.1464  0.0464  0.4969
19578SOL    HW161051   1.804   2.542   2.391 -0.1233  2.0815  0.5541
19578SOL    HW261052   1.878   2.552   2.523  0.3451 -0.5960  0.5354
19579SOL     OW61053   4.499  10.256   8.844 -0.0762  0.0884  0.4867
19579SOL    HW161054   4.476  10.306   8.923 -1.3248  1.4574 -0.6874
19579SOL    HW261055   4.587  10.287   8.822 -0.6548  1.5253  0.0317
19580SOL     OW61056   5.249   1.761   9.435 -0.1627  0.3290  0.1826
19580SOL    HW161057   5.216   1.680   9.473  0.5704 -0.4118 -0.7122
19580SOL    HW261058   5.185   1.782   9.367  0.3072 -0.2061 -0.4390
19581SOL     OW61059   5.520   3.565   3.105  0.4251 -0.2773 -0.5621
19581SOL    HW161060   5.452   3.561   3.172 -0.2658 -0.7230 -1.2649
19581SOL    HW261061   5.592   3.514   3.140  1.4263  2.1920  1.2729
19582SOL     OW61062  10.133   5.215   7.991 -0.9493  0.2092  0.6921
19582SOL    HW161063  10.217   5.189   7.953 -0.7013  1.9637 -0.0501
19582SOL    HW261064  10.071   5.151   7.956 -0.1689 -0.2284  0.0434
19583SOL     OW61065   6.312   1.527   6.698  0.0919  0.2266 -0.0344
19583SOL    HW161066   6.377   1.550   6.631  0.3608 -0.7804 -0.1299
19583SOL    HW261067   6.318   1.598   6.762  0.2120  0.9277 -0.7972
19584SOL     OW61068   5.202   9.792   1.623  0.1673 -0.3343  0.5142
19584SOL    HW161069   5.112   9.824   1.632  0.4385  1.3097 -1.9190
19584SOL    HW261070   5.257   9.869   1.634  1.0120 -0.4389 -2.2131
19585SOL     OW61071   1.514   8.503   7.397  0.2798 -0.2207 -0.2084
19585SOL    HW161072   1.520   8.492   7.302 -0.2343  0.2635 -0.2975
19585SOL    HW261073   1.499   8.414   7.431 -0.8672 -0.2246 -0.6879
19586SOL     OW61074   8.075   5.623   3.305 -0.0800 -0.0613  0.2967
19586SOL    HW161075   8.157   5.648   3.346 -1.1582  1.1449  1.8437
19586SOL    HW261076   8.031   5.706   3.287 -1.2148 -0.6899  0.0656
19587SOL     OW61077   5.030   4.188   2.075  0.2067  0.4509  0.1524
19587SOL    HW161078   5.029   4.267   2.129  1.6337 -0.3389  1.4120
19587SOL    HW261079   5.043   4.221   1.986 -0.8144  1.7078  0.4325
19588SOL     OW61080   3.202   5.707   5.894 -0.2906 -0.2507  0.2423
19588SOL    HW161081   3.250   5.666   5.823  0.5709 -1.8300  1.6719
19588SOL    HW261082   3.226   5.800   5.889  0.3913 -0.4789 -0.9980
19589SOL     OW61083   2.747   0.777   5.214  0.1919 -0.0168 -0.3228
19589SOL    HW161084   2.781   0.693   5.245  1.5527  0.3683 -0.6905
19589SOL    HW261085   2.770   0.778   5.121 -1.1360  0.1398 -0.6652
19590SOL     OW61086   2.125   4.587   1.778 -0.4802 -0.9636  0.7527
19590SOL    HW161087   2.046   4.542   1.749 -0.8635 -0.6856  1.3353
19590SOL    HW261088   2.096   4.640   1.853  0.0216  0.0041  0.2805
19591SOL     OW61089   4.914   8.678   9.301  0.0994  0.1787  0.0726
19591SOL    HW161090   4.975   8.744   9.268  0.6199 -0.4786 -0.3046
19591SOL    HW261091   4.835   8.690   9.248 -0.2223  1.2251  0.7583
19592SOL     OW61092   8.834   7.577   9.936 -0.2351 -0.7022 -0.7149
19592SOL    HW161093   8.793   7.601  10.020  2.0693  0.1332  0.2436
19592SOL    HW261094   8.776   7.509   9.900 -2.1665  0.0757  0.7518
19593SOL     OW61095  10.508   6.955   8.062  0.0824  0.4347  0.1825
19593SOL    HW161096  10.518   6.942   8.156  1.2312 -0.6660 -0.0708
19593SOL    HW261097  10.493   6.868   8.027  0.2745  0.7631 -0.7366
19594SOL     OW61098   7.375   1.385   5.194  0.0081  0.1245 -0.0351
19594SOL    HW161099   7.301   1.375   5.133  1.5830  1.7904 -2.3956
19594SOL    HW261100   7.334   1.401   5.279 -2.3361  0.0610 -1.0830
19595SOL     OW61101   6.286   0.481   2.063  0.1977  0.4411  0.0238
19595SOL    HW161102   6.378   0.479   2.039 -0.2122  1.2278 -1.8648
19595SOL    HW261103   6.280   0.546   2.133  0.9149  1.4016 -0.7761
19596SOL     OW61104   7.121   5.415   9.434  0.5147  0.6041  0.0191
19596SOL    HW161105   7.214   5.436   9.435  0.6775  0.0935 -1.3850
19596SOL    HW261106   7.111   5.345   9.499  1.6987 -1.4044 -1.8021
19597SOL     OW61107  10.593   0.546   5.558 -0.3085 -0.2064  0.4574
19597SOL    HW161108  10.621   0.633   5.585  2.5426 -0.2954 -1.7550
19597SOL    HW261109  10.548   0.560   5.475  1.8853 -0.8895 -0.9346
19598SOL     OW61110   6.269   4.596   2.706  0.8648  0.2372  0.6032
19598SOL    HW161111   6.287   4.616   2.614 -0.0980  1.9740  0.7343
19598SOL    HW261112   6.191   4.540   2.704  1.6847 -0.9196  0.3319
19599SOL     OW61113   6.889   9.799   8.187  0.3049  0.2941 -0.0923
19599SOL    HW161114   6.868   9.890   8.165 -0.7344  0.2209  0.5476
19599SOL    HW261115   6.875   9.751   8.105  0.0151  0.5834 -0.2158
19600SOL     OW61116   2.690   6.148   5.002  0.0201  0.5727  0.3362
19600SOL    HW161117   2.726   6.236   5.013  1.6971 -0.2014  1.3953
19600SOL    HW261118   2.648   6.128   5.086  4.3920 -1.6073  2.3626
19601SOL     OW61119   8.855   0.529   6.139  0.0681  0.2952  0.4763
19601SOL    HW161120   8.919   0.584   6.184 -0.3455  0.8999  0.3330
19601SOL    HW261121   8.794   0.591   6.099 -0.0902 -0.2554 -0.1498
19602SOL     OW61122   9.688   8.254   4.637 -0.0696 -0.2122  0.1643
19602SOL    HW161123   9.722   8.341   4.656  0.9709 -0.5842  0.0933
19602SOL    HW261124   9.593   8.262   4.645  0.1100  0.4525  2.1862
19603SOL     OW61125   0.259   0.545   6.329  0.4117  0.0074  0.0049
19603SOL    HW161126   0.195   0.476   6.314  0.6047 -0.1416 -0.1448
19603SOL    HW261127   0.225   0.594   6.404  1.1458 -1.3131  1.2511
19604SOL     OW61128   3.479   6.603  10.098  0.1678  0.3109  0.5970
19604SOL    HW161129   3.479   6.668  10.027 -2.0814 -0.7007 -0.4437
19604SOL    HW261130   3.555   6.548  10.081  0.1617  0.6304 -0.5489
19605SOL     OW61131   6.489   4.654   8.187  0.0322  0.6030 -0.0372
19605SOL    HW161132   6.477   4.577   8.242  2.5758  0.1519 -0.0182
19605SOL    HW261133   6.502   4.726   8.248 -0.2355  0.6751 -0.0619
19606SOL     OW61134   9.227   6.027   2.370  0.0845 -0.1813 -0.2719
19606SOL    HW161135   9.272   6.064   2.294  2.0853 -0.8167  0.5158
19606SOL    HW261136   9.201   5.940   2.342  1.0923 -0.5312 -0.1681
19607SOL     OW61137   8.453   0.277   1.360  0.1960 -0.7645  0.1923
19607SOL    HW161138   8.442   0.189   1.323 -2.0650  0.0805 -1.4037
19607SOL    HW261139   8.540   0.305   1.330 -0.2619 -1.3613 -1.8814
19608SOL     OW61140   1.629   3.509   4.994 -0.0506 -0.7641  0.1139
19608SOL    HW161141   1.666   3.446   5.056  0.0335  0.1494  1.0134
19608SOL    HW261142   1.534   3.499   5.004 -0.0552  0.3448  1.4326
19609SOL     OW61143   1.824   6.096   8.012 -0.0027  0.1308  0.1209
19609SOL    HW161144   1.748   6.074   8.066  0.3686 -4.4533 -0.7861
19609SOL    HW261145   1.895   6.044   8.049  2.2172  2.5906 -0.4087
19610SOL     OW61146   6.515  10.153   6.566 -0.7528  0.0849  0.3556
19610SOL    HW161147   6.506  10.075   6.620 -0.4518  0.1058  0.4353
19610SOL    HW261148   6.540  10.121   6.480 -2.3125 -0.0359 -0.0884
19611SOL     OW61149   5.340   6.064   2.669  0.0999 -0.4096  0.4082
19611SOL    HW161150   5.314   6.075   2.760  1.6634 -0.8914  0.9569
19611SOL    HW261151   5.297   6.135   2.622  0.6058  0.8733  1.8214
19612SOL     OW61152  10.412   3.704   8.636 -0.7662 -0.1981  0.0099
19612SOL    HW161153  10.484   3.641   8.626  1.1553  1.7278  0.9470
19612SOL    HW261154  10.363   3.673   8.712  0.1664 -0.5503  0.4750
19613SOL     OW61155   2.979   3.710   6.000 -0.1125  0.0040  0.7463
19613SOL    HW161156   2.942   3.738   5.917  0.6116  1.7127  0.9576
19613SOL    HW261157   3.020   3.625   5.981  1.5888  1.1631 -1.0974
19614SOL     OW61158   3.797  10.260   4.896  0.2412  0.1016  0.1151
19614SOL    HW161159   3.747  10.317   4.955  2.7328  1.9002  0.6735
19614SOL    HW261160   3.842  10.199   4.953 -0.4015 -0.7529 -0.2801
19615SOL     OW61161   3.145   4.811   6.562 -0.5739  0.4703  0.2818
19615SOL    HW161162   3.153   4.732   6.508  0.7858 -0.2038  1.3920
19615SOL    HW261163   3.210   4.871   6.525  1.6748 -0.6459  2.1234
19616SOL     OW61164   4.461   6.740   7.620 -0.2871  0.1801  0.4218
19616SOL    HW161165   4.462   6.682   7.545 -0.7951  1.6757 -0.7771
19616SOL    HW261166   4.421   6.821   7.589  0.5729  1.2704  1.9680
19617SOL     OW61167  10.284   1.925   3.858  0.3821  0.0278 -0.1575
19617SOL    HW161168  10.295   1.936   3.763  0.1669  1.0647 -0.0773
19617SOL    HW261169  10.238   1.841   3.867  1.9377 -0.9534 -0.8565
19618SOL     OW61170   7.190   4.040   7.003 -0.3121  0.2576  0.3728
19618SOL    HW161171   7.128   4.095   7.050 -0.6448  0.2367 -0.0423
19618SOL    HW261172   7.158   3.950   7.016 -0.0587  0.1990  0.6162
19619SOL     OW61173   5.836   5.854   1.941 -0.0838 -0.0476 -0.5136
19619SOL    HW161174   5.832   5.834   1.848  0.0545  0.2367 -0.5806
19619SOL    HW261175   5.925   5.886   1.956 -0.3039  0.5194 -0.4092
19620SOL     OW61176   5.893  10.301   1.578  0.0359 -0.3106 -0.1257
19620SOL    HW161177   5.975  10.350   1.568 -0.9330  1.7604  1.2746
19620SOL    HW261178   5.836  10.335   1.509 -0.0495 -0.8475 -0.3235
19621SOL     OW61179   0.494   2.442   4.867 -0.0459  0.2198 -0.1013
19621SOL    HW161180   0.479   2.527   4.909 -0.5319  0.2787 -0.3799
19621SOL    HW261181   0.461   2.454   4.778  0.7737  0.0292 -0.4369
19622SOL     OW61182   1.236   0.472   6.788 -0.1028  0.2164  0.0672
19622SOL    HW161183   1.272   0.479   6.877 -2.4023 -0.5489  1.1394
19622SOL    HW261184   1.283   0.539   6.738  1.9367  0.0344  1.5822
19623SOL     OW61185   2.998   8.887   4.671 -0.0098  0.2798  0.6803
19623SOL    HW161186   2.967   8.826   4.603  1.3127 -0.6227  0.8374
19623SOL    HW261187   2.966   8.849   4.753  1.5810 -0.7734  0.8624
19624SOL     OW61188   0.297   9.811   8.468 -0.4394 -0.7272 -0.3211
19624SOL    HW161189   0.223   9.829   8.411  0.3475 -0.3058 -1.2328
19624SOL    HW261190   0.317   9.896   8.508  0.9000 -0.3356 -1.7422
19625SOL     OW61191   2.680   3.425   0.809  0.2496 -1.0856 -0.5611
19625SOL    HW161192   2.598   3.413   0.857  0.6645 -0.5427  0.3012
19625SOL    HW261193   2.698   3.518   0.816  0.3701 -1.0081 -1.7128
19626SOL     OW61194   1.405   5.883  10.317  0.4965  0.4312 -0.0130
19626SOL    HW161195   1.475   5.892  10.252 -0.1917  0.6473 -0.7370
19626SOL    HW261196   1.434   5.938  10.391  0.6828  1.2343 -0.6613
19627SOL     OW61197   6.210   4.684   6.415 -0.1824 -0.3433 -0.5672
19627SOL    HW161198   6.145   4.717   6.353 -1.6612 -1.1970  0.4941
19627SOL    HW261199   6.245   4.606   6.372 -1.1165 -0.8650 -0.3994
19628SOL     OW61200   6.295   5.584   1.669 -0.3162  0.6296  0.4040
19628SOL    HW161201   6.275   5.678   1.668 -0.4045  0.6140  0.7892
19628SOL    HW261202   6.314   5.563   1.577 -0.3036  1.0218  0.3149
19629SOL     OW61203   1.215   4.132   0.576  0.2323 -0.0782 -0.6489
19629SOL    HW161204   1.176   4.219   0.561 -0.2413 -0.1247  0.2503
19629SOL    HW261205   1.167   4.074   0.517 -1.8505 -0.3196  1.1481
19630SOL     OW61206   8.608   3.370   9.551  0.2988  0.2643 -0.6640
19630SOL    HW161207   8.634   3.442   9.493  1.6786 -0.6557 -1.2414
19630SOL    HW261208   8.608   3.409   9.639  0.3205  1.1405 -1.0434
19631SOL     OW61209   2.035   1.321   8.790 -0.2620 -0.0842  0.6789
19631SOL    HW161210   2.062   1.405   8.753  0.5196 -0.6686 -0.1296
19631SOL    HW261211   1.985   1.344   8.869 -0.2466  1.1326  0.3524
19632SOL     OW61212   9.972   8.261   3.976  0.0880 -0.2163  0.6321
19632SOL    HW161213  10.042   8.215   4.023 -0.2829  1.0893  2.5809
19632SOL    HW261214   9.978   8.351   4.007 -0.9033  0.4669 -1.0607
19633SOL     OW61215   9.349   3.834   6.574  0.7698  0.2024  0.0437
19633SOL    HW161216   9.354   3.930   6.580  0.6525  0.1504  1.2485
19633SOL    HW261217   9.268   3.812   6.621  1.4847 -0.5688  0.9513
19634SOL     OW61218   4.448   3.722  10.423 -0.0834 -0.1535 -0.4072
19634SOL    HW161219   4.353   3.732  10.416 -0.0849 -0.8365 -1.9277
19634SOL    HW261220   4.484   3.796  10.373  0.1506 -0.5351 -0.8114
19635SOL     OW61221   0.258  10.018   7.197  0.5559  0.0962  0.2381
19635SOL    HW161222   0.203  10.092   7.222 -0.2593  0.3973 -2.2270
19635SOL    HW261223   0.209   9.941   7.225 -0.4427  0.4071 -0.6076
19636SOL     OW61224   7.158   6.994   3.440  0.2047  0.0812 -0.3096
19636SOL    HW161225   7.191   7.058   3.376  0.5399  0.2361  0.0197
19636SOL    HW261226   7.147   7.044   3.521 -1.3913  0.1750 -0.5467
19637SOL     OW61227   7.023   8.621   6.088  0.3742 -0.0731  0.3484
19637SOL    HW161228   6.984   8.672   6.159  1.3786 -0.4524  1.2109
19637SOL    HW261229   6.986   8.533   6.098  0.8193 -0.2314  0.6808
19638SOL     OW61230  10.336   9.635   0.317  0.3098 -0.1048 -0.0868
19638SOL    HW161231  10.426   9.606   0.306  0.0079 -0.3422 -2.4604
19638SOL    HW261232  10.340   9.703   0.385  2.3190  0.1285 -0.3909
19639SOL     OW61233  10.558   6.393   8.402  0.2485  0.8318  0.7005
19639SOL    HW161234  10.564   6.434   8.488  1.4568  0.0539  1.0191
19639SOL    HW261235  10.582   6.302   8.418 -3.0669 -0.2561  0.1533
19640SOL     OW61236   0.952   2.341   1.958  0.5070  0.8299 -0.2701
19640SOL    HW161237   0.877   2.397   1.978 -0.0504  0.1325 -0.3423
19640SOL    HW261238   0.932   2.259   2.003  2.7918  1.6493  2.4920
19641SOL     OW61239   8.428   6.589   2.746 -0.3002 -0.2993  0.6098
19641SOL    HW161240   8.349   6.536   2.751  0.2517 -1.0613  1.8019
19641SOL    HW261241   8.412   6.650   2.675 -1.2193 -1.6350 -0.3690
19642SOL     OW61242   0.551   8.268   0.394 -0.1312 -0.1269  0.4253
19642SOL    HW161243   0.492   8.258   0.320  1.2777 -1.0653 -0.6224
19642SOL    HW261244   0.592   8.182   0.405  0.0682  0.1306  1.9686
19643SOL     OW61245   7.435   9.466   0.572  0.4682  0.3170 -0.0124
19643SOL    HW161246   7.493   9.393   0.549  0.6653  0.9750 -1.7416
19643SOL    HW261247   7.464   9.492   0.660  0.9864 -1.0984  0.2645
19644SOL     OW61248   2.944   2.777  10.450  0.1981 -0.6409  0.0557
19644SOL    HW161249   2.937   2.829  10.370 -0.6883 -0.6675  0.1031
19644SOL    HW261250   2.957   2.687  10.418 -0.1687 -0.6544 -0.0607
19645SOL     OW61251   4.957   3.203   0.522 -0.7383 -0.5137 -0.1057
19645SOL    HW161252   5.041   3.187   0.565  0.3171  0.2691 -1.7768
19645SOL    HW261253   4.893   3.158   0.578  0.6174 -0.2042  1.8178
19646SOL     OW61254   4.790   2.775   5.747  0.5462  0.2450 -0.0901
19646SOL    HW161255   4.854   2.825   5.798  2.0765 -1.9309  0.2852
19646SOL    HW261256   4.705   2.796   5.787  1.2156  1.7997  0.5997
19647SOL     OW61257  10.228   9.144   6.710 -0.0140 -0.3154 -0.4680
19647SOL    HW161258  10.285   9.218   6.687 -1.2659  0.4962 -1.0570
19647SOL    HW261259  10.165   9.139   6.638 -1.3273 -0.5248  0.6610
19648SOL     OW61260   8.811   2.167  10.523 -0.9457 -0.4646  0.2797
19648SOL    HW161261   8.737   2.133  10.574 -1.4138  1.4042  0.9343
19648SOL    HW261262   8.781   2.253  10.492  0.9515  0.3685  0.6154
19649SOL     OW61263   8.809   4.256   4.583  0.1137 -0.2318 -0.0998
19649SOL    HW161264   8.809   4.261   4.679  0.5391  1.2965 -0.1432
19649SOL    HW261265   8.900   4.270   4.558 -0.1315  0.2925 -0.7393
19650SOL     OW61266   0.949   0.836   8.478  0.0992  0.2041 -0.3131
19650SOL    HW161267   0.977   0.881   8.558 -0.5316  0.9438 -0.4983
19650SOL    HW261268   0.979   0.746   8.490  0.9280  0.5484  0.2935
19651SOL     OW61269   0.537   4.067   3.473  0.0056 -0.0800 -0.0567
19651SOL    HW161270   0.632   4.060   3.474  0.0006 -0.4528 -0.9905
19651SOL    HW261271   0.512   4.041   3.384 -1.0097 -0.5852  0.3582
19652SOL     OW61272   0.570   9.645   4.601  0.2699 -0.5122  0.1240
19652SOL    HW161273   0.534   9.561   4.630 -1.0210 -0.3981 -1.0105
19652SOL    HW261274   0.514   9.710   4.643 -0.8746 -0.3283 -1.5572
19653SOL     OW61275   8.262   8.562   5.630  0.0827  0.2038  0.0059
19653SOL    HW161276   8.195   8.622   5.664  0.1847  0.9215 -1.0294
19653SOL    HW261277   8.291   8.601   5.548  1.1507 -0.5601 -0.0094
19654SOL     OW61278   7.855   4.405   2.164  0.6483  0.0352 -0.4586
19654SOL    HW161279   7.795   4.372   2.230  1.3325 -0.4289 -0.0534
19654SOL    HW261280   7.858   4.337   2.097  0.2338  0.3418 -0.7886
19655SOL     OW61281   4.816   0.573   6.251  0.1933 -0.4309 -0.6188
19655SOL    HW161282   4.809   0.656   6.299 -0.6115 -0.6747 -0.2953
19655SOL    HW261283   4.747   0.578   6.185  0.4815 -0.6290 -0.9352
19656SOL     OW61284   0.431   0.648   4.907  0.2373 -0.1551 -0.5726
19656SOL    HW161285   0.502   0.590   4.934 -0.2733 -0.4556  0.1681
19656SOL    HW261286   0.473   0.714   4.852  0.8506 -1.1902 -1.3980
19657SOL     OW61287   7.984   5.457   3.492 -0.5363  0.1438 -0.0912
19657SOL    HW161288   8.031   5.497   3.419  0.3022 -1.3411 -0.3953
19657SOL    HW261289   7.982   5.363   3.471 -0.0740 -0.3532  1.8989
19658SOL     OW61290   4.554   5.232   8.769  0.1429 -0.4439 -0.1442
19658SOL    HW161291   4.556   5.321   8.803  1.4264 -1.1669  1.8437
19658SOL    HW261292   4.631   5.226   8.713  0.8821 -0.6778  0.8630
19659SOL     OW61293   3.047   1.459   3.931  0.1187  0.7012  0.5273
19659SOL    HW161294   3.041   1.398   4.004 -2.5756  0.5660  0.2922
19659SOL    HW261295   3.120   1.517   3.954  0.5416 -0.4822  2.3887
19660SOL     OW61296   5.569  10.503   2.808 -0.3008 -0.1375 -0.1422
19660SOL    HW161297   5.620  10.445   2.751 -3.3600 -1.5277 -1.6844
19660SOL    HW261298   5.552  10.581   2.754 -0.6636 -0.1248 -0.0112
19661SOL     OW61299   3.684   5.553   9.391 -0.0601  0.4436  0.1951
19661SOL    HW161300   3.595   5.552   9.358 -0.4172  0.0807  1.1353
19661SOL    HW261301   3.702   5.645   9.411 -0.0701  0.5729 -0.3802
19662SOL     OW61302   5.385   2.273   7.359  0.2172 -0.2327 -0.2472
19662SOL    HW161303   5.468   2.238   7.392 -1.0694  0.2351  4.1274
19662SOL    HW261304   5.336   2.196   7.330  0.9310 -0.9316  0.3384
19663SOL     OW61305   9.479   3.485   7.590 -0.6672  0.7672 -0.6050
19663SOL    HW161306   9.544   3.439   7.537 -2.4151 -1.4349 -0.9976
19663SOL    HW261307   9.476   3.573   7.553  2.4216  1.1607 -0.2051
19664SOL     OW61308   0.773   3.609   5.486 -0.1431  0.2420  0.2602
19664SOL    HW161309   0.743   3.606   5.395 -1.0136  3.2062  0.3615
19664SOL    HW261310   0.694   3.613   5.538  0.3626 -0.9574  1.1694
19665SOL     OW61311   1.599   8.246   8.448 -0.1068 -0.4479  0.5020
19665SOL    HW161312   1.577   8.160   8.484 -0.9462 -0.6812 -0.5164
19665SOL    HW261313   1.602   8.304   8.524 -1.8322 -0.9283  0.9779
19666SOL     OW61314   1.450   5.671   0.994 -0.3735 -0.5516  0.0304
19666SOL    HW161315   1.366   5.706   1.026  0.0478 -0.0698  0.6218
19666SOL    HW261316   1.480   5.614   1.064  0.5089  0.4340  0.4866
19667SOL     OW61317   4.729   3.813   3.195  0.1154 -0.7085 -0.5998
19667SOL    HW161318   4.723   3.893   3.248 -1.6792 -1.7187  0.8507
19667SOL    HW261319   4.644   3.808   3.152  0.1002 -1.9769 -0.4449
19668SOL     OW61320   4.818   2.980   0.880  0.2214  0.0413  0.2486
19668SOL    HW161321   4.850   2.891   0.865  0.7094  0.3209 -0.4400
19668SOL    HW261322   4.881   3.018   0.942 -0.1261 -0.1662  0.7341
19669SOL     OW61323   5.558  10.471   8.401  0.1892 -0.8368 -0.2119
19669SOL    HW161324   5.464  10.468   8.418  0.1650 -0.2482 -0.2463
19669SOL    HW261325   5.572  10.402   8.336 -0.2168 -0.9260 -0.2087
19670SOL     OW61326   3.435   2.714   7.427 -0.6562  0.1399 -0.5564
19670SOL    HW161327   3.472   2.661   7.499 -1.4384 -1.2175 -1.1171
19670SOL    HW261328   3.341   2.712   7.442 -0.6946  1.7210 -0.3955
19671SOL     OW61329   8.915   9.366   6.771 -0.9320 -0.1246  0.0646
19671SOL    HW161330   8.966   9.288   6.750 -1.9259 -0.3242 -1.8705
19671SOL    HW261331   8.858   9.340   6.842 -1.1750 -1.1430 -0.4891
19672SOL     OW61332   5.571   2.902   9.601  0.5800  0.5434 -0.9356
19672SOL    HW161333   5.480   2.876   9.584  0.4334  0.2464  0.2038
19672SOL    HW261334   5.621   2.822   9.586  0.4554  0.2923 -0.0920
19673SOL     OW61335   7.294   6.652   6.488  0.6644  0.3223  0.5947
19673SOL    HW161336   7.384   6.662   6.457  1.1407  0.5460  1.9577
19673SOL    HW261337   7.264   6.569   6.451  1.4095  0.2674  0.0979
19674SOL     OW61338   4.206   7.806   9.343 -0.0348  0.1615 -0.0030
19674SOL    HW161339   4.156   7.727   9.364 -0.4327  0.2799 -0.4728
19674SOL    HW261340   4.220   7.849   9.427 -0.8182  0.1795  0.1274
19675SOL     OW61341  10.110   8.778   2.625 -0.0484 -0.5423  0.2453
19675SOL    HW161342  10.127   8.856   2.571 -1.2665 -0.3376  0.1168
19675SOL    HW261343  10.186   8.722   2.612 -0.6341 -0.8651 -2.3577
19676SOL     OW61344   2.933   2.620   9.498 -0.4637  0.1898  0.4148
19676SOL    HW161345   3.011   2.602   9.550 -0.5013  0.7836  0.6872
19676SOL    HW261346   2.962   2.683   9.432 -0.6842  0.3309  0.4517
19677SOL     OW61347   6.405   1.811   6.075 -0.2604  0.3408 -0.6733
19677SOL    HW161348   6.390   1.869   6.001 -0.5027 -0.5053 -1.3095
19677SOL    HW261349   6.445   1.733   6.037  0.1930  0.1462  0.1755
19678SOL     OW61350   4.733   2.236   3.175 -0.2227  0.7683 -0.4945
19678SOL    HW161351   4.659   2.196   3.220 -0.3684  1.8042  0.2213
19678SOL    HW261352   4.722   2.211   3.083 -0.4998 -0.5096 -0.1320
19679SOL     OW61353   8.024   3.922  10.420  0.9742 -0.1726  0.3000
19679SOL    HW161354   7.956   3.987  10.401  1.5951 -0.0700 -1.8649
19679SOL    HW261355   7.977   3.839  10.428  0.4175  0.1800  0.7597
19680SOL     OW61356   9.680   6.289   6.328  0.1315  0.5671  0.4923
19680SOL    HW161357   9.739   6.308   6.255  1.0401 -0.5197  0.9149
19680SOL    HW261358   9.599   6.259   6.286 -0.2028  2.1806 -0.0937
19681SOL     OW61359   4.012   6.406  10.070  0.3398  0.0479  0.0768
19681SOL    HW161360   4.099   6.379  10.042 -0.0044 -1.3378  0.2832
19681SOL    HW261361   4.011   6.390  10.164 -0.1882 -0.0569  0.0543
19682SOL     OW61362   2.207   4.411   5.187  0.2761  0.0865 -0.4271
19682SOL    HW161363   2.270   4.437   5.255  0.4385  2.6095 -1.4468
19682SOL    HW261364   2.126   4.395   5.235  0.9551 -0.4226  0.5941
19683SOL     OW61365   9.106   5.536   1.386 -0.0469  0.2746  0.3258
19683SOL    HW161366   9.025   5.534   1.437 -0.5250 -3.3036 -0.2546
19683SOL    HW261367   9.076   5.539   1.295  0.3768 -1.5190  0.0923
19684SOL     OW61368   4.462   8.689   5.242 -0.1271  0.1567  0.4628
19684SOL    HW161369   4.484   8.779   5.269  1.1386 -0.1494  0.4652
19684SOL    HW261370   4.521   8.634   5.293 -1.1404 -0.7156  0.7220
19685SOL     OW61371   0.484   7.027   9.549 -0.0117  0.0161  0.5024
19685SOL    HW161372   0.389   7.028   9.543 -0.2033  1.0357  2.7351
19685SOL    HW261373   0.502   6.979   9.630  1.2737  1.1945  0.9531
19686SOL     OW61374   1.248   4.022   6.216  0.0396  0.0111 -0.3027
19686SOL    HW161375   1.168   4.030   6.268  0.2676  1.3463 -0.1327
19686SOL    HW261376   1.231   4.072   6.136  0.7845  0.5202 -0.1545
19687SOL     OW61377   9.262   7.364   3.107  0.4587  1.1088  0.1371
19687SOL    HW161378   9.314   7.344   3.029  0.9982 -0.3377  0.8268
19687SOL    HW261379   9.176   7.389   3.073  1.1189  1.9685 -0.9599
19688SOL     OW61380   7.865   4.784   7.081  0.6183  0.2410  0.2175
19688SOL    HW161381   7.944   4.730   7.086  0.6914  0.2270 -0.8475
19688SOL    HW261382   7.795   4.728   7.115  1.3229  0.8954  3.0415
19689SOL     OW61383   5.239   7.462   6.377 -0.0254 -0.0617  0.0343
19689SOL    HW161384   5.161   7.433   6.424  1.1067 -0.8123  1.5127
19689SOL    HW261385   5.286   7.382   6.355 -0.0219  0.3377 -1.5340
19690SOL     OW61386  10.018   7.632   2.119  0.4658 -0.2797 -0.5257
19690SOL    HW161387   9.957   7.701   2.092  1.3407  1.8005  2.2339
19690SOL    HW261388  10.088   7.634   2.054 -0.3523  0.2651 -1.4089
19691SOL     OW61389  10.173   2.446  10.584  0.5359  0.4638 -0.7428
19691SOL    HW161390  10.191   2.352  10.583  0.5116  0.4485 -1.9563
19691SOL    HW261391  10.078   2.453  10.571  0.4272  0.6474  0.1076
19692SOL     OW61392   3.850   9.107   1.110 -0.0601  0.0581 -0.7221
19692SOL    HW161393   3.841   9.199   1.136  1.5768  0.7619 -2.3947
19692SOL    HW261394   3.798   9.099   1.030  1.7600  0.2732 -2.0097
19693SOL     OW61395   9.811   3.554   7.984 -0.5220 -0.3511 -0.0563
19693SOL    HW161396   9.822   3.465   7.951  2.4522  0.0092 -0.3217
19693SOL    HW261397   9.769   3.543   8.069  1.3614 -2.2011  0.7147
19694SOL     OW61398   6.144   7.546   7.319 -0.7415  0.2045 -0.4243
19694SOL    HW161399   6.220   7.492   7.341 -2.1263 -2.0958 -0.8923
19694SOL    HW261400   6.164   7.581   7.232  1.3063  2.7606  0.9470
19695SOL     OW61401   2.198   8.280   6.480  0.3623 -0.2483  0.1612
19695SOL    HW161402   2.193   8.231   6.562  1.5742  1.6866  1.4614
19695SOL    HW261403   2.286   8.317   6.478 -0.7734  2.7644 -0.1426
19696SOL     OW61404   5.431   0.755  10.254 -0.0846  0.2132 -0.6257
19696SOL    HW161405   5.510   0.809  10.262  0.6466 -0.5470 -2.3612
19696SOL    HW261406   5.360   0.818  10.241 -0.1221  1.0251  2.4927
19697SOL     OW61407   9.341   8.658   0.536 -0.0808 -0.1228 -0.0651
19697SOL    HW161408   9.323   8.743   0.495 -1.9355  0.4443  1.7745
19697SOL    HW261409   9.428   8.667   0.573 -0.4726  1.2194  0.6048
19698SOL     OW61410   9.755   8.061   1.826  0.5394  0.5345 -0.7614
19698SOL    HW161411   9.689   8.037   1.761 -0.3195 -0.2302  0.3674
19698SOL    HW261412   9.812   7.984   1.832  1.8609  1.3367 -2.0413
19699SOL     OW61413   9.542   3.103  10.365 -0.1735 -0.9867 -0.0964
19699SOL    HW161414   9.603   3.041  10.404 -0.5244 -1.3585 -0.1299
19699SOL    HW261415   9.584   3.129  10.283  0.4059 -0.4666  0.3571
19700SOL     OW61416   6.451   7.861   3.560 -0.3860  0.3088 -0.2788
19700SOL    HW161417   6.416   7.796   3.500 -0.3863  0.3660 -0.3411
19700SOL    HW261418   6.377   7.886   3.615 -0.0403 -0.8573  0.7602
19701SOL     OW61419   5.866   9.045   3.781 -0.3026 -0.3349 -0.1614
19701SOL    HW161420   5.867   9.071   3.873  0.2929 -0.4851 -0.1240
19701SOL    HW261421   5.954   9.063   3.749 -0.6684  0.2487 -0.8606
19702SOL     OW61422  10.427   3.432   7.214 -0.0580  0.1141 -0.0145
19702SOL    HW161423  10.410   3.382   7.135 -0.0674  1.4714 -0.9203
19702SOL    HW261424  10.378   3.514   7.201  0.0470  0.4077  1.3368
19703SOL     OW61425   3.740   0.108   4.677 -0.1022 -0.4622  0.1632
19703SOL    HW161426   3.751   0.035   4.616 -0.0351 -0.1433 -0.2104
19703SOL    HW261427   3.812   0.168   4.656 -1.1323  0.5259 -0.7146
19704SOL     OW61428   3.170   1.520   8.460 -0.3311  1.1044 -0.4098
19704SOL    HW161429   3.183   1.578   8.385  2.0089  0.1294 -0.8530
19704SOL    HW261430   3.258   1.488   8.481 -1.0672  0.4480  2.0515
19705SOL     OW61431   3.916   5.073   6.649  0.3683 -0.4141 -0.0376
19705SOL    HW161432   4.005   5.048   6.623 -0.1480 -1.5966 -0.7332
19705SOL    HW261433   3.921   5.079   6.745  0.9390 -1.5713  0.0254
19706SOL     OW61434   5.245   7.382   4.253  0.0737  0.6819 -0.0212
19706SOL    HW161435   5.246   7.476   4.273 -0.7671  0.8158 -0.5414
19706SOL    HW261436   5.235   7.378   4.158 -0.1188  0.0647  0.0200
19707SOL     OW61437   9.398  10.287   9.983  0.1786 -0.2660 -0.1903
19707SOL    HW161438   9.388  10.239  10.065  0.2969 -1.9311 -1.0972
19707SOL    HW261439   9.491  10.280   9.963  0.1171 -0.0235 -0.5685
19708SOL     OW61440   1.599   5.573   7.605  0.8445 -0.0902 -0.5742
19708SOL    HW161441   1.571   5.664   7.596  1.3350  0.2017  0.6212
19708SOL    HW261442   1.658   5.574   7.680  0.9167 -1.3870 -0.5950
19709SOL     OW61443   6.552   8.766   7.415  0.0281  0.3236 -0.0190
19709SOL    HW161444   6.537   8.783   7.508  0.3844  1.3291 -0.1323
19709SOL    HW261445   6.577   8.851   7.379 -0.6756  0.0621 -1.1546
19710SOL     OW61446   7.971   1.035   0.032  0.3548 -0.6238 -0.1084
19710SOL    HW161447   7.877   1.046   0.041  0.5297  0.4074  0.6164
19710SOL    HW261448   7.987   1.040  -0.062 -0.2986 -0.7289 -0.2316
19711SOL     OW61449   0.326   3.311   6.214 -0.0006 -0.0221  0.4688
19711SOL    HW161450   0.359   3.224   6.194  1.3146  0.2215  1.4922
19711SOL    HW261451   0.307   3.349   6.128  1.1801 -0.6506 -0.0988
19712SOL     OW61452   1.209   2.750   9.764 -0.4370  0.6038  0.0219
19712SOL    HW161453   1.138   2.734   9.701  0.2743 -0.3806 -0.5548
19712SOL    HW261454   1.219   2.666   9.810 -0.2629  1.0136  0.7439
19713SOL     OW61455   1.482   1.099   2.712 -0.2693  0.2494 -0.3527
19713SOL    HW161456   1.546   1.061   2.773  0.1870  0.9480 -0.3902
19713SOL    HW261457   1.515   1.187   2.694 -1.2407  0.6124 -0.3848
19714SOL     OW61458   7.784   6.677   8.464  0.1214  0.4264  0.7407
19714SOL    HW161459   7.824   6.591   8.454 -0.9386 -0.1831  1.5780
19714SOL    HW261460   7.856   6.734   8.491  0.5306 -0.5429  1.7771
19715SOL     OW61461   5.446   2.696   2.283  0.6323  0.3761 -0.2536
19715SOL    HW161462   5.454   2.726   2.193 -1.4743  1.0168 -0.2842
19715SOL    HW261463   5.359   2.655   2.287  0.1466  1.4600  1.7697
19716SOL     OW61464   0.115   3.954   3.498  0.2798  0.3285  0.1493
19716SOL    HW161465   0.086   3.881   3.443  0.9475  0.3680 -0.2683
19716SOL    HW261466   0.038   4.009   3.506 -0.7793 -1.2938  1.9603
19717SOL     OW61467   9.152  10.122   6.080  0.3852 -0.6614 -0.5021
19717SOL    HW161468   9.058  10.138   6.081  0.5621  0.3894  0.0251
19717SOL    HW261469   9.166  10.068   6.001 -0.5319 -0.0588 -1.0939
19718SOL     OW61470   0.702   2.161   2.783  0.0073  0.0384  0.4208
19718SOL    HW161471   0.625   2.207   2.751  0.8891  2.5292  1.6332
19718SOL    HW261472   0.717   2.091   2.719 -1.8035  1.0294 -1.1642
19719SOL     OW61473  10.072   0.453   0.848 -0.0633  0.0409  0.8384
19719SOL    HW161474  10.034   0.533   0.885 -0.2646  0.2689  0.1568
19719SOL    HW261475   9.997   0.396   0.832 -0.4805  1.2850 -2.4705
19720SOL     OW61476   2.328  10.589   2.390  0.1807 -0.2341 -0.1741
19720SOL    HW161477   2.358  10.523   2.452 -3.2817 -0.0095  2.0098
19720SOL    HW261478   2.317  10.668   2.442  0.7524  1.0781 -1.9459
19721SOL     OW61479   6.924   2.474   7.198  0.2525  0.2337 -0.0715
19721SOL    HW161480   6.873   2.420   7.138 -0.2187  0.9789 -0.3571
19721SOL    HW261481   6.973   2.411   7.251 -2.4122 -0.6739  1.5624
19722SOL     OW61482   4.160   8.121   0.392  0.3821  0.2271  0.0885
19722SOL    HW161483   4.071   8.154   0.378  0.2583 -0.5558 -1.0956
19722SOL    HW261484   4.152   8.061   0.467  0.1824  1.1376  0.8146
19723SOL     OW61485  10.168   6.249   8.126 -0.0416 -0.4156 -0.1812
19723SOL    HW161486  10.084   6.239   8.169  0.7929 -1.8405  1.2010
19723SOL    HW261487  10.207   6.162   8.126  1.9906  0.4233  0.4184
19724SOL     OW61488   3.068  10.344   7.796 -0.6312  0.0210  0.1154
19724SOL    HW161489   3.063  10.423   7.742 -1.0992 -0.5400 -0.6860
19724SOL    HW261490   3.147  10.356   7.849 -0.9333  1.2201  0.3334
19725SOL     OW61491   1.303   1.614   2.385  0.1062  0.4883  0.0185
19725SOL    HW161492   1.336   1.663   2.460 -1.2650  0.3200  0.7656
19725SOL    HW261493   1.374   1.555   2.361  0.2243 -0.1662  1.8235
19726SOL     OW61494   9.672   2.681   2.506 -0.4718 -0.2028  0.4310
19726SOL    HW161495   9.674   2.735   2.427 -1.1116 -0.2694  0.3566
19726SOL    HW261496   9.714   2.599   2.480  1.3074  0.5582  0.7996
19727SOL     OW61497   6.296   7.641   8.293  0.0627  0.3526 -0.2435
19727SOL    HW161498   6.369   7.682   8.246  1.0450  0.1005  1.0244
19727SOL    HW261499   6.225   7.640   8.229  1.0252  1.0032 -1.3722
19728SOL     OW61500   7.283   6.029   3.678 -0.2505  0.4433 -0.2678
19728SOL    HW161501   7.205   6.033   3.734 -0.7694  0.9064 -1.0017
19728SOL    HW261502   7.335   6.105   3.704  0.0663  0.0125  0.3731
19729SOL     OW61503   1.653   8.712   5.395 -0.6915  0.4359  0.4237
19729SOL    HW161504   1.579   8.772   5.384 -1.4081 -0.5827 -0.5735
19729SOL    HW261505   1.613   8.630   5.423 -0.0003 -0.2438 -0.5042
19730SOL     OW61506  10.230   3.429   9.483 -0.5742  0.2285 -0.1694
19730SOL    HW161507  10.309   3.414   9.536 -0.1701  0.8321 -0.5923
19730SOL    HW261508  10.261   3.478   9.407 -1.3498  0.4010 -0.3787
19731SOL     OW61509   0.500   5.856   5.550  0.7723  0.4304 -0.6360
19731SOL    HW161510   0.440   5.929   5.567  1.3249  1.1366 -1.6210
19731SOL    HW261511   0.543   5.841   5.633  0.7088  1.2958 -0.4335
19732SOL     OW61512   4.981   5.425   7.279  0.3334  0.0071 -0.6349
19732SOL    HW161513   5.043   5.488   7.243  0.1236  1.2326  1.0143
19732SOL    HW261514   4.908   5.424   7.217  1.6457 -0.9464 -2.2463
19733SOL     OW61515   9.097   4.897   0.551 -0.0828  0.2996 -0.2028
19733SOL    HW161516   9.005   4.916   0.534 -0.1746 -0.7756 -0.9728
19733SOL    HW261517   9.140   4.983   0.545 -0.8322  0.6265 -1.1865
19734SOL     OW61518   8.775   8.777   5.504  0.3591  0.3048  0.1334
19734SOL    HW161519   8.699   8.719   5.508  0.2421  0.4670  0.3410
19734SOL    HW261520   8.794   8.786   5.411  1.0668 -0.9378  0.1448
19735SOL     OW61521   3.655   9.848   6.211  0.6872 -0.1119  0.1810
19735SOL    HW161522   3.719   9.878   6.276 -0.3823 -1.0044  1.7277
19735SOL    HW261523   3.612   9.774   6.254 -1.6793  0.7269 -0.6131
19736SOL     OW61524   4.199   0.578   3.411  0.7395 -0.3819 -0.4289
19736SOL    HW161525   4.283   0.531   3.412  0.6394 -0.5628  0.6382
19736SOL    HW261526   4.225   0.671   3.414  0.9173 -0.4380 -0.0176
19737SOL     OW61527   8.132   5.579   5.858  0.4608  0.3568  0.2347
19737SOL    HW161528   8.131   5.608   5.767  0.4571  0.6423  0.3238
19737SOL    HW261529   8.147   5.484   5.854 -1.2873  0.0753 -0.1242
19738SOL     OW61530   0.989   3.807   5.344 -0.0423 -0.3073 -0.6685
19738SOL    HW161531   0.936   3.778   5.269  1.1406 -3.0180 -0.5897
19738SOL    HW261532   0.929   3.857   5.398 -2.4049 -2.6279 -0.9204
19739SOL     OW61533   6.829   4.307   4.615  0.0429  0.3464  0.0380
19739SOL    HW161534   6.833   4.212   4.602  0.0125 -0.2879  3.7888
19739SOL    HW261535   6.921   4.335   4.618  0.1080  0.9730 -3.2837
19740SOL     OW61536   7.982   8.340   3.188 -0.4203  0.2455  0.1600
19740SOL    HW161537   8.003   8.327   3.280 -4.5012  2.2681  1.6050
19740SOL    HW261538   7.945   8.257   3.159  1.6322 -0.6652 -0.0008
19741SOL     OW61539   6.458  10.432   7.760 -0.1755 -0.0481  0.1332
19741SOL    HW161540   6.535  10.388   7.725  0.9364  0.2493  2.0707
19741SOL    HW261541   6.385  10.399   7.707  0.9779 -1.9899 -0.3454
19742SOL     OW61542   4.430   1.451  10.398  0.4657  0.3728  0.0031
19742SOL    HW161543   4.500   1.408  10.349 -0.4518 -0.3802 -0.6865
19742SOL    HW261544   4.428   1.404  10.482  0.7658  0.3799  0.0156
19743SOL     OW61545   4.309   6.356   5.636 -0.2410  0.2328  0.3950
19743SOL    HW161546   4.249   6.298   5.682 -0.2293 -0.4474 -0.4240
19743SOL    HW261547   4.315   6.320   5.547 -0.1642  1.4397 -0.1155
19744SOL     OW61548   8.630   7.933   1.442 -0.4690  0.0612 -0.7205
19744SOL    HW161549   8.695   7.969   1.382  0.1570  0.5973  0.2500
19744SOL    HW261550   8.555   7.992   1.435  0.8900  2.2718  1.5567
19745SOL     OW61551   4.902   6.918   4.847  0.4600 -0.3060 -0.2407
19745SOL    HW161552   4.895   6.892   4.755  1.6356 -0.4897 -0.3051
19745SOL    HW261553   4.840   6.862   4.893  0.9258 -1.2616 -0.7483
19746SOL     OW61554   3.208   2.213   8.279 -0.6203  0.1549 -0.1848
19746SOL    HW161555   3.174   2.152   8.344 -0.8074  0.7154  0.2507
19746SOL    HW261556   3.130   2.259   8.247 -0.6365 -0.6414 -1.3757
19747SOL     OW61557   1.197   5.739   9.887 -0.0357 -0.3734 -0.1754
19747SOL    HW161558   1.169   5.773   9.972  1.5675  0.4359  0.0669
19747SOL    HW261559   1.245   5.659   9.909  1.3307  0.4164 -0.1837
19748SOL     OW61560   5.514   2.263   4.753  0.0201  0.0199  0.4161
19748SOL    HW161561   5.490   2.183   4.706 -0.7423  0.1611  0.5506
19748SOL    HW261562   5.431   2.296   4.789  0.2548  1.1040  0.0055
19749SOL     OW61563   0.074   2.171   4.340 -0.2028 -0.3273 -0.2019
19749SOL    HW161564   0.154   2.146   4.293  0.3741 -0.6546  0.9038
19749SOL    HW261565   0.029   2.088   4.356  0.8262 -0.5691  1.9050
19750SOL     OW61566   8.137   3.097   0.763  0.4299 -0.7925 -0.5523
19750SOL    HW161567   8.210   3.130   0.711 -0.5546  0.1098 -1.4181
19750SOL    HW261568   8.109   3.017   0.717  1.0408 -1.3107 -0.0463
19751SOL     OW61569   9.747   1.667   0.592 -0.3779  0.1222  0.0229
19751SOL    HW161570   9.681   1.669   0.661 -0.8057  0.5927 -0.3943
19751SOL    HW261571   9.827   1.640   0.636 -0.4482  1.2213  0.8623
19752SOL     OW61572   4.525   7.166   5.552 -0.1785 -0.1982 -0.9271
19752SOL    HW161573   4.463   7.116   5.606  0.3382 -0.3278 -0.4454
19752SOL    HW261574   4.577   7.216   5.616  0.3902 -0.2943 -1.3128
19753SOL     OW61575   4.687   3.633   1.943  0.5186  0.2337  0.4900
19753SOL    HW161576   4.625   3.607   2.012  1.0334  0.3454  0.9959
19753SOL    HW261577   4.677   3.565   1.876  1.1069 -0.7186  1.3427
19754SOL     OW61578   4.438   9.177   3.564 -0.2755 -0.2781  0.4373
19754SOL    HW161579   4.488   9.147   3.639 -1.5584 -2.0165  0.6552
19754SOL    HW261580   4.456   9.112   3.495 -0.7322  0.1165 -0.0698
19755SOL     OW61581   1.558   9.273   5.980  0.4163 -0.5592  0.2293
19755SOL    HW161582   1.505   9.339   5.935 -0.0195 -0.9966  0.0971
19755SOL    HW261583   1.648   9.303   5.969  0.2112  0.0982  0.3066
19756SOL     OW61584   6.977   3.094   8.670 -0.0104  0.1715  0.5946
19756SOL    HW161585   6.950   3.171   8.720 -0.2389 -1.4260  3.0986
19756SOL    HW261586   7.064   3.074   8.702  0.0444 -0.6159 -0.0243
19757SOL     OW61587   1.658   8.011   2.905 -0.4236  0.1732  0.5005
19757SOL    HW161588   1.583   8.022   2.963 -0.4115 -2.0164  1.0033
19757SOL    HW261589   1.710   7.942   2.946  0.8260  0.2508 -0.8816
19758SOL     OW61590   4.881   6.520   4.621 -0.1010  0.2150 -0.1766
19758SOL    HW161591   4.902   6.488   4.709  1.4443  0.9111 -0.2665
19758SOL    HW261592   4.889   6.444   4.565 -1.9001 -0.4267  0.3611
19759SOL     OW61593   0.004   3.231   5.584  0.0708  0.5423  0.0694
19759SOL    HW161594  -0.022   3.227   5.492 -0.2904 -0.4290  0.2059
19759SOL    HW261595  -0.077   3.218   5.633  0.1723  1.6120  0.5366
19760SOL     OW61596   7.072   8.367   7.527 -0.1867  0.3157 -0.4205
19760SOL    HW161597   7.019   8.290   7.549  1.0426 -0.0993  1.3664
19760SOL    HW261598   7.011   8.441   7.532 -1.1188 -0.4091 -0.9508
19761SOL     OW61599   7.159   1.412   5.042 -0.0744  0.6958 -0.1862
19761SOL    HW161600   7.145   1.506   5.049 -0.5240  0.6477 -0.3851
19761SOL    HW261601   7.071   1.375   5.037  0.0982  0.3832 -1.4657
19762SOL     OW61602   7.887  10.145   9.350 -0.5727  0.1786  0.0638
19762SOL    HW161603   7.791  10.148   9.357 -0.5935  0.1154 -0.1950
19762SOL    HW261604   7.913  10.237   9.345 -0.5477  0.2356  1.0984
19763SOL     OW61605   3.148   4.601   6.402 -0.6145  0.3013  0.1894
19763SOL    HW161606   3.172   4.526   6.456  0.2318 -0.2400 -0.8981
19763SOL    HW261607   3.066   4.575   6.360 -0.1290 -0.1757 -0.4733
19764SOL     OW61608   8.968   9.773   8.837  0.5859  0.1809 -0.3807
19764SOL    HW161609   8.922   9.791   8.919  0.6471 -1.1034 -0.0387
19764SOL    HW261610   9.059   9.758   8.863  0.8789  1.0797 -0.8548
19765SOL     OW61611   8.939  10.357   9.545  0.4061 -0.0886 -0.2088
19765SOL    HW161612   8.852  10.380   9.578  0.3072 -0.1437 -0.4290
19765SOL    HW261613   8.993  10.347   9.623  0.8319  2.3501 -0.0896
19766SOL     OW61614   4.962   9.391   1.146  0.1676 -0.2557 -0.4147
19766SOL    HW161615   4.875   9.357   1.165 -0.3059  0.9470 -0.2926
19766SOL    HW261616   5.017   9.357   1.216 -0.7574  1.0173  0.9957
19767SOL     OW61617   2.984   4.819   3.881 -0.3665  0.5270 -0.2089
19767SOL    HW161618   2.911   4.760   3.864  0.1706 -0.0737 -0.4983
19767SOL    HW261619   3.040   4.772   3.943 -0.2992  1.0423  0.1279
19768SOL     OW61620   9.938  10.523   6.978 -0.5849  0.3999  0.5878
19768SOL    HW161621   9.908  10.571   7.055  1.1865 -0.2138  1.7049
19768SOL    HW261622   9.904  10.434   6.990 -0.8502  0.4668  0.3329
19769SOL     OW61623   0.830   2.807   4.685 -0.3253  0.0877  0.6515
19769SOL    HW161624   0.765   2.793   4.754 -0.5722  2.4281  0.9570
19769SOL    HW261625   0.891   2.871   4.722  0.9064 -0.3968 -0.4579
19770SOL     OW61626   7.274   9.716   8.136 -0.2719 -0.3010 -0.9658
19770SOL    HW161627   7.360   9.755   8.151 -1.1716  1.2260  0.5707
19770SOL    HW261628   7.245   9.755   8.053  0.2056 -0.2628 -1.1199
19771SOL     OW61629   7.441   9.003   8.275 -0.0815 -0.0426  0.0549
19771SOL    HW161630   7.404   9.031   8.192 -0.0244  0.0124  0.0483
19771SOL    HW261631   7.535   9.020   8.267 -0.0789 -0.0153  0.1388
19772SOL     OW61632   7.046   2.615   1.443  0.0487 -0.4190  0.5826
19772SOL    HW161633   7.111   2.646   1.506 -1.7200 -0.7348  2.6508
19772SOL    HW261634   7.089   2.540   1.401  2.9360  2.3644 -1.8768
19773SOL     OW61635   6.777   5.056   1.104 -0.3501  0.0376 -0.3336
19773SOL    HW161636   6.783   4.978   1.050 -0.5396  1.2991 -2.2603
19773SOL    HW261637   6.698   5.044   1.156 -1.2358 -0.4047 -1.7290
19774SOL     OW61638   3.576   8.574   8.937 -0.6358 -0.0052 -0.6587
19774SOL    HW161639   3.515   8.501   8.944  0.7176 -1.1025  0.0641
19774SOL    HW261640   3.549   8.634   9.008  0.1629 -1.3131  0.8128
19775SOL     OW61641   5.280  10.301   3.450  0.9185 -0.0892  0.3739
19775SOL    HW161642   5.272  10.332   3.540 -3.0092  1.0197 -0.1753
19775SOL    HW261643   5.206  10.240   3.440  0.7655  0.4434 -2.3000
19776SOL     OW61644   2.805   9.116   2.724  0.1376 -0.2405 -0.1493
19776SOL    HW161645   2.739   9.121   2.655 -0.2207  0.9036  0.2747
19776SOL    HW261646   2.757   9.088   2.802  0.6612 -2.2508 -0.4825
19777SOL     OW61647  10.536   4.089  10.408  0.0176 -0.2660  0.1857
19777SOL    HW161648  10.548   4.002  10.369  0.3393 -0.2641  0.2781
19777SOL    HW261649  10.471   4.075  10.476 -4.5682  0.6330 -3.5121
19778SOL     OW61650   2.646   9.986   8.260  0.9442  0.3923 -0.3426
19778SOL    HW161651   2.625   9.961   8.350  0.6584  0.9823 -0.2397
19778SOL    HW261652   2.710  10.056   8.269  0.9784  0.3959 -0.5999
19779SOL     OW61653   9.082   1.164   6.202 -0.2329 -0.4274 -0.2816
19779SOL    HW161654   9.092   1.255   6.174 -1.1133  0.2085  1.3124
19779SOL    HW261655   9.169   1.138   6.231 -0.2624  0.4088  0.5971
19780SOL     OW61656   5.945   8.905   5.115  0.4458 -0.2983 -0.8503
19780SOL    HW161657   5.991   8.866   5.190 -3.3496 -2.5109  0.6166
19780SOL    HW261658   5.903   8.983   5.152 -1.8461 -1.6680 -0.3761
19781SOL     OW61659   9.538   9.743   5.003 -0.0350  0.6741 -0.6338
19781SOL    HW161660   9.459   9.711   5.048 -0.6090  1.3230 -1.1453
19781SOL    HW261661   9.506   9.773   4.918  0.9013  0.2197 -1.1539
19782SOL     OW61662   6.870   6.425   1.458  0.2053  0.9909  0.1627
19782SOL    HW161663   6.937   6.357   1.449 -1.1650 -0.5716  0.9735
19782SOL    HW261664   6.894   6.491   1.394  1.4778 -0.3885 -0.8716
19783SOL     OW61665   5.413   5.737   4.874 -0.1552 -0.5324  0.3716
19783SOL    HW161666   5.463   5.776   4.946 -1.4949  2.0452 -0.0003
19783SOL    HW261667   5.325   5.727   4.909 -0.5311 -0.4373 -0.5252
19784SOL     OW61668   9.075   4.935   9.350 -0.2574 -0.3661  0.2593
19784SOL    HW161669   9.050   4.859   9.298 -2.2529 -0.0109  0.6125
19784SOL    HW261670   9.111   4.898   9.431  1.1390 -0.9097 -0.5915
19785SOL     OW61671   9.153   6.095   3.011  0.0702  0.6404  0.1177
19785SOL    HW161672   9.113   6.062   3.091 -0.5034 -0.9322 -0.7741
19785SOL    HW261673   9.210   6.024   2.981 -0.4399  0.8041 -1.3439
19786SOL     OW61674   5.906   1.730   9.195 -0.4294  0.6440  0.3799
19786SOL    HW161675   5.930   1.817   9.227 -1.6411  1.5407 -1.0065
19786SOL    HW261676   5.946   1.670   9.257 -2.3598  2.2402  3.3967
19787SOL     OW61677   3.096   5.803  10.129  0.0373 -0.5402  0.0195
19787SOL    HW161678   3.141   5.796  10.213 -0.9229 -1.7363  0.4649
19787SOL    HW261679   3.139   5.738  10.074  1.2708  0.8549 -0.7490
19788SOL     OW61680   2.915   9.974   8.627  0.3038  0.0605 -0.5267
19788SOL    HW161681   2.905   9.962   8.721  0.1364  2.2153 -0.2074
19788SOL    HW261682   2.887   9.891   8.588 -1.4734 -0.2268  1.2320
19789SOL     OW61683   6.619   3.643   6.008  0.8973  0.2268  0.0875
19789SOL    HW161684   6.630   3.552   5.981  0.3941  0.7021 -1.8599
19789SOL    HW261685   6.525   3.660   5.999  0.6199  0.3935  2.4723
19790SOL     OW61686   7.193   9.896   7.891  0.1583 -0.2566  0.5152
19790SOL    HW161687   7.247   9.958   7.843  1.1983 -0.3223  1.5605
19790SOL    HW261688   7.114   9.945   7.913 -0.0029 -0.0002 -0.5736
19791SOL     OW61689   1.813   7.183   3.488  0.0857  0.3958 -1.2371
19791SOL    HW161690   1.804   7.088   3.477  0.1045  0.4329 -1.5943
19791SOL    HW261691   1.863   7.193   3.569 -1.3524  0.1530 -0.2989
19792SOL     OW61692   8.026   3.573   8.067  0.1627  0.2331 -0.7812
19792SOL    HW161693   8.064   3.566   8.154  0.2423  0.8908 -0.7585
19792SOL    HW261694   7.955   3.636   8.076 -0.5184 -0.4875 -0.9711
19793SOL     OW61695   7.148   6.320   5.972 -0.4540 -0.0953  0.3616
19793SOL    HW161696   7.242   6.301   5.980  0.6917  3.7303 -1.7048
19793SOL    HW261697   7.132   6.322   5.878 -3.1552 -2.2963  0.6371
19794SOL     OW61698   3.015   3.787   9.970 -0.1807 -0.0731 -0.3020
19794SOL    HW161699   3.073   3.857   9.941  0.1882 -0.1804  0.1681
19794SOL    HW261700   2.949   3.831  10.023  0.0045 -0.0704 -0.0736
19795SOL     OW61701   8.071   3.873   4.437  0.0277 -0.0903 -0.1311
19795SOL    HW161702   8.157   3.916   4.433  0.7907 -1.4131  0.9218
19795SOL    HW261703   8.063   3.847   4.529 -2.3138  1.5242  0.2055
19796SOL     OW61704   2.797   1.499   7.793 -0.0900  0.5425  0.9116
19796SOL    HW161705   2.787   1.404   7.786  1.0362  0.5276 -1.5961
19796SOL    HW261706   2.871   1.510   7.853  0.4973 -0.2337  0.3611
19797SOL     OW61707   4.979   8.205   7.334 -0.2776 -0.5674 -0.5071
19797SOL    HW161708   4.894   8.164   7.352 -0.6432  0.8868  1.4641
19797SOL    HW261709   4.957   8.294   7.307  0.5587  0.5726  2.1934
19798SOL     OW61710   4.772   0.903   0.453 -0.7370 -0.0427 -0.4414
19798SOL    HW161711   4.859   0.925   0.420 -0.5333 -0.9489 -0.5159
19798SOL    HW261712   4.788   0.854   0.533 -1.2185  1.8386  0.8876
19799SOL     OW61713   3.775   1.444   2.512  0.3033 -0.3543  0.1405
19799SOL    HW161714   3.831   1.403   2.446  0.8580 -1.0118  1.0074
19799SOL    HW261715   3.697   1.470   2.463  0.4787 -1.2927 -0.6836
19800SOL     OW61716   5.138   9.153   6.698  0.2736  0.5759 -0.0931
19800SOL    HW161717   5.153   9.065   6.733  0.7748  0.4809 -0.5203
19800SOL    HW261718   5.226   9.189   6.688  0.0414  1.4869  0.9575
19801SOL     OW61719   2.124   2.921   9.297 -0.1448 -0.1201 -0.2863
19801SOL    HW161720   2.108   2.859   9.368 -1.4519  1.1755  0.6006
19801SOL    HW261721   2.189   2.982   9.333  0.0847 -0.1460 -0.6478
19802SOL     OW61722   1.553  10.008   4.273  0.1029 -0.0517  0.0707
19802SOL    HW161723   1.462  10.020   4.242  0.5327 -0.5988 -1.5296
19802SOL    HW261724   1.581  10.096   4.299 -0.5847  0.3061 -0.3421
19803SOL     OW61725  10.145   9.117   3.115 -0.2542  0.5290 -0.4619
19803SOL    HW161726  10.117   9.207   3.134  1.7643  1.1848 -0.3492
19803SOL    HW261727  10.217   9.127   3.053  1.0534 -0.8859  0.7269
19804SOL     OW61728   1.256   1.026   9.616 -0.0368  0.5999  0.0101
19804SOL    HW161729   1.246   1.072   9.699 -1.1695  0.7786 -0.2151
19804SOL    HW261730   1.349   1.001   9.614 -0.0987  0.0919  1.5852
19805SOL     OW61731   4.234  10.307   4.130  0.5056  0.3251 -0.1159
19805SOL    HW161732   4.171  10.243   4.163  0.7048  0.4021  0.4239
19805SOL    HW261733   4.207  10.390   4.169  0.1290  0.6140 -0.9692
19806SOL     OW61734   6.932   8.837   1.785 -0.1221  0.3301 -0.2569
19806SOL    HW161735   7.007   8.835   1.843 -0.2913  1.0131 -0.0027
19806SOL    HW261736   6.858   8.812   1.841 -0.0213 -0.8375 -0.6236
19807SOL     OW61737   2.616   7.230   1.497 -0.1755  0.3877  0.6088
19807SOL    HW161738   2.643   7.294   1.431 -0.6863  0.0812  0.0941
19807SOL    HW261739   2.521   7.226   1.489 -0.0377 -1.8740 -0.7354
19808SOL     OW61740   9.956   9.895   6.750  0.5919 -0.6390 -0.2855
19808SOL    HW161741   9.992   9.810   6.723  0.8422 -0.4443 -0.5752
19808SOL    HW261742   9.863   9.878   6.764  0.9138 -1.3422  1.2390
19809SOL     OW61743   0.482   2.639   6.486  0.1989 -0.4074  0.2548
19809SOL    HW161744   0.448   2.691   6.413  1.8745  0.0048 -0.2811
19809SOL    HW261745   0.456   2.688   6.564  0.9906  0.7799 -0.2039
19810SOL     OW61746   3.102   1.211   5.869 -0.1874  0.0221  0.2920
19810SOL    HW161747   3.046   1.284   5.893 -0.4379 -0.6703  1.9574
19810SOL    HW261748   3.053   1.133   5.894  1.3492 -0.6136  1.5171
19811SOL     OW61749   3.910   4.074   7.522 -0.1086 -0.3980  0.4537
19811SOL    HW161750   3.989   4.089   7.575 -0.0003 -0.3310  0.2751
19811SOL    HW261751   3.903   4.152   7.467 -0.7920 -0.0033  1.0794
19812SOL     OW61752   1.331   6.020   7.156  0.1404 -0.3984  0.3315
19812SOL    HW161753   1.285   6.103   7.153 -0.1688 -0.5984 -0.9168
19812SOL    HW261754   1.408   6.037   7.211 -0.8059  0.2341  1.5003
19813SOL     OW61755   5.330   6.303   7.044  0.0609  0.7202  0.8139
19813SOL    HW161756   5.339   6.209   7.025 -0.7132  0.7101  0.4725
19813SOL    HW261757   5.412   6.341   7.013  1.1912 -0.0825  2.6131
19814SOL     OW61758   4.541   4.892   7.355 -0.4419  0.5064 -0.0710
19814SOL    HW161759   4.446   4.891   7.349 -0.5362  0.7400  1.1137
19814SOL    HW261760   4.561   4.968   7.410  0.2483 -0.9994  1.9337
19815SOL     OW61761   6.714   9.378   6.638  0.2518  0.1834  0.4450
19815SOL    HW161762   6.703   9.286   6.613  2.7173 -0.4580  1.4508
19815SOL    HW261763   6.673   9.427   6.567  1.4578 -1.6671 -1.6604
19816SOL     OW61764   8.426   9.442   4.936 -0.0638  0.6484 -0.1922
19816SOL    HW161765   8.435   9.478   5.024 -1.0224  0.6657 -0.0922
19816SOL    HW261766   8.335   9.458   4.912 -0.0132 -0.0293 -0.8891
19817SOL     OW61767   5.576   5.140   9.046 -0.3939  0.0703 -0.4275
19817SOL    HW161768   5.514   5.156   9.118 -0.1325  0.5088 -0.2957
19817SOL    HW261769   5.638   5.077   9.082 -1.9844 -2.1240 -1.2640
19818SOL     OW61770   7.998   8.328   0.819  0.0126 -0.4907  0.3920
19818SOL    HW161771   8.030   8.276   0.893 -0.1974 -0.6699  0.3546
19818SOL    HW261772   8.046   8.294   0.743  0.0193 -0.4979  0.3995
19819SOL     OW61773   6.434   4.225   8.716  0.2062 -0.5866  0.2802
19819SOL    HW161774   6.500   4.204   8.651  1.1397 -0.3393  1.1243
19819SOL    HW261775   6.379   4.147   8.721  0.0671 -0.5740 -0.8463
19820SOL     OW61776  10.173   6.224   2.910  0.1581  0.1182 -0.6742
19820SOL    HW161777  10.085   6.189   2.903 -0.3201  1.0843  0.2708
19820SOL    HW261778  10.218   6.165   2.970  0.0844 -0.2256 -0.9549
19821SOL     OW61779   1.871   6.980   2.625 -0.1178 -0.0083 -0.0594
19821SOL    HW161780   1.907   7.051   2.678  0.0446  0.6904 -1.0838
19821SOL    HW261781   1.850   7.021   2.541 -0.4052 -1.0865 -0.5273
19822SOL     OW61782   4.271   2.233   8.276 -0.2086  0.0822 -0.1981
19822SOL    HW161783   4.283   2.269   8.363 -0.1627 -0.1874 -0.0907
19822SOL    HW261784   4.333   2.160   8.271 -0.1514  0.1504 -0.4852
19823SOL     OW61785   6.782   0.800   2.389 -0.2007  0.3756  0.2524
19823SOL    HW161786   6.719   0.833   2.325 -0.7340 -0.3893  0.3674
19823SOL    HW261787   6.807   0.877   2.440  0.6214  1.0977 -1.1800
19824SOL     OW61788   6.913  10.033   5.756  0.1270  0.6592  0.4116
19824SOL    HW161789   6.992  10.012   5.706 -0.8081 -1.0073 -0.4655
19824SOL    HW261790   6.907   9.964   5.822 -0.9920  0.2940 -0.0469
19825SOL     OW61791   2.481   2.200   2.315 -0.4229 -0.5247  0.3174
19825SOL    HW161792   2.448   2.284   2.346 -0.9760 -1.0156  1.0662
19825SOL    HW261793   2.566   2.190   2.358 -0.6933 -0.6944  0.8131
19826SOL     OW61794   8.821   9.869   0.378  0.1004 -0.0676  0.0793
19826SOL    HW161795   8.829   9.964   0.371  1.5719 -0.0326  1.4570
19826SOL    HW261796   8.909   9.840   0.405 -0.0573 -1.9222 -1.2016
19827SOL     OW61797   4.480   1.435   3.408 -0.4238  0.2814 -0.9468
19827SOL    HW161798   4.482   1.430   3.503  1.1435 -0.1536 -0.9692
19827SOL    HW261799   4.449   1.349   3.380  0.4327 -0.0703 -0.8416
19828SOL     OW61800   6.186   9.935   3.743 -1.0050  0.5578  0.3615
19828SOL    HW161801   6.262   9.973   3.787 -2.0593  0.9066  1.9496
19828SOL    HW261802   6.111   9.981   3.781 -2.0265  0.1718 -1.1213
19829SOL     OW61803   6.543   4.056   2.438 -0.3396  0.0407  0.0537
19829SOL    HW161804   6.557   4.047   2.344 -0.1281 -0.2641  0.1127
19829SOL    HW261805   6.610   4.118   2.467 -1.9087  2.0538 -0.3828
19830SOL     OW61806   9.884   0.152   2.591 -0.3765  0.2081  0.2642
19830SOL    HW161807   9.975   0.134   2.567 -1.0006 -2.8299 -0.3356
19830SOL    HW261808   9.835   0.142   2.509 -1.2437  2.2261  0.4959
19831SOL     OW61809   7.433   8.376   8.692  0.0504  0.0907  0.1719
19831SOL    HW161810   7.417   8.360   8.785  1.6657  0.2374  0.5043
19831SOL    HW261811   7.394   8.300   8.648 -1.7295  0.5675  0.8414
19832SOL     OW61812  10.154   1.860   9.175 -0.5760  0.1443  0.7880
19832SOL    HW161813  10.107   1.776   9.183 -0.5353  0.1307  0.8833
19832SOL    HW261814  10.229   1.851   9.234 -0.7497  0.3716  1.0435
19833SOL     OW61815   5.037   5.200   3.564  0.1969 -0.6030  0.1260
19833SOL    HW161816   5.078   5.279   3.530  0.9078 -1.1854 -0.3862
19833SOL    HW261817   4.956   5.190   3.513 -0.8317  0.7699  1.4136
19834SOL     OW61818   1.276   5.258   9.595 -0.0916 -0.0447  0.0053
19834SOL    HW161819   1.311   5.169   9.606  0.6092 -0.1705 -2.5654
19834SOL    HW261820   1.219   5.271   9.671  1.6542 -1.7511  1.7319
19835SOL     OW61821   5.118   2.944   0.815 -0.0024 -0.1525  0.8041
19835SOL    HW161822   5.132   3.018   0.756 -0.0752  1.0101  2.1816
19835SOL    HW261823   5.092   2.984   0.898  0.8447 -1.6753  1.8600
19836SOL     OW61824  10.167   5.315   9.852 -0.5061 -0.7985  0.1329
19836SOL    HW161825  10.121   5.390   9.889 -2.5380 -2.1475  0.5310
19836SOL    HW261826  10.222   5.352   9.783 -2.1679  0.9818 -0.3458
19837SOL     OW61827   4.024   7.618   5.472  0.2999  0.3854  0.0336
19837SOL    HW161828   4.112   7.633   5.439  0.4057  1.0637  0.6039
19837SOL    HW261829   4.035   7.609   5.566 -0.0686 -0.9713 -0.0223
19838SOL     OW61830   2.629   6.030   1.678 -0.7994  0.0902  0.0116
19838SOL    HW161831   2.671   5.958   1.631 -0.8724  0.3532 -0.4673
19838SOL    HW261832   2.557   5.989   1.726  0.0208 -0.3645  0.8655
19839SOL     OW61833   2.876   3.731   9.143 -0.5190  0.3152 -0.3182
19839SOL    HW161834   2.954   3.758   9.191 -1.0514  1.8028 -0.2440
19839SOL    HW261835   2.903   3.729   9.051 -0.4432  1.0347 -0.3144
19840SOL     OW61836   3.981   5.185   5.487  0.5946  0.1203  0.4107
19840SOL    HW161837   3.987   5.147   5.399  1.1476 -0.6900  0.7886
19840SOL    HW261838   4.055   5.245   5.492  0.1315  0.7315  0.0661
19841SOL     OW61839   5.795   1.481   1.332 -0.2681 -0.3003 -0.3872
19841SOL    HW161840   5.843   1.436   1.401  0.8002 -1.6126 -1.8890
19841SOL    HW261841   5.803   1.423   1.256  0.5337  2.0815 -2.2598
19842SOL     OW61842  10.353   5.813   8.499  0.4706  0.1529 -0.4922
19842SOL    HW161843  10.291   5.882   8.477 -1.5553 -1.8032 -1.2811
19842SOL    HW261844  10.334   5.790   8.589  0.1808 -0.3045 -0.6672
19843SOL     OW61845   6.367   3.593   7.128 -0.7754 -0.0042  0.4043
19843SOL    HW161846   6.461   3.596   7.147 -0.1322 -0.3842 -2.2376
19843SOL    HW261847   6.337   3.512   7.170  0.1978 -0.1440  0.8599
19844SOL     OW61848   1.791   9.033   5.380 -0.3576 -0.2651  0.5367
19844SOL    HW161849   1.727   9.043   5.310 -0.7335  1.1253  1.0481
19844SOL    HW261850   1.746   9.065   5.459  0.2428 -1.2752  1.3253
19845SOL     OW61851   1.921   0.537   2.341 -0.3163  0.4410 -0.2627
19845SOL    HW161852   1.858   0.592   2.387 -0.5664  0.5833 -0.7620
19845SOL    HW261853   1.867   0.474   2.294 -0.1962  1.4345 -1.8313
19846SOL     OW61854   8.905   5.091   0.224  0.2322 -0.1006  0.6333
19846SOL    HW161855   8.985   5.139   0.200  1.2251 -1.1388  1.7773
19846SOL    HW261856   8.899   5.021   0.159  0.0702  0.1641  0.3601
19847SOL     OW61857   7.700   9.870   2.919 -0.2925 -0.1867  0.0284
19847SOL    HW161858   7.647   9.949   2.933  0.3314  0.0015  1.5065
19847SOL    HW261859   7.637   9.799   2.926 -0.4783  0.0668  1.1770
19848SOL     OW61860   7.659   8.636   6.176  0.0777  0.0717  0.0800
19848SOL    HW161861   7.572   8.672   6.194  0.1229  0.1793  0.0844
19848SOL    HW261862   7.644   8.542   6.166 -0.1693  0.1890 -0.7532
19849SOL     OW61863   7.310   0.823   8.201  0.4348  0.1114 -0.1946
19849SOL    HW161864   7.263   0.792   8.279  1.1909 -1.0741 -0.1697
19849SOL    HW261865   7.265   0.902   8.175 -0.8131 -0.3320  0.5383
19850SOL     OW61866   6.129   7.758   5.876 -0.3832 -1.0727  0.2546
19850SOL    HW161867   6.201   7.821   5.884 -1.2981 -0.0682  0.8399
19850SOL    HW261868   6.128   7.734   5.783 -0.2155  0.0322 -0.0497
19851SOL     OW61869   4.859  10.287   5.914 -0.2686 -0.5019 -0.2237
19851SOL    HW161870   4.834  10.214   5.857  0.8004 -0.7697 -0.3769
19851SOL    HW261871   4.837  10.365   5.864 -2.0018 -0.6892  0.1942
19852SOL     OW61872   7.623   5.645   4.247  0.3692  0.1087 -0.1917
19852SOL    HW161873   7.535   5.654   4.284  0.4157 -0.6896  0.1454
19852SOL    HW261874   7.665   5.729   4.264 -1.2690  1.6152 -2.9610
19853SOL     OW61875   7.097   4.551   7.486 -0.5263 -0.0298  0.3984
19853SOL    HW161876   7.011   4.510   7.472 -1.7742  2.6745 -0.4754
19853SOL    HW261877   7.131   4.566   7.398 -0.1033  0.7802  0.6961
19854SOL     OW61878   2.421   4.254   6.370 -0.3039 -0.0803 -0.4947
19854SOL    HW161879   2.437   4.202   6.291 -0.2685 -1.5911  0.4664
19854SOL    HW261880   2.496   4.235   6.426 -0.7605  0.3081  0.2526
19855SOL     OW61881   9.562   6.025   5.851 -0.0878  0.8366 -0.3109
19855SOL    HW161882   9.616   6.102   5.834 -1.7771  1.8450 -1.4811
19855SOL    HW261883   9.614   5.952   5.818  2.1966  1.2104  2.1887
19856SOL     OW61884   7.540   3.137   5.252  0.4819  0.2368 -0.6056
19856SOL    HW161885   7.471   3.201   5.238 -0.9700 -1.6166 -2.5654
19856SOL    HW261886   7.611   3.165   5.195 -0.0975  0.2128 -1.3579
19857SOL     OW61887   8.108   3.772  10.183 -0.4476  0.3254 -0.2096
19857SOL    HW161888   8.024   3.816  10.173 -0.5329  0.1027 -0.4902
19857SOL    HW261889   8.172   3.844  10.185 -0.6162  0.4797 -0.3147
19858SOL     OW61890   8.071   0.459   0.754  0.6352  0.2681 -0.1407
19858SOL    HW161891   7.986   0.477   0.714  0.1171 -0.7242  0.4727
19858SOL    HW261892   8.127   0.434   0.680  0.7491  2.0313 -0.7071
19859SOL     OW61893   4.765   7.698   8.237  0.4586 -0.3637  0.0726
19859SOL    HW161894   4.740   7.704   8.329 -0.1416  0.2780 -0.1247
19859SOL    HW261895   4.737   7.610   8.211  0.2647 -0.3993  0.3893
19860SOL     OW61896   3.779   4.016   9.299  0.1302 -0.3410  0.0506
19860SOL    HW161897   3.728   3.937   9.284  1.4517 -0.8929 -2.0645
19860SOL    HW261898   3.722   4.088   9.270 -0.7483 -0.5837  1.1445
19861SOL     OW61899   0.220   8.185   6.826 -0.0333  0.0604  0.0469
19861SOL    HW161900   0.247   8.123   6.758  0.7012  0.8415 -0.3824
19861SOL    HW261901   0.131   8.211   6.800 -1.0220 -1.9836  1.0908
19862SOL     OW61902   9.952   8.904   0.432 -0.6767  0.0131  0.1927
19862SOL    HW161903   9.993   8.932   0.513  0.5589 -0.6160 -0.1943
19862SOL    HW261904   9.895   8.831   0.457  2.2599 -2.5128  0.1001
19863SOL     OW61905   2.577   1.237   1.054 -0.1075  0.0599  0.2130
19863SOL    HW161906   2.487   1.265   1.038 -0.2976 -0.8693 -0.4020
19863SOL    HW261907   2.631   1.308   1.018 -0.5721  0.8820  1.0692
19864SOL     OW61908   9.457   0.967   1.356  0.2734 -0.1011 -0.6327
19864SOL    HW161909   9.476   0.928   1.270 -0.8651 -3.0007  0.2905
19864SOL    HW261910   9.445   0.891   1.414  0.7248  1.7522  2.0482
19865SOL     OW61911   5.531   6.074   4.679 -0.2454 -0.0192  0.0957
19865SOL    HW161912   5.451   6.022   4.688  0.6246 -1.6179 -0.9883
19865SOL    HW261913   5.539   6.090   4.585  1.4217 -1.0750  0.0290
19866SOL     OW61914   3.679   4.766   2.273  0.3519  0.5706  0.3241
19866SOL    HW161915   3.658   4.771   2.366 -0.0991  0.5789  0.2202
19866SOL    HW261916   3.683   4.857   2.244  1.4302  0.6086  0.5413
19867SOL     OW61917   2.519   5.057   1.054  0.7129  1.0576  0.2236
19867SOL    HW161918   2.476   5.077   1.138 -0.7438  0.6319 -0.3842
19867SOL    HW261919   2.539   5.143   1.017  2.5533  1.2600  1.5436
19868SOL     OW61920   8.781   4.819   1.566  0.3724  0.8014  0.6877
19868SOL    HW161921   8.737   4.833   1.482  0.9761 -1.0343  0.0345
19868SOL    HW261922   8.730   4.750   1.608  2.6703 -1.6255 -0.2203
19869SOL     OW61923   3.335   2.801   6.860  0.1464 -0.3193 -0.4664
19869SOL    HW161924   3.402   2.868   6.844 -0.8220  0.4920 -1.2095
19869SOL    HW261925   3.370   2.722   6.818  0.9360 -0.0927 -0.2651
19870SOL     OW61926   7.704   0.712  10.400  0.2898  0.1025 -0.5133
19870SOL    HW161927   7.717   0.799  10.363  2.6962  0.6850  1.4664
19870SOL    HW261928   7.662   0.728  10.484 -0.3623 -0.7896 -0.6529
19871SOL     OW61929   3.793   9.118   2.681  0.1371 -0.1965 -0.3022
19871SOL    HW161930   3.787   9.100   2.774 -0.3434 -0.5056 -0.3869
19871SOL    HW261931   3.800   9.031   2.640  0.9220 -0.0344 -0.5153
19872SOL     OW61932   8.358   4.316   0.777  0.1544  0.3979  0.1258
19872SOL    HW161933   8.282   4.360   0.740 -0.3057  0.4730  1.1202
19872SOL    HW261934   8.322   4.242   0.826  0.7634  0.0817  0.1075
19873SOL     OW61935   4.063   6.467   5.846  0.5758  0.4759  0.2117
19873SOL    HW161936   3.970   6.488   5.849 -0.2402 -2.4582 -0.6437
19873SOL    HW261937   4.101   6.513   5.920 -2.1042 -0.4903  2.3447
19874SOL     OW61938   9.834   2.961   4.787  0.1313 -0.1105  0.4700
19874SOL    HW161939   9.925   2.986   4.771 -0.3654  0.7861 -1.1918
19874SOL    HW261940   9.836   2.865   4.790  1.1579 -0.0896  0.6723
19875SOL     OW61941   5.602   9.111   8.376 -0.0395  0.3131 -0.7822
19875SOL    HW161942   5.555   9.118   8.293 -0.2586 -0.4150 -0.7301
19875SOL    HW261943   5.533   9.103   8.441  0.1327  0.8858 -0.5284
19876SOL     OW61944   0.492   9.384   4.663 -0.0526 -0.0387  0.2333
19876SOL    HW161945   0.418   9.378   4.723  0.2357 -0.4545  0.5541
19876SOL    HW261946   0.478   9.313   4.600 -0.2612  0.2828 -0.0793
19877SOL     OW61947   0.912   4.295   5.272  0.2139 -0.1489 -0.5104
19877SOL    HW161948   0.999   4.328   5.296  0.4183  0.3281 -1.8279
19877SOL    HW261949   0.903   4.315   5.179 -1.1304 -0.6140 -0.5091
19878SOL     OW61950   4.684   8.790   0.461  0.1605  0.2332 -0.5819
19878SOL    HW161951   4.740   8.798   0.384 -0.1977  0.3622 -0.8341
19878SOL    HW261952   4.695   8.699   0.490  0.4433  0.2395 -0.6705
19879SOL     OW61953   0.059   7.271   0.940  0.1881 -0.2475 -0.0806
19879SOL    HW161954   0.129   7.308   0.885 -1.7359  1.5611 -1.4625
19879SOL    HW261955  -0.021   7.314   0.909 -1.3010 -0.7863  2.7390
19880SOL     OW61956   7.730   7.368   0.893  0.3006  0.1516 -0.0044
19880SOL    HW161957   7.680   7.353   0.973  1.8906  0.8422  1.1692
19880SOL    HW261958   7.716   7.461   0.873  0.0526  0.0240 -0.4321
19881SOL     OW61959   6.712   9.645   8.378  0.3213 -0.5143 -0.1223
19881SOL    HW161960   6.772   9.662   8.306  0.5545  0.9121  0.3921
19881SOL    HW261961   6.629   9.620   8.336  0.6519 -0.3625 -0.8621
19882SOL     OW61962   6.486   9.326   5.276 -0.2581 -0.3242 -0.1465
19882SOL    HW161963   6.524   9.261   5.336  1.0380 -0.1638 -0.7525
19882SOL    HW261964   6.416   9.367   5.327 -0.5097 -1.5605  0.5599
19883SOL     OW61965   9.352   1.514   0.135 -0.2740  0.1315  0.2066
19883SOL    HW161966   9.345   1.601   0.175  1.4126  0.2780  0.2601
19883SOL    HW261967   9.315   1.525   0.048 -1.0149  0.6416  0.5785
19884SOL     OW61968   9.707   5.594   9.069  0.1307 -0.2607 -0.2486
19884SOL    HW161969   9.711   5.678   9.115  0.3783 -0.1951 -0.3846
19884SOL    HW261970   9.697   5.529   9.138 -1.8474 -0.0063 -0.2417
19885SOL     OW61971   0.645   8.351   1.429  0.3598  1.1173 -0.8934
19885SOL    HW161972   0.627   8.434   1.386 -2.3984  1.2304  0.2876
19885SOL    HW261973   0.559   8.310   1.439  1.4729 -1.1625 -0.0094
19886SOL     OW61974   3.603   0.264   8.774 -0.6086 -0.1174  0.0166
19886SOL    HW161975   3.566   0.218   8.848 -0.2995 -3.1661 -1.5737
19886SOL    HW261976   3.542   0.337   8.758 -0.7563  0.5472  3.0367
19887SOL     OW61977   0.329   5.826   3.952 -0.6066 -0.8169  0.2104
19887SOL    HW161978   0.422   5.835   3.929 -0.3979  0.9051  1.4688
19887SOL    HW261979   0.327   5.753   4.013  0.0848 -0.3500  0.8196
19888SOL     OW61980   9.645   6.957   7.857  0.2738  0.3394  0.4963
19888SOL    HW161981   9.569   7.003   7.821  1.1369  0.4700 -1.2548
19888SOL    HW261982   9.719   6.989   7.806  0.8729 -3.4028 -1.3426
19889SOL     OW61983   3.189   9.233  10.540 -0.3962 -0.2458  0.0610
19889SOL    HW161984   3.143   9.153  10.566 -3.1149  0.9402 -0.6997
19889SOL    HW261985   3.236   9.260  10.619 -0.0492 -2.1433  0.5516
19890SOL     OW61986   0.349   2.954   8.618  0.7449 -0.1696  0.3601
19890SOL    HW161987   0.341   3.048   8.632 -0.9282 -0.2490  0.0935
19890SOL    HW261988   0.271   2.930   8.568  1.5031 -1.5867 -0.1996
19891SOL     OW61989   8.575   6.585   0.365  0.4069 -0.2458  0.1724
19891SOL    HW161990   8.664   6.610   0.391  1.6095 -2.2814 -1.6458
19891SOL    HW261991   8.548   6.521   0.430  0.3011  0.3098  0.6790
19892SOL     OW61992   0.746   2.725   4.433  0.2827  0.2900  0.4376
19892SOL    HW161993   0.656   2.726   4.465 -0.0579  2.9622 -0.3385
19892SOL    HW261994   0.797   2.767   4.503  0.6662  0.1891  0.2219
19893SOL     OW61995   7.651   9.518   6.372  0.4286  0.4851 -0.3214
19893SOL    HW161996   7.585   9.569   6.324 -1.0581  0.8078  1.9284
19893SOL    HW261997   7.691   9.582   6.432  1.9712  0.0052 -0.7820
19894SOL     OW61998  10.188   3.227   2.699  0.7394  0.3694 -0.4762
19894SOL    HW161999  10.221   3.158   2.641  1.6217 -2.8909  3.3924
19894SOL    HW262000  10.099   3.200   2.719  0.8363  0.7480  0.5044
19895SOL     OW62001   9.707   6.246   3.168 -0.2156 -0.7419  0.6100
19895SOL    HW162002   9.620   6.215   3.145 -0.0069 -1.0315  0.1921
19895SOL    HW262003   9.742   6.179   3.227 -0.4414 -0.4026  1.1422
19896SOL     OW62004   2.519   7.155   1.039 -0.0145 -0.1982 -0.2763
19896SOL    HW162005   2.465   7.086   1.001 -1.2962  1.1468 -0.9736
19896SOL    HW262006   2.460   7.202   1.098  0.5476  0.9230 -0.5793
19897SOL     OW62007   4.246   3.005   1.160 -0.3759 -0.2136 -0.0314
19897SOL    HW162008   4.235   3.099   1.146  1.7303 -0.0646 -0.9422
19897SOL    HW262009   4.296   2.999   1.241 -0.9641 -0.5958  0.3108
19898SOL     OW62010   3.826   1.767   2.690 -0.1951 -0.0351  0.5763
19898SOL    HW162011   3.879   1.800   2.617  2.2284 -0.1076  2.1754
19898SOL    HW262012   3.736   1.781   2.662  0.5974 -0.1029 -2.4306
19899SOL     OW62013   4.351   1.327   4.212  0.3905  0.0908  0.6059
19899SOL    HW162014   4.387   1.361   4.294 -0.2217  2.5185 -0.0421
19899SOL    HW262015   4.399   1.374   4.144 -0.2744 -0.6323 -0.3808
19900SOL     OW62016   6.252   6.980   6.365 -0.2742 -0.0617 -1.0544
19900SOL    HW162017   6.345   6.988   6.382 -0.3131 -0.2458 -0.7462
19900SOL    HW262018   6.215   7.065   6.389  0.0613  0.6726 -2.9293
19901SOL     OW62019   6.102   4.733   0.509 -0.0741 -0.5802 -0.3139
19901SOL    HW162020   6.045   4.798   0.550 -0.0519 -0.6048 -0.2446
19901SOL    HW262021   6.180   4.782   0.484  0.1653 -0.6864  0.2191
19902SOL     OW62022   3.251   5.680   8.095 -0.0936  0.7799 -1.1003
19902SOL    HW162023   3.335   5.634   8.087  0.1280  0.7863  0.7597
19902SOL    HW262024   3.185   5.612   8.081  0.2361 -0.1220  1.3260
19903SOL     OW62025   3.842   2.473   7.300  1.0122 -0.4473  0.3039
19903SOL    HW162026   3.749   2.481   7.278  1.5377  1.3436 -1.5803
19903SOL    HW262027   3.847   2.500   7.392 -0.2926 -0.3020  0.3465
19904SOL     OW62028   6.758   7.495   3.081 -0.2138  0.3211  0.2477
19904SOL    HW162029   6.771   7.590   3.078  2.3968  0.0371  0.0480
19904SOL    HW262030   6.807   7.467   3.158 -1.9968 -0.7906  1.0444
19905SOL     OW62031   5.371   7.485  10.463  0.0391 -0.2679 -0.0292
19905SOL    HW162032   5.398   7.572  10.494  0.1372 -1.2033  2.7995
19905SOL    HW262033   5.290   7.467  10.511 -0.6298 -1.2798 -1.4703
19906SOL     OW62034   2.604   0.596   9.173 -0.6897  0.2287  0.3810
19906SOL    HW162035   2.513   0.627   9.184 -0.5485  1.5464 -1.6550
19906SOL    HW262036   2.635   0.640   9.094  1.1649 -1.5789  0.0181
19907SOL     OW62037   3.572   2.146   4.339 -0.1885  0.1226 -0.0839
19907SOL    HW162038   3.525   2.063   4.350  0.9721 -0.6299 -0.5788
19907SOL    HW262039   3.635   2.148   4.411 -1.8036  1.7770  1.3991
19908SOL     OW62040   0.501   9.756   1.248 -0.2587  0.1038  0.2906
19908SOL    HW162041   0.576   9.706   1.280  0.9150  1.5260 -0.1220
19908SOL    HW262042   0.440   9.758   1.321  1.4550  1.5163  1.7743
19909SOL     OW62043   0.908   4.130   1.324 -0.5875  0.2594 -0.6363
19909SOL    HW162044   0.994   4.150   1.360 -1.1603 -0.8216  1.4586
19909SOL    HW262045   0.923   4.057   1.263 -0.3201 -1.9925  1.9378
19910SOL     OW62046   6.290   3.111   6.758 -0.2375  0.5616 -0.0717
19910SOL    HW162047   6.277   3.103   6.852 -2.3270  1.9531 -0.1849
19910SOL    HW262048   6.385   3.109   6.747  0.0283 -0.8551  1.9048
19911SOL     OW62049   2.673   4.244   9.965  0.4396 -0.6102 -0.1209
19911SOL    HW162050   2.690   4.314   9.901 -0.6878 -0.5819 -0.4234
19911SOL    HW262051   2.599   4.277  10.016  1.1404 -0.7637  1.0159
19912SOL     OW62052   9.661   0.478   2.406 -0.6094  0.1772 -0.0402
19912SOL    HW162053   9.591   0.539   2.387 -0.4020  0.7230  0.9132
19912SOL    HW262054   9.623   0.416   2.468 -1.1240 -1.2854 -1.7403
19913SOL     OW62055   7.379  10.073   2.382 -0.2011 -0.5207 -0.2794
19913SOL    HW162056   7.350  10.027   2.461 -0.4367  0.3752  0.1765
19913SOL    HW262057   7.299  10.082   2.330  0.2343 -2.5261 -1.4056
19914SOL     OW62058   7.166   3.620   0.760 -0.4160  0.0115 -0.4780
19914SOL    HW162059   7.256   3.636   0.788 -0.1767 -0.8367 -0.7203
19914SOL    HW262060   7.157   3.670   0.679  0.3523 -1.1056 -1.2912
19915SOL     OW62061   1.902   2.121   4.920  0.1933  0.6396 -0.0905
19915SOL    HW162062   1.994   2.149   4.918  0.4634 -0.1155  0.9506
19915SOL    HW262063   1.892   2.065   4.843  0.8430  0.0747  0.2198
19916SOL     OW62064   0.212   5.441   5.053 -0.1031 -0.2588  0.0481
19916SOL    HW162065   0.271   5.443   5.129 -0.7839  0.2237  0.5760
19916SOL    HW262066   0.177   5.352   5.054  0.3512 -0.4462 -0.0742
19917SOL     OW62067   7.553   4.805   3.504  0.4105  0.0092 -0.1881
19917SOL    HW162068   7.501   4.883   3.524  1.1173  0.5703 -0.4543
19917SOL    HW262069   7.500   4.755   3.442  0.2287  0.6268 -0.5419
19918SOL     OW62070   5.787   3.365   2.194  0.5474  0.4293  0.0277
19918SOL    HW162071   5.847   3.332   2.127  0.4392  0.5954 -0.1534
19918SOL    HW262072   5.755   3.287   2.238 -0.1127  0.2497 -0.7396
19919SOL     OW62073   1.750   3.440   4.126 -0.5278 -0.0940 -0.0598
19919SOL    HW162074   1.735   3.453   4.033 -1.2366 -0.7744 -0.0478
19919SOL    HW262075   1.666   3.411   4.161 -0.1419 -0.3410  0.7013
19920SOL     OW62076   7.986   8.624   8.326  0.1761  0.1875 -0.5647
19920SOL    HW162077   8.050   8.691   8.347  0.2544 -0.0371 -0.0703
19920SOL    HW262078   7.946   8.653   8.244  0.5078  0.6166 -0.5752
19921SOL     OW62079   7.406   7.511   1.367 -0.3624  0.2344 -0.3051
19921SOL    HW162080   7.370   7.505   1.456 -0.5595  0.2582 -0.3816
19921SOL    HW262081   7.374   7.432   1.323 -0.6900  0.4754 -0.5048
19922SOL     OW62082  10.181   6.522   4.993 -0.0021  0.0108  0.3553
19922SOL    HW162083  10.222   6.584   4.933  0.0975 -1.7001 -1.4622
19922SOL    HW262084  10.125   6.575   5.049  2.7173  2.1616  1.2959
19923SOL     OW62085   6.179   5.377   3.969  0.0071 -0.4865  0.3385
19923SOL    HW162086   6.216   5.306   4.023  1.0071 -0.6916 -0.5654
19923SOL    HW262087   6.213   5.359   3.881  0.7590  1.4286  0.1887
19924SOL     OW62088   8.068   9.832   1.214  0.3384 -0.3679 -0.0568
19924SOL    HW162089   8.061   9.745   1.254 -1.0133 -0.6206 -0.7629
19924SOL    HW262090   8.105   9.815   1.127  0.3856 -0.2021 -0.0684
19925SOL     OW62091   9.192   8.125   6.419 -0.0377  0.4678 -0.2946
19925SOL    HW162092   9.144   8.062   6.473 -0.6061 -0.2934 -1.6456
19925SOL    HW262093   9.282   8.122   6.453 -0.4859  0.3838  0.9239
19926SOL     OW62094   6.765   4.183   2.062 -0.2876 -0.1218  0.3964
19926SOL    HW162095   6.725   4.268   2.042 -0.2055 -0.0997  0.3221
19926SOL    HW262096   6.837   4.204   2.122 -0.1906 -0.1230  0.2824
19927SOL     OW62097  10.202   2.129   9.022  0.0834 -0.1448  0.1647
19927SOL    HW162098  10.275   2.114   8.961  1.3163  1.5976  1.1219
19927SOL    HW262099  10.195   2.047   9.071 -0.1814 -1.1753 -1.5069
19928SOL     OW62100   4.468   5.145   6.202 -0.0385  0.8223 -0.4116
19928SOL    HW162101   4.559   5.161   6.227 -0.1494 -0.6439  1.1501
19928SOL    HW262102   4.432   5.231   6.184  0.8564  1.7786  2.0052
19929SOL     OW62103   1.329   0.689   6.659  0.0118  0.8201 -0.4736
19929SOL    HW162104   1.417   0.702   6.623  0.1233  0.6169 -0.2818
19929SOL    HW262105   1.291   0.776   6.662  0.5432  1.0369  0.2924
19930SOL     OW62106   9.453   0.852   5.163 -0.7468  0.4994  0.0122
19930SOL    HW162107   9.463   0.922   5.227 -1.8431  0.2934  0.4251
19930SOL    HW262108   9.370   0.870   5.119 -0.1550  0.4756 -1.1775
19931SOL     OW62109   4.668   0.764   2.570  0.6447  0.9301 -0.3851
19931SOL    HW162110   4.657   0.781   2.663  0.3169  0.7884 -0.3989
19931SOL    HW262111   4.730   0.692   2.566 -1.2964 -0.8336 -0.1837
19932SOL     OW62112  10.328   1.644   2.580  0.3692 -0.1571 -0.2743
19932SOL    HW162113  10.307   1.664   2.671 -1.6573  0.4680 -0.8267
19932SOL    HW262114  10.350   1.729   2.541  0.8076 -0.3617 -0.4827
19933SOL     OW62115   2.149   5.011   9.490  0.4397  0.4386 -0.1538
19933SOL    HW162116   2.069   5.062   9.490 -0.8691 -1.4850  0.2723
19933SOL    HW262117   2.201   5.048   9.562 -1.6544 -0.4888  1.9886
19934SOL     OW62118   4.147   4.597   4.534 -0.1164  0.0920 -0.1244
19934SOL    HW162119   4.108   4.650   4.464 -1.2984 -2.2446 -1.3891
19934SOL    HW262120   4.126   4.644   4.615  0.1014  2.1830 -1.2116
19935SOL     OW62121   6.148   5.834   0.548 -0.7121 -0.2724  0.1555
19935SOL    HW162122   6.128   5.924   0.573  1.5695  0.8389 -1.6077
19935SOL    HW262123   6.108   5.823   0.462 -1.3205 -1.1060  0.5333
19936SOL     OW62124   5.076   5.933   5.677  0.0540 -0.0084  0.5023
19936SOL    HW162125   5.111   5.848   5.652  0.0584  0.5742 -1.7459
19936SOL    HW262126   5.103   5.945   5.768  0.9536 -1.9236  0.5378
19937SOL     OW62127   3.054   7.998   1.480  0.2302  0.2764 -0.0055
19937SOL    HW162128   3.003   7.923   1.512 -0.5616  0.5964 -0.4811
19937SOL    HW262129   3.113   8.019   1.552  2.4713 -2.5256 -0.8041
19938SOL     OW62130   9.005   5.247   3.607  0.5628 -0.6726 -0.1810
19938SOL    HW162131   8.959   5.253   3.691 -2.2656  2.2741 -1.6992
19938SOL    HW262132   9.067   5.320   3.608 -0.3233  0.1218 -1.0303
19939SOL     OW62133   1.941   0.898   5.932  0.4398  0.8600  0.0919
19939SOL    HW162134   1.946   0.897   5.836 -1.0576  1.5216 -0.0257
19939SOL    HW262135   1.848   0.885   5.951  0.8207  0.0825  1.4861
19940SOL     OW62136   7.287   9.556   6.941  0.4441  0.2374  0.2258
19940SOL    HW162137   7.281   9.613   6.865  0.7555  0.1917  0.1641
19940SOL    HW262138   7.364   9.589   6.989 -0.3727  0.9436  1.0854
19941SOL     OW62139   5.011   4.777   2.871  0.2064 -0.1223 -0.2585
19941SOL    HW162140   4.985   4.758   2.781 -2.0241  1.0362  0.0747
19941SOL    HW262141   5.063   4.857   2.864 -1.7480  1.2085 -0.3916
19942SOL     OW62142   6.927   5.361   6.906  0.0080 -0.4000 -0.3146
19942SOL    HW162143   6.844   5.368   6.954 -0.3253 -0.6472 -0.8476
19942SOL    HW262144   6.906   5.390   6.817  0.2827 -1.2619 -0.6776
19943SOL     OW62145   8.706   7.931   6.665  0.1505 -0.5344 -0.0981
19943SOL    HW162146   8.682   7.853   6.714 -0.9965  0.2319  0.6100
19943SOL    HW262147   8.749   7.988   6.730 -0.6158  0.1395 -0.1720
19944SOL     OW62148   8.818   4.568   3.192 -0.0553  0.3692  0.3267
19944SOL    HW162149   8.837   4.600   3.280  0.7931 -1.0567  0.6941
19944SOL    HW262150   8.883   4.499   3.177 -1.0250 -0.3169 -0.8958
19945SOL     OW62151   7.623   1.939   4.946  0.3476  0.0164 -0.0564
19945SOL    HW162152   7.700   1.920   4.893  0.4459  1.1756 -0.3558
19945SOL    HW262153   7.635   2.030   4.975 -0.0071 -0.3867  1.4341
19946SOL     OW62154   6.222  10.245   3.841  0.3011 -0.0566  0.1850
19946SOL    HW162155   6.285  10.188   3.884 -1.0795 -0.8013  1.3048
19946SOL    HW262156   6.154  10.261   3.907 -0.1753  1.5577 -0.6306
19947SOL     OW62157  10.311   0.235   1.985 -0.2361  0.3090  0.4207
19947SOL    HW162158  10.357   0.299   2.039 -0.1509  0.0411  0.6663
19947SOL    HW262159  10.330   0.151   2.025 -0.4713  0.1410  0.1870
19948SOL     OW62160   7.953   3.357   3.021 -0.3225  0.0451  0.2970
19948SOL    HW162161   7.961   3.377   2.927  1.1670  0.2619  0.4477
19948SOL    HW262162   8.026   3.298   3.039 -1.3460 -1.0330  1.0730
19949SOL     OW62163   6.966   9.169   7.754 -0.3087 -0.3532  0.7078
19949SOL    HW162164   6.938   9.214   7.675 -2.7142 -0.8720  1.1900
19949SOL    HW262165   7.039   9.113   7.725 -0.5244  0.1452 -0.9133
19950SOL     OW62166   0.754   3.868   3.541 -0.2725  0.1996  0.2249
19950SOL    HW162167   0.828   3.870   3.481 -0.3015  1.8609  0.1787
19950SOL    HW262168   0.690   3.811   3.499  1.2655 -1.9467  0.6675
19951SOL     OW62169   9.817   5.733   8.134  0.2629  0.9178 -0.2443
19951SOL    HW162170   9.767   5.814   8.139 -2.9944 -0.9971  0.7037
19951SOL    HW262171   9.832   5.720   8.041 -1.6933  1.2352 -0.6415
19952SOL     OW62172   2.687   8.262   9.516  0.0660 -0.1140  0.3299
19952SOL    HW162173   2.684   8.351   9.482 -1.1810  0.2996  1.4156
19952SOL    HW262174   2.779   8.236   9.510  0.2387  0.7668 -1.1598
19953SOL     OW62175   2.788   6.738  10.092 -0.5983  0.0892 -0.3798
19953SOL    HW162176   2.877   6.715  10.065 -0.3320  0.9578 -0.2787
19953SOL    HW262177   2.798   6.766  10.184 -1.0533 -0.2554 -0.2239
19954SOL     OW62178   6.761   4.504   2.412 -0.1884  0.4602 -0.0100
19954SOL    HW162179   6.744   4.545   2.327  1.5017  0.5166 -0.3520
19954SOL    HW262180   6.720   4.563   2.475 -0.9450  0.7308 -0.7352
19955SOL     OW62181   4.452   2.134   1.444  0.6508  1.0232  0.8290
19955SOL    HW162182   4.425   2.066   1.383  2.1376  0.2082  1.0360
19955SOL    HW262183   4.379   2.196   1.445 -1.2623 -1.1125  1.4965
19956SOL     OW62184   8.646   3.280   3.751  0.4475 -0.6505  0.2049
19956SOL    HW162185   8.678   3.366   3.778  0.0583 -0.1917 -0.7491
19956SOL    HW262186   8.552   3.291   3.742  0.5655 -0.7540 -1.3800
19957SOL     OW62187   7.732   4.322   8.934  0.6757 -0.5186 -0.8785
19957SOL    HW162188   7.786   4.255   8.976  0.8373  0.7628  1.0622
19957SOL    HW262189   7.652   4.275   8.907 -0.0013 -1.2211  2.0441
19958SOL     OW62190   7.317   4.286   6.800  0.0816  0.0249  0.1649
19958SOL    HW162191   7.231   4.244   6.791 -0.0841 -0.0677  1.8378
19958SOL    HW262192   7.315   4.326   6.887  0.9227  1.9475 -0.6406
19959SOL     OW62193   1.764   5.713   6.177  0.2981 -0.0680 -0.7422
19959SOL    HW162194   1.828   5.684   6.111  0.8934  0.5843 -0.4636
19959SOL    HW262195   1.810   5.781   6.226  0.2905 -1.3400  1.1069
19960SOL     OW62196   1.615   5.172   1.125 -0.0401 -0.3647 -0.7811
19960SOL    HW162197   1.626   5.096   1.069  0.1970 -1.0491  0.1611
19960SOL    HW262198   1.549   5.145   1.189  1.3666 -0.4641  0.6879
19961SOL     OW62199   0.781   1.783   6.627  0.4099  0.0310  0.3589
19961SOL    HW162200   0.758   1.770   6.535 -2.8618  2.5505  0.6410
19961SOL    HW262201   0.728   1.719   6.674 -0.0630  0.5999  0.6095
19962SOL     OW62202   7.166   8.767   8.431 -0.0712  0.1100  0.5379
19962SOL    HW162203   7.209   8.737   8.350  0.1411 -0.6257  0.9142
19962SOL    HW262204   7.158   8.862   8.420 -0.4328 -0.0208 -0.5362
19963SOL     OW62205   7.294   4.315   7.080 -0.3833 -0.1188 -0.4659
19963SOL    HW162206   7.249   4.321   7.165  2.2671 -1.4518  1.1873
19963SOL    HW262207   7.289   4.222   7.058 -0.5184  0.1266 -1.5197
19964SOL     OW62208   4.369   8.514   2.664 -0.4588  0.0980 -0.0044
19964SOL    HW162209   4.323   8.498   2.746 -0.8429  0.1247 -0.2128
19964SOL    HW262210   4.439   8.575   2.687 -0.9931  0.6520  0.1723
19965SOL     OW62211  10.173   3.210   2.981  0.3780  0.4586  0.3317
19965SOL    HW162212  10.167   3.238   2.890 -1.9016  0.2556  0.3504
19965SOL    HW262213  10.258   3.166   2.988  1.1443  1.5881 -1.3379
19966SOL     OW62214   7.311   1.579   4.360 -0.1534  0.2152 -0.4276
19966SOL    HW162215   7.362   1.544   4.287  1.6324 -0.5268  1.0942
19966SOL    HW262216   7.291   1.669   4.334 -0.0809 -0.2225 -2.0749
19967SOL     OW62217   0.075   9.270   7.295 -0.0399 -0.3331 -0.7804
19967SOL    HW162218   0.076   9.358   7.332  0.5935 -0.1260 -1.2798
19967SOL    HW262219   0.165   9.254   7.268 -0.2386 -0.9724 -1.0885
19968SOL     OW62220   9.099   6.990   9.514 -0.5545 -0.5630 -0.3761
19968SOL    HW162221   9.178   6.955   9.555 -0.3868 -0.3152 -0.4890
19968SOL    HW262222   9.029   6.967   9.575 -0.3652 -0.5815 -0.1644
19969SOL     OW62223   8.445   2.196   6.256  0.3393  0.2936 -0.5108
19969SOL    HW162224   8.503   2.269   6.234 -1.3436  1.9380  0.2441
19969SOL    HW262225   8.372   2.204   6.196 -1.3504  1.1505  1.5230
19970SOL     OW62226   6.375   8.206   1.081  0.1740  0.0583  0.1443
19970SOL    HW162227   6.372   8.301   1.070  0.1632  0.2653  1.7451
19970SOL    HW262228   6.468   8.184   1.070  0.0976  0.1524 -0.8129
19971SOL     OW62229   9.949   7.847   5.020 -0.1291 -0.1364  0.1810
19971SOL    HW162230   9.924   7.757   5.038 -0.1384 -0.2473 -0.3836
19971SOL    HW262231   9.946   7.890   5.106 -2.8654  0.0182  0.0674
19972SOL     OW62232   7.222   3.559  10.046  0.1273  0.0872  0.3918
19972SOL    HW162233   7.292   3.585   9.987  0.2073 -1.1537 -0.0910
19972SOL    HW262234   7.215   3.631  10.109 -0.4077  1.7835 -1.4952
19973SOL     OW62235   4.322   1.237   6.851  0.4222 -0.2843 -0.4708
19973SOL    HW162236   4.313   1.308   6.914  0.4684  1.1948 -2.0652
19973SOL    HW262237   4.241   1.186   6.861  0.3185  0.0670  0.5802
19974SOL     OW62238   9.148   7.318   1.285 -0.3578 -0.2739 -0.1467
19974SOL    HW162239   9.097   7.266   1.346 -0.7626 -0.3878 -0.5779
19974SOL    HW262240   9.220   7.353   1.338  0.9902 -2.7246 -0.2082
19975SOL     OW62241   2.215   9.022   0.813 -0.0471 -0.0438  0.3769
19975SOL    HW162242   2.296   9.065   0.786  0.3115 -0.3011  1.0450
19975SOL    HW262243   2.187   8.974   0.735 -0.5213  1.4768 -0.4368
19976SOL     OW62244   3.449   2.488   1.900  0.0636 -0.1668  0.4178
19976SOL    HW162245   3.391   2.545   1.950  1.6390  0.6122  1.4248
19976SOL    HW262246   3.464   2.413   1.958 -0.7277 -0.8777 -0.2619
19977SOL     OW62247  10.416   8.700   6.029  0.4448  0.2218 -0.2890
19977SOL    HW162248  10.496   8.656   6.000  0.1929  0.3886 -1.2691
19977SOL    HW262249  10.445   8.788   6.054  0.6828  0.0354  0.1042
19978SOL     OW62250   2.593   8.555   1.017  0.1120 -0.1642 -0.0603
19978SOL    HW162251   2.597   8.640   0.973  1.0543 -0.5821 -0.8283
19978SOL    HW262252   2.543   8.499   0.957  0.5635 -0.4738 -0.1608
19979SOL     OW62253   9.789  10.270   6.813  0.6772 -0.3321 -0.4483
19979SOL    HW162254   9.700  10.294   6.839  0.7843  2.1657 -2.0844
19979SOL    HW262255   9.840  10.279   6.893  0.3059  3.3002 -0.4698
19980SOL     OW62256   4.563   5.268   2.885 -0.3463  0.5368 -0.1897
19980SOL    HW162257   4.542   5.359   2.865 -1.1453  0.9809  2.2670
19980SOL    HW262258   4.606   5.272   2.971 -1.3674 -1.4535  0.4930
19981SOL     OW62259   9.791   2.832   7.636  0.0139 -0.0765  0.7047
19981SOL    HW162260   9.863   2.808   7.695 -1.8035 -2.2097  2.2412
19981SOL    HW262261   9.712   2.800   7.681 -1.7374  0.6512 -1.6768
19982SOL     OW62262   6.987   6.851   9.772 -0.8725 -0.2276 -0.0082
19982SOL    HW162263   7.041   6.775   9.795 -0.5990  0.2015  0.8174
19982SOL    HW262264   6.934   6.821   9.699 -0.5487 -1.1205  0.1035
19983SOL     OW62265   2.271   8.536   4.755  0.1324  0.4085 -0.4863
19983SOL    HW162266   2.228   8.560   4.673  1.0991  0.7662 -0.8975
19983SOL    HW262267   2.232   8.452   4.778  1.4522 -0.8565 -2.5293
19984SOL     OW62268   9.089   4.835   4.344 -0.2282 -0.1375  0.1549
19984SOL    HW162269   9.127   4.799   4.264 -1.0974 -1.1285  0.1569
19984SOL    HW262270   9.110   4.928   4.341  0.7355 -0.3633 -0.6507
19985SOL     OW62271   0.516   1.957   0.937 -0.4657 -0.6473 -0.5063
19985SOL    HW162272   0.470   2.023   0.989  1.2126  0.0765  0.1593
19985SOL    HW262273   0.505   1.985   0.846  0.3139  0.6629 -0.2289
19986SOL     OW62274   0.326   6.688   6.128 -0.1328  0.1684  0.3865
19986SOL    HW162275   0.315   6.644   6.044  2.3456 -1.7684  0.9797
19986SOL    HW262276   0.394   6.753   6.112 -1.5479  1.6892  0.3039
19987SOL     OW62277   1.457   2.871   9.863  0.2086 -0.2851  0.1716
19987SOL    HW162278   1.366   2.845   9.846  0.6397 -1.6730 -0.1582
19987SOL    HW262279   1.484   2.916   9.783 -0.4208  0.8760  0.5855
19988SOL     OW62280   6.796   8.602   5.872  0.0412 -0.0059 -0.1600
19988SOL    HW162281   6.768   8.683   5.915  0.1220  0.9905 -1.9009
19988SOL    HW262282   6.808   8.540   5.944 -0.1613  1.4730  1.2098
19989SOL     OW62283   4.058   6.973   7.968 -0.3711  0.3102 -0.6733
19989SOL    HW162284   4.117   7.026   8.022  1.0868 -2.8018  1.0645
19989SOL    HW262285   3.981   6.959   8.024 -1.4013  1.6959 -1.6858
19990SOL     OW62286  10.233   1.189   9.349  0.3160 -0.0090  0.4156
19990SOL    HW162287  10.328   1.181   9.352  0.4057  0.9633  0.6696
19990SOL    HW262288  10.216   1.250   9.277 -0.1710 -0.8031 -0.1594
19991SOL     OW62289   3.462   9.544   3.958  0.1174 -0.3265 -0.0157
19991SOL    HW162290   3.528   9.504   3.901  0.3157 -0.3684  0.2433
19991SOL    HW262291   3.379   9.524   3.914  0.3593  1.2303 -1.2833
19992SOL     OW62292   8.156   6.536   0.362 -0.3360 -0.3611  0.1024
19992SOL    HW162293   8.148   6.609   0.423  0.2010 -0.8316  0.7427
19992SOL    HW262294   8.109   6.565   0.284  0.7362  1.1012 -0.0419
19993SOL     OW62295   7.344   5.562   3.212  0.4051 -0.1396 -0.0577
19993SOL    HW162296   7.336   5.634   3.150  0.9880  0.5009  0.5913
19993SOL    HW262297   7.383   5.602   3.290  1.3066 -1.2816  0.1001
19994SOL     OW62298   9.456   0.511   3.239  0.1758  0.5063  0.1241
19994SOL    HW162299   9.428   0.539   3.152 -1.0122  0.9304  0.6307
19994SOL    HW262300   9.517   0.439   3.222 -1.2198 -0.4704 -1.0363
19995SOL     OW62301   9.798   9.027   6.366 -0.0505 -0.3184 -0.0879
19995SOL    HW162302   9.835   8.971   6.435 -3.1051 -2.7539 -0.1814
19995SOL    HW262303   9.736   9.084   6.412 -0.8092 -0.7244 -0.5940
19996SOL     OW62304   4.718  10.130   1.647  0.0259  0.1093 -0.3747
19996SOL    HW162305   4.705  10.214   1.602  2.0633  0.9061  0.3838
19996SOL    HW262306   4.710  10.064   1.578  0.2177  1.0764 -1.3607
19997SOL     OW62307   6.025   6.756   8.824 -0.3782  0.1635  0.2783
19997SOL    HW162308   5.956   6.809   8.863 -0.5262 -0.8156  1.4219
19997SOL    HW262309   6.102   6.775   8.878 -0.8398 -2.0132  1.8007
19998SOL     OW62310   6.283   2.476   4.889  0.4826 -0.2082  0.5002
19998SOL    HW162311   6.239   2.398   4.854 -0.2655 -0.1664  1.3024
19998SOL    HW262312   6.228   2.503   4.963  0.3777  1.4438 -0.1303
19999SOL     OW62313   3.156   0.262   6.541  0.1813  0.3525  0.3814
19999SOL    HW162314   3.184   0.321   6.611  1.5254 -0.3950  0.5229
19999SOL    HW262315   3.238   0.227   6.506 -0.5406 -0.5763 -0.4397
20000SOL     OW62316   6.266   4.569   0.734  0.4255 -0.0658  0.5342
20000SOL    HW162317   6.325   4.559   0.659 -0.4087  0.2678 -0.1907
20000SOL    HW262318   6.185   4.604   0.696  0.4790  1.5704  1.7841
20001SOL     OW62319  10.370   4.303   1.903 -0.0255 -0.0852  0.1144
20001SOL    HW162320  10.320   4.265   1.976  1.1289  0.4596  1.2353
20001SOL    HW262321  10.448   4.248   1.897 -1.1327 -1.5703 -2.2980
20002SOL     OW62322   2.826   7.897   5.699  0.0570  0.3988 -0.2259
20002SOL    HW162323   2.758   7.875   5.634  1.2878  0.3722 -1.5478
20002SOL    HW262324   2.805   7.987   5.725  0.9168  1.3648 -2.5447
20003SOL     OW62325   9.637   1.919   8.799 -0.5133  0.0204 -0.3613
20003SOL    HW162326   9.564   1.859   8.783 -0.1104 -1.0579  1.4336
20003SOL    HW262327   9.598   1.993   8.845 -0.9472  1.0019 -2.2279
20004SOL     OW62328   8.528  10.595   6.465 -0.0808 -0.3746  0.3222
20004SOL    HW162329   8.571  10.662   6.518 -0.9342  1.3773 -1.0915
20004SOL    HW262330   8.528  10.631   6.376 -1.8515 -1.6035 -0.2405
20005SOL     OW62331  10.295   7.806   3.340 -0.7341 -0.4359 -0.0692
20005SOL    HW162332  10.291   7.768   3.427  0.0758 -0.0899  0.1299
20005SOL    HW262333  10.233   7.879   3.341 -2.2287 -1.6448 -0.4223
20006SOL     OW62334  10.405   4.353   4.577 -0.2832  0.2287 -0.2300
20006SOL    HW162335  10.409   4.367   4.483 -1.1066  0.7786 -0.1843
20006SOL    HW262336  10.434   4.262   4.589 -1.0890 -0.1572 -1.0988
20007SOL     OW62337   7.480   7.584   0.063  0.7262  0.0970 -0.6678
20007SOL    HW162338   7.471   7.522   0.135  1.5786 -0.9288 -1.4126
20007SOL    HW262339   7.553   7.640   0.087  1.5185 -0.7483 -1.0763
20008SOL     OW62340   5.812   5.506   1.885  0.3402 -0.1341  0.0715
20008SOL    HW162341   5.799   5.599   1.866  0.1529 -0.4585 -1.5333
20008SOL    HW262342   5.906   5.492   1.870  0.1887 -0.3955 -0.6773
20009SOL     OW62343   9.637   4.328   1.482 -0.0492  0.2338 -0.1584
20009SOL    HW162344   9.698   4.263   1.515  0.6332  0.5827 -0.6987
20009SOL    HW262345   9.553   4.307   1.523 -0.1513 -1.7576 -1.2916
20010SOL     OW62346   3.064   2.456   0.283  0.3918 -0.1413  0.5270
20010SOL    HW162347   3.112   2.449   0.200  1.3390  2.3165  0.8030
20010SOL    HW262348   2.982   2.498   0.259 -0.1629 -1.1609  0.5866
20011SOL     OW62349   0.598   7.012   0.020  0.0518  0.3429 -0.4232
20011SOL    HW162350   0.507   6.988   0.042  0.4019 -0.7431 -0.1032
20011SOL    HW262351   0.589   7.084  -0.042 -1.0636 -0.6867 -1.5127
20012SOL     OW62352   8.708   8.913   9.925 -0.1954  0.2278 -0.3983
20012SOL    HW162353   8.641   8.887   9.989 -1.6181  1.1981 -1.4111
20012SOL    HW262354   8.791   8.887   9.965 -1.1701 -1.0977  0.8792
20013SOL     OW62355   7.929   7.828   2.838 -0.7892  0.1117  0.4011
20013SOL    HW162356   8.022   7.838   2.816 -0.8489 -0.2758 -0.0503
20013SOL    HW262357   7.923   7.740   2.876 -0.9750  0.1225  0.3969
20014SOL     OW62358   6.293   1.017   9.479 -0.1385  0.3657 -0.5592
20014SOL    HW162359   6.214   1.054   9.518  0.7023  1.5566  0.0704
20014SOL    HW262360   6.331   1.090   9.429  0.9557  0.0403 -0.2260
20015SOL     OW62361   3.004   6.244   0.555 -0.7193 -0.4509 -0.0409
20015SOL    HW162362   2.983   6.336   0.567  0.0073 -0.2485 -0.2950
20015SOL    HW262363   2.980   6.203   0.638 -1.2727 -0.0757 -0.0161
20016SOL     OW62364   0.665   0.734   3.821  0.2507 -0.6910 -0.4773
20016SOL    HW162365   0.704   0.735   3.734 -1.2224 -0.3042 -1.1779
20016SOL    HW262366   0.582   0.688   3.809  0.7135 -1.9972  1.0673
20017SOL     OW62367   5.895   8.923   7.963  0.1222  0.3253 -0.2143
20017SOL    HW162368   5.863   8.973   8.038  0.5301 -2.7408  2.1705
20017SOL    HW262369   5.990   8.933   7.966  0.1335  0.3076 -0.4643
20018SOL     OW62370   2.751   7.369   7.363 -0.0704 -0.5955  0.6830
20018SOL    HW162371   2.799   7.386   7.444 -0.1526  0.1285  0.5913
20018SOL    HW262372   2.668   7.331   7.393  0.4566 -1.6583  0.8503
20019SOL     OW62373   0.955   1.495   1.345 -0.0059 -0.1358  0.2427
20019SOL    HW162374   0.936   1.404   1.321  0.7186 -0.3989  0.6254
20019SOL    HW262375   0.974   1.492   1.439 -2.4020  0.8164  0.8271
20020SOL     OW62376   5.929   9.293   4.646 -0.1129  0.0185 -0.8313
20020SOL    HW162377   6.015   9.258   4.669 -0.2055  1.0291  1.2122
20020SOL    HW262378   5.867   9.238   4.693 -0.4608  0.5331 -0.6764
20021SOL     OW62379   3.994   6.859   9.688 -0.3283  0.4699 -0.3876
20021SOL    HW162380   3.917   6.883   9.738  1.2330  0.8668  1.9856
20021SOL    HW262381   4.023   6.776   9.726  1.9051  1.6461  0.6823
20022SOL     OW62382   0.996   5.215   2.142 -0.5952  0.0653  0.8874
20022SOL    HW162383   0.965   5.175   2.061  1.1138  0.2107  0.1209
20022SOL    HW262384   1.086   5.242   2.123 -1.1740  3.0354  1.7908
20023SOL     OW62385   8.373   7.760   1.286 -0.1421  0.1802  0.3181
20023SOL    HW162386   8.452   7.778   1.234  0.3208  1.8783  1.5326
20023SOL    HW262387   8.341   7.846   1.313 -1.8286 -0.5349  0.7322
20024SOL     OW62388   2.203   4.408   3.117  0.8607 -0.0727  0.0176
20024SOL    HW162389   2.180   4.497   3.145  2.8977  1.5562 -2.9660
20024SOL    HW262390   2.142   4.389   3.046  1.0911 -0.6336 -0.0308
20025SOL     OW62391   4.776   2.640   8.034 -0.2763 -0.2516  0.1421
20025SOL    HW162392   4.762   2.722   7.986  1.1860 -0.3340 -0.4808
20025SOL    HW262393   4.797   2.667   8.123 -1.2553 -0.0199  0.3082
20026SOL     OW62394   6.425   3.385   9.024  0.1630  0.2266 -0.6776
20026SOL    HW162395   6.384   3.346   8.946  1.2982 -0.4083 -0.9802
20026SOL    HW262396   6.487   3.449   8.989  1.8883 -1.2154 -0.4176
20027SOL     OW62397   7.543   6.837   1.129  0.3970  0.3514 -0.6769
20027SOL    HW162398   7.530   6.812   1.221 -0.7427 -0.2224 -0.9738
20027SOL    HW262399   7.628   6.882   1.128  0.8726 -0.4768  0.4856
20028SOL     OW62400   2.833   9.186   8.145 -0.6526 -0.4839  0.2240
20028SOL    HW162401   2.793   9.152   8.225 -1.3807  1.6035  0.8005
20028SOL    HW262402   2.923   9.153   8.147 -1.1960 -2.0148  0.9050
20029SOL     OW62403   7.095   5.463   1.060  0.1230  0.3362 -0.2347
20029SOL    HW162404   7.110   5.370   1.073  1.3223  0.0833 -2.7198
20029SOL    HW262405   7.039   5.468   0.983  0.4269  1.6609 -0.4072
20030SOL     OW62406   6.014   7.082   7.919  0.5312 -0.1430  0.5782
20030SOL    HW162407   6.037   7.168   7.883  0.5165 -0.0989  0.6749
20030SOL    HW262408   6.013   7.024   7.842  0.3032 -0.0079  0.4790
20031SOL     OW62409  10.422  10.151   6.111  0.1528  0.6075 -0.0340
20031SOL    HW162410  10.465  10.169   6.028 -0.0215  0.5285 -0.1426
20031SOL    HW262411  10.493  10.150   6.176  0.5584 -1.1756 -0.4450
20032SOL     OW62412   6.919   5.870   1.994 -0.4626 -0.1683 -0.3766
20032SOL    HW162413   6.966   5.823   1.925 -0.4900 -1.0253  0.1674
20032SOL    HW262414   6.868   5.802   2.038 -0.0618  0.2714  0.7987
20033SOL     OW62415   2.646  10.369   9.551  0.1561  0.7490  0.9838
20033SOL    HW162416   2.570  10.361   9.610  0.4815 -0.4956  1.2706
20033SOL    HW262417   2.702  10.296   9.575  1.2361  1.3770  0.4412
20034SOL     OW62418   2.674   9.944   8.851  0.1136  0.1537  0.1512
20034SOL    HW162419   2.677  10.033   8.817 -0.1975 -0.7463 -2.4422
20034SOL    HW262420   2.583   9.930   8.876 -0.0917  0.2045 -0.5474
20035SOL     OW62421   7.719   2.187   3.810  0.1132  0.2362 -0.5993
20035SOL    HW162422   7.735   2.131   3.886 -0.4353  0.9402  0.0591
20035SOL    HW262423   7.805   2.220   3.785  0.1569  1.1448  0.6394
20036SOL     OW62424   2.336   5.984   1.298  0.2381  0.2965 -0.3705
20036SOL    HW162425   2.309   6.036   1.223 -0.9118 -1.3900 -1.1854
20036SOL    HW262426   2.402   5.923   1.263 -0.0231 -0.2395  0.0518
20037SOL     OW62427   4.536   1.092   0.112  0.5472  0.1641  0.2119
20037SOL    HW162428   4.620   1.075   0.070  0.4909  1.3674 -0.4340
20037SOL    HW262429   4.521   1.017   0.169  0.8500 -1.3013 -1.5755
20038SOL     OW62430   5.484   2.120   5.290  0.0935 -0.5575 -0.3278
20038SOL    HW162431   5.430   2.146   5.216 -0.1875 -0.6651 -0.1614
20038SOL    HW262432   5.466   2.027   5.302 -1.7945 -0.0442  1.4426
20039SOL     OW62433   6.305   1.745   2.694  0.2969 -0.0938 -0.2502
20039SOL    HW162434   6.234   1.710   2.641 -0.2353  2.3563 -1.2639
20039SOL    HW262435   6.381   1.693   2.668  0.2603  1.4722 -4.1583
20040SOL     OW62436   0.348   2.633   7.974  0.1352  0.2864 -0.1012
20040SOL    HW162437   0.276   2.570   7.963 -0.8746  1.3762  0.1309
20040SOL    HW262438   0.357   2.675   7.889 -0.9527  1.6426  0.4175
20041SOL     OW62439   3.417   1.860   8.388 -0.2243 -0.1857  0.1079
20041SOL    HW162440   3.370   1.930   8.434 -0.7366  0.9189 -1.9783
20041SOL    HW262441   3.456   1.903   8.312  0.9063 -1.8546 -0.3114
20042SOL     OW62442   1.796   4.702  10.008 -0.1153 -0.0115 -0.2385
20042SOL    HW162443   1.732   4.635   9.985  0.1292 -0.3604  0.1014
20042SOL    HW262444   1.766   4.737  10.092  0.1370 -0.1680 -0.0833
20043SOL     OW62445   9.097   6.633   6.148  0.2350  0.1234 -0.4725
20043SOL    HW162446   9.171   6.692   6.165  0.3041 -0.0059 -0.3175
20043SOL    HW262447   9.023   6.674   6.192  0.6279 -0.7286  1.0595
20044SOL     OW62448   9.817   3.453  10.413  0.3515 -0.3793  0.3159
20044SOL    HW162449   9.825   3.546  10.433  0.1514 -0.3537  0.2842
20044SOL    HW262450   9.784   3.451  10.323  1.3981 -0.4941 -0.0713
20045SOL     OW62451   8.057   8.738   0.888  0.7785 -0.1257 -0.6507
20045SOL    HW162452   8.145   8.775   0.881  0.8179 -0.4022 -1.8988
20045SOL    HW262453   8.051   8.676   0.816 -0.8909  0.8793 -1.4612
20046SOL     OW62454   4.355   8.045   6.409 -0.1689  0.1847  0.4125
20046SOL    HW162455   4.320   8.038   6.497  1.4845 -2.5666  0.9947
20046SOL    HW262456   4.430   7.985   6.408 -0.8721 -0.9152 -3.2112
20047SOL     OW62457   7.939   8.856   9.871  0.8812  0.5987 -0.2625
20047SOL    HW162458   7.894   8.871   9.954 -1.9549  0.1404 -1.6143
20047SOL    HW262459   8.012   8.799   9.894 -0.6352 -0.6685  1.7403
20048SOL     OW62460   1.869   7.354   9.865 -0.0271  0.0105  0.2222
20048SOL    HW162461   1.841   7.351   9.956 -0.4057  0.3635  0.1170
20048SOL    HW262462   1.924   7.432   9.860  0.9252 -0.6310  0.4087
20049SOL     OW62463   2.413   8.513   7.537 -0.4765  0.6658 -0.3397
20049SOL    HW162464   2.363   8.452   7.482 -0.0938 -0.3221  0.3777
20049SOL    HW262465   2.380   8.499   7.625  1.1041 -0.0898  0.1682
20050SOL     OW62466   0.831   4.147   8.112 -0.4170  0.2102 -0.1054
20050SOL    HW162467   0.747   4.185   8.085 -1.0567  0.2491  1.7673
20050SOL    HW262468   0.853   4.194   8.193  0.5359 -1.0216  0.3762
20051SOL     OW62469   0.207   8.336   8.734  0.1676 -0.0058 -0.5447
20051SOL    HW162470   0.238   8.350   8.644 -0.3022 -1.0077 -0.8798
20051SOL    HW262471   0.201   8.424   8.771  0.0121  0.4554 -1.6204
20052SOL     OW62472   3.304   4.675   5.008 -0.1430 -0.2123 -0.7744
20052SOL    HW162473   3.217   4.714   5.020  0.4224  0.8418  0.1254
20052SOL    HW262474   3.345   4.727   4.939  0.0555 -0.1894 -0.6419
20053SOL     OW62475   8.620   7.397   6.208  0.3386 -0.2671 -0.1675
20053SOL    HW162476   8.708   7.361   6.217  0.6684  0.2196 -1.2763
20053SOL    HW262477   8.564   7.321   6.197  0.5642 -0.5981  0.8785
20054SOL     OW62478   7.761   2.015   0.166 -0.0245  0.3285 -0.4690
20054SOL    HW162479   7.835   2.064   0.202 -0.0663 -0.8223  1.2478
20054SOL    HW262480   7.800   1.935   0.131 -0.3173  0.2772 -0.6772
20055SOL     OW62481   6.465   0.027   6.311 -0.4833  0.4763  0.8346
20055SOL    HW162482   6.461  -0.063   6.278  1.9302  1.0835 -1.4991
20055SOL    HW262483   6.526   0.022   6.385 -0.7070  0.1217  0.9959
20056SOL     OW62484   5.917   6.580  10.303  0.4221 -0.3385 -0.1752
20056SOL    HW162485   5.895   6.542  10.388 -1.4875  0.3962 -0.2908
20056SOL    HW262486   5.963   6.662  10.324  1.1755 -0.8185  0.1043
20057SOL     OW62487   7.652   7.338   4.439 -0.1241  0.1462  0.4175
20057SOL    HW162488   7.645   7.248   4.469  0.4283  0.0722  0.3280
20057SOL    HW262489   7.610   7.338   4.353 -0.9846  0.1879  0.8251
20058SOL     OW62490   0.385  10.371   1.143  0.0828  0.3675 -0.1299
20058SOL    HW162491   0.317  10.437   1.132 -1.6089 -0.9628  1.6355
20058SOL    HW262492   0.380  10.316   1.065 -2.2722 -0.8526  0.7919
20059SOL     OW62493   8.586   4.524   6.337 -0.2092 -0.5396 -0.0407
20059SOL    HW162494   8.669   4.486   6.367  0.8417  2.6370  1.5921
20059SOL    HW262495   8.596   4.532   6.242  1.3251 -0.3983  0.1014
20060SOL     OW62496   0.508   4.272   2.351  0.3775 -0.4433 -0.3850
20060SOL    HW162497   0.446   4.264   2.424  0.0217  0.6173 -0.5603
20060SOL    HW262498   0.593   4.278   2.393  0.0675  1.6776  0.0678
20061SOL     OW62499   4.418   5.774   6.549 -0.4247  0.3317  0.0899
20061SOL    HW162500   4.454   5.757   6.462  0.3830 -1.4858  0.7250
20061SOL    HW262501   4.325   5.751   6.542 -0.3557  0.1720 -0.2988
20062SOL     OW62502   3.007   1.339   2.309  0.4463 -0.6543 -0.2653
20062SOL    HW162503   3.039   1.419   2.269 -1.4459  1.1461  1.5809
20062SOL    HW262504   2.978   1.285   2.236  0.6188  0.8599 -1.4927
20063SOL     OW62505   8.502  10.224   0.803 -0.0653  0.2090  0.5413
20063SOL    HW162506   8.445  10.149   0.821  0.7934 -1.1587 -1.9800
20063SOL    HW262507   8.591  10.189   0.812  0.3464  0.8689 -0.7924
20064SOL     OW62508  10.087   2.270   7.270 -0.3449 -1.0834 -0.0495
20064SOL    HW162509  10.094   2.211   7.345 -0.2432  1.0779  1.7375
20064SOL    HW262510  10.168   2.320   7.270 -1.8372  1.5892  0.8381
20065SOL     OW62511   7.448   5.464   2.403 -0.3784 -0.2484  0.0764
20065SOL    HW162512   7.510   5.492   2.470 -0.4200 -1.4448  0.6305
20065SOL    HW262513   7.431   5.372   2.422  0.6906 -1.0309 -2.4119
20066SOL     OW62514   3.587   5.132   5.538  0.2162  0.1640 -0.4779
20066SOL    HW162515   3.672   5.099   5.568  0.5847 -0.2520 -1.9217
20066SOL    HW262516   3.530   5.056   5.539  0.3946  0.0107 -1.3921
20067SOL     OW62517   8.633   3.438   3.116  0.8763 -0.4757 -1.1382
20067SOL    HW162518   8.560   3.465   3.060 -0.2268  1.3789  1.0205
20067SOL    HW262519   8.699   3.506   3.103  0.0512  0.7719  0.7164
20068SOL     OW62520   2.318   8.906   6.071  0.1884  0.2315  0.5282
20068SOL    HW162521   2.280   8.967   6.134 -0.8458 -1.2095  1.3471
20068SOL    HW262522   2.252   8.838   6.060  0.7492 -0.0598 -1.3890
20069SOL     OW62523   2.248   7.928   6.227  0.2427 -0.3099 -0.3080
20069SOL    HW162524   2.270   7.877   6.149 -1.3731 -0.7349 -0.5088
20069SOL    HW262525   2.247   8.019   6.197  1.3376 -0.3030 -0.3649
20070SOL     OW62526  10.029   3.194   0.116 -0.0281  0.4730 -0.7456
20070SOL    HW162527   9.998   3.249   0.189 -1.2262 -1.0455 -0.0464
20070SOL    HW262528  10.123   3.183   0.132 -0.3005  0.0230  0.7016
20071SOL     OW62529   4.438   9.496   6.043  0.2437  0.1893 -0.4371
20071SOL    HW162530   4.361   9.442   6.063 -0.7709  0.9551 -2.0936
20071SOL    HW262531   4.452   9.484   5.949  1.3814  1.0671 -0.4001
20072SOL     OW62532   0.752   4.453   9.546  0.3840  0.2063  1.1519
20072SOL    HW162533   0.703   4.371   9.555 -2.5854  1.8796  1.7236
20072SOL    HW262534   0.811   4.437   9.473 -1.2945 -1.9206  0.1295
20073SOL     OW62535   6.403   2.791   6.966  0.2047 -0.0642 -0.2965
20073SOL    HW162536   6.491   2.780   7.003  0.4098  0.3267 -0.6620
20073SOL    HW262537   6.383   2.884   6.979 -1.7323 -0.8195  3.2366
20074SOL     OW62538   9.679   0.877   3.658 -0.4157 -0.3287  0.1484
20074SOL    HW162539   9.672   0.968   3.685  0.4927 -0.2213  0.0635
20074SOL    HW262540   9.632   0.828   3.725  0.5709  0.0605  1.1663
20075SOL     OW62541   7.953   3.554   7.466 -0.0691 -0.2474 -0.1843
20075SOL    HW162542   7.985   3.474   7.507  0.2554  0.7931  1.7191
20075SOL    HW262543   7.871   3.574   7.512  0.5761  1.2494  0.3844
20076SOL     OW62544   2.164  10.450   1.425 -0.2306 -0.4860  0.2423
20076SOL    HW162545   2.123  10.394   1.358 -1.9306 -1.0187  1.6397
20076SOL    HW262546   2.170  10.536   1.384 -0.2436 -1.0306 -0.9535
20077SOL     OW62547   7.502   8.090   2.895  0.6778 -0.1182 -0.4002
20077SOL    HW162548   7.552   8.159   2.938  2.1777 -0.1984 -1.9071
20077SOL    HW262549   7.500   8.018   2.958  1.5191  0.3004  0.1158
20078SOL     OW62550   0.154   2.983   7.936  0.6388  0.6008  0.1361
20078SOL    HW162551   0.078   2.947   7.980  0.0909  1.7060  0.1173
20078SOL    HW262552   0.120   3.056   7.885  1.5475  0.4625 -0.7088
20079SOL     OW62553   7.380   5.535   0.692  0.4883 -0.3694 -0.3566
20079SOL    HW162554   7.450   5.500   0.637  0.4110  0.8174 -1.2699
20079SOL    HW262555   7.315   5.465   0.696  0.1321 -0.2253 -2.4923
20080SOL     OW62556   7.330   7.758   9.272 -0.2372 -0.6765  0.2333
20080SOL    HW162557   7.386   7.769   9.349 -1.1579  0.5050  0.7729
20080SOL    HW262558   7.327   7.664   9.257  0.6013 -0.8630  1.1590
20081SOL     OW62559   8.932   6.037   2.459 -0.5475  0.0196 -0.4833
20081SOL    HW162560   8.891   6.083   2.386  1.5890 -0.3059 -2.0245
20081SOL    HW262561   9.025   6.061   2.453  0.0506 -1.7276  0.7839
20082SOL     OW62562   9.140   2.594   3.781  0.0834 -0.3823 -0.4365
20082SOL    HW162563   9.073   2.572   3.846 -0.1605 -1.0699 -0.9209
20082SOL    HW262564   9.206   2.526   3.790  0.9420  0.5094  0.3168
20083SOL     OW62565   4.217   9.170   0.790  0.0393 -0.0729  0.4224
20083SOL    HW162566   4.134   9.210   0.816  1.0499  1.4841  1.4271
20083SOL    HW262567   4.220   9.087   0.839 -0.5733  0.2232  0.9828
20084SOL     OW62568   8.683   8.205   2.889 -0.6279  0.6772  0.1037
20084SOL    HW162569   8.722   8.290   2.872  0.0381  0.2684 -0.4713
20084SOL    HW262570   8.599   8.224   2.931 -0.0491  1.5902  0.8869
20085SOL     OW62571   4.333   2.069   3.552 -0.3963  0.3377 -0.0929
20085SOL    HW162572   4.284   2.103   3.627 -0.9526 -1.2216  0.2765
20085SOL    HW262573   4.348   1.977   3.572  1.0569  0.3279 -1.0764
20086SOL     OW62574   0.223   9.682   2.503  0.6882  0.3086 -0.7903
20086SOL    HW162575   0.182   9.596   2.496 -0.8711  1.1611 -4.1677
20086SOL    HW262576   0.179   9.724   2.576 -0.2744 -0.9066 -0.6389
20087SOL     OW62577   8.414   6.282   0.140 -0.1018  0.3172 -0.2235
20087SOL    HW162578   8.344   6.222   0.112  0.1649 -0.9017  1.5548
20087SOL    HW262579   8.378   6.369   0.126 -1.4918 -0.2807 -0.5200
20088SOL     OW62580   9.391   3.467   5.751 -0.2759  0.7070 -0.0442
20088SOL    HW162581   9.409   3.384   5.795  0.5395  1.9654  2.1858
20088SOL    HW262582   9.475   3.494   5.715  0.0705  1.6318  1.3329
20089SOL     OW62583   4.225   5.767   2.814  0.9516  0.3515  0.3509
20089SOL    HW162584   4.205   5.680   2.847 -1.7865  0.9625  0.5730
20089SOL    HW262585   4.286   5.753   2.742 -1.1575 -1.9847 -1.1168
20090SOL     OW62586   3.646   0.719   6.181  0.8753  0.0469 -0.0208
20090SOL    HW162587   3.615   0.658   6.115  1.8714  0.7646 -1.1774
20090SOL    HW262588   3.575   0.781   6.192  0.3396 -0.6063  0.2826
20091SOL     OW62589   2.568   8.165   0.376 -0.1030  0.0895 -0.2361
20091SOL    HW162590   2.580   8.220   0.299 -0.2549  0.4654  0.0069
20091SOL    HW262591   2.656   8.134   0.397  0.3134  1.8300  0.7956
20092SOL     OW62592   9.953  10.101   0.575 -0.0406  0.0852 -0.2221
20092SOL    HW162593   9.964  10.028   0.514 -0.3912 -0.5563  0.4740
20092SOL    HW262594   9.930  10.176   0.519  1.7435  0.0329 -1.0967
20093SOL     OW62595   6.194   5.835   1.206 -0.3610 -0.0058 -0.2820
20093SOL    HW162596   6.214   5.925   1.234 -1.7026  0.7287 -1.5270
20093SOL    HW262597   6.151   5.795   1.281 -0.2354  0.5844  0.1111
20094SOL     OW62598   6.967  10.164   8.372  0.0307 -0.3258 -0.9529
20094SOL    HW162599   6.898  10.226   8.395 -0.4500 -0.8789 -0.8775
20094SOL    HW262600   6.978  10.175   8.277  0.1629  0.0862 -0.8921
20095SOL     OW62601  10.582   4.828   7.259  0.0073 -0.5919  0.3981
20095SOL    HW162602  10.598   4.739   7.291 -0.1842 -1.4713 -1.7796
20095SOL    HW262603  10.500   4.822   7.210 -0.6023  1.0591  1.1595
20096SOL     OW62604   4.599   0.493   4.823  0.6863  0.1181 -0.3183
20096SOL    HW162605   4.643   0.470   4.904 -1.0251 -1.6817  0.1896
20096SOL    HW262606   4.647   0.446   4.755  0.8749 -0.0744 -0.0551
20097SOL     OW62607   3.124   8.999   1.264 -0.1982  0.5403 -0.3349
20097SOL    HW162608   3.147   9.089   1.240  2.1146 -0.1000 -0.8048
20097SOL    HW262609   3.062   8.971   1.196 -0.1731  1.4489 -0.7416
20098SOL     OW62610   2.143   2.959   7.818 -0.5745  0.4514  0.3035
20098SOL    HW162611   2.112   2.881   7.773 -1.5955 -0.0954  1.8575
20098SOL    HW262612   2.237   2.961   7.803 -0.7657 -0.1736 -1.0756
20099SOL     OW62613   9.549   7.317   6.389 -0.0345 -0.6111 -0.6424
20099SOL    HW162614   9.575   7.232   6.425  2.3576 -0.0196 -0.7981
20099SOL    HW262615   9.527   7.370   6.465  0.9125 -0.6453 -0.3258
20100SOL     OW62616   3.876   1.211   2.208 -0.4027  0.1019  0.0888
20100SOL    HW162617   3.903   1.302   2.197 -0.6711  0.1376 -0.2827
20100SOL    HW262618   3.783   1.215   2.230 -1.6035 -0.1761 -3.9973
20101SOL     OW62619   8.541   3.720   8.504 -0.0007 -0.1272 -0.3578
20101SOL    HW162620   8.459   3.671   8.490  0.2216 -0.7627  0.4972
20101SOL    HW262621   8.519   3.784   8.571  0.0717  0.0487 -0.5016
20102SOL     OW62622   4.224   5.229   2.564 -0.4335  0.2415 -0.1000
20102SOL    HW162623   4.134   5.195   2.567 -0.6359  0.7525 -0.3620
20102SOL    HW262624   4.278   5.156   2.597 -0.7639 -0.6747 -1.4802
20103SOL     OW62625   6.254   2.620   2.737 -0.3672  0.0594  0.2264
20103SOL    HW162626   6.205   2.698   2.762 -2.3081 -0.7805 -0.7922
20103SOL    HW262627   6.299   2.645   2.656  1.4808  1.0160  1.4680
20104SOL     OW62628   4.490   1.025   6.819 -0.4000 -0.4126  0.2754
20104SOL    HW162629   4.524   1.055   6.903  0.2397  0.3608 -0.2390
20104SOL    HW262630   4.442   1.101   6.785  2.0852  0.4674 -1.5062
20105SOL     OW62631   2.573   4.650   0.153  0.0881  0.1863 -0.2769
20105SOL    HW162632   2.602   4.563   0.177 -0.4220 -0.2240 -1.0904
20105SOL    HW262633   2.649   4.691   0.113 -0.0048 -0.3265 -0.9908
20106SOL     OW62634   4.319   0.908   9.088 -0.0749  0.9016  0.3203
20106SOL    HW162635   4.328   0.944   9.177 -1.4205  0.0049  0.8504
20106SOL    HW262636   4.264   0.972   9.042 -1.5187  0.1438  0.9256
20107SOL     OW62637   0.460   1.566   8.227 -0.0263  0.1471  0.2845
20107SOL    HW162638   0.552   1.544   8.219 -0.2780 -1.3564  1.0862
20107SOL    HW262639   0.445   1.571   8.322 -0.3884  2.1840  0.1567
20108SOL     OW62640   4.705   4.410  10.097 -0.4557 -0.2201  0.1744
20108SOL    HW162641   4.748   4.494  10.081 -1.9800  0.2244 -2.1118
20108SOL    HW262642   4.612   4.430  10.101 -0.7943 -1.6938  0.3324
20109SOL     OW62643   3.401   2.255   2.615  0.2253  0.9754 -0.2452
20109SOL    HW162644   3.432   2.324   2.673  1.6705  1.3916 -1.4680
20109SOL    HW262645   3.395   2.296   2.529  0.7868 -0.3238 -0.9311
20110SOL     OW62646   6.434   2.725   0.326 -0.0748 -0.0154  0.2567
20110SOL    HW162647   6.456   2.813   0.295 -0.8052  0.2254  0.4084
20110SOL    HW262648   6.509   2.671   0.301 -0.7302  0.0883 -2.2214
20111SOL     OW62649   2.620   5.288   9.809 -0.3136  0.1892  0.0103
20111SOL    HW162650   2.657   5.368   9.847  0.0102  0.9069 -1.7058
20111SOL    HW262651   2.544   5.269   9.863  1.5531 -0.3911  2.6433
20112SOL     OW62652   9.783   4.576   6.907 -0.5459 -0.4881 -0.5991
20112SOL    HW162653   9.713   4.537   6.854 -1.1834  1.0319 -0.9110
20112SOL    HW262654   9.861   4.527   6.882 -1.3627 -1.7710 -0.7426
20113SOL     OW62655   6.112   8.694   6.880  0.1906  0.2487 -0.0858
20113SOL    HW162656   6.160   8.614   6.859  0.2608  0.6001 -1.3687
20113SOL    HW262657   6.148   8.759   6.819  0.2527  1.2967  1.0498
20114SOL     OW62658   6.996   8.787  10.595 -0.1336  0.0170 -0.0609
20114SOL    HW162659   7.000   8.794  10.691  0.6662 -0.8794 -0.0163
20114SOL    HW262660   6.965   8.698  10.579  1.5962 -0.5280 -0.6256
20115SOL     OW62661   9.562   2.779   8.639  0.2912 -0.0943 -0.4332
20115SOL    HW162662   9.557   2.875   8.645 -1.7619 -0.1512 -0.2880
20115SOL    HW262663   9.594   2.752   8.725  1.1135  0.4601 -0.5500
20116SOL     OW62664   0.443   1.607   2.359 -0.2441  0.3922  0.5166
20116SOL    HW162665   0.442   1.511   2.357  2.4841  0.2866  1.0057
20116SOL    HW262666   0.525   1.630   2.402 -0.3759  2.9734 -0.4179
20117SOL     OW62667   2.925  10.414   2.360  0.2640 -1.4157  0.1260
20117SOL    HW162668   3.005  10.372   2.390  0.7159 -0.9569 -0.4002
20117SOL    HW262669   2.898  10.469   2.433  1.5925  0.0323 -0.4095
20118SOL     OW62670   4.161   1.462   7.490  0.0725 -0.0300  0.0471
20118SOL    HW162671   4.070   1.478   7.466  0.2673  0.7040 -0.2184
20118SOL    HW262672   4.177   1.519   7.566  0.4826  0.2916 -0.2788
20119SOL     OW62673   9.928   8.294   1.585  0.2180 -0.0773 -0.2599
20119SOL    HW162674   9.961   8.303   1.674 -1.1634 -1.4791  0.4258
20119SOL    HW262675  10.006   8.303   1.530  1.5516 -1.9062  1.2159
20120SOL     OW62676   5.968   0.919   4.649 -0.0467  0.4179 -0.0549
20120SOL    HW162677   6.012   0.888   4.728 -1.8596  3.6467  2.4902
20120SOL    HW262678   6.018   0.997   4.622  0.0758 -0.1773 -1.6861
20121SOL     OW62679   0.637   7.856   5.965  0.3130 -0.1659 -0.0192
20121SOL    HW162680   0.644   7.950   5.976 -1.6437 -0.0161  0.3079
20121SOL    HW262681   0.581   7.828   6.037  1.6373 -1.7426  0.4764
20122SOL     OW62682   4.851   5.486   6.256 -0.5149 -0.1642 -0.5475
20122SOL    HW162683   4.915   5.415   6.262  0.3172  0.5439 -0.9796
20122SOL    HW262684   4.768   5.441   6.236 -0.1914 -1.0911  0.1469
20123SOL     OW62685   7.748   9.118   4.767 -0.0275 -0.4288  0.2498
20123SOL    HW162686   7.723   9.081   4.851  0.4033  1.4691  1.2687
20123SOL    HW262687   7.700   9.200   4.761  1.1345  0.2247 -0.6349
20124SOL     OW62688   7.914   4.847   3.742 -0.2110 -0.2602  0.1481
20124SOL    HW162689   8.004   4.840   3.709 -0.3311 -0.3449 -0.1729
20124SOL    HW262690   7.871   4.767   3.711 -0.6397  0.1985 -0.4863
20125SOL     OW62691   4.880   6.250   3.927  0.5265  0.2621  0.0266
20125SOL    HW162692   4.876   6.346   3.928  1.5578  0.3102  0.8114
20125SOL    HW262693   4.868   6.225   4.019  0.4274 -0.3624 -0.1533
20126SOL     OW62694   4.786   4.429   9.494  0.5347  0.3378 -0.5014
20126SOL    HW162695   4.808   4.512   9.536  0.0523 -0.5894  1.7347
20126SOL    HW262696   4.855   4.416   9.430  1.4249  1.7857  0.1052
20127SOL     OW62697   7.810   5.079   0.285  0.3541  0.0377 -0.3274
20127SOL    HW162698   7.816   5.171   0.262 -1.2277  0.2106 -0.1170
20127SOL    HW262699   7.769   5.037   0.209 -1.4996 -0.0002  0.6476
20128SOL     OW62700   0.815   1.589   9.677 -0.3697  0.4840  0.2549
20128SOL    HW162701   0.839   1.522   9.613 -0.2525 -0.4774  1.2648
20128SOL    HW262702   0.868   1.567   9.755 -2.0172  0.3489  1.3809
20129SOL     OW62703   8.707   1.725   7.383  0.0509  0.4310  0.0784
20129SOL    HW162704   8.683   1.805   7.336  1.1999  0.1320 -1.0513
20129SOL    HW262705   8.789   1.746   7.426  0.7727 -0.3725 -0.8727
20130SOL     OW62706   8.286   4.016   4.409  0.3798  0.1222 -0.2767
20130SOL    HW162707   8.348   4.030   4.337  0.6071  0.8780  0.0461
20130SOL    HW262708   8.332   3.958   4.469 -0.1735 -1.2744 -1.1631
20131SOL     OW62709   5.789   4.161   4.194 -0.3198  0.0080 -0.4278
20131SOL    HW162710   5.745   4.144   4.110 -0.8339  0.2413 -0.2088
20131SOL    HW262711   5.855   4.227   4.173 -2.1292  1.9976 -0.1873
20132SOL     OW62712   2.080   3.901   2.240 -0.3082 -0.0491 -0.8906
20132SOL    HW162713   2.062   3.927   2.150 -0.6357  0.5931 -0.6415
20132SOL    HW262714   2.084   3.805   2.236 -1.8137 -0.1150 -1.3188
20133SOL     OW62715   1.694   9.944   8.128 -0.1599 -0.0558  0.5348
20133SOL    HW162716   1.677  10.038   8.116 -0.1556 -0.1930 -0.6276
20133SOL    HW262717   1.607   9.904   8.128 -0.0819 -0.3741 -2.0410
20134SOL     OW62718   1.379   8.587   5.291 -0.1186 -0.5184 -0.5314
20134SOL    HW162719   1.317   8.652   5.258  1.0775  0.2145 -1.4029
20134SOL    HW262720   1.380   8.601   5.386  0.4922  1.1280 -0.7389
20135SOL     OW62721   4.469   4.262   9.016 -0.0726  0.0862  0.1085
20135SOL    HW162722   4.422   4.223   9.090  0.2896 -0.4762  0.0530
20135SOL    HW262723   4.444   4.354   9.016 -1.1525 -0.1974  0.0927
20136SOL     OW62724   7.604   9.930   5.641 -0.1382  0.0236 -0.3256
20136SOL    HW162725   7.659   9.853   5.632 -0.0952  0.1010 -0.7348
20136SOL    HW262726   7.654  10.001   5.601 -0.8061 -0.0351 -1.3063
20137SOL     OW62727   1.062   2.643   4.756 -0.5072 -0.1163 -0.1195
20137SOL    HW162728   1.078   2.683   4.842  0.0168  1.3888 -0.8751
20137SOL    HW262729   0.989   2.692   4.720 -0.9031 -0.9232 -0.4378
20138SOL     OW62730   6.032   7.884   4.500 -0.2442 -0.1801  0.3718
20138SOL    HW162731   5.937   7.896   4.511 -0.0698  0.9881  0.7517
20138SOL    HW262732   6.070   7.967   4.528  0.8469 -0.3397 -0.5639
20139SOL     OW62733   8.431   5.991   1.592 -0.1599 -0.3959  0.1355
20139SOL    HW162734   8.464   5.904   1.615 -2.2130 -1.6924 -1.4419
20139SOL    HW262735   8.392   5.980   1.506 -1.6168  1.8200  0.4207
20140SOL     OW62736   0.063   5.992   9.517 -0.8100  0.0350 -0.0644
20140SOL    HW162737   0.089   6.021   9.604 -0.9815 -1.6710  0.6047
20140SOL    HW262738   0.145   5.969   9.473 -0.7574  0.4398 -0.1782
20141SOL     OW62739   3.355   3.838   2.908 -0.4872 -0.8204  0.3780
20141SOL    HW162740   3.323   3.781   2.838 -0.2707 -1.0124  0.4326
20141SOL    HW262741   3.450   3.834   2.901 -0.4684  0.2109 -0.1550
20142SOL     OW62742   0.395   4.294   6.087 -0.4234 -0.2263 -0.1544
20142SOL    HW162743   0.305   4.285   6.055 -0.0521  2.0916 -2.1560
20142SOL    HW262744   0.448   4.247   6.023 -0.1071 -0.7810  0.4996
20143SOL     OW62745   1.493   1.549   3.795 -0.3322 -0.0392 -0.2626
20143SOL    HW162746   1.454   1.489   3.731 -2.4192  1.0080 -0.0693
20143SOL    HW262747   1.557   1.599   3.745 -0.2443 -0.8245 -0.9646
20144SOL     OW62748   8.619   3.827   8.274 -0.1537 -0.8118 -0.1189
20144SOL    HW162749   8.581   3.793   8.355 -0.9036  0.6833  0.1935
20144SOL    HW262750   8.543   3.857   8.223  0.4923  1.9474  0.3752
20145SOL     OW62751   2.289   7.222   0.851 -0.0395  0.2871  0.8751
20145SOL    HW162752   2.201   7.198   0.879  0.0028  0.4325  1.1349
20145SOL    HW262753   2.309   7.160   0.780 -1.3340  1.8537 -0.9708
20146SOL     OW62754  10.595   5.063   0.748 -0.2364 -0.5388  0.2031
20146SOL    HW162755  10.651   4.996   0.788 -0.7646 -0.4881  1.0752
20146SOL    HW262756  10.631   5.076   0.661  0.4769 -1.2480  0.3764
20147SOL     OW62757   4.431   5.652  10.562 -0.1183  0.4921 -0.1406
20147SOL    HW162758   4.481   5.585  10.608 -3.3927 -1.9375  0.2875
20147SOL    HW262759   4.421   5.617  10.473 -0.8792  0.9754 -0.2531
20148SOL     OW62760   8.255   2.037   1.734 -0.8202 -0.2966 -0.4597
20148SOL    HW162761   8.218   2.121   1.704  0.0542  1.5377  3.0428
20148SOL    HW262762   8.210   2.020   1.817  0.2090 -2.4701 -0.2954
20149SOL     OW62763   5.597   7.636   7.586  0.4188 -0.0554 -0.0620
20149SOL    HW162764   5.539   7.707   7.558  0.6360  0.4664  0.7746
20149SOL    HW262765   5.537   7.568   7.618  0.2411  0.8791  1.7363
20150SOL     OW62766   1.012   7.523   4.835 -0.2457  0.2254  0.2237
20150SOL    HW162767   1.046   7.440   4.868  0.6211  0.4378 -0.1220
20150SOL    HW262768   0.960   7.558   4.908 -0.5160 -0.5456  0.4213
20151SOL     OW62769   6.596   2.256  10.287 -0.5355  0.2263  0.9944
20151SOL    HW162770   6.684   2.274  10.318  0.1009 -0.6960 -0.1795
20151SOL    HW262771   6.564   2.184  10.341 -0.3958  0.2822  1.1482
20152SOL     OW62772   3.171   9.775   5.418 -0.6590 -0.6551  0.0139
20152SOL    HW162773   3.133   9.704   5.366 -0.0165 -0.5139 -0.6644
20152SOL    HW262774   3.266   9.760   5.413 -0.3989  1.1164 -1.4536
20153SOL     OW62775   1.647   8.396   7.147 -0.9430 -0.1156  0.3007
20153SOL    HW162776   1.670   8.343   7.071 -0.6502 -1.0247  0.9987
20153SOL    HW262777   1.721   8.383   7.208 -1.8072 -0.5253  1.2957
20154SOL     OW62778  10.029   0.515   3.327 -0.5496  0.0859 -0.5791
20154SOL    HW162779   9.943   0.487   3.359  0.1599 -1.1103  0.3461
20154SOL    HW262780  10.037   0.474   3.241 -0.1635 -1.3618  0.1144
20155SOL     OW62781   6.437   7.198   4.097  0.3349  0.2025  0.0776
20155SOL    HW162782   6.387   7.279   4.094  1.2854  0.7861 -1.2543
20155SOL    HW262783   6.522   7.224   4.134  0.7944 -0.0710 -0.7550
20156SOL     OW62784   8.482   6.086   0.326 -0.6087 -0.2712  0.3541
20156SOL    HW162785   8.435   6.153   0.277 -2.7734 -1.2061  1.0322
20156SOL    HW262786   8.489   6.120   0.415 -0.2933 -0.2833  0.3360
20157SOL     OW62787   6.095   9.082   2.070  0.5030  0.2007  0.1240
20157SOL    HW162788   6.089   9.057   2.162  0.4450  0.3324  0.1552
20157SOL    HW262789   6.005   9.077   2.037  0.5513 -0.0353  0.0250
20158SOL     OW62790   8.507   9.072   0.472 -0.1440 -0.3309  0.6097
20158SOL    HW162791   8.579   9.010   0.461  0.1363  0.0285  0.4061
20158SOL    HW262792   8.547   9.149   0.511 -0.7843 -0.8619  2.4331
20159SOL     OW62793   2.714   9.099  10.036  0.0781  0.6104  0.3263
20159SOL    HW162794   2.709   9.175  10.093 -0.4177  0.5341  0.3905
20159SOL    HW262795   2.659   9.122   9.961 -0.0414  0.3349  0.3280
20160SOL     OW62796   7.783   7.154   2.150  0.4074  0.0796 -0.4154
20160SOL    HW162797   7.794   7.129   2.242  1.2998 -1.5954 -0.9259
20160SOL    HW262798   7.753   7.074   2.108  0.0505  0.8191 -1.5953
20161SOL     OW62799   5.848   8.954   1.239  0.6411  0.3557 -0.9078
20161SOL    HW162800   5.796   8.907   1.173  1.2316 -2.5601  0.5480
20161SOL    HW262801   5.905   8.887   1.277  1.4818  2.2668  1.4387
20162SOL     OW62802  10.417   6.545   5.998 -0.4822 -0.1430  0.1864
20162SOL    HW162803  10.379   6.630   5.976 -0.2047  0.2498  1.2027
20162SOL    HW262804  10.486   6.532   5.932 -0.3336  0.5495  0.2069
20163SOL     OW62805   0.746   2.920   8.141  0.5744 -0.7941 -0.2764
20163SOL    HW162806   0.683   2.982   8.105  0.6708 -1.1161 -1.0108
20163SOL    HW262807   0.725   2.916   8.235 -0.7152 -1.1478 -0.5599
20164SOL     OW62808   3.843   2.673   0.268  0.6355 -0.0926  0.1146
20164SOL    HW162809   3.857   2.693   0.176 -0.2856 -0.1871 -0.0612
20164SOL    HW262810   3.913   2.611   0.290  2.1273  1.5015  0.0648
20165SOL     OW62811  10.191   6.233   5.765  0.0472 -0.2139  0.4829
20165SOL    HW162812  10.277   6.229   5.724 -0.8249 -0.5818 -1.4228
20165SOL    HW262813  10.208   6.260   5.855  2.0406  0.8670 -0.1697
20166SOL     OW62814   7.782   9.005   7.620 -0.1736 -0.3889 -0.1792
20166SOL    HW162815   7.812   8.921   7.654  0.1462 -0.2332 -0.0635
20166SOL    HW262816   7.846   9.027   7.551 -0.1613 -0.1659 -0.0982
20167SOL     OW62817   8.566   4.518  10.562  0.5801 -0.0760  0.0666
20167SOL    HW162818   8.491   4.495  10.617  1.1645  0.8244  1.2761
20167SOL    HW262819   8.609   4.434  10.546 -0.3353 -0.5261 -0.1402
20168SOL     OW62820   7.243   4.982   7.907 -0.4963 -0.9152 -0.2986
20168SOL    HW162821   7.327   5.026   7.921 -1.7633  1.3246  0.6592
20168SOL    HW262822   7.253   4.898   7.953  1.3408 -0.9222 -0.6011
20169SOL     OW62823   8.301   4.833   2.400  0.6345  0.3020  0.6868
20169SOL    HW162824   8.256   4.749   2.396  1.3874 -0.0684 -0.8778
20169SOL    HW262825   8.232   4.897   2.415 -0.0361 -0.5157  1.1856
20170SOL     OW62826   7.812   6.305   9.132 -0.8191 -0.1003  0.0673
20170SOL    HW162827   7.769   6.368   9.189 -1.6891 -0.7510  0.1523
20170SOL    HW262828   7.879   6.263   9.186 -0.4576  0.5082  0.0991
20171SOL     OW62829   1.956   3.388   1.687  0.3051 -0.0957 -0.3236
20171SOL    HW162830   1.877   3.345   1.720  1.1873 -1.2798  0.3522
20171SOL    HW262831   1.977   3.455   1.752  0.2787 -0.2992 -0.1048
20172SOL     OW62832   4.673   3.324   3.459 -0.1279  0.3029  0.4307
20172SOL    HW162833   4.690   3.418   3.455  0.4704  0.1529 -1.2444
20172SOL    HW262834   4.649   3.308   3.551  1.0337  1.8609  1.0586
20173SOL     OW62835   0.973   7.239   2.739 -0.0541  0.9631  1.0125
20173SOL    HW162836   0.919   7.243   2.661  2.2289  0.3490 -0.7190
20173SOL    HW262837   0.961   7.324   2.781 -0.7264  1.6284 -0.4572
20174SOL     OW62838   1.790   2.494  10.573  0.6801  0.0028  0.6936
20174SOL    HW162839   1.877   2.528  10.554 -0.4491  3.2146  0.6374
20174SOL    HW262840   1.746   2.493  10.488  0.1958 -0.0538  0.9426
20175SOL     OW62841   5.679   0.092   5.432 -0.9623 -0.2891  0.5337
20175SOL    HW162842   5.745   0.153   5.464 -0.8438  0.0848 -0.3749
20175SOL    HW262843   5.692   0.012   5.483 -0.6543  0.2078  1.2476
20176SOL     OW62844   3.509   4.568   0.145  0.2973 -0.0854 -0.2994
20176SOL    HW162845   3.536   4.629   0.213  0.0011  0.0079 -0.2607
20176SOL    HW262846   3.569   4.585   0.072  0.6104 -0.1822 -0.0668
20177SOL     OW62847   3.428   4.890   0.559 -0.7177  0.1008  0.0393
20177SOL    HW162848   3.472   4.975   0.567 -1.1004  0.5871 -2.4164
20177SOL    HW262849   3.335   4.911   0.555 -0.8392 -0.4709 -0.2188
20178SOL     OW62850   2.029  10.293   7.290 -0.4455  0.0900 -0.0478
20178SOL    HW162851   1.974  10.290   7.212 -0.7196  1.2165  0.0755
20178SOL    HW262852   1.968  10.305   7.363 -0.0960  0.6554  0.1635
20179SOL     OW62853   5.017   7.331   7.092 -0.3433  0.1526  0.3162
20179SOL    HW162854   5.053   7.358   7.007  2.1512  0.5121  1.3736
20179SOL    HW262855   4.978   7.245   7.076  0.3356  0.0799 -1.1293
20180SOL     OW62856  10.507   4.483   2.876 -0.0253  0.2287 -0.0375
20180SOL    HW162857  10.444   4.534   2.825  0.1746 -0.1659 -0.6998
20180SOL    HW262858  10.520   4.403   2.825 -1.1628 -1.0017  1.5176
20181SOL     OW62859   2.213   3.027   8.866 -0.2107  0.2178  0.3514
20181SOL    HW162860   2.268   3.000   8.793 -1.2539  0.8688 -0.7157
20181SOL    HW262861   2.234   3.120   8.878 -1.4098  0.6156 -0.4195
20182SOL     OW62862   7.286   7.727   5.260 -0.3435 -0.0771  0.4241
20182SOL    HW162863   7.354   7.714   5.327  0.3048 -0.4796 -0.3010
20182SOL    HW262864   7.291   7.648   5.206 -0.1935  0.6797 -0.6834
20183SOL     OW62865   5.516   4.732   8.274 -0.3599  0.6118 -0.4214
20183SOL    HW162866   5.571   4.709   8.349 -0.1568  1.3586 -0.3347
20183SOL    HW262867   5.427   4.736   8.309 -0.3784  0.1233 -0.4059
20184SOL     OW62868   4.409   5.661   7.580 -0.5725 -0.0442 -0.4252
20184SOL    HW162869   4.366   5.668   7.495 -1.9703  0.0250  0.2549
20184SOL    HW262870   4.413   5.751   7.612 -0.1273 -0.0791 -0.3758
20185SOL     OW62871   5.726   5.365   4.325  0.0752 -0.3997 -0.3215
20185SOL    HW162872   5.649   5.316   4.295 -0.2908 -0.3262  0.4668
20185SOL    HW262873   5.712   5.376   4.419  0.7056  0.2414 -0.2952
20186SOL     OW62874   4.872   9.263  10.074  0.0079  0.0103  0.2725
20186SOL    HW162875   4.948   9.208  10.059  0.6652  1.0118 -0.1972
20186SOL    HW262876   4.908   9.345  10.108 -0.9450  0.1343  1.0162
20187SOL     OW62877   2.748   0.715   0.880 -0.1094  0.9148 -0.7350
20187SOL    HW162878   2.748   0.766   0.961 -1.3362  0.9426 -0.7291
20187SOL    HW262879   2.659   0.726   0.845 -0.8712 -2.1874 -0.1182
20188SOL     OW62880   3.027   8.173   7.105 -0.3107  0.3492  0.0424
20188SOL    HW162881   3.072   8.102   7.060 -0.4808  1.0151 -1.2230
20188SOL    HW262882   2.972   8.213   7.038  0.1334  1.9669  0.5910
20189SOL     OW62883   3.749   7.306   9.037  0.4627  0.0255  0.0187
20189SOL    HW162884   3.728   7.358   9.115 -0.9591 -1.0443  0.4010
20189SOL    HW262885   3.730   7.216   9.063 -0.1253 -0.3411 -1.5923
20190SOL     OW62886   7.359   7.152   6.747  0.4361  0.0817 -0.0663
20190SOL    HW162887   7.433   7.106   6.708  0.1404 -0.0952 -0.4198
20190SOL    HW262888   7.313   7.192   6.674 -0.3596 -0.6028  0.0376
20191SOL     OW62889   5.940   3.024   2.575  0.4352  0.7978  0.3798
20191SOL    HW162890   6.031   3.019   2.604  0.8429  1.2344 -0.7650
20191SOL    HW262891   5.901   3.092   2.630  1.4406  2.2817 -0.6753
20192SOL     OW62892   6.719   7.316   2.136  0.2828  0.0697 -0.0576
20192SOL    HW162893   6.755   7.350   2.217 -0.0934  0.0899  0.1031
20192SOL    HW262894   6.624   7.311   2.152 -0.0852  2.1291 -1.2141
20193SOL     OW62895  10.412   1.227   1.545 -0.1897 -0.2087  0.0362
20193SOL    HW162896  10.366   1.297   1.591 -0.0764 -0.0648 -0.0721
20193SOL    HW262897  10.504   1.241   1.564 -0.2134 -0.7607  0.6217
20194SOL     OW62898   8.747   1.085   2.504 -0.0144 -0.4023  0.0915
20194SOL    HW162899   8.827   1.062   2.456 -0.2308  0.3501 -0.6520
20194SOL    HW262900   8.772   1.161   2.556 -0.1064 -0.4729  0.2373
20195SOL     OW62901   5.207   4.726   9.348  0.1385  0.4909  0.2952
20195SOL    HW162902   5.168   4.813   9.344 -0.9056  0.0099 -0.7652
20195SOL    HW262903   5.256   4.718   9.266  1.2311  0.5125  0.9291
20196SOL     OW62904   0.437   4.552   1.268  0.3433  0.5398 -0.1327
20196SOL    HW162905   0.513   4.570   1.323 -0.4836  0.4415  1.0935
20196SOL    HW262906   0.471   4.550   1.179  1.6393  1.2215  0.3251
20197SOL     OW62907   8.340   7.880   5.440 -0.2056  0.0922 -0.3940
20197SOL    HW162908   8.304   7.823   5.373 -1.0699  0.4478 -0.2384
20197SOL    HW262909   8.399   7.823   5.491 -0.1869 -0.3735 -0.9305
20198SOL     OW62910   2.689   1.585   4.655  0.6645 -0.0786 -0.3150
20198SOL    HW162911   2.708   1.491   4.660  0.0745 -0.1874 -0.0926
20198SOL    HW262912   2.631   1.602   4.729  1.8820  0.7463  0.4937
20199SOL     OW62913   3.417   3.104   5.741  0.5663 -0.8316 -0.3200
20199SOL    HW162914   3.334   3.075   5.778  0.5741 -0.9538 -0.3961
20199SOL    HW262915   3.395   3.179   5.687  0.8037  0.5286  1.3912
20200SOL     OW62916   8.858   9.179   7.675 -0.3439 -0.7722  0.3615
20200SOL    HW162917   8.821   9.117   7.739  1.8176 -2.1470  0.3569
20200SOL    HW262918   8.915   9.235   7.727 -2.5590  1.6167  0.4358
20201SOL     OW62919   9.281   2.821   8.590 -0.0827  0.6612  0.1700
20201SOL    HW162920   9.258   2.800   8.499  0.2561  2.6908 -0.4322
20201SOL    HW262921   9.371   2.791   8.599 -0.7489 -1.3725  0.5000
20202SOL     OW62922   0.405  10.028   6.970  0.3786 -0.2218 -0.5867
20202SOL    HW162923   0.433  10.118   6.952 -0.6885 -0.0272 -1.4086
20202SOL    HW262924   0.355  10.034   7.051  1.6852 -0.3710  0.2486
20203SOL     OW62925   9.986   6.273   2.511  0.3851  0.2597  0.2226
20203SOL    HW162926   9.920   6.213   2.543  2.0228 -2.7659 -1.5713
20203SOL    HW262927   9.939   6.331   2.451 -0.7850 -1.4059 -0.5411
20204SOL     OW62928   6.581   1.152   7.915 -0.1046  0.0930  0.4025
20204SOL    HW162929   6.598   1.194   7.831  0.0692 -0.6769  0.0431
20204SOL    HW262930   6.617   1.212   7.980 -2.5703  2.0072  0.1412
20205SOL     OW62931   7.370   7.918   1.203 -0.4266  0.5028 -0.0532
20205SOL    HW162932   7.447   7.955   1.247 -0.5315 -0.7739  1.3231
20205SOL    HW262933   7.336   7.989   1.149  2.2820  0.8181 -1.5203
20206SOL     OW62934   0.096   2.514   1.184 -0.1026 -0.1410  1.0076
20206SOL    HW162935   0.134   2.431   1.154 -1.9421 -1.4517  2.0960
20206SOL    HW262936   0.065   2.557   1.105  1.4144 -0.1550  0.3628
20207SOL     OW62937   9.622   7.382   1.328  0.3507 -0.1478 -0.4142
20207SOL    HW162938   9.564   7.430   1.269 -0.8946  0.6065  1.3162
20207SOL    HW262939   9.707   7.425   1.318 -0.1336  0.7612 -0.7529
20208SOL     OW62940   5.022   3.890   0.650  0.5994  0.2275  0.4313
20208SOL    HW162941   4.946   3.871   0.706 -1.6111  1.3845 -1.9489
20208SOL    HW262942   5.022   3.986   0.643  1.6486  0.1725 -0.4832
20209SOL     OW62943   0.525   9.351   0.703 -0.3214  0.2456 -0.4227
20209SOL    HW162944   0.606   9.380   0.661  0.2185 -0.6445 -0.0116
20209SOL    HW262945   0.553   9.305   0.781 -1.2559  0.3687  0.0007
20210SOL     OW62946   3.307   9.875   2.623  0.4572  0.0244 -0.3036
20210SOL    HW162947   3.237   9.935   2.650 -0.0923  0.0219 -1.6522
20210SOL    HW262948   3.291   9.861   2.530  2.4003  0.2146 -0.6974
20211SOL     OW62949   2.864   1.802   7.803  0.1893  0.3347 -0.0507
20211SOL    HW162950   2.819   1.828   7.884 -2.4915 -2.4793 -0.4523
20211SOL    HW262951   2.931   1.741   7.831  0.4161  0.6794  0.1657
20212SOL     OW62952   9.878   0.987   6.341 -0.6574  0.5999 -0.2443
20212SOL    HW162953   9.796   0.940   6.330 -1.5163  1.8217  0.6902
20212SOL    HW262954   9.883   1.044   6.263 -0.6362  0.4350 -0.3636
20213SOL     OW62955   5.679  10.371   9.818  0.0798  0.1031  0.2117
20213SOL    HW162956   5.645  10.461   9.818 -0.2186 -0.0068 -0.2111
20213SOL    HW262957   5.693  10.351   9.911 -0.0997  0.4911  0.3269
20214SOL     OW62958  10.513   5.090   6.448  0.1825 -0.4361 -0.0849
20214SOL    HW162959  10.559   5.141   6.382 -0.4736  0.2292 -0.0544
20214SOL    HW262960  10.556   5.114   6.531  1.1998 -1.5004 -0.2919
20215SOL     OW62961   2.848   5.537   7.166 -0.0886 -0.7322  0.1845
20215SOL    HW162962   2.914   5.471   7.187 -1.1475 -1.9721 -0.3148
20215SOL    HW262963   2.882   5.618   7.206  0.6282 -1.8237  1.9113
20216SOL     OW62964   6.530   1.095   4.233  0.4387 -0.1974  0.4783
20216SOL    HW162965   6.512   1.119   4.325 -0.5114  0.9800  0.0147
20216SOL    HW262966   6.497   1.006   4.225 -1.6569  0.4858  0.7323
20217SOL     OW62967   9.027   1.400   8.496  0.6228 -0.1632  0.1100
20217SOL    HW162968   8.976   1.332   8.538  0.5531  1.0710  2.1605
20217SOL    HW262969   9.017   1.477   8.553  1.0404  1.4468 -1.8664
20218SOL     OW62970   7.516   1.880   4.602 -0.2444  0.2985  0.2621
20218SOL    HW162971   7.496   1.827   4.679 -1.7350 -0.6151 -0.7152
20218SOL    HW262972   7.459   1.956   4.609  1.5833  1.6681  1.4327
20219SOL     OW62973   8.227   8.898   3.562 -0.3741 -0.2289 -0.2193
20219SOL    HW162974   8.293   8.958   3.595 -0.7199  0.2950 -0.4693
20219SOL    HW262975   8.177   8.949   3.499  0.3115 -1.2253 -1.6119
20220SOL     OW62976   1.369   2.510   3.238  0.5198 -0.0448  0.4550
20220SOL    HW162977   1.462   2.490   3.224  0.1972 -1.6205  0.3083
20220SOL    HW262978   1.367   2.558   3.320  1.7358  2.7224 -1.0043
20221SOL     OW62979   5.732   7.918   5.805 -0.3799 -0.5296 -0.1657
20221SOL    HW162980   5.644   7.902   5.840 -0.3735 -0.8955 -0.3115
20221SOL    HW262981   5.758   7.835   5.766 -0.4491 -0.0962 -1.1697
20222SOL     OW62982   1.040   5.772   0.567 -0.2622  0.0345  0.1695
20222SOL    HW162983   1.042   5.863   0.596  2.0234  0.3262 -0.7068
20222SOL    HW262984   1.130   5.753   0.540 -0.7180 -2.4285  0.1137
20223SOL     OW62985   7.100   6.900   8.204  0.7136 -0.8798 -0.3524
20223SOL    HW162986   7.118   6.834   8.138 -0.3928  0.0338 -1.6332
20223SOL    HW262987   7.046   6.965   8.159  0.1451 -0.0757  1.3807
20224SOL     OW62988   5.380   1.798   3.819 -0.1638 -0.5552 -0.4265
20224SOL    HW162989   5.358   1.879   3.865 -0.1564 -1.5244  1.3786
20224SOL    HW262990   5.467   1.775   3.852 -0.9084 -2.2113  0.4945
20225SOL     OW62991   8.478   3.983   7.081  0.1099 -0.0962  0.8633
20225SOL    HW162992   8.403   3.984   7.022  2.6490  0.6130 -2.7071
20225SOL    HW262993   8.519   4.069   7.070  1.3176 -0.3523  2.8915
20226SOL     OW62994   8.638   5.191   0.848  0.3390  0.4423  0.3744
20226SOL    HW162995   8.689   5.143   0.913 -0.8603  0.6137  1.5018
20226SOL    HW262996   8.690   5.269   0.830  1.2865 -0.2258  0.1582
20227SOL     OW62997   0.167   3.089   4.398  0.3690 -0.0889 -0.2699
20227SOL    HW162998   0.213   3.172   4.391  0.5651 -0.2460 -0.8985
20227SOL    HW262999   0.156   3.059   4.307 -4.1216  1.6376 -0.5732
20228SOL     OW63000   3.370   4.668   6.275 -0.2058  0.1593 -0.8778
20228SOL    HW163001   3.431   4.650   6.347 -0.7421 -0.1648 -0.4996
20228SOL    HW263002   3.284   4.667   6.316 -0.5368 -0.2533 -1.5676
20229SOL     OW63003   4.348   4.157   9.239 -0.4150 -0.3353  0.0128
20229SOL    HW163004   4.414   4.155   9.308  1.5227 -0.4756 -1.7624
20229SOL    HW263005   4.268   4.126   9.282  0.7693 -0.6977  2.1056
20230SOL     OW63006   2.811   9.388   9.037 -0.7967 -0.0488 -0.0982
20230SOL    HW163007   2.750   9.319   9.065  0.2957 -1.7613 -1.7076
20230SOL    HW263008   2.897   9.355   9.061 -0.2937  1.1558 -0.1914
20231SOL     OW63009   9.549   6.084   1.143 -0.6719 -0.4037  0.2189
20231SOL    HW163010   9.540   6.036   1.226  0.2031 -0.1064  0.4978
20231SOL    HW263011   9.573   6.173   1.170  3.4921 -1.1417 -0.3515
20232SOL     OW63012   5.742   1.318   4.268 -0.1277 -0.5225 -0.2079
20232SOL    HW163013   5.798   1.266   4.325 -0.5087  0.5455  1.1901
20232SOL    HW263014   5.800   1.388   4.236  0.1501 -1.2512 -1.3729
20233SOL     OW63015   2.503   5.454   9.442 -0.2265  0.4263  0.3396
20233SOL    HW163016   2.409   5.460   9.459 -0.2431  1.7909 -0.0846
20233SOL    HW263017   2.516   5.502   9.360  0.4887 -2.0874 -1.1145
20234SOL     OW63018   0.774   7.478   7.383  0.7225  0.3593 -0.3531
20234SOL    HW163019   0.714   7.548   7.407 -0.9725 -1.2761  0.4797
20234SOL    HW263020   0.851   7.523   7.349 -0.6104  2.5853 -0.6606
20235SOL     OW63021   5.716   8.104   7.363 -0.0779 -0.6892  0.1790
20235SOL    HW163022   5.634   8.125   7.407 -0.3836 -0.9211 -0.2688
20235SOL    HW263023   5.727   8.010   7.377 -0.5045 -0.8873 -0.7703
20236SOL     OW63024   5.258   5.480   1.948  0.1831  0.5332 -0.7647
20236SOL    HW163025   5.254   5.542   2.021  2.9275 -1.6437  1.5000
20236SOL    HW263026   5.322   5.518   1.888 -0.0538  1.0803 -0.6727
20237SOL     OW63027   6.162   5.784   9.674  0.6940  0.0665 -0.5423
20237SOL    HW163028   6.166   5.817   9.764  1.9026 -0.1308 -0.5084
20237SOL    HW263029   6.235   5.723   9.668  0.2040 -0.4455 -1.4598
20238SOL     OW63030   2.424   5.395   0.726 -0.0161  0.1745  0.2362
20238SOL    HW163031   2.412   5.471   0.668 -0.5987 -1.2594 -1.6407
20238SOL    HW263032   2.347   5.340   0.709  1.5390 -1.9665 -0.3486
20239SOL     OW63033   9.644   2.374   5.146  0.2817 -0.1075 -0.0008
20239SOL    HW163034   9.715   2.376   5.210  0.2068 -2.8841  0.2748
20239SOL    HW263035   9.687   2.353   5.063 -0.1826 -2.6997  0.3184
20240SOL     OW63036   7.891   1.013   7.269  0.2312 -0.0855  0.0369
20240SOL    HW163037   7.827   0.945   7.286  0.3938 -0.3543 -0.4087
20240SOL    HW263038   7.860   1.088   7.320 -0.4677 -0.1912 -0.2229
20241SOL     OW63039   0.430   9.595   1.930  1.2798  0.8679 -0.2880
20241SOL    HW163040   0.525   9.584   1.922  1.2658  1.4748 -1.3732
20241SOL    HW263041   0.393   9.544   1.857  0.6116 -1.2432  1.3961
20242SOL     OW63042   3.571   7.965   5.038 -0.0405  0.0798  0.9198
20242SOL    HW163043   3.620   8.032   5.085  0.2742  0.8520 -0.4584
20242SOL    HW263044   3.637   7.898   5.017  0.0079  0.1681  0.7909
20243SOL     OW63045   4.914  10.373   2.873 -0.3855 -0.9389  0.7743
20243SOL    HW163046   4.956  10.459   2.884  0.4679 -1.0292 -1.1650
20243SOL    HW263047   4.843  10.390   2.811 -0.8860 -1.4536  1.2078
20244SOL     OW63048   2.025   9.578  10.101  0.4099 -0.2301  0.0200
20244SOL    HW163049   2.020   9.622  10.186 -0.3694 -0.7186  0.2339
20244SOL    HW263050   1.944   9.603  10.056  1.1346  0.5896 -0.8676
20245SOL     OW63051  10.054  10.592   4.567  0.0431  0.6565 -0.4034
20245SOL    HW163052  10.086  10.621   4.481  1.2909 -0.3618 -0.3187
20245SOL    HW263053  10.121  10.621   4.629  0.3555 -0.6637 -0.0852
20246SOL     OW63054   0.104   2.782   9.106  0.0008  0.2788 -0.2372
20246SOL    HW163055   0.093   2.871   9.072  0.7442  0.4515 -0.0414
20246SOL    HW263056   0.028   2.769   9.163 -0.2487  0.6915 -0.4698
20247SOL     OW63057   8.269   6.692   0.752  0.2373  0.2633  0.2836
20247SOL    HW163058   8.218   6.613   0.734 -0.4831  0.9304 -0.6954
20247SOL    HW263059   8.355   6.660   0.779 -0.5379 -0.8860  1.5357
20248SOL     OW63060   2.388   8.409   5.247 -0.0925 -0.2014  0.2306
20248SOL    HW163061   2.308   8.372   5.208  0.2402 -2.2675  1.3379
20248SOL    HW263062   2.361   8.438   5.334  0.1850 -0.2019  0.3176
20249SOL     OW63063   3.318   8.509   7.358 -0.3323 -0.8589 -0.0942
20249SOL    HW163064   3.261   8.443   7.397 -0.6566 -0.7160 -0.3237
20249SOL    HW263065   3.299   8.504   7.264  0.1450 -0.9181 -0.1940
20250SOL     OW63066   1.627   0.361   2.558  0.2484  0.3962  0.5275
20250SOL    HW163067   1.531   0.359   2.562 -0.0216 -0.8304 -3.1886
20250SOL    HW263068   1.648   0.453   2.544 -0.3817  0.6332  1.0604
20251SOL     OW63069   4.787   5.389   2.304  0.5206  0.6760 -0.1357
20251SOL    HW163070   4.769   5.398   2.398  2.4079  1.7485  0.1735
20251SOL    HW263071   4.716   5.335   2.271 -0.5644  0.8509  1.7872
20252SOL     OW63072   7.711   1.775   2.464  0.3424 -0.3211  0.2012
20252SOL    HW163073   7.683   1.720   2.537 -0.2641 -1.4358 -0.8358
20252SOL    HW263074   7.629   1.803   2.423  0.6708  0.6041  0.1612
20253SOL     OW63075   8.455   4.336  10.052  0.0358  0.1750  0.3694
20253SOL    HW163076   8.533   4.313  10.003 -1.9106 -1.3623 -2.2857
20253SOL    HW263077   8.482   4.331  10.144  3.5304  1.9000 -0.3913
20254SOL     OW63078   4.679   9.399   3.486 -0.6442 -0.3234 -0.2983
20254SOL    HW163079   4.613   9.395   3.555  0.8114  2.4316  1.4276
20254SOL    HW263080   4.731   9.319   3.498 -1.3182 -0.6213  0.8115
20255SOL     OW63081   4.748   5.716   7.310  0.5019 -0.5323 -0.3254
20255SOL    HW163082   4.804   5.793   7.299  0.2931 -0.2177  0.7340
20255SOL    HW263083   4.742   5.678   7.222  1.0396  0.3534 -0.7563
20256SOL     OW63084   4.185   0.642   4.447 -0.2757 -0.4142 -0.1620
20256SOL    HW163085   4.179   0.546   4.452 -1.9028 -0.2740  1.5629
20256SOL    HW263086   4.279   0.660   4.453  0.0569 -1.8948 -0.5364
20257SOL     OW63087   7.192   2.396   1.339  0.0050  0.2864 -0.2372
20257SOL    HW163088   7.283   2.407   1.367 -0.0741 -1.5448  0.8868
20257SOL    HW263089   7.197   2.339   1.262 -0.1303  1.3629 -1.0763
20258SOL     OW63090   0.057  10.563   4.197 -0.2731 -0.3979  0.1885
20258SOL    HW163091   0.064  10.490   4.136 -1.5393 -0.0615 -0.3998
20258SOL    HW263092   0.031  10.637   4.143  1.3048  0.5944  0.7308
20259SOL     OW63093   9.335   7.903   4.250 -0.1869 -0.0559 -0.1765
20259SOL    HW163094   9.409   7.874   4.304 -0.1410 -0.5575 -0.4951
20259SOL    HW263095   9.304   7.823   4.208 -1.5180 -0.0190  0.6774
20260SOL     OW63096   6.569   2.311   2.236 -0.2397  0.2714 -0.3291
20260SOL    HW163097   6.485   2.318   2.281  0.8015  0.6975  1.6634
20260SOL    HW263098   6.633   2.299   2.306  1.0502 -3.9973 -1.9273
20261SOL     OW63099   5.557   1.097   8.498  0.6706 -0.1943  0.5528
20261SOL    HW163100   5.600   1.167   8.450 -0.9992  0.4164 -0.1302
20261SOL    HW263101   5.589   1.016   8.457  1.4885  0.2072  0.3832
20262SOL     OW63102   8.569   8.311   6.153  0.4446  0.0795 -0.2441
20262SOL    HW163103   8.589   8.372   6.225  2.0894 -0.0291 -0.5627
20262SOL    HW263104   8.596   8.226   6.186 -0.0803 -0.1886 -0.4990
20263SOL     OW63105   8.236   2.333   4.297 -0.1550 -0.0880 -0.0410
20263SOL    HW163106   8.209   2.376   4.378  3.1270 -1.2608  1.8824
20263SOL    HW263107   8.230   2.240   4.316  2.8667 -0.4020 -0.1791
20264SOL     OW63108   2.837   6.889   6.842 -0.3117  0.7654  0.0911
20264SOL    HW163109   2.872   6.815   6.794  0.9080  2.1029 -1.1977
20264SOL    HW263110   2.746   6.865   6.861  0.3505 -1.4829  0.7206
20265SOL     OW63111   6.037   2.844   0.899  0.1170  0.4761 -0.0098
20265SOL    HW163112   6.054   2.938   0.887  3.6487  0.0248  0.4091
20265SOL    HW263113   6.124   2.804   0.902 -1.2551 -2.8088  0.1994
20266SOL     OW63114   5.423   0.460   7.002 -0.3465 -0.6077 -0.0586
20266SOL    HW163115   5.437   0.392   6.935  1.6469 -0.8067  0.4802
20266SOL    HW263116   5.488   0.527   6.981  0.6851 -0.9087  1.9254
20267SOL     OW63117   7.143   9.809   4.813  0.5995  0.1964 -0.1128
20267SOL    HW163118   7.121   9.775   4.900 -0.2193  0.8089 -0.0764
20267SOL    HW263119   7.076   9.774   4.755  1.1550 -0.2255 -0.5251
20268SOL     OW63120   1.000   9.474   6.888  0.2284  0.4145  0.4208
20268SOL    HW163121   0.977   9.567   6.883  1.0891  0.7126  1.4315
20268SOL    HW263122   1.086   9.474   6.930  0.4405 -0.8226  0.0087
20269SOL     OW63123   5.628   1.541   8.897  0.5604  0.2035  0.2041
20269SOL    HW163124   5.674   1.477   8.951  0.4849  0.4486  0.5623
20269SOL    HW263125   5.617   1.498   8.812  0.4748 -0.2721  0.4559
20270SOL     OW63126   1.728   3.330  10.195  0.2716  0.1654 -0.2871
20270SOL    HW163127   1.785   3.267  10.237  1.5855  2.3369  1.4177
20270SOL    HW263128   1.644   3.285  10.186  1.1269 -1.7610  0.8708
20271SOL     OW63129   1.180   9.737   0.780  0.5406 -0.4717 -0.4908
20271SOL    HW163130   1.195   9.705   0.869  0.1499  0.0078 -0.2474
20271SOL    HW263131   1.157   9.829   0.791 -1.3197 -0.8469 -0.9212
20272SOL     OW63132   3.505   5.522   2.882  0.2959  0.2456  0.1479
20272SOL    HW163133   3.436   5.574   2.842  1.0546  1.0142 -0.1982
20272SOL    HW263134   3.583   5.577   2.875  1.0443 -0.7951  0.0922
20273SOL     OW63135   7.268   6.731   0.144  0.0933 -0.1815 -0.1059
20273SOL    HW163136   7.181   6.768   0.133  0.8819  1.5923 -0.7654
20273SOL    HW263137   7.261   6.642   0.110 -1.7468 -0.5268  1.0465
20274SOL     OW63138   8.158   7.915   9.229  0.3631 -0.2743  0.1942
20274SOL    HW163139   8.205   7.873   9.157  0.4018 -0.7257  0.4808
20274SOL    HW263140   8.086   7.962   9.187  1.0958  0.4699 -0.2596
20275SOL     OW63141   3.044   6.397   4.837 -0.5696  0.1868  0.0694
20275SOL    HW163142   3.099   6.340   4.783 -1.2102 -1.6289  1.2286
20275SOL    HW263143   3.093   6.478   4.846  2.3920 -1.6315  1.7611
20276SOL     OW63144   9.104   9.523   4.947 -0.1797 -0.8288  0.0305
20276SOL    HW163145   9.103   9.431   4.971 -0.8913 -0.3001  2.3101
20276SOL    HW263146   9.021   9.558   4.980 -0.4255  0.4285 -1.7746
20277SOL     OW63147   1.196   3.672   7.085 -0.5704 -0.8676  0.4655
20277SOL    HW163148   1.116   3.690   7.036 -0.2761 -0.5629  0.0852
20277SOL    HW263149   1.206   3.577   7.080  1.2089 -0.6760 -3.0169
20278SOL     OW63150   8.065   9.374   0.040 -0.3814 -0.2853  0.0295
20278SOL    HW163151   8.139   9.420   0.001 -0.1606 -1.2817 -0.7528
20278SOL    HW263152   7.990   9.430   0.022  0.1888  0.8832  1.0840
20279SOL     OW63153  10.073  10.579   6.747 -0.6486 -0.2015 -0.6374
20279SOL    HW163154  10.038  10.498   6.709 -0.9272 -1.3521  1.8413
20279SOL    HW263155  10.066  10.566   6.842  0.3036  2.3173 -0.1323
20280SOL     OW63156   5.998   3.649   0.170  0.2367  0.1174  0.2392
20280SOL    HW163157   6.006   3.592   0.247 -1.1462 -0.2468  0.1443
20280SOL    HW263158   6.015   3.590   0.096  1.1603  0.3796  0.2225
20281SOL     OW63159   2.695   4.811   3.042 -0.3066  0.3904 -0.1665
20281SOL    HW163160   2.653   4.820   3.128  0.3098  0.2512  0.1496
20281SOL    HW263161   2.667   4.725   3.010 -0.4902  0.4194 -0.0872
20282SOL     OW63162   8.339   4.392   6.688  0.1211 -0.2315  0.4880
20282SOL    HW163163   8.334   4.381   6.593  1.1034 -0.2064  0.4227
20282SOL    HW263164   8.260   4.349   6.721 -1.5424  1.9263 -0.4786
20283SOL     OW63165   8.550   0.599   8.021  0.2113  0.6652  0.4156
20283SOL    HW163166   8.566   0.563   8.108 -0.8434 -2.0931 -0.4523
20283SOL    HW263167   8.456   0.589   8.007  0.0500  2.7594 -0.4052
20284SOL     OW63168   0.862   4.076   3.714 -0.2487  0.4277  0.4123
20284SOL    HW163169   0.815   4.017   3.654  1.7568 -1.1760  0.3162
20284SOL    HW263170   0.793   4.112   3.770 -1.7805 -0.5916 -0.7166
20285SOL     OW63171   0.154   0.218   8.543 -0.8924 -0.5818  0.0024
20285SOL    HW163172   0.077   0.165   8.522 -1.4343  0.3227 -0.4009
20285SOL    HW263173   0.123   0.279   8.609 -0.9699  0.7738 -1.2278
20286SOL     OW63174   3.714   4.090   6.877 -0.0827  0.7639  0.2482
20286SOL    HW163175   3.680   4.158   6.936  0.6767  0.9212  0.5126
20286SOL    HW263176   3.804   4.116   6.860  0.2034 -0.1592  0.3146
20287SOL     OW63177   3.681   5.136   3.470  0.0025 -0.0333  0.3411
20287SOL    HW163178   3.689   5.097   3.383 -0.1362  1.4920 -0.3990
20287SOL    HW263179   3.746   5.206   3.470 -0.1494  0.1186  1.3876
20288SOL     OW63180   1.069   9.276   8.295 -0.2889  0.9056  0.3284
20288SOL    HW163181   0.980   9.267   8.259  0.1289 -1.9926 -0.2150
20288SOL    HW263182   1.122   9.302   8.220 -0.0004 -1.8062 -0.5161
20289SOL     OW63183   3.035   3.082  10.592 -0.1255 -0.4008 -0.2308
20289SOL    HW163184   2.996   3.049  10.512  1.1770 -1.2416 -0.5519
20289SOL    HW263185   3.068   3.004  10.637  0.8681  0.2304  0.1725
20290SOL     OW63186   1.858   8.665   1.502  0.2166  0.0974 -0.1317
20290SOL    HW163187   1.949   8.638   1.514  0.3389  0.7604  0.4726
20290SOL    HW263188   1.854   8.753   1.539  0.2438  1.6522 -3.4550
20291SOL     OW63189   0.047   9.522   5.028  0.1204 -0.4296 -0.0744
20291SOL    HW163190   0.017   9.448   5.081  0.5047 -1.7187 -1.6001
20291SOL    HW263191  -0.021   9.589   5.040 -2.4243 -2.4867 -1.7783
20292SOL     OW63192   8.697   4.249   7.878 -0.2534  0.5401 -0.3291
20292SOL    HW163193   8.732   4.160   7.885 -0.7984  0.3993  0.9536
20292SOL    HW263194   8.698   4.281   7.968 -2.5520  0.8686 -0.3769
20293SOL     OW63195   4.236   2.402   3.613 -0.7884  0.0268 -0.4361
20293SOL    HW163196   4.235   2.395   3.517  0.8015 -0.5057 -0.4483
20293SOL    HW263197   4.324   2.373   3.638 -1.8523 -1.9506  1.3463
20294SOL     OW63198   8.441   4.707   9.061 -0.1330 -0.6192  0.3258
20294SOL    HW163199   8.402   4.775   9.116  0.2383 -0.4516  0.3860
20294SOL    HW263200   8.457   4.634   9.122  3.5367  0.7832  1.3250
20295SOL     OW63201   2.360   0.779   9.856  0.8297  0.2527  0.4963
20295SOL    HW163202   2.325   0.804   9.942 -0.2364  1.2136 -0.1802
20295SOL    HW263203   2.282   0.772   9.801  1.5253 -0.0945 -0.4595
20296SOL     OW63204   3.390   7.659   4.126 -0.1664 -0.1915 -0.5490
20296SOL    HW163205   3.407   7.679   4.034  0.0936  2.2743 -0.0542
20296SOL    HW263206   3.458   7.598   4.151  3.5371  3.4844 -0.6024
20297SOL     OW63207   2.396   3.578   8.514  0.1623 -0.5000  0.0831
20297SOL    HW163208   2.330   3.639   8.549  1.3661  0.3718  0.9534
20297SOL    HW263209   2.395   3.505   8.575  0.1114 -0.4100  0.1921
20298SOL     OW63210   1.541  10.498   3.756 -0.3753  0.0025 -0.4889
20298SOL    HW163211   1.628  10.467   3.780 -0.5249  1.1316  1.6799
20298SOL    HW263212   1.556  10.579   3.708 -0.2309 -0.2841 -0.9425
20299SOL     OW63213   9.454   5.163   3.590 -0.0673  0.0222 -0.2684
20299SOL    HW163214   9.377   5.153   3.534  0.6422 -1.5290 -1.0408
20299SOL    HW263215   9.526   5.128   3.537  1.1910  1.5136  0.3947
20300SOL     OW63216   1.455   4.322   7.134  0.1126  0.5611  0.1479
20300SOL    HW163217   1.431   4.230   7.148 -0.9961  1.2922  4.3931
20300SOL    HW263218   1.374   4.365   7.109  0.3481  0.5942 -0.5613
20301SOL     OW63219   3.595   1.844   6.547  0.1130 -0.2567 -0.4775
20301SOL    HW163220   3.621   1.922   6.497  1.3425  0.1212  0.6974
20301SOL    HW263221   3.602   1.772   6.484  1.6796  0.1984 -0.8607
20302SOL     OW63222   0.504   5.408   6.931  0.0632  0.2819 -0.6213
20302SOL    HW163223   0.409   5.395   6.928 -0.0394  0.9298 -0.3459
20302SOL    HW263224   0.534   5.352   7.002 -0.3132  1.1685  0.2562
20303SOL     OW63225   2.616   4.958   5.340  0.0531  0.0478  0.2399
20303SOL    HW163226   2.582   5.030   5.288  0.7278  1.1693  1.3022
20303SOL    HW263227   2.665   5.000   5.411  0.8358 -1.4596  0.6408
20304SOL     OW63228   8.382   3.017   3.725  0.2604  0.3109  0.6253
20304SOL    HW163229   8.413   3.046   3.640 -0.3661 -0.4055  0.1374
20304SOL    HW263230   8.460   3.018   3.781  0.9894 -0.6113 -0.3487
20305SOL     OW63231   5.139   7.681   0.849  0.1928  0.1665  0.0268
20305SOL    HW163232   5.090   7.748   0.897  0.5021  1.3726 -1.2836
20305SOL    HW263233   5.217   7.726   0.819  0.9529 -1.1002  0.0388
20306SOL     OW63234   7.873   2.701   6.075 -0.0606  0.3829 -0.2147
20306SOL    HW163235   7.890   2.627   6.017  2.3154  0.4884  0.2102
20306SOL    HW263236   7.960   2.727   6.106 -0.9498  2.4705  0.7498
20307SOL     OW63237   9.166   8.156   3.664  0.2617  0.1259 -0.4893
20307SOL    HW163238   9.119   8.224   3.710 -0.1166 -0.9183  0.7207
20307SOL    HW263239   9.250   8.196   3.641  0.2427  0.8403  0.6234
20308SOL     OW63240   0.700   4.804   6.577 -0.2246  0.2265 -0.1498
20308SOL    HW163241   0.612   4.766   6.582  0.1558 -0.6320  0.2602
20308SOL    HW263242   0.711   4.830   6.486 -0.3725 -0.9928 -0.5318
20309SOL     OW63243   6.372   8.205   3.308  0.6333 -0.3956  0.2857
20309SOL    HW163244   6.416   8.281   3.346  2.4866 -1.6732  0.8417
20309SOL    HW263245   6.303   8.184   3.370  0.7686  0.1968  0.6529
20310SOL     OW63246   9.503   2.617   4.015  0.3677 -1.2403 -0.3681
20310SOL    HW163247   9.447   2.688   4.044  0.2381 -1.1079 -0.9301
20310SOL    HW263248   9.575   2.661   3.970 -0.5882 -1.5079 -2.2435
20311SOL     OW63249   0.641   4.176   1.377  0.0705  0.0853  0.3250
20311SOL    HW163250   0.617   4.184   1.284 -1.7115 -1.8526  0.5397
20311SOL    HW263251   0.735   4.158   1.375  0.2618  1.0331 -1.0258
20312SOL     OW63252   6.011   0.567   8.469 -0.0224  0.2271  0.8423
20312SOL    HW163253   6.091   0.608   8.501  1.4546 -0.8464 -1.2464
20312SOL    HW263254   6.039   0.481   8.437 -2.0908 -0.3373  0.3768
20313SOL     OW63255   1.188   1.568   8.104 -0.0975 -0.0760  0.4792
20313SOL    HW163256   1.173   1.597   8.015 -0.6701  0.6195  0.7985
20313SOL    HW263257   1.280   1.589   8.120 -0.5575  1.8943  0.8005
20314SOL     OW63258   5.694   6.445   3.683  0.2395 -0.1868 -0.3983
20314SOL    HW163259   5.643   6.517   3.646 -1.4411 -2.5615 -3.0343
20314SOL    HW263260   5.629   6.381   3.711  1.6974 -1.6972 -0.3050
20315SOL     OW63261   7.943   9.815   5.320  0.0580 -0.6443 -0.8479
20315SOL    HW163262   7.996   9.747   5.279 -0.1495 -1.1075 -0.3571
20315SOL    HW263263   7.889   9.850   5.248  0.2733 -0.8869 -1.1310
20316SOL     OW63264   6.055   8.316   5.277 -0.0667 -0.8991 -0.0877
20316SOL    HW163265   6.033   8.378   5.347 -0.2713 -0.4657 -0.5243
20316SOL    HW263266   5.983   8.253   5.277 -0.7105 -0.1871 -0.7086
20317SOL     OW63267   2.689   8.955   1.243  0.1899  0.1902 -0.0541
20317SOL    HW163268   2.751   8.928   1.311  0.2675  1.4187  0.3866
20317SOL    HW263269   2.625   8.884   1.240  0.0288  0.2219  1.5100
20318SOL     OW63270   0.292   5.759   7.852 -0.2698  0.1204  0.2579
20318SOL    HW163271   0.228   5.737   7.919 -0.7676  1.8798  0.4056
20318SOL    HW263272   0.240   5.791   7.778  0.3232 -0.9209 -0.6476
20319SOL     OW63273   9.908   9.009   9.508  0.3144  0.0283  0.8364
20319SOL    HW163274   9.885   9.090   9.554 -2.9137 -0.2347 -0.0672
20319SOL    HW263275   9.890   8.939   9.571 -1.3356 -0.1640  0.2120
20320SOL     OW63276   4.389   4.937   9.783 -0.4322 -0.3933 -0.4573
20320SOL    HW163277   4.410   4.872   9.850 -0.9597 -0.7760 -0.6536
20320SOL    HW263278   4.344   4.887   9.715  0.4742 -0.0993 -1.3027
20321SOL     OW63279  10.420   3.364   9.680 -0.2638 -0.1508 -0.3799
20321SOL    HW163280  10.495   3.326   9.635 -0.0877  0.8618 -0.9724
20321SOL    HW263281  10.452   3.447   9.715 -0.7285 -0.3654  0.5881
20322SOL     OW63282   4.064   0.795   1.911  0.1575  0.5105 -0.3731
20322SOL    HW163283   4.001   0.858   1.946  0.2966  0.6210 -0.3206
20322SOL    HW263284   4.064   0.812   1.817  0.0640  0.4679 -0.3814
20323SOL     OW63285   6.886   3.514  10.485 -0.3518 -0.0044 -0.2572
20323SOL    HW163286   6.917   3.469  10.564  1.5118 -2.0200 -2.0289
20323SOL    HW263287   6.902   3.607  10.503 -1.0136 -0.2841  2.1198
20324SOL     OW63288   0.941   0.733   8.905 -0.0771  0.4713  0.1327
20324SOL    HW163289   0.870   0.748   8.843  0.3364  0.6637 -0.2939
20324SOL    HW263290   0.923   0.646   8.941 -1.6262  1.3014  1.4841
20325SOL     OW63291   5.848   4.457   1.028 -0.1382  0.0524 -0.0824
20325SOL    HW163292   5.925   4.415   0.991 -0.7221  0.2359 -1.5913
20325SOL    HW263293   5.836   4.536   0.975 -1.1415  0.2182  0.3569
20326SOL     OW63294   1.232   1.512   8.493  0.5398  0.3626  0.4701
20326SOL    HW163295   1.188   1.519   8.578  0.1593  2.3319  0.1490
20326SOL    HW263296   1.179   1.449   8.444 -1.3642  1.8961  0.4549
20327SOL     OW63297   3.009   5.497   7.687 -0.0527  0.1462 -0.4095
20327SOL    HW163298   3.025   5.564   7.620  3.5678  1.1201  1.1450
20327SOL    HW263299   3.071   5.427   7.666 -0.1646 -0.3631  0.8809
20328SOL     OW63300   0.965   3.871   9.810  0.1935 -0.0639  0.3578
20328SOL    HW163301   0.924   3.900   9.729 -0.2597 -0.4780  0.4378
20328SOL    HW263302   0.893   3.840   9.864  0.6564 -1.3110  0.2920
20329SOL     OW63303   3.650   0.230   0.376  0.5054  0.2349  0.2258
20329SOL    HW163304   3.651   0.207   0.283 -2.0448 -2.1592  0.6490
20329SOL    HW263305   3.620   0.320   0.378 -0.7099 -0.0986 -1.2664
20330SOL     OW63306   8.875   4.715   8.180  0.2067 -0.1307  0.4255
20330SOL    HW163307   8.930   4.730   8.256 -1.2712 -0.2075  1.5610
20330SOL    HW263308   8.911   4.637   8.138  3.2200  1.8497 -1.0800
20331SOL     OW63309   4.895   9.429   8.789 -0.4298 -0.4018 -0.3846
20331SOL    HW163310   4.918   9.482   8.712  0.2333  1.2344  0.8798
20331SOL    HW263311   4.973   9.429   8.843 -0.7687 -1.8562  0.1524
20332SOL     OW63312   8.761   7.712   6.970 -0.3043 -0.1594 -0.2758
20332SOL    HW163313   8.718   7.711   7.056  0.3421 -1.8410  0.0744
20332SOL    HW263314   8.842   7.762   6.984  1.3784 -2.9791  1.0117
20333SOL     OW63315   5.703   1.626   6.973 -0.0904 -0.2755 -0.2747
20333SOL    HW163316   5.738   1.537   6.976  2.8017  0.7581  2.2263
20333SOL    HW263317   5.720   1.656   6.884  2.7537 -0.9453 -0.0549
20334SOL     OW63318   3.079   0.054   5.978 -0.0949  0.0221  0.3797
20334SOL    HW163319   3.025   0.071   5.900 -1.1857  1.6366  1.4154
20334SOL    HW263320   3.015   0.046   6.049  1.0056  1.9363  1.6453
20335SOL     OW63321   9.605   9.152  10.085 -0.4196 -0.1714  0.5126
20335SOL    HW163322   9.639   9.092  10.152  0.7837 -1.2663 -1.0190
20335SOL    HW263323   9.583   9.096  10.011  2.5217  1.3460 -1.7167
20336SOL     OW63324   8.720   3.202   4.341 -0.3069  0.6053 -0.1540
20336SOL    HW163325   8.800   3.254   4.351 -0.5085  0.9609 -0.3924
20336SOL    HW263326   8.649   3.266   4.341 -0.7893  0.1763  2.1096
20337SOL     OW63327   4.803   0.864   6.195  0.3683 -0.2788 -0.5658
20337SOL    HW163328   4.756   0.947   6.200  0.2593 -0.3232 -0.8873
20337SOL    HW263329   4.830   0.856   6.104  0.8302 -0.3496 -0.4276
20338SOL     OW63330   7.951  10.027   4.763 -0.1833  0.2902 -0.2063
20338SOL    HW163331   7.909  10.112   4.779  0.9096  1.0328 -1.0912
20338SOL    HW263332   8.044  10.042   4.783  0.1380 -0.5008 -1.0250
20339SOL     OW63333   4.265   6.175   3.204 -0.5259  0.0845 -0.1457
20339SOL    HW163334   4.330   6.149   3.140 -1.5975  0.2848 -1.3584
20339SOL    HW263335   4.186   6.128   3.179 -0.7951 -0.3989  1.4791
20340SOL     OW63336  10.357   4.172   2.261  0.0318  0.1307 -0.0570
20340SOL    HW163337  10.269   4.155   2.296  0.1343 -0.3887 -0.0539
20340SOL    HW263338  10.403   4.089   2.270  0.4804  0.3619 -0.1979
20341SOL     OW63339  10.351   7.154   1.827  0.8333 -0.1256  0.0170
20341SOL    HW163340  10.411   7.226   1.806  0.1770  0.1944 -0.8517
20341SOL    HW263341  10.303   7.184   1.904  0.4856  0.4202 -0.4074
20342SOL     OW63342   9.038  10.397   1.385 -0.5885  0.2182  0.0544
20342SOL    HW163343   9.035  10.309   1.347 -1.0614  0.5238 -0.6274
20342SOL    HW263344   9.081  10.451   1.319  2.1167  0.0253  1.5066
20343SOL     OW63345   7.643   0.890   2.061 -0.2376 -0.6281  0.3291
20343SOL    HW163346   7.687   0.855   2.139 -0.2169 -0.2763  0.4776
20343SOL    HW263347   7.554   0.910   2.090  0.0545  0.4355  0.5317
20344SOL     OW63348   6.651   5.385   6.988 -0.1138  0.4078  0.0776
20344SOL    HW163349   6.638   5.346   7.074  0.8693 -3.8875 -1.4999
20344SOL    HW263350   6.563   5.401   6.955 -0.5270  0.3507  1.1221
20345SOL     OW63351   6.348   0.306   3.594  0.5325  0.1911  0.1733
20345SOL    HW163352   6.300   0.355   3.661  1.2375  0.6489  0.3529
20345SOL    HW263353   6.286   0.239   3.565 -0.0221  0.4193  0.7921
20346SOL     OW63354   1.596   5.156   0.533 -0.0423 -0.0418  0.2422
20346SOL    HW163355   1.656   5.153   0.608  2.4834 -2.4742 -1.6719
20346SOL    HW263356   1.509   5.166   0.572  1.3015  0.5449  3.3570
20347SOL     OW63357   1.578  10.147   1.302 -0.3024 -0.3516 -0.2984
20347SOL    HW163358   1.563  10.081   1.235  0.0791 -0.9925  0.2417
20347SOL    HW263359   1.520  10.122   1.374 -0.2167 -0.0496 -0.1230
20348SOL     OW63360   3.210  10.413   4.188 -0.4002  0.1897  0.5825
20348SOL    HW163361   3.262  10.461   4.252 -0.4818  0.2261  0.6220
20348SOL    HW263362   3.120  10.443   4.203 -0.4478  0.0432  0.5915
20349SOL     OW63363   7.813   1.819   6.036  0.5393  0.3455 -0.0928
20349SOL    HW163364   7.821   1.884   6.106 -0.2720  1.8082 -1.3128
20349SOL    HW263365   7.719   1.800   6.031  0.4548  1.0196 -1.4297
20350SOL     OW63366   6.850   4.353   5.015 -0.3718  0.5230  0.1103
20350SOL    HW163367   6.798   4.344   5.094  0.1165  0.4570  0.4308
20350SOL    HW263368   6.790   4.389   4.950 -0.5962  1.2643  0.7180
20351SOL     OW63369   7.601  10.194   9.399 -0.2196 -0.0453 -0.0418
20351SOL    HW163370   7.591  10.255   9.325  1.0087 -0.2664 -0.4093
20351SOL    HW263371   7.533  10.129   9.385 -1.3390  1.0414  0.1707
20352SOL     OW63372   7.023   6.648   1.400 -0.0050 -0.3723  0.5943
20352SOL    HW163373   7.082   6.599   1.458  2.4658  0.3972 -1.1119
20352SOL    HW263374   7.081   6.696   1.341 -2.3736  1.0194 -0.7719
20353SOL     OW63375   8.277   0.631   8.709  0.1484  0.6052 -0.5803
20353SOL    HW163376   8.270   0.726   8.698  1.3189  0.6871 -0.7564
20353SOL    HW263377   8.310   0.619   8.798  2.4780  0.5263 -1.3677
20354SOL     OW63378   8.927   7.228   0.362 -0.0113  0.2672  0.1961
20354SOL    HW163379   8.880   7.233   0.445 -1.5807  0.5068 -0.6740
20354SOL    HW263380   8.989   7.301   0.365 -0.2625  0.4531  1.0310
20355SOL     OW63381   6.548   6.737   4.163 -0.0859 -0.5580  0.7024
20355SOL    HW163382   6.620   6.674   4.169 -2.3805 -3.2361  2.2426
20355SOL    HW263383   6.520   6.733   4.071  2.1221  1.1673 -0.1450
20356SOL     OW63384   7.826   5.163   3.507  0.6075  0.4064 -0.0025
20356SOL    HW163385   7.861   5.103   3.441 -2.4733 -0.7733 -0.7470
20356SOL    HW263386   7.843   5.119   3.590  0.1488 -0.5605 -0.4022
20357SOL     OW63387   5.322   7.711   2.211 -0.5537 -0.3010 -0.4143
20357SOL    HW163388   5.373   7.660   2.147  0.7919  1.4284 -0.7875
20357SOL    HW263389   5.383   7.726   2.283 -2.3498 -3.1020  1.8909
20358SOL     OW63390   0.035   9.397   6.676 -0.3709  0.0948  0.2560
20358SOL    HW163391   0.086   9.478   6.680  2.0461 -1.2877 -0.6727
20358SOL    HW263392   0.072   9.342   6.745 -1.7335 -0.3973  0.6301
20359SOL     OW63393   1.681   2.104   2.272  0.1460  0.3924  0.0204
20359SOL    HW163394   1.649   2.114   2.182 -0.6096 -0.2464  0.2060
20359SOL    HW263395   1.684   2.010   2.286  0.6474  0.4826  0.5353
20360SOL     OW63396   7.610   4.232  10.006 -0.1423  0.2793  0.2107
20360SOL    HW163397   7.580   4.207  10.093 -0.6544  0.0191 -0.0395
20360SOL    HW263398   7.669   4.162   9.979 -0.2604  0.1828  0.2028
20361SOL     OW63399  10.398   5.747   0.855  0.1683 -0.2420 -0.5309
20361SOL    HW163400  10.317   5.702   0.829 -0.3882  0.1546  0.4607
20361SOL    HW263401  10.465   5.678   0.854 -0.4625 -0.8699 -0.0297
20362SOL     OW63402   3.188   3.008   5.825 -0.3513  0.5542 -0.1585
20362SOL    HW163403   3.149   2.995   5.738  0.0869 -0.0898 -0.2717
20362SOL    HW263404   3.113   3.008   5.885 -0.5148 -2.1237 -0.2076
20363SOL     OW63405   1.645   8.497   0.130  0.1492  0.2419 -0.1982
20363SOL    HW163406   1.550   8.490   0.130 -0.0123  1.7436  1.1085
20363SOL    HW263407   1.667   8.529   0.218  2.0020 -1.4907  0.0338
20364SOL     OW63408   2.182   8.308   6.771  0.3841  0.0167 -0.2749
20364SOL    HW163409   2.233   8.286   6.849 -0.2495  0.7809  0.3829
20364SOL    HW263410   2.242   8.359   6.717  0.7040 -0.1656 -0.0954
20365SOL     OW63411   6.927   3.746   0.479 -0.7640  0.5830 -0.9391
20365SOL    HW163412   7.019   3.771   0.478 -1.0140  1.7504  0.6287
20365SOL    HW263413   6.919   3.688   0.555 -1.3805  0.7181 -0.8958
20366SOL     OW63414   4.816  10.557   2.553  0.0037 -0.4435 -0.2934
20366SOL    HW163415   4.772  10.632   2.592  0.6822 -0.6585  0.9398
20366SOL    HW263416   4.758  10.483   2.571  0.4276 -0.5816  0.5477
20367SOL     OW63417   6.443   0.845   6.794  0.0764  0.5265 -0.1672
20367SOL    HW163418   6.430   0.781   6.864  1.1460 -0.6013 -0.9513
20367SOL    HW263419   6.355   0.876   6.773 -0.6975 -1.9723 -0.9229
20368SOL     OW63420   5.855   3.971   3.171  0.0884 -0.5008  0.4973
20368SOL    HW163421   5.865   3.901   3.236 -0.6231  0.4847  1.7108
20368SOL    HW263422   5.784   4.025   3.205 -0.3174  0.0424 -1.1351
20369SOL     OW63423   9.428   0.966   8.851  0.1343 -0.1244 -0.0366
20369SOL    HW163424   9.355   0.982   8.791  0.2273  1.0016  0.1267
20369SOL    HW263425   9.438   0.871   8.851 -0.5412 -0.2186 -1.0019
20370SOL     OW63426   5.669   8.588   5.192  0.1135 -0.2090  0.1319
20370SOL    HW163427   5.727   8.628   5.127  1.6840 -1.8179  0.4785
20370SOL    HW263428   5.581   8.607   5.160  0.8403  0.1850 -1.7475
20371SOL     OW63429   9.978   0.047   5.322 -0.3781  0.1698 -0.2942
20371SOL    HW163430   9.960  -0.006   5.244 -2.5082  0.0430  0.2168
20371SOL    HW263431   9.895   0.090   5.341  0.3294  0.8581  1.4250
20372SOL     OW63432   1.590   9.783   4.142  0.0194  0.2464 -0.0674
20372SOL    HW163433   1.684   9.782   4.123 -0.2114  0.4540 -1.3244
20372SOL    HW263434   1.579   9.857   4.203  0.7292 -0.1101  0.5120
20373SOL     OW63435   7.523   4.203  10.270 -0.2693  0.0118 -0.4236
20373SOL    HW163436   7.563   4.122  10.303 -0.3223  0.4679  0.7967
20373SOL    HW263437   7.431   4.196  10.294  0.0895  1.3217  1.5791
20374SOL     OW63438   2.405   4.226   5.037 -1.0035 -0.0824 -0.9682
20374SOL    HW163439   2.456   4.181   5.104 -2.3072 -0.0100  0.1241
20374SOL    HW263440   2.432   4.185   4.954  0.6422 -0.1551 -0.4212
20375SOL     OW63441   6.208   5.000   4.075  0.0226 -0.2950 -0.3612
20375SOL    HW163442   6.180   4.954   4.154  0.3989  0.6809  0.3626
20375SOL    HW263443   6.260   5.074   4.107  0.4007 -0.0255 -1.5322
20376SOL     OW63444   7.352   1.028   2.554  0.0779  1.2814 -0.1855
20376SOL    HW163445   7.396   1.069   2.629 -0.7169  0.9305  0.4846
20376SOL    HW263446   7.355   0.934   2.573 -1.6974  1.2901  0.3153
20377SOL     OW63447   9.966   3.547   9.247 -0.3140 -0.0359 -0.2357
20377SOL    HW163448   9.916   3.627   9.265  1.6092  0.7481  2.1625
20377SOL    HW263449   9.903   3.476   9.263 -0.6717  0.8901  3.4636
20378SOL     OW63450  10.526   1.631   9.377 -0.5061  0.3890  0.1861
20378SOL    HW163451  10.484   1.636   9.291 -0.6702  0.4119  0.2674
20378SOL    HW263452  10.516   1.718   9.414  1.9573  1.2088 -0.8883
20379SOL     OW63453   6.456   9.368   3.156 -0.6843  0.7474  0.3478
20379SOL    HW163454   6.469   9.382   3.062 -0.9708  0.2921  0.2345
20379SOL    HW263455   6.451   9.456   3.193  0.8402  0.9394  0.1449
20380SOL     OW63456   0.400   0.580   4.434  0.1220  0.5144 -0.1677
20380SOL    HW163457   0.477   0.594   4.490 -0.1899  2.1034 -0.0850
20380SOL    HW263458   0.336   0.644   4.465 -0.8656 -0.0817 -0.9186
20381SOL     OW63459   2.905   6.344   7.207 -0.3051 -0.0589  0.0470
20381SOL    HW163460   2.881   6.314   7.119 -0.0033 -2.9618  0.8494
20381SOL    HW263461   2.828   6.393   7.237 -1.2159 -0.7255 -1.1005
20382SOL     OW63462   6.323   0.819   9.283 -0.4632  0.1677  0.1753
20382SOL    HW163463   6.316   0.887   9.349 -0.1284 -1.3959  1.8947
20382SOL    HW263464   6.261   0.751   9.311 -1.3767  0.0406 -1.9066
20383SOL     OW63465   2.827   6.840   9.008 -0.0194  0.5509  0.3106
20383SOL    HW163466   2.824   6.895   9.086 -1.5749  1.3617 -0.2781
20383SOL    HW263467   2.788   6.757   9.035  0.2656  0.5196  0.6217
20384SOL     OW63468   2.745  10.588   9.355  0.1423 -0.1342 -0.1882
20384SOL    HW163469   2.678  10.602   9.288 -0.6351 -2.0912  0.1196
20384SOL    HW263470   2.697  10.591   9.437  0.7171 -0.0302  0.1486
20385SOL     OW63471   2.132   4.045   7.497  0.1513 -0.0879 -0.4609
20385SOL    HW163472   2.196   3.999   7.552  2.2492  1.8885 -1.1030
20385SOL    HW263473   2.048   4.032   7.542  1.2035 -1.5949  1.1886
20386SOL     OW63474   2.008   3.435   8.110  0.4019 -0.2972 -0.0894
20386SOL    HW163475   2.048   3.349   8.116 -0.2597 -0.6009  0.1114
20386SOL    HW263476   2.050   3.487   8.178  0.1761 -0.7289  0.3898
20387SOL     OW63477   6.606   0.675   7.873 -0.4821  0.2322  0.1224
20387SOL    HW163478   6.584   0.762   7.905 -0.1595  0.0209  0.9550
20387SOL    HW263479   6.541   0.657   7.804 -2.0333  0.2046  1.5224
20388SOL     OW63480   2.434   7.149   8.641  0.0493 -0.3807 -0.5565
20388SOL    HW163481   2.459   7.234   8.676 -2.3216 -0.1512  0.8252
20388SOL    HW263482   2.462   7.086   8.707 -0.6811 -0.3697 -0.2271
20389SOL     OW63483   3.777   9.807   4.310 -0.4031  0.5212  0.5243
20389SOL    HW163484   3.711   9.739   4.321 -1.0072  0.5704 -2.0652
20389SOL    HW263485   3.860   9.759   4.308 -0.9546 -0.5888 -3.3559
20390SOL     OW63486   8.774   6.279   0.670  0.2942 -0.3603  0.4318
20390SOL    HW163487   8.776   6.187   0.647 -0.3086 -0.4482  0.7010
20390SOL    HW263488   8.863   6.311   0.653  0.5077 -0.9916  0.3581
20391SOL     OW63489   9.075   3.507   3.548 -0.2695  0.0097 -0.6069
20391SOL    HW163490   9.039   3.555   3.623 -0.0192  0.3851 -0.7227
20391SOL    HW263491   9.073   3.415   3.575  2.1731  0.3142  0.9171
20392SOL     OW63492   9.447   9.646   2.259  0.1226  0.0662  0.6247
20392SOL    HW163493   9.469   9.593   2.335 -0.3732  2.8377  2.8939
20392SOL    HW263494   9.353   9.634   2.247 -0.4541  1.9549  2.5794
20393SOL     OW63495   0.661   6.297   1.518 -0.2519 -0.7644 -0.5117
20393SOL    HW163496   0.733   6.299   1.581  0.2756  1.0405 -1.1006
20393SOL    HW263497   0.667   6.211   1.477  1.5713 -0.6714 -0.5195
20394SOL     OW63498   0.893   5.723   0.790  0.4983  0.1805 -0.2145
20394SOL    HW163499   0.954   5.718   0.716  0.0262 -0.8196 -0.5564
20394SOL    HW263500   0.837   5.798   0.769 -0.7078 -1.0700 -1.7666
20395SOL     OW63501   1.004   7.704  10.335 -0.0974  0.0281  0.3947
20395SOL    HW163502   0.924   7.654  10.354 -1.2050  0.2123 -3.0008
20395SOL    HW263503   1.067   7.638  10.305 -0.9448  0.3001 -2.2859
20396SOL     OW63504   6.192   0.741   8.800 -0.0077  0.1269  0.2706
20396SOL    HW163505   6.182   0.646   8.795 -1.9846  0.2795  0.5242
20396SOL    HW263506   6.157   0.774   8.717 -2.5911  0.7555  1.4735
20397SOL     OW63507   4.790   8.503   2.688  0.2795  0.1228 -0.0476
20397SOL    HW163508   4.784   8.429   2.749 -2.8217 -0.8228 -1.2752
20397SOL    HW263509   4.883   8.525   2.686  0.9814 -2.1020  2.2839
20398SOL     OW63510   2.549   4.804   1.174 -0.1238  0.1316  0.5118
20398SOL    HW163511   2.573   4.811   1.266  0.3006  0.6073  0.3695
20398SOL    HW263512   2.480   4.870   1.162  1.3594  1.6937  0.0021
20399SOL     OW63513   0.905   9.581   8.309  0.4604  0.2006  0.0993
20399SOL    HW163514   0.984   9.528   8.321 -0.5128 -1.5445 -0.6709
20399SOL    HW263515   0.838   9.536   8.362 -0.2811  0.9614 -0.1756
20400SOL     OW63516  10.159   8.430   5.704 -0.5251  0.4254 -0.4810
20400SOL    HW163517  10.198   8.404   5.620 -0.2142 -0.6903 -0.0134
20400SOL    HW263518  10.073   8.464   5.681 -0.9390 -0.9947 -1.1820
20401SOL     OW63519   7.082   7.054   6.007 -0.1271 -0.7534  0.1040
20401SOL    HW163520   7.132   6.974   5.989 -0.5783 -1.0301  0.0548
20401SOL    HW263521   7.145   7.125   5.994  0.6612 -1.1602  1.4844
20402SOL     OW63522   1.029   9.875   7.821 -0.1239  0.0838  0.3116
20402SOL    HW163523   1.070   9.961   7.816  0.7234 -0.3228  0.1182
20402SOL    HW263524   0.980   9.867   7.739  1.5401 -0.4653 -0.6847
20403SOL     OW63525   0.148   2.802   1.318 -0.3931  0.2845  0.1510
20403SOL    HW163526   0.098   2.739   1.266  0.1195  1.2003 -1.5301
20403SOL    HW263527   0.226   2.819   1.266  0.0894  1.3402  1.1825
20404SOL     OW63528   3.183   2.336   7.003 -0.1041 -0.3211 -0.2430
20404SOL    HW163529   3.236   2.412   7.027  0.9290 -1.2922  0.6393
20404SOL    HW263530   3.240   2.261   7.017 -1.4354 -1.3430 -0.1073
20405SOL     OW63531   0.171   0.814   8.152  0.0671 -1.1440 -0.8032
20405SOL    HW163532   0.077   0.813   8.167  0.2412  1.0474  0.9616
20405SOL    HW263533   0.180   0.838   8.060 -1.0659 -1.7823 -1.1040
20406SOL     OW63534   8.413   6.227   5.623 -0.5565  0.1763  0.4491
20406SOL    HW163535   8.340   6.260   5.676 -0.1061  1.3143  0.4031
20406SOL    HW263536   8.395   6.259   5.535  0.0101  0.4921  0.4441
20407SOL     OW63537   0.312   0.751   9.761  0.2159  0.1104  0.2660
20407SOL    HW163538   0.217   0.736   9.765  0.4711 -2.1686 -0.7423
20407SOL    HW263539   0.341   0.703   9.683  2.2749  0.3937  0.7928
20408SOL     OW63540   6.722   9.829   8.977 -0.3194 -0.3139  0.1891
20408SOL    HW163541   6.814   9.839   8.952 -1.1339 -0.6804 -3.5565
20408SOL    HW263542   6.686   9.917   8.968 -0.5407 -0.3524  0.7070
20409SOL     OW63543   8.856   2.150   9.100  0.4597  0.0329 -0.1188
20409SOL    HW163544   8.808   2.188   9.174  4.1254  1.2575  1.9282
20409SOL    HW263545   8.865   2.223   9.038 -0.3196 -0.2254 -0.5500
20410SOL     OW63546   6.086   8.834   9.107 -0.6628 -0.1016 -0.1271
20410SOL    HW163547   6.009   8.788   9.141 -1.1778  0.5600 -0.3675
20410SOL    HW263548   6.098   8.797   9.019 -0.1648 -0.8316  0.2408
20411SOL     OW63549   5.029   7.704   8.119  0.1082 -0.4720  0.4463
20411SOL    HW163550   4.939   7.711   8.151 -0.6304  0.3035 -1.6106
20411SOL    HW263551   5.020   7.663   8.032  1.7002 -0.0305  0.0395
20412SOL     OW63552   3.093   9.726   9.776  0.5449 -0.6930  0.1466
20412SOL    HW163553   3.001   9.715   9.756  0.3845 -1.1259  1.0873
20412SOL    HW263554   3.126   9.784   9.707 -1.0724  1.8738  1.4136
20413SOL     OW63555   9.233   1.173   2.938 -0.1412 -0.2178  0.2841
20413SOL    HW163556   9.171   1.177   2.866  0.6195 -1.3831 -0.4588
20413SOL    HW263557   9.180   1.187   3.016 -0.6530  3.4639 -0.5579
20414SOL     OW63558   0.731   4.721   9.652 -0.1620 -0.7461 -0.3123
20414SOL    HW163559   0.805   4.777   9.628 -0.7176 -0.2595 -0.9339
20414SOL    HW263560   0.764   4.632   9.644  0.2937 -0.5361 -0.8012
20415SOL     OW63561   3.236  10.219   2.117  0.0202  0.6464 -0.1999
20415SOL    HW163562   3.172  10.196   2.049  0.8421 -0.9136 -0.5037
20415SOL    HW263563   3.237  10.143   2.176  1.8323  0.4385 -0.4259
20416SOL     OW63564   7.153   6.596   4.166 -0.2900  0.0440 -0.2176
20416SOL    HW163565   7.096   6.644   4.226 -0.4736  0.9327 -1.0846
20416SOL    HW263566   7.103   6.518   4.143  0.4405 -1.1672  2.0397
20417SOL     OW63567   4.767   5.821   7.800 -0.8030 -0.3343  0.9157
20417SOL    HW163568   4.722   5.859   7.875 -0.4195  1.0664  0.4529
20417SOL    HW263569   4.744   5.878   7.726  0.2557 -0.6495  0.3153
20418SOL     OW63570   8.978   7.546   0.908 -0.4707 -0.0236 -0.2096
20418SOL    HW163571   8.936   7.538   0.822  0.3436 -0.7253 -0.5608
20418SOL    HW263572   9.033   7.624   0.901  0.7900 -0.9246 -0.8858
20419SOL     OW63573   7.569   1.166   3.665 -0.1661  0.3008 -0.3197
20419SOL    HW163574   7.632   1.236   3.686  1.5299 -1.4164  0.6591
20419SOL    HW263575   7.608   1.123   3.589  0.5818 -1.5760  1.0658
20420SOL     OW63576   2.212   0.673   4.642  0.2171 -0.0083  0.5693
20420SOL    HW163577   2.152   0.708   4.707  0.0045 -0.9745  0.9173
20420SOL    HW263578   2.284   0.736   4.639 -0.4613  0.7854  0.6762
20421SOL     OW63579   1.917   4.368   9.686 -0.8529 -0.2705 -0.0207
20421SOL    HW163580   1.860   4.360   9.610 -2.1682  1.4175  0.7129
20421SOL    HW263581   1.907   4.285   9.733  0.5748 -1.6563 -1.9967
20422SOL     OW63582   3.508  10.171   8.095 -0.2504 -0.0595  0.3603
20422SOL    HW163583   3.414  10.172   8.111 -0.3812 -0.3675 -0.3477
20422SOL    HW263584   3.517  10.207   8.007  0.3717  0.8349  0.7685
20423SOL     OW63585  10.224   4.583   8.339  0.0381 -0.0897  0.1743
20423SOL    HW163586  10.208   4.522   8.411  1.7645  0.6741  1.2658
20423SOL    HW263587  10.313   4.564   8.311 -0.4022  0.0279 -1.3963
20424SOL     OW63588   9.657   6.605   2.525 -0.3725 -0.8274  0.3693
20424SOL    HW163589   9.678   6.690   2.563  1.0047 -1.5807  1.3711
20424SOL    HW263590   9.561   6.602   2.525 -0.6918  2.1479 -3.0423
20425SOL     OW63591   6.948   7.575  10.454 -0.2040 -0.2623  0.3381
20425SOL    HW163592   7.006   7.500  10.444  1.5877  1.0323  0.6252
20425SOL    HW263593   6.962   7.629  10.376 -0.5681  0.3748  0.6972
20426SOL     OW63594   2.311   7.824   0.230  0.0089  0.9004 -0.1991
20426SOL    HW163595   2.350   7.750   0.184  0.3838 -0.8696  2.7004
20426SOL    HW263596   2.221   7.798   0.246  0.5929  0.1934  2.3400
20427SOL     OW63597   4.532   3.832   9.237 -0.0941 -0.3996  0.3750
20427SOL    HW163598   4.578   3.826   9.154 -0.4455 -1.5839  0.2382
20427SOL    HW263599   4.442   3.805   9.217 -0.2996 -0.2508  1.0491
20428SOL     OW63600   0.652   3.974   6.096 -0.3618  0.4333 -0.1015
20428SOL    HW163601   0.697   4.059   6.099  0.6788 -0.1136  2.5958
20428SOL    HW263602   0.581   3.984   6.160 -0.6726 -0.4972 -0.2962
20429SOL     OW63603   5.627   8.307   7.769  0.0256 -0.0429  0.1636
20429SOL    HW163604   5.716   8.341   7.762 -0.3120  0.5653 -2.3409
20429SOL    HW263605   5.638   8.213   7.783  1.0621  0.1294  0.5402
20430SOL     OW63606   3.377  10.261   9.233  0.2284 -0.1989 -0.2629
20430SOL    HW163607   3.305  10.298   9.285 -0.8632 -0.9014 -1.2289
20430SOL    HW263608   3.335  10.231   9.152  1.6409 -0.5111 -0.9002
20431SOL     OW63609   5.683   9.567   8.960  0.2913 -0.2345 -0.1879
20431SOL    HW163610   5.633   9.487   8.977 -0.6011 -0.0137 -1.5909
20431SOL    HW263611   5.769   9.536   8.931  0.1830 -0.6644 -0.0557
20432SOL     OW63612   8.895   7.713   0.410  0.4975 -0.3460  0.1317
20432SOL    HW163613   8.817   7.756   0.377 -0.0746 -0.6172  1.1010
20432SOL    HW263614   8.865   7.662   0.485  1.6210 -0.3185  0.6284
20433SOL     OW63615   1.928  10.298   6.440  0.2413 -0.2423  0.0428
20433SOL    HW163616   1.900  10.266   6.526  0.6678 -1.6588 -0.3231
20433SOL    HW263617   2.002  10.355   6.459 -0.7950  0.9236  0.7464
20434SOL     OW63618   2.568   9.961   7.987 -0.3010 -0.3662 -0.1283
20434SOL    HW163619   2.595   9.975   8.078  1.8921 -3.2317 -0.1864
20434SOL    HW263620   2.626  10.019   7.937 -1.7373  1.4659  0.2362
20435SOL     OW63621   0.376   8.089   6.005  0.1174 -1.1678 -0.3117
20435SOL    HW163622   0.282   8.073   5.996  0.0476 -1.2538  0.5501
20435SOL    HW263623   0.411   8.007   6.040  0.6341 -1.3904 -1.2914
20436SOL     OW63624   8.183   4.177   9.024 -0.0223 -0.3041 -0.7134
20436SOL    HW163625   8.221   4.263   9.008 -0.3779 -0.2583 -1.3488
20436SOL    HW263626   8.091   4.187   9.002 -1.5188  0.7362  4.7037
20437SOL     OW63627   0.153   6.036   9.907  0.5869  0.1974  0.4973
20437SOL    HW163628   0.228   5.978   9.891  0.8884  0.6061  0.4194
20437SOL    HW263629   0.191   6.122   9.918  0.1188  0.4195  0.4062
20438SOL     OW63630   6.201   3.237   3.930  0.1961  0.0193  0.3101
20438SOL    HW163631   6.106   3.221   3.931  0.4447 -1.6455  0.1052
20438SOL    HW263632   6.240   3.154   3.958  1.6304  0.3726 -0.5365
20439SOL     OW63633   2.811  10.354   4.758 -0.0222 -0.1419  0.3805
20439SOL    HW163634   2.741  10.308   4.712 -1.0677  0.8489  0.9285
20439SOL    HW263635   2.766  10.414   4.817  1.2136  2.7141 -1.3806
20440SOL     OW63636   5.944  10.419   1.951 -0.1223  0.2220  0.5999
20440SOL    HW163637   5.996  10.455   1.879 -1.0291  0.4263  0.0362
20440SOL    HW263638   5.993  10.443   2.030 -0.1059  1.7006  0.1725
20441SOL     OW63639   0.055   5.305   7.577  0.4072 -0.4404  0.1720
20441SOL    HW163640  -0.004   5.252   7.524 -0.6416 -0.2422  1.1059
20441SOL    HW263641   0.119   5.339   7.515 -0.0442 -1.2232 -0.7496
20442SOL     OW63642   7.941   1.674   0.336  0.0255  0.1501 -0.2982
20442SOL    HW163643   7.884   1.678   0.259 -0.6103  0.7789  0.1907
20442SOL    HW263644   7.973   1.764   0.346 -0.0918  0.1232  0.3171
20443SOL     OW63645   2.496   3.440   6.743  0.0192  1.1127  0.3638
20443SOL    HW163646   2.436   3.508   6.773  1.3052  1.9480  1.1755
20443SOL    HW263647   2.488   3.442   6.648 -1.9362  0.4987  0.4724
20444SOL     OW63648  10.445   2.867   6.274 -0.3874 -0.5111  0.0303
20444SOL    HW163649  10.466   2.882   6.182 -0.3005 -0.7560  0.0104
20444SOL    HW263650  10.360   2.910   6.287  1.0484  2.3453  0.6260
20445SOL     OW63651   9.016   1.431   7.247 -0.6566 -0.2411 -0.1276
20445SOL    HW163652   8.922   1.446   7.241 -0.7511 -0.1344  1.3084
20445SOL    HW263653   9.052   1.516   7.271 -0.2942 -0.4710  0.1543
20446SOL     OW63654   6.086   6.474   2.018 -0.0526 -0.0512  0.3034
20446SOL    HW163655   6.001   6.447   1.985 -0.8290  0.7038  1.6219
20446SOL    HW263656   6.128   6.517   1.943 -1.2843  0.5530 -0.0609
20447SOL     OW63657   4.288   9.922   5.140  0.0565  0.0337  0.6033
20447SOL    HW163658   4.204   9.896   5.178  1.2382 -0.9419  2.6912
20447SOL    HW263659   4.319   9.844   5.095  1.2674 -0.7292  2.6000
20448SOL     OW63660   6.636   8.382   2.030  0.4414  0.0938  0.3627
20448SOL    HW163661   6.665   8.357   2.117 -0.2126  1.5573  1.0347
20448SOL    HW263662   6.551   8.424   2.044 -0.0115 -0.2719 -1.0659
20449SOL     OW63663   8.634   9.023   5.142  0.8061  0.3408 -0.2390
20449SOL    HW163664   8.602   9.104   5.181  1.1482  1.2889 -1.8342
20449SOL    HW263665   8.726   9.020   5.166  0.2695 -0.8955  1.9023
20450SOL     OW63666   4.338   7.281   2.816 -0.0242  0.2167 -0.0433
20450SOL    HW163667   4.361   7.275   2.724 -3.1349  1.4558 -1.0291
20450SOL    HW263668   4.408   7.333   2.855  1.4739 -0.5370 -1.6190
20451SOL     OW63669  10.196   7.580   7.083  0.5134 -0.2836 -0.1631
20451SOL    HW163670  10.132   7.519   7.119  0.8595 -2.7749 -3.2881
20451SOL    HW263671  10.143   7.655   7.055  0.2371  1.7852  4.9032
20452SOL     OW63672   2.128   1.623   7.045  0.2341  0.4459 -0.1855
20452SOL    HW163673   2.059   1.558   7.033 -0.6234  0.4636  3.5504
20452SOL    HW263674   2.082   1.702   7.072  1.5679  1.4541 -0.7218
20453SOL     OW63675   6.660   5.226   5.391  0.1759  0.4903 -0.1812
20453SOL    HW163676   6.755   5.220   5.392  0.4051  2.2464 -2.7723
20453SOL    HW263677   6.630   5.143   5.356  0.5989 -0.6151  1.9224
20454SOL     OW63678   0.260   3.269   2.986  0.1345 -0.1423  0.4502
20454SOL    HW163679   0.204   3.276   3.064  0.3490 -0.4672  0.6367
20454SOL    HW263680   0.252   3.354   2.943 -3.4114 -1.2893 -1.5709
20455SOL     OW63681   7.203   9.830   6.986 -0.1782 -0.4891  0.1756
20455SOL    HW163682   7.280   9.800   7.033 -0.1057 -0.8425 -0.1602
20455SOL    HW263683   7.156   9.750   6.962  0.9448 -0.5110 -2.2973
20456SOL     OW63684   9.909   7.358   4.575 -0.2562 -0.5273  0.1429
20456SOL    HW163685  10.000   7.345   4.547 -0.1355  0.5065  0.0199
20456SOL    HW263686   9.869   7.272   4.566  1.2749 -1.5645  2.2854
20457SOL     OW63687   6.119   9.030   5.663  0.0633 -0.2951  0.2648
20457SOL    HW163688   6.037   9.003   5.622 -0.2870  1.1920 -0.0459
20457SOL    HW263689   6.119   8.985   5.747 -1.1481 -0.1980  0.3386
20458SOL     OW63690   4.855   5.331   9.097 -0.1575 -0.2168 -0.9270
20458SOL    HW163691   4.773   5.297   9.132 -0.7217  0.5786 -1.4423
20458SOL    HW263692   4.852   5.311   9.004 -0.4461  1.0852 -1.2192
20459SOL     OW63693   0.453   7.882   7.136  0.1175 -0.1848 -0.2174
20459SOL    HW163694   0.521   7.948   7.147  0.7670 -0.5535 -1.6993
20459SOL    HW263695   0.376   7.920   7.177  1.1369  0.3304  1.3303
20460SOL     OW63696  10.130   8.399   7.649  0.2623  0.2593  0.2173
20460SOL    HW163697  10.162   8.484   7.621  1.7763  0.1869  1.6047
20460SOL    HW263698  10.200   8.338   7.628 -1.2117 -0.8889 -1.7395
20461SOL     OW63699   5.828   9.150   7.559 -0.4672 -0.1514 -0.4523
20461SOL    HW163700   5.915   9.188   7.574 -0.5444 -0.0053 -0.3690
20461SOL    HW263701   5.813   9.161   7.466 -0.6756  0.4377 -0.3577
20462SOL     OW63702   3.037   5.175   2.828 -0.2522  0.1016  0.3439
20462SOL    HW163703   3.000   5.154   2.742 -0.8561  0.0758  0.6055
20462SOL    HW263704   2.991   5.116   2.888  1.9425 -1.7160  0.3786
20463SOL     OW63705   1.230   3.868  10.344  0.4010  0.1999  0.3749
20463SOL    HW163706   1.306   3.813  10.326 -0.8455 -1.1286 -0.9979
20463SOL    HW263707   1.244   3.946  10.290  0.1855 -0.6080 -0.8707
20464SOL     OW63708   6.291   8.068   6.437 -0.5516 -0.0698 -0.3366
20464SOL    HW163709   6.263   8.065   6.346 -0.8819 -2.1324 -0.2211
20464SOL    HW263710   6.329   7.982   6.452 -0.4467  0.2633  1.4682
20465SOL     OW63711   8.459   4.923   5.550  0.0918  0.2339  0.4093
20465SOL    HW163712   8.482   5.015   5.554  0.9759  0.1169 -1.0316
20465SOL    HW263713   8.528   4.878   5.598 -1.4154  0.4201  2.8930
20466SOL     OW63714   8.951   4.111   9.667 -0.1218 -0.0970 -0.5232
20466SOL    HW163715   8.880   4.175   9.665 -1.4376 -1.4160  0.6014
20466SOL    HW263716   9.026   4.156   9.629 -1.6713  1.2203 -2.1776
20467SOL     OW63717   9.204  10.451   5.870  0.0663 -0.3476 -0.4562
20467SOL    HW163718   9.256  10.530   5.852 -1.3169  0.5213 -0.7496
20467SOL    HW263719   9.247  10.382   5.819  0.3958  0.5518 -1.4181
20468SOL     OW63720   6.097  10.207   4.879  0.4473 -0.0422  0.3551
20468SOL    HW163721   6.016  10.225   4.833 -0.1456  0.0100  1.3923
20468SOL    HW263722   6.136  10.134   4.832 -0.5724 -0.5537  0.2819
20469SOL     OW63723   6.337   5.562   3.717  0.2072  0.2928  0.2721
20469SOL    HW163724   6.243   5.548   3.723  0.0498  1.7775  1.6788
20469SOL    HW263725   6.348   5.613   3.637 -0.2718  0.7287  0.4767
20470SOL     OW63726   7.427   9.352   8.381  0.2973  1.5443 -0.4865
20470SOL    HW163727   7.403   9.282   8.319  0.0745  0.9189  0.2959
20470SOL    HW263728   7.520   9.337   8.397 -0.2225 -0.0424  1.4575
20471SOL     OW63729   9.221   6.192   1.817  0.1387  0.1927 -0.2295
20471SOL    HW163730   9.275   6.251   1.764  1.3131 -1.4460 -0.9803
20471SOL    HW263731   9.183   6.131   1.753 -3.2614  1.6795  0.1838
20472SOL     OW63732  10.076   4.120   4.824  0.2461  0.0343 -0.8352
20472SOL    HW163733  10.160   4.106   4.781  1.3474 -0.7577  1.4367
20472SOL    HW263734  10.084   4.206   4.866  0.1461 -0.2843 -0.1458
20473SOL     OW63735   9.614   1.245   5.492 -0.1463  0.2064 -0.2657
20473SOL    HW163736   9.703   1.237   5.527 -0.0880  0.4036 -0.3641
20473SOL    HW263737   9.565   1.290   5.561  0.2680  1.7147 -0.8995
20474SOL     OW63738   2.558   4.340   4.181 -0.3230  0.0658  0.2513
20474SOL    HW163739   2.640   4.372   4.218  1.3825 -1.9860 -1.4817
20474SOL    HW263740   2.534   4.266   4.236  1.0829 -1.6661 -1.3433
20475SOL     OW63741   0.309   5.122   7.949 -0.4678 -0.6347  0.4244
20475SOL    HW163742   0.372   5.162   7.889 -0.6462 -2.2285 -0.8813
20475SOL    HW263743   0.362   5.094   8.024 -0.0101  0.1018  0.3895
20476SOL     OW63744   4.193  10.535   4.595 -0.4414  0.6994 -0.0158
20476SOL    HW163745   4.103  10.549   4.623 -1.5070 -0.2669 -2.6007
20476SOL    HW263746   4.198  10.441   4.576  1.1864  0.6972  0.2657
20477SOL     OW63747  10.089   5.079   8.568 -0.0682 -0.4395  0.0305
20477SOL    HW163748  10.168   5.043   8.528 -0.0846 -0.2832 -0.1447
20477SOL    HW263749  10.064   5.151   8.510  0.4697  0.4325  0.8491
20478SOL     OW63750   2.989   9.350   2.802  0.5199 -0.7350 -0.2524
20478SOL    HW163751   2.956   9.404   2.873 -0.4047 -1.0829 -0.4072
20478SOL    HW263752   2.938   9.269   2.808  2.5615 -2.0524  0.6226
20479SOL     OW63753   9.519   2.344   9.441 -0.0842 -0.1546 -0.1537
20479SOL    HW163754   9.475   2.369   9.522 -0.8564 -3.4675  0.5597
20479SOL    HW263755   9.599   2.301   9.469 -0.0731 -0.8308 -1.1585
20480SOL     OW63756   8.085   0.250   9.814  0.4224  0.1655  0.1277
20480SOL    HW163757   8.019   0.275   9.749 -0.4334 -1.5930  0.2536
20480SOL    HW263758   8.089   0.324   9.875  0.6838  1.5188 -1.4600
20481SOL     OW63759   6.509   7.512   1.950  0.3089  0.1169 -0.3378
20481SOL    HW163760   6.471   7.599   1.956 -1.7748 -0.7126 -0.6525
20481SOL    HW263761   6.460   7.460   2.014 -2.9883 -2.2562 -4.3024
20482SOL     OW63762   1.323   3.337   9.428  0.2429  0.3326 -0.2553
20482SOL    HW163763   1.392   3.313   9.490 -0.5876  0.0037  0.5610
20482SOL    HW263764   1.365   3.331   9.342  1.7667  2.0083  0.3130
20483SOL     OW63765   7.231  10.094   6.884  0.1062 -0.2793  0.4037
20483SOL    HW163766   7.230  10.010   6.931 -0.9628 -0.7287 -0.3767
20483SOL    HW263767   7.147  10.096   6.838  0.4015  0.9334 -0.1079
20484SOL     OW63768   0.598   9.005   4.678 -0.2690 -0.4492 -0.3146
20484SOL    HW163769   0.650   9.013   4.598 -0.2070  2.1236 -0.0777
20484SOL    HW263770   0.508   9.014   4.650 -0.2034  1.3915 -0.0515
20485SOL     OW63771   1.787   9.661   8.179 -0.2385  0.1623  0.1416
20485SOL    HW163772   1.770   9.755   8.179 -0.8272  0.0607 -0.5011
20485SOL    HW263773   1.802   9.639   8.087  0.1108 -0.3364  0.3118
20486SOL     OW63774  10.569   6.487   9.133  0.1912 -0.4158  0.3898
20486SOL    HW163775  10.641   6.433   9.100 -1.5132 -1.7627 -1.3831
20486SOL    HW263776  10.598   6.577   9.121  0.8887 -0.8939 -2.0598
20487SOL     OW63777   6.177   8.158   5.603  0.0479  0.1568  0.7936
20487SOL    HW163778   6.239   8.198   5.543 -0.0568 -1.6124 -0.5528
20487SOL    HW263779   6.095   8.207   5.589  0.7391  1.6169  1.6178
20488SOL     OW63780   7.942   3.093   6.687  0.1958  0.2476 -0.2811
20488SOL    HW163781   7.958   2.998   6.689  0.8303  0.3172 -1.0924
20488SOL    HW263782   7.965   3.118   6.598  1.3843  1.3925  0.3204
20489SOL     OW63783   6.438   8.791   1.498 -0.1548 -0.1489 -0.2582
20489SOL    HW163784   6.377   8.804   1.570 -0.2383  0.7711 -0.4818
20489SOL    HW263785   6.509   8.738   1.535  1.6272  3.2115  1.5522
20490SOL     OW63786  10.530   1.297   8.448 -0.1971  0.4136 -0.3603
20490SOL    HW163787  10.535   1.329   8.357  0.4574 -2.3554 -1.4038
20490SOL    HW263788  10.451   1.243   8.450 -1.4243  2.1787  1.4049
20491SOL     OW63789   5.385   8.415   1.563  0.0854  0.1208 -0.3859
20491SOL    HW163790   5.372   8.383   1.474 -3.4938  1.1397 -0.3758
20491SOL    HW263791   5.393   8.510   1.553  1.3285  0.1114  0.3005
20492SOL     OW63792   4.580   4.004   9.576  0.0587 -0.2534  0.7010
20492SOL    HW163793   4.630   3.951   9.638  0.1611 -0.7315  0.2173
20492SOL    HW263794   4.489   3.995   9.604  0.2992  1.3076  2.1007
20493SOL     OW63795   0.855   5.220   7.683 -0.5016 -0.5360 -0.0121
20493SOL    HW163796   0.878   5.145   7.738  0.7630  0.9884  1.6999
20493SOL    HW263797   0.806   5.278   7.741 -0.2193  0.5783 -0.8448
20494SOL     OW63798   0.040   2.281   0.264 -0.3610 -0.1929 -0.5621
20494SOL    HW163799  -0.005   2.364   0.248  0.8844  0.4396 -0.8513
20494SOL    HW263800   0.087   2.295   0.346 -1.0899 -1.0364  0.0218
20495SOL     OW63801   5.514   3.075   3.588 -0.2444 -0.7440  0.3187
20495SOL    HW163802   5.441   3.023   3.553 -0.5548  0.2553 -0.5593
20495SOL    HW263803   5.516   3.153   3.534 -0.7433  0.9027  2.5176
20496SOL     OW63804   8.140   1.632   3.115  0.4400  0.0291 -0.0394
20496SOL    HW163805   8.175   1.702   3.169  0.2342  0.4503 -0.4516
20496SOL    HW263806   8.216   1.581   3.088  0.7151  0.8129 -0.7565
20497SOL     OW63807   4.034   1.549   2.548 -0.5140 -0.0915 -0.4956
20497SOL    HW163808   3.944   1.516   2.546  0.2571 -2.8297  2.1630
20497SOL    HW263809   4.044   1.586   2.636  0.8249  0.6832 -0.9415
20498SOL     OW63810   2.681   4.365   8.907 -0.6214  0.1806  0.0455
20498SOL    HW163811   2.743   4.301   8.873 -0.3719  0.7131 -0.5110
20498SOL    HW263812   2.723   4.449   8.892 -0.9836  0.4814  0.7021
20499SOL     OW63813   0.577   7.446   6.549 -0.6572 -0.0718  0.4775
20499SOL    HW163814   0.527   7.390   6.609  1.0949 -0.0965  2.0073
20499SOL    HW263815   0.567   7.534   6.585 -1.4006  0.2600 -0.5086
20500SOL     OW63816   0.090   2.077   0.103 -0.1883  0.7185 -0.1764
20500SOL    HW163817   0.102   2.112   0.014  2.7298  1.8740  0.5380
20500SOL    HW263818   0.101   2.153   0.160  0.0686 -0.3364  1.2245
20501SOL     OW63819   9.649   4.303   4.074  0.0918  0.0631 -0.5286
20501SOL    HW163820   9.668   4.215   4.106 -1.0484 -0.0890 -0.2289
20501SOL    HW263821   9.734   4.347   4.075  0.9105 -1.3707 -1.8053
20502SOL     OW63822   1.080  10.042   6.515 -0.8355  0.1254 -0.0634
20502SOL    HW163823   1.110  10.026   6.605 -1.6719 -0.8680  0.0569
20502SOL    HW263824   1.160  10.059   6.466 -0.4192  1.4548  1.0035
20503SOL     OW63825   0.667   0.292  10.597  0.2430 -0.5663 -0.2142
20503SOL    HW163826   0.590   0.346  10.578 -0.2674 -0.7733  1.1665
20503SOL    HW263827   0.724   0.349  10.649  0.7215 -0.6409 -0.6503
20504SOL     OW63828   4.607   9.903   1.457  1.0748 -0.0835 -0.4725
20504SOL    HW163829   4.589   9.830   1.516 -2.2273  0.6519 -0.3388
20504SOL    HW263830   4.567   9.877   1.374  0.1086  1.3972 -0.5031
20505SOL     OW63831   9.080   7.000   1.885  0.5062  0.1780  0.6107
20505SOL    HW163832   9.105   6.940   1.955 -0.0582  0.5703  1.1639
20505SOL    HW263833   9.141   7.074   1.893 -0.5134  0.9297  1.6765
20506SOL     OW63834   9.165   1.452   1.813  0.3239 -0.1418 -0.3976
20506SOL    HW163835   9.198   1.393   1.746  1.0371 -1.2645  0.8815
20506SOL    HW263836   9.133   1.529   1.765 -0.5749 -1.5251 -2.1040
20507SOL     OW63837   8.989   2.910   5.953 -0.1174 -0.3549 -0.3495
20507SOL    HW163838   8.920   2.972   5.977  0.1907  0.0999 -0.6235
20507SOL    HW263839   8.950   2.824   5.969 -0.2141 -0.0838  0.9213
20508SOL     OW63840   7.853   9.089   8.632  0.4049 -0.1453  0.7923
20508SOL    HW163841   7.902   9.125   8.557 -0.1156  1.1351  1.0361
20508SOL    HW263842   7.798   9.021   8.594  0.1556  0.4774 -0.0004
20509SOL     OW63843   4.433   4.752   8.420 -0.4491  0.0485 -0.2431
20509SOL    HW163844   4.446   4.702   8.501 -0.0394 -2.3393 -1.6876
20509SOL    HW263845   4.447   4.843   8.446  2.0212 -0.8083  1.9053
20510SOL     OW63846   9.804   0.192   7.951 -0.0735  0.6410  0.1217
20510SOL    HW163847   9.899   0.192   7.954 -0.0844  0.9137  1.2802
20510SOL    HW263848   9.780   0.104   7.921  0.5418 -0.1129  1.7006
20511SOL     OW63849   8.829   3.621   3.114 -0.3235  0.1930 -1.1994
20511SOL    HW163850   8.881   3.698   3.088 -2.7201  1.5450 -2.3258
20511SOL    HW263851   8.882   3.579   3.181  0.2189  4.0822  1.1572
20512SOL     OW63852   3.425   0.621   8.664 -0.1145 -0.2253  0.1663
20512SOL    HW163853   3.426   0.588   8.574 -0.9380  0.8568 -0.2692
20512SOL    HW263854   3.486   0.695   8.662 -1.5659  1.0197 -0.0343
20513SOL     OW63855   7.932   6.331   2.970  0.0085  0.2952 -0.1719
20513SOL    HW163856   7.872   6.257   2.975  1.8405 -1.4809 -2.2566
20513SOL    HW263857   7.928   6.360   2.879  1.0851  1.2271  0.0455
20514SOL     OW63858   7.235   7.826   0.832  0.1758  0.3458 -0.1459
20514SOL    HW163859   7.181   7.771   0.776 -0.2029  0.0318  0.5047
20514SOL    HW263860   7.172   7.873   0.887  0.5314 -2.1207  2.6062
20515SOL     OW63861   0.545   3.923   2.555 -0.0094 -0.4670 -0.2594
20515SOL    HW163862   0.564   3.889   2.642 -0.1775 -0.5800 -0.2660
20515SOL    HW263863   0.608   3.994   2.542 -0.5457  0.1153  0.2932
20516SOL     OW63864   5.730   7.601   4.720 -0.1848  0.0725  0.1422
20516SOL    HW163865   5.680   7.537   4.772 -0.3827 -1.0692 -1.3788
20516SOL    HW263866   5.812   7.612   4.768  0.4504 -2.4118 -0.2153
20517SOL     OW63867   3.010   4.039   9.661  0.0538 -0.1301 -0.0128
20517SOL    HW163868   2.937   4.055   9.721 -0.0072 -0.4287 -0.0089
20517SOL    HW263869   2.968   4.015   9.578  0.1069  1.2864 -0.4802
20518SOL     OW63870   8.774   7.877   7.626  0.0418  0.1264 -0.0591
20518SOL    HW163871   8.843   7.847   7.567 -0.8557  0.5267 -1.3514
20518SOL    HW263872   8.815   7.944   7.680  0.6136  0.5413 -0.9895
20519SOL     OW63873   8.698   0.912   6.820  0.0085 -0.4805  0.3800
20519SOL    HW163874   8.612   0.882   6.850  0.0735  0.5908  1.7265
20519SOL    HW263875   8.745   0.934   6.901  0.9588  0.5064 -0.4185
20520SOL     OW63876   6.060   5.040   3.831 -0.4669  0.0458  0.4962
20520SOL    HW163877   6.104   5.038   3.916  1.3790 -0.1601 -0.4109
20520SOL    HW263878   5.999   4.966   3.833  1.6118 -1.7500  0.6313
20521SOL     OW63879   5.811  10.371   8.846  0.2715 -0.3810  0.6539
20521SOL    HW163880   5.907  10.377   8.846  0.3057 -0.8374 -0.0779
20521SOL    HW263881   5.789  10.336   8.760 -0.5149 -0.9630  1.0788
20522SOL     OW63882   6.267   0.570   8.213  0.0209  0.1311  0.6355
20522SOL    HW163883   6.267   0.564   8.309  2.5628  0.8316  0.7390
20522SOL    HW263884   6.317   0.650   8.194 -1.0891  0.4239 -1.2898
20523SOL     OW63885   6.700   5.073   0.623  0.6247 -0.1017 -0.2391
20523SOL    HW163886   6.720   4.991   0.578  0.0045 -0.6458  0.4631
20523SOL    HW263887   6.782   5.096   0.667  1.7741  1.2684 -2.8295
20524SOL     OW63888   7.872   1.089   1.746  0.2078 -0.1753  0.3391
20524SOL    HW163889   7.784   1.057   1.727  0.4039 -0.4614 -0.0927
20524SOL    HW263890   7.866   1.123   1.836 -0.9237  1.8381 -0.4232
20525SOL     OW63891  10.513   8.957   2.993  0.7035  0.3162 -0.4831
20525SOL    HW163892  10.452   8.884   2.981  0.2231  0.3340  1.5662
20525SOL    HW263893  10.561   8.962   2.910 -0.1952 -1.4363 -1.1501
20526SOL     OW63894   7.340   4.875   4.644  0.3215  0.1288  0.9367
20526SOL    HW163895   7.259   4.875   4.593  0.4461 -1.3517  0.6943
20526SOL    HW263896   7.385   4.796   4.616  1.0330  0.0104  2.3635
20527SOL     OW63897   5.048   7.888   1.512  1.0300 -0.1120  0.1340
20527SOL    HW163898   5.007   7.840   1.584 -0.0734  0.0055 -0.3848
20527SOL    HW263899   5.030   7.980   1.532  0.2148 -0.1054 -0.5583
20528SOL     OW63900   1.791   4.867   4.856 -0.7112  0.1281 -0.0494
20528SOL    HW163901   1.744   4.852   4.774 -2.1296  0.0733  0.7558
20528SOL    HW263902   1.767   4.956   4.882  0.6150  0.5701 -0.2315
20529SOL     OW63903   4.772   8.228   2.544  0.3675 -0.2431 -0.1486
20529SOL    HW163904   4.845   8.166   2.547 -0.3672 -1.1881 -0.8853
20529SOL    HW263905   4.794   8.295   2.608  2.3135 -0.0102 -1.0079
20530SOL     OW63906   4.502   3.583   7.636 -0.3122  0.3735 -0.2051
20530SOL    HW163907   4.597   3.579   7.629 -0.1220  1.2689  1.3098
20530SOL    HW263908   4.477   3.660   7.585  0.0327  1.3297  0.9987
20531SOL     OW63909   6.851   6.980   3.846  0.2673  0.2881 -0.1204
20531SOL    HW163910   6.839   7.006   3.755  0.7838  3.3493  0.5804
20531SOL    HW263911   6.762   6.976   3.882  0.0399 -1.2733 -0.7907
20532SOL     OW63912   2.409   5.370   4.636 -0.0752  0.0395 -0.3474
20532SOL    HW163913   2.356   5.326   4.703 -0.4164  1.3988  0.2958
20532SOL    HW263914   2.498   5.340   4.653 -0.1139  0.5945  0.9158
20533SOL     OW63915   0.342   2.682   4.981 -0.2437  0.3250 -0.3646
20533SOL    HW163916   0.313   2.655   4.893 -0.3497 -1.4786  0.1855
20533SOL    HW263917   0.260   2.696   5.029 -0.1855  0.8109 -0.4057
20534SOL     OW63918   3.212   5.097   0.527  0.6867 -0.1088  0.3318
20534SOL    HW163919   3.221   5.174   0.471  0.3276 -0.0608  0.3382
20534SOL    HW263920   3.141   5.119   0.588 -1.0354 -1.3085 -1.1244
20535SOL     OW63921   4.942  10.556   1.978 -0.0478 -0.1328 -0.0917
20535SOL    HW163922   5.017  10.496   1.985 -0.0041  0.0135  0.8264
20535SOL    HW263923   4.980  10.638   1.948  0.2729  0.1201  0.9607
20536SOL     OW63924   0.159   9.494   7.412 -0.1310 -0.5173  0.1060
20536SOL    HW163925   0.229   9.541   7.367  2.0617 -3.3728  0.2494
20536SOL    HW263926   0.197   9.471   7.497 -1.8070 -0.9053  0.7812
20537SOL     OW63927   8.472   8.391   4.101  0.1721 -0.1960 -0.3339
20537SOL    HW163928   8.457   8.484   4.080 -0.1821 -0.2830 -0.4712
20537SOL    HW263929   8.405   8.344   4.052 -0.9827 -0.3703  1.3275
20538SOL     OW63930   2.929  10.572   9.571 -0.0345 -0.1974 -0.4636
20538SOL    HW163931   2.901  10.548   9.659 -0.1926  0.8570 -0.2158
20538SOL    HW263932   2.857  10.545   9.514 -0.1954 -0.3281 -0.1948
20539SOL     OW63933   6.862   1.165  10.449  0.1064  0.3223 -0.0842
20539SOL    HW163934   6.825   1.091  10.498  2.2519  0.0416  1.2418
20539SOL    HW263935   6.810   1.240  10.477  1.4911  0.2610  3.1424
20540SOL     OW63936   6.715   1.533   0.828  0.0151  0.4059  0.3239
20540SOL    HW163937   6.804   1.502   0.842 -0.9333 -1.8051  2.0000
20540SOL    HW263938   6.701   1.598   0.897 -0.7573 -1.9177  2.5345
20541SOL     OW63939   7.402   3.625   9.849 -0.0641 -0.2895 -0.1375
20541SOL    HW163940   7.453   3.545   9.835 -2.9171 -2.1906 -0.5825
20541SOL    HW263941   7.371   3.649   9.762 -0.8957  0.1185  0.2629
20542SOL     OW63942   1.441   2.223   6.261  0.5080 -0.7301  0.0272
20542SOL    HW163943   1.376   2.292   6.276  0.9541  0.0659 -1.4924
20542SOL    HW263944   1.442   2.173   6.343 -0.4013  0.5804  0.8835
20543SOL     OW63945   1.406   2.201   3.188  0.4932  0.3362  0.0354
20543SOL    HW163946   1.343   2.210   3.260 -0.1426  0.0115 -0.4673
20543SOL    HW263947   1.459   2.280   3.191 -0.3439  0.8987  0.0904
20544SOL     OW63948   9.955   1.192   0.675  0.1102  0.7315 -0.0053
20544SOL    HW163949   9.969   1.138   0.597 -0.4831  1.0256 -0.3221
20544SOL    HW263950  10.031   1.249   0.680  0.4318  0.3047 -0.0344
20545SOL     OW63951   0.343   3.530   7.886 -0.1597  0.0082  0.2056
20545SOL    HW163952   0.428   3.529   7.930 -0.0217 -1.2253 -0.0538
20545SOL    HW263953   0.364   3.552   7.795 -0.1306 -0.1181  0.1808
20546SOL     OW63954   6.483   1.838   8.402 -0.4119  0.5833  0.3076
20546SOL    HW163955   6.535   1.916   8.383 -0.6930  0.6956 -0.0119
20546SOL    HW263956   6.459   1.846   8.494  1.6243 -0.3441  0.9743
20547SOL     OW63957   1.642   2.601  10.054  0.0712 -0.1950  0.5063
20547SOL    HW163958   1.657   2.604   9.960 -1.0923  0.2927  0.3200
20547SOL    HW263959   1.694   2.674  10.089 -0.6127  0.5253  0.0612
20548SOL     OW63960   4.942   6.281   7.414 -0.3378 -0.4665  0.0492
20548SOL    HW163961   4.972   6.191   7.427  2.5007  0.4240  0.3790
20548SOL    HW263962   4.978   6.307   7.330 -0.4709  0.5971  0.3003
20549SOL     OW63963   4.542   3.747   5.318 -0.7526 -0.0852 -0.4058
20549SOL    HW163964   4.636   3.739   5.335 -0.8703 -2.6356 -0.6167
20549SOL    HW263965   4.512   3.657   5.308 -3.7988  0.3635  2.6763
20550SOL     OW63966   0.319   1.519   4.452  0.2934  0.3859  0.1937
20550SOL    HW163967   0.236   1.500   4.494  1.3695 -0.6997  1.9589
20550SOL    HW263968   0.322   1.460   4.377 -0.1875 -0.1648  0.6008
20551SOL     OW63969   8.220   0.872   6.787 -0.3070  0.4888 -0.1574
20551SOL    HW163970   8.273   0.941   6.748  1.2257  1.3210  3.0694
20551SOL    HW263971   8.262   0.791   6.760 -0.3497  0.9128 -1.5665
20552SOL     OW63972   6.074   2.025   0.071  0.6682 -0.1143  0.1958
20552SOL    HW163973   6.016   2.071   0.010  1.1292  0.4622  0.1850
20552SOL    HW263974   6.091   2.089   0.140  0.9891 -0.4071  0.3877
20553SOL     OW63975   2.649   9.397   7.575  0.2779 -0.5504 -0.6333
20553SOL    HW163976   2.663   9.361   7.487 -0.1971  0.9675 -1.3732
20553SOL    HW263977   2.556   9.420   7.576  0.4989  0.3383 -0.0744
20554SOL     OW63978   3.241  10.039   3.973 -0.1905 -0.2524  0.4270
20554SOL    HW163979   3.289   9.967   4.016 -0.3775 -1.5193 -1.3734
20554SOL    HW263980   3.279  10.118   4.010  2.1306 -1.2348  0.3310
20555SOL     OW63981   0.025  10.029   1.154  0.1509  0.1576  0.1736
20555SOL    HW163982  -0.055   9.991   1.190 -0.4842 -0.5056 -1.7627
20555SOL    HW263983  -0.005  10.109   1.109  0.8099  0.6685  0.6255
20556SOL     OW63984   9.365   1.838   4.841  1.0101 -0.3999  0.3959
20556SOL    HW163985   9.394   1.921   4.804 -0.6973  0.7080  1.4579
20556SOL    HW263986   9.441   1.805   4.888  1.6591  0.6500  0.1114
20557SOL     OW63987   8.831   8.483   8.037  0.0500 -0.1095 -0.2763
20557SOL    HW163988   8.842   8.456   8.128 -1.6329  1.4609  0.4484
20557SOL    HW263989   8.782   8.565   8.042 -1.5595 -0.8203 -2.6492
20558SOL     OW63990   3.572   9.101   7.314 -0.8341 -0.1538 -0.5961
20558SOL    HW163991   3.582   9.013   7.277  0.6528  0.2134 -1.1582
20558SOL    HW263992   3.538   9.154   7.243 -0.3514  0.0180 -0.7060
20559SOL     OW63993   6.142   7.780   1.755  0.2950  0.2540  0.0106
20559SOL    HW163994   6.056   7.743   1.733  0.6526 -1.0415  0.6602
20559SOL    HW263995   6.174   7.816   1.672 -0.7786  0.5584 -0.2842
20560SOL     OW63996   9.257   2.174   6.335 -0.1461  0.4251  0.0265
20560SOL    HW163997   9.203   2.214   6.403 -2.8689 -1.3245 -0.9134
20560SOL    HW263998   9.207   2.187   6.255  1.2724 -0.5771 -1.0593
20561SOL     OW63999   1.109   2.121   3.871 -0.1758 -0.7468  0.2397
20561SOL    HW164000   1.187   2.144   3.821 -0.8844  1.3909 -0.0159
20561SOL    HW264001   1.138   2.123   3.963 -0.0754  0.9355  0.2061
20562SOL     OW64002   3.030   5.278   8.114 -0.9983 -0.0278  0.0709
20562SOL    HW164003   3.018   5.353   8.056  0.0992 -0.4601 -0.7316
20562SOL    HW264004   3.124   5.262   8.114 -1.2136 -1.4164  0.2204
20563SOL     OW64005   7.372   9.004   6.862  0.3311  0.3482 -0.4138
20563SOL    HW164006   7.446   9.021   6.921 -0.1341  1.0253 -0.0025
20563SOL    HW264007   7.305   9.068   6.889 -0.4821 -0.3879 -0.6433
20564SOL     OW64008   0.281   5.368   5.419  0.0285  0.5962  0.7144
20564SOL    HW164009   0.299   5.423   5.495  0.6136  1.1943  0.1618
20564SOL    HW264010   0.316   5.418   5.345 -0.9238  0.2269  0.0013
20565SOL     OW64011  10.060   2.657   8.124 -0.1997  0.1696  0.4594
20565SOL    HW164012   9.973   2.684   8.153 -1.0385 -0.3760 -1.3976
20565SOL    HW264013  10.066   2.688   8.034  1.0392 -0.8870  0.1476
20566SOL     OW64014   1.513   0.011   8.873  0.2786 -0.5683  0.8466
20566SOL    HW164015   1.424   0.024   8.905  0.7955  0.6268  1.9050
20566SOL    HW264016   1.541   0.098   8.844  0.7569 -1.1258 -0.4085
20567SOL     OW64017   0.773   6.001   1.020  0.2779  0.1289 -0.3605
20567SOL    HW164018   0.742   5.953   1.097  0.8389  0.9408  0.3870
20567SOL    HW264019   0.708   5.983   0.953  0.7788 -2.1924 -0.3128
20568SOL     OW64020   5.565   0.138   0.542 -0.0882 -0.2061 -0.3470
20568SOL    HW164021   5.514   0.112   0.465  1.1363 -1.1494 -0.8735
20568SOL    HW264022   5.559   0.062   0.600 -0.5598  0.2924  0.2626
20569SOL     OW64023   0.472   8.437   4.246  0.0881  0.2793 -0.2184
20569SOL    HW164024   0.409   8.507   4.233 -1.2660 -0.6006  1.1693
20569SOL    HW264025   0.545   8.478   4.293  0.8556  1.4199 -2.2851
20570SOL     OW64026   9.687   6.433   0.478 -0.4827 -0.7020  0.4728
20570SOL    HW164027   9.652   6.376   0.547  1.1548 -1.1798  0.9566
20570SOL    HW264028   9.620   6.431   0.410 -1.1091 -2.0868  1.0786
20571SOL     OW64029   5.848   9.864   4.698 -0.6143  0.6724 -0.0704
20571SOL    HW164030   5.913   9.795   4.709 -0.9524  0.6362  2.0834
20571SOL    HW264031   5.776   9.838   4.755 -0.9366  2.5612  0.4516
20572SOL     OW64032   6.580   4.069   6.575  0.5251 -0.6943  0.3732
20572SOL    HW164033   6.523   4.135   6.614 -1.4606 -2.3849  0.5057
20572SOL    HW264034   6.662   4.115   6.558 -0.4139  1.5045  1.4191
20573SOL     OW64035   1.012  10.063   9.621  0.0772  0.1905  0.0205
20573SOL    HW164036   1.014  10.090   9.713 -0.5760  0.6816 -0.1019
20573SOL    HW264037   1.063   9.983   9.618 -0.7157 -0.3711  0.9994
20574SOL     OW64038   6.947  10.407   0.500  0.1954 -0.2761 -0.2057
20574SOL    HW164039   7.036  10.395   0.468 -0.6500 -2.1871 -2.1258
20574SOL    HW264040   6.935  10.338   0.566  0.2780  0.3272  0.4585
20575SOL     OW64041   2.148   4.622   8.764 -0.9704  0.4401  0.1956
20575SOL    HW164042   2.217   4.581   8.712  0.5912  1.6114  1.2607
20575SOL    HW264043   2.115   4.551   8.819 -1.2512 -0.3408 -0.9551
20576SOL     OW64044   0.727   8.109   1.594  0.7366  0.4101 -0.1534
20576SOL    HW164045   0.768   8.043   1.538  0.4299  1.3973 -1.6136
20576SOL    HW264046   0.716   8.185   1.536  0.0691  1.3552  1.1738
20577SOL     OW64047   9.745   0.516   4.096  0.1134  0.0680 -0.6874
20577SOL    HW164048   9.832   0.531   4.134  0.9807  0.8389 -2.8314
20577SOL    HW264049   9.685   0.519   4.170  1.6009  2.3839  0.5300
20578SOL     OW64050   2.987   5.500   3.567 -0.0221  0.0775  0.1011
20578SOL    HW164051   2.920   5.540   3.512  0.7576 -1.3538 -2.0166
20578SOL    HW264052   3.061   5.483   3.508  0.9231 -1.4071  1.5980
20579SOL     OW64053   6.609   2.879   7.509 -0.4945 -0.3164  0.5487
20579SOL    HW164054   6.643   2.871   7.420  0.0773 -0.4740  0.7778
20579SOL    HW264055   6.687   2.889   7.564 -0.8325 -0.3985  1.0523
20580SOL     OW64056   3.885   9.591   7.349  0.0059 -0.0485 -0.1160
20580SOL    HW164057   3.920   9.504   7.370 -2.5325 -1.3593 -0.9266
20580SOL    HW264058   3.812   9.602   7.410  1.3519  2.3699  1.1932
20581SOL     OW64059   7.202   7.707   1.253 -0.2055 -0.7623 -0.2339
20581SOL    HW164060   7.234   7.794   1.275 -0.8679 -0.3605 -0.8087
20581SOL    HW264061   7.280   7.653   1.250  0.4535  0.1850 -1.5598
20582SOL     OW64062   2.855   0.817   7.008 -0.0627 -0.2618 -0.4378
20582SOL    HW164063   2.803   0.738   6.994 -0.7502  0.0139  0.4520
20582SOL    HW264064   2.818   0.857   7.087  1.3613  0.0518  0.1225
20583SOL     OW64065   5.237   9.823  10.596  0.1216 -0.3249  0.4191
20583SOL    HW164066   5.288   9.743  10.582 -0.6033 -0.5742 -1.0173
20583SOL    HW264067   5.292   9.876  10.654  0.9359 -1.5565  0.8267
20584SOL     OW64068   1.244   1.104   2.578 -0.3150 -0.2847 -0.0835
20584SOL    HW164069   1.328   1.108   2.623  0.8821 -1.5415 -2.0753
20584SOL    HW264070   1.264   1.130   2.488 -2.1668 -0.1397 -0.4888
20585SOL     OW64071   6.626   9.821   3.072 -0.3623 -0.1474 -0.0647
20585SOL    HW164072   6.618   9.829   2.977 -0.6986  0.3083  0.0032
20585SOL    HW264073   6.536   9.820   3.104 -0.2433  0.3773  0.3043
20586SOL     OW64074   0.366   6.377   2.026 -0.0422 -0.0282 -0.1680
20586SOL    HW164075   0.433   6.432   1.985  0.4039  0.2610  0.9061
20586SOL    HW264076   0.323   6.333   1.953  1.4920 -0.4124 -0.8749
20587SOL     OW64077   0.969   3.018   2.194 -0.1880  0.2637 -0.0535
20587SOL    HW164078   0.888   2.967   2.192 -1.4516  2.1844 -0.3967
20587SOL    HW264079   0.956   3.081   2.264  1.2082  0.3301  0.1745
20588SOL     OW64080   2.847   7.760   8.156 -0.4164 -0.2355 -0.6886
20588SOL    HW164081   2.786   7.821   8.197  1.0241  0.4823  0.4805
20588SOL    HW264082   2.884   7.808   8.082  0.6671  0.3377  0.1911
20589SOL     OW64083   9.009   5.504   8.715  0.3090 -0.2745  0.0331
20589SOL    HW164084   8.919   5.471   8.718  0.6767 -1.5358 -1.5472
20589SOL    HW264085   9.063   5.429   8.741  0.9900 -0.0232 -0.6210
20590SOL     OW64086   6.991   5.163   3.745  0.7042  0.3963 -0.0093
20590SOL    HW164087   6.908   5.120   3.765  0.4780  1.5902  1.7952
20590SOL    HW264088   6.979   5.198   3.657 -0.2604 -0.4605 -0.2387
20591SOL     OW64089   9.187   8.742   1.268  0.0940 -0.3364  0.1792
20591SOL    HW164090   9.227   8.790   1.340 -1.4282 -0.5040  1.1814
20591SOL    HW264091   9.188   8.650   1.296 -0.4521 -0.4147 -0.0463
20592SOL     OW64092   2.181   2.030   5.817  0.0707  0.1043 -0.4546
20592SOL    HW164093   2.244   1.981   5.870 -1.2676  0.4970  1.5878
20592SOL    HW264094   2.163   1.973   5.742  0.7249 -1.2548  0.3925
20593SOL     OW64095   9.047   0.257   9.251 -0.1985 -0.2124 -0.1297
20593SOL    HW164096   9.111   0.327   9.264  1.6833 -1.8142 -0.2402
20593SOL    HW264097   9.021   0.232   9.340 -0.6831  0.4437 -0.0823
20594SOL     OW64098  10.498   1.849   3.103  0.1582  0.3229 -0.3172
20594SOL    HW164099  10.452   1.765   3.098  0.6935 -0.1511  1.9216
20594SOL    HW264100  10.430   1.912   3.128 -0.0710  0.4230 -1.1570
20595SOL     OW64101   0.760   1.065   6.703  0.6440  0.1548 -0.3668
20595SOL    HW164102   0.812   0.999   6.657  0.9700  1.5090 -2.0724
20595SOL    HW264103   0.669   1.044   6.680  0.7461  0.2609 -0.8942
20596SOL     OW64104   9.016   0.586   2.480  0.7586 -0.2223  0.2158
20596SOL    HW164105   9.037   0.585   2.387 -0.8398 -0.2583 -0.1590
20596SOL    HW264106   8.931   0.544   2.487 -0.3299  1.9574  1.3823
20597SOL     OW64107  10.528   0.671  10.537 -0.1932  0.7021 -0.0779
20597SOL    HW164108  10.560   0.673  10.447 -0.4141 -1.2546 -0.2566
20597SOL    HW264109  10.558   0.754  10.575  0.4667  1.2803 -1.7484
20598SOL     OW64110   8.864   4.558   1.482  0.2117 -0.0566  0.0029
20598SOL    HW164111   8.839   4.566   1.574  0.6771  1.5323  0.0220
20598SOL    HW264112   8.783   4.575   1.433  0.1264 -0.1426  0.1150
20599SOL     OW64113   1.883   0.548   3.847  0.2905 -0.1040  0.2057
20599SOL    HW164114   1.882   0.643   3.854 -0.5503  0.1556 -2.3816
20599SOL    HW264115   1.966   0.528   3.803 -0.2179 -0.4235 -0.6176
20600SOL     OW64116   9.588   5.789   5.545 -0.1401  0.6449 -0.1587
20600SOL    HW164117   9.649   5.791   5.619 -0.1717 -0.7294 -0.0737
20600SOL    HW264118   9.640   5.816   5.470  0.7492 -1.0199 -0.1814
20601SOL     OW64119   9.199   6.480   0.052 -0.6033  0.4617  0.4612
20601SOL    HW164120   9.147   6.555   0.021 -1.6571 -0.7132 -0.7598
20601SOL    HW264121   9.136   6.427   0.102 -0.5221 -0.8179 -0.7494
20602SOL     OW64122   0.946   6.157   2.356 -0.1731 -0.6746  0.5222
20602SOL    HW164123   0.862   6.130   2.317  0.1700  0.1232 -0.8443
20602SOL    HW264124   1.000   6.181   2.281  1.0354 -0.4821  1.4378
20603SOL     OW64125   4.581  10.405   7.158 -0.1641  0.3797 -0.0481
20603SOL    HW164126   4.620  10.342   7.097  0.8248 -0.0675  0.9958
20603SOL    HW264127   4.584  10.360   7.243 -1.4653  0.9970  0.3441
20604SOL     OW64128   6.358   7.108   1.678 -0.7148 -0.3063  0.3861
20604SOL    HW164129   6.266   7.081   1.674 -0.4478 -1.1888 -0.3453
20604SOL    HW264130   6.402   7.037   1.724 -0.0102 -1.1430 -1.4655
20605SOL     OW64131   1.421   6.186   2.888  0.3438 -0.0718  1.1423
20605SOL    HW164132   1.381   6.123   2.949 -0.6094  1.3535  2.0518
20605SOL    HW264133   1.357   6.257   2.882  2.5030  2.1451  2.3402
20606SOL     OW64134  10.448  10.272   7.454 -0.0031  0.0479 -0.3041
20606SOL    HW164135  10.401  10.261   7.371 -0.4788 -1.5725  0.1427
20606SOL    HW264136  10.540  10.260   7.430 -0.3191 -3.4153 -0.2298
20607SOL     OW64137   9.575   4.439   6.761 -0.1633  0.1394  0.1184
20607SOL    HW164138   9.579   4.396   6.847  0.4367  1.3134  0.7104
20607SOL    HW264139   9.536   4.374   6.703  0.9414 -1.2890  0.9123
20608SOL     OW64140   5.786   3.372   8.786 -0.0863  0.5349 -0.0444
20608SOL    HW164141   5.788   3.449   8.843  1.3575  0.0491  0.5927
20608SOL    HW264142   5.790   3.409   8.697  2.0371  1.2088  0.2640
20609SOL     OW64143   7.628   7.087   5.595  0.0353  0.0710  0.1032
20609SOL    HW164144   7.553   7.037   5.627  0.0893  0.4439  0.8404
20609SOL    HW264145   7.591   7.171   5.567  0.0037 -0.2138 -0.7363
20610SOL     OW64146   2.249   2.400   1.638 -0.5601 -0.4877 -0.2334
20610SOL    HW164147   2.235   2.455   1.715 -0.3566  1.0745 -1.2580
20610SOL    HW264148   2.257   2.311   1.673  0.9780  0.3245  1.6907
20611SOL     OW64149   7.634   0.991   3.475 -0.1367  0.2087  0.1113
20611SOL    HW164150   7.653   0.977   3.382 -2.3862 -1.4571 -0.1728
20611SOL    HW264151   7.644   0.905   3.515 -0.0369  0.7419  1.2754
20612SOL     OW64152   0.628   0.790   5.241 -0.7686  0.4798  0.3723
20612SOL    HW164153   0.566   0.736   5.192 -0.9437  1.6224 -0.7263
20612SOL    HW264154   0.581   0.873   5.254  0.6363  1.5154 -0.8492
20613SOL     OW64155   6.631   5.841   2.707  0.1198  0.0151 -0.4811
20613SOL    HW164156   6.721   5.844   2.740  0.0145  1.0791 -0.2525
20613SOL    HW264157   6.583   5.793   2.774  0.5121 -0.5809 -0.6147
20614SOL     OW64158   7.304   8.252   3.154  0.1612 -0.3380  0.2337
20614SOL    HW164159   7.291   8.247   3.248 -0.4933 -0.4594  0.1458
20614SOL    HW264160   7.398   8.248   3.142  0.2469 -0.3274  0.8834
20615SOL     OW64161   4.820   6.188   1.996  0.0643  0.4258  0.2847
20615SOL    HW164162   4.891   6.148   2.047 -0.1051  0.2235  0.3589
20615SOL    HW264163   4.803   6.126   1.925 -1.8939 -0.8604  1.7873
20616SOL     OW64164   5.097   0.303   2.664 -0.1370  0.2598  0.2500
20616SOL    HW164165   5.012   0.307   2.707  0.4653 -0.0522  1.5598
20616SOL    HW264166   5.079   0.267   2.577 -1.3792  0.5818  0.3558
20617SOL     OW64167   4.380   1.777   9.025  0.9559 -0.2741  0.7460
20617SOL    HW164168   4.453   1.727   9.062  0.5912 -1.0988  0.3662
20617SOL    HW264169   4.397   1.779   8.931 -0.2217 -1.6811  0.4758
20618SOL     OW64170   0.700   9.758   9.146 -0.6165  0.2970  0.1854
20618SOL    HW164171   0.686   9.681   9.090  0.2067 -0.2762  0.7564
20618SOL    HW264172   0.628   9.755   9.208 -0.0814 -0.5542  0.7892
20619SOL     OW64173   4.387   9.991  10.582  0.0394 -0.5467  0.0517
20619SOL    HW164174   4.464  10.016  10.531 -0.9930  0.4635 -1.0487
20619SOL    HW264175   4.378   9.897  10.567  1.2292 -0.7482  0.4725
20620SOL     OW64176   0.634   2.026   7.288 -0.0377  0.2920 -0.4416
20620SOL    HW164177   0.727   2.004   7.298  0.1565  0.3602 -1.9543
20620SOL    HW264178   0.591   1.942   7.275 -0.0240  0.3533 -0.8973
20621SOL     OW64179   3.878   6.664   3.514 -0.1254  0.2153 -0.2173
20621SOL    HW164180   3.853   6.639   3.425 -0.9519  0.0347  0.0600
20621SOL    HW264181   3.796   6.666   3.563  0.0350  2.2515  0.0844
20622SOL     OW64182   7.276   0.264   0.991 -0.7400 -0.3310  0.3971
20622SOL    HW164183   7.343   0.239   1.055  0.2008  2.1747  0.5089
20622SOL    HW264184   7.326   0.300   0.918 -1.8420 -2.5029 -1.5301
20623SOL     OW64185   4.961   8.528   0.145  0.0946 -0.4491 -0.1016
20623SOL    HW164186   4.948   8.516   0.239 -1.1011 -0.0964 -0.2026
20623SOL    HW264187   4.919   8.612   0.125 -0.7147 -1.0657 -1.1434
20624SOL     OW64188   3.653   8.370   6.191  0.2016  0.3234 -0.1789
20624SOL    HW164189   3.671   8.313   6.266  1.7900  1.7496  0.5731
20624SOL    HW264190   3.730   8.361   6.135 -0.4573  0.1782 -1.0974
20625SOL     OW64191   3.451   7.601   5.079  0.5192 -0.4855  0.1079
20625SOL    HW164192   3.477   7.543   5.007  0.9316 -0.4318  0.2087
20625SOL    HW264193   3.465   7.690   5.044 -0.4880 -0.4302 -0.1853
20626SOL     OW64194   2.189   5.318   9.837 -0.1578  0.2899  0.1125
20626SOL    HW164195   2.177   5.410   9.814 -0.1656 -0.0037 -1.1401
20626SOL    HW264196   2.104   5.278   9.820 -0.0837  0.0068  0.4151
20627SOL     OW64197   0.181   2.848   3.524  0.2898  0.3724  0.1391
20627SOL    HW164198   0.130   2.791   3.581  0.5605 -0.5588 -0.5268
20627SOL    HW264199   0.268   2.852   3.565  0.8878 -1.3689 -0.8538
20628SOL     OW64200   4.755   3.284   0.812  0.6181  0.0333  0.3651
20628SOL    HW164201   4.827   3.340   0.781 -1.9996  2.8071 -1.1763
20628SOL    HW264202   4.722   3.328   0.890  0.8334 -1.5310  1.3945
20629SOL     OW64203   0.746   3.740   7.205 -0.7119 -0.0268 -0.5611
20629SOL    HW164204   0.771   3.832   7.213  0.5033 -0.3788 -0.0113
20629SOL    HW264205   0.681   3.726   7.274  0.3892  0.0245  0.5266
20630SOL     OW64206   2.370   6.356   3.812 -0.6312 -0.0221 -0.0113
20630SOL    HW164207   2.342   6.298   3.741 -2.6700  0.5484  0.2815
20630SOL    HW264208   2.390   6.297   3.885  1.6806 -0.6298 -1.0403
20631SOL     OW64209   2.337   3.840   7.692  0.3921 -0.3737 -0.9158
20631SOL    HW164210   2.344   3.747   7.710  0.0497 -0.0720  0.9768
20631SOL    HW264211   2.372   3.850   7.603 -1.7929 -2.6140 -2.1776
20632SOL     OW64212   8.454   5.543   5.508 -0.7224 -0.4009 -0.4237
20632SOL    HW164213   8.535   5.521   5.463 -0.2221 -0.0115  0.2714
20632SOL    HW264214   8.388   5.487   5.468 -0.1089 -0.7250 -0.9888
20633SOL     OW64215   4.945   8.529   4.396 -0.8089  0.0340 -0.2798
20633SOL    HW164216   4.930   8.622   4.413 -1.8403 -0.0272 -0.8102
20633SOL    HW264217   4.979   8.495   4.479 -2.8315  0.3681  0.7511
20634SOL     OW64218  10.063   6.198   1.835 -0.0790 -0.1555 -0.8261
20634SOL    HW164219  10.111   6.278   1.859 -0.1736 -0.4284  0.3417
20634SOL    HW264220  10.052   6.205   1.740  0.8461  0.7001 -0.8968
20635SOL     OW64221   9.287   1.417  10.348 -0.1370  0.4667  0.0410
20635SOL    HW164222   9.357   1.441  10.287 -3.6203  0.0106 -4.7280
20635SOL    HW264223   9.299   1.323  10.362 -0.4260  0.1291 -1.7850
20636SOL     OW64224   2.098   8.344   2.641 -0.0176 -0.0211  0.2509
20636SOL    HW164225   2.154   8.267   2.632 -0.4704 -0.3526  0.2886
20636SOL    HW264226   2.158   8.418   2.627  0.1126 -0.4071 -1.4720
20637SOL     OW64227  10.096   3.684   6.106 -0.3177 -0.1383 -0.2507
20637SOL    HW164228  10.066   3.607   6.058 -1.5886 -0.3254  0.7893
20637SOL    HW264229  10.031   3.751   6.087 -1.0319 -0.3017  1.3750
20638SOL     OW64230   2.202   8.731   9.525 -0.3211 -0.4583 -0.1194
20638SOL    HW164231   2.108   8.739   9.510 -0.2055  0.2265 -0.5037
20638SOL    HW264232   2.230   8.659   9.468 -0.5872 -0.5860 -0.0906
20639SOL     OW64233   9.676   8.215   9.384 -0.0657  0.0346 -0.1056
20639SOL    HW164234   9.591   8.202   9.425 -0.6420  1.5863 -0.7350
20639SOL    HW264235   9.655   8.241   9.294  1.0974 -0.4180 -0.5256
20640SOL     OW64236   8.927   9.359   5.961  0.1338  0.0767 -0.3057
20640SOL    HW164237   8.925   9.356   5.865 -1.0791  2.4769 -0.4264
20640SOL    HW264238   8.856   9.418   5.985 -0.5873 -1.6766  2.2020
20641SOL     OW64239   7.952   3.541   4.475 -0.3584  0.3481 -0.2431
20641SOL    HW164240   7.954   3.491   4.393  1.2312  1.1821 -0.7509
20641SOL    HW264241   7.873   3.594   4.469 -1.4648 -1.2189 -0.2021
20642SOL     OW64242   0.178   1.691   3.104 -0.1199  0.6122  0.0835
20642SOL    HW164243   0.104   1.637   3.076  0.6274 -0.5549  0.3143
20642SOL    HW264244   0.213   1.727   3.022  0.9288 -1.3176 -0.3740
20643SOL     OW64245   9.648   8.637   9.934 -0.4270  0.1713 -0.3854
20643SOL    HW164246   9.698   8.570   9.888 -0.0163  0.7999 -0.8634
20643SOL    HW264247   9.608   8.690   9.864 -0.6391  0.5086 -0.0159
20644SOL     OW64248   7.240   6.819   2.089 -0.0391  0.5240  0.6364
20644SOL    HW164249   7.291   6.754   2.137 -0.7503  0.4898  1.3551
20644SOL    HW264250   7.301   6.891   2.074  0.5251  0.0348  0.5342
20645SOL     OW64251  10.250   0.521   6.976 -0.3112 -0.4098  0.1398
20645SOL    HW164252  10.245   0.458   6.905 -0.0294 -0.2678 -0.0107
20645SOL    HW264253  10.173   0.577   6.965 -0.1295 -0.2248 -0.2136
20646SOL     OW64254   3.920   5.582   4.409 -0.1480  0.0903  0.1671
20646SOL    HW164255   3.892   5.517   4.345  1.3740  0.3367 -0.7970
20646SOL    HW264256   3.968   5.647   4.358  1.2086  0.2413  1.5720
20647SOL     OW64257   8.584   0.200   3.598 -0.3230  0.2252  0.6149
20647SOL    HW164258   8.586   0.271   3.662 -0.6721  1.5918 -0.8392
20647SOL    HW264259   8.508   0.218   3.543  1.6836  0.9411 -2.1558
20648SOL     OW64260   8.573   9.065   2.022  0.3876  0.2648 -1.1681
20648SOL    HW164261   8.594   8.974   2.000 -0.6513 -0.4580  0.5358
20648SOL    HW264262   8.477   9.066   2.025  0.4123  1.0968 -0.0544
20649SOL     OW64263   3.226   2.210   2.954  0.5031 -0.1427 -0.3682
20649SOL    HW164264   3.198   2.123   2.929  1.7670 -0.3589 -1.1397
20649SOL    HW264265   3.223   2.261   2.873  2.0966 -0.1456 -0.4706
20650SOL     OW64266   4.529   4.521   7.007  0.2118 -0.0850 -0.2639
20650SOL    HW164267   4.457   4.472   6.968  0.9083  0.9008 -2.9669
20650SOL    HW264268   4.572   4.564   6.933  3.0166  0.1126  1.3710
20651SOL     OW64269   3.533   1.356   3.591 -0.2005 -0.3587 -0.6917
20651SOL    HW164270   3.485   1.283   3.553  1.2987 -2.1519  0.6499
20651SOL    HW264271   3.544   1.332   3.683 -0.0155  1.7871 -0.1004
20652SOL     OW64272   8.715   0.294   8.912 -0.5770 -0.0529 -0.0379
20652SOL    HW164273   8.658   0.235   8.962 -0.0230  0.1878  0.9004
20652SOL    HW264274   8.796   0.299   8.964 -0.5472  1.4036 -0.1778
20653SOL     OW64275   9.505   5.630   2.566 -0.3608 -0.6224  0.8205
20653SOL    HW164276   9.442   5.670   2.506 -0.1783 -1.2855  0.1686
20653SOL    HW264277   9.554   5.704   2.603  0.3238 -0.2565 -0.7504
20654SOL     OW64278   3.358   3.535   6.597 -0.1604 -0.0460 -0.0337
20654SOL    HW164279   3.325   3.475   6.664 -1.3854 -2.1968 -2.3729
20654SOL    HW264280   3.289   3.600   6.587  0.1420  0.4342  0.9455
20655SOL     OW64281   9.921   7.480   9.794  0.3272 -0.1798 -0.5188
20655SOL    HW164282   9.881   7.473   9.880  0.9679 -0.1718 -0.2204
20655SOL    HW264283   9.885   7.406   9.745  2.6703 -2.3490  0.8437
20656SOL     OW64284   2.912   3.842   4.304  0.5318 -0.0262  0.3331
20656SOL    HW164285   2.876   3.779   4.367 -2.2935  1.7887  0.7184
20656SOL    HW264286   2.898   3.801   4.218  1.6250 -1.2169  0.6987
20657SOL     OW64287   9.486   4.817  10.491 -0.1432 -0.6044 -0.1085
20657SOL    HW164288   9.430   4.885  10.529  0.3745 -0.0079 -0.4000
20657SOL    HW264289   9.546   4.864  10.434  0.6611 -1.2410  0.1942
20658SOL     OW64290   9.082   5.766   8.664 -0.1231  0.1983  0.5554
20658SOL    HW164291   9.171   5.763   8.628 -0.7665  0.6376 -1.1599
20658SOL    HW264292   9.057   5.674   8.672 -0.5807  0.0418 -1.8551
20659SOL     OW64293   2.508   6.006  10.426 -0.0615 -0.2329  0.4413
20659SOL    HW164294   2.505   5.910  10.423 -0.4970 -0.2385  0.9453
20659SOL    HW264295   2.532   6.032  10.337  1.8976 -0.8729  0.7235
20660SOL     OW64296   8.583   5.189   1.645 -0.1818  0.3811 -0.1204
20660SOL    HW164297   8.533   5.181   1.563 -2.2121  3.4814  0.6322
20660SOL    HW264298   8.517   5.179   1.713  0.9584  0.7166  1.0628
20661SOL     OW64299   6.812   7.280   4.272 -0.3013 -0.1204  0.2447
20661SOL    HW164300   6.803   7.197   4.224  0.0220  0.3850 -0.7034
20661SOL    HW264301   6.766   7.264   4.355 -2.6656 -0.3503 -1.0302
20662SOL     OW64302   4.018   6.099   2.743 -0.4429 -0.4464  0.2757
20662SOL    HW164303   3.947   6.040   2.717 -1.4371  0.8877 -0.1414
20662SOL    HW264304   3.981   6.149   2.815  0.6576 -0.8262  1.1285
20663SOL     OW64305   0.648   7.502   3.369  0.2677  0.5035  0.5049
20663SOL    HW164306   0.576   7.551   3.329  0.1151  0.2297  0.4417
20663SOL    HW264307   0.701   7.569   3.413 -1.5898  0.4606  3.0246
20664SOL     OW64308   1.264   2.363   2.477 -0.2461 -0.3840 -0.3666
20664SOL    HW164309   1.282   2.443   2.525  1.4801 -0.6790 -0.4490
20664SOL    HW264310   1.214   2.391   2.400 -0.7186  0.4410  0.2356
20665SOL     OW64311   4.261   8.373  10.405 -0.3337 -0.6839 -0.3046
20665SOL    HW164312   4.282   8.456  10.449 -1.0576 -1.3703  1.4242
20665SOL    HW264313   4.179   8.345  10.445  0.7756 -3.0879  0.4606
20666SOL     OW64314   6.621   0.796   3.055 -0.1491  0.4360  0.3259
20666SOL    HW164315   6.689   0.747   3.100 -1.2545 -2.5653 -1.0185
20666SOL    HW264316   6.669   0.854   2.995  1.2395 -0.5931  0.3869
20667SOL     OW64317   9.792   7.110   2.992 -0.2907 -0.4716  0.1657
20667SOL    HW164318   9.865   7.144   3.044 -0.6250  0.7281 -0.1153
20667SOL    HW264319   9.827   7.031   2.951  0.7647 -0.0691  0.2534
20668SOL     OW64320   5.034   5.748   3.413 -0.3252 -0.0526 -1.0164
20668SOL    HW164321   5.071   5.805   3.345 -0.7289 -1.0795 -2.1303
20668SOL    HW264322   4.993   5.808   3.475  0.4207  0.9339 -1.4392
20669SOL     OW64323   0.420   2.811   2.084  0.0627  0.0812  0.0450
20669SOL    HW164324   0.499   2.823   2.032 -0.2868  0.1410 -0.4782
20669SOL    HW264325   0.402   2.717   2.080  0.0689  0.0774  0.1066
20670SOL     OW64326   8.411   8.152   4.744 -0.9020 -0.1105  0.1724
20670SOL    HW164327   8.501   8.155   4.712 -0.1633 -1.7865  1.9216
20670SOL    HW264328   8.412   8.207   4.822 -1.9943  1.6798 -1.0174
20671SOL     OW64329   6.355   3.367   4.984 -0.5450 -0.3093  0.1489
20671SOL    HW164330   6.281   3.336   4.932 -0.3957 -1.3799  0.5343
20671SOL    HW264331   6.403   3.426   4.926 -1.0109 -0.5899 -0.5372
20672SOL     OW64332   5.927   6.346   8.575  0.1958  0.4255 -0.0548
20672SOL    HW164333   5.880   6.309   8.500  1.4002  0.3819 -0.8137
20672SOL    HW264334   5.917   6.441   8.565 -0.6255  0.4071  0.4079
20673SOL     OW64335   1.137   4.266   2.506  0.2805  0.2982 -0.0957
20673SOL    HW164336   1.115   4.345   2.555 -0.7956 -1.2450  2.0929
20673SOL    HW264337   1.061   4.251   2.450  0.7371  1.0922 -0.9510
20674SOL     OW64338   1.781   2.939   9.179  0.3277 -0.8128 -0.2629
20674SOL    HW164339   1.871   2.951   9.151  0.5004 -3.9253 -1.4269
20674SOL    HW264340   1.786   2.877   9.252 -0.8400 -0.2084  0.3746
20675SOL     OW64341   6.223   5.567   6.880  0.8661 -0.0360 -0.4057
20675SOL    HW164342   6.216   5.644   6.823  1.6637  0.4424  0.1250
20675SOL    HW264343   6.289   5.512   6.837  0.9661  0.0031 -0.3011
20676SOL     OW64344   8.086   2.253   7.103  0.1738 -0.0159  0.3127
20676SOL    HW164345   8.006   2.227   7.058  0.3551 -1.6993  0.8813
20676SOL    HW264346   8.104   2.342   7.072  0.7954 -1.3409 -3.6634
20677SOL     OW64347   7.192   7.607   3.962  0.1997 -0.5744 -0.0617
20677SOL    HW164348   7.151   7.644   4.041  1.0883 -1.8786  1.0674
20677SOL    HW264349   7.160   7.517   3.959  2.4201 -1.4575  0.5259
20678SOL     OW64350   0.417   3.997   6.822 -0.0179  0.3569 -0.0785
20678SOL    HW164351   0.465   3.966   6.744  0.0417  0.6544 -0.1620
20678SOL    HW264352   0.330   4.019   6.789 -0.2023 -0.1523  0.0679
20679SOL     OW64353   7.550   4.859   9.526 -0.2388 -0.5451 -0.1304
20679SOL    HW164354   7.467   4.907   9.523  0.1549  0.1918  0.4251
20679SOL    HW264355   7.544   4.808   9.607  1.3455  2.4041  2.0657
20680SOL     OW64356   7.615   4.978   3.726  0.1349  0.3224 -0.1215
20680SOL    HW164357   7.545   4.929   3.769  0.3047 -0.6882 -0.9604
20680SOL    HW264358   7.688   4.916   3.723  0.2747  0.5280 -1.4129
20681SOL     OW64359   5.910   2.621  10.069  0.3603 -0.0025  0.3344
20681SOL    HW164360   5.906   2.715  10.085  0.6863 -0.1442  1.3262
20681SOL    HW264361   5.973   2.611   9.998  0.8450  0.4774  0.6930
20682SOL     OW64362   9.515   6.526   3.452  0.1274  0.0359  0.1700
20682SOL    HW164363   9.546   6.609   3.487  1.4206 -0.3025 -0.1082
20682SOL    HW264364   9.479   6.479   3.528  0.8925  0.1895  0.6313
20683SOL     OW64365   8.187   2.737   2.788  0.0745 -0.5664  0.2924
20683SOL    HW164366   8.199   2.648   2.821 -0.0873 -0.6271  0.1891
20683SOL    HW264367   8.241   2.741   2.709 -0.0715 -0.6351  0.1882
20684SOL     OW64368   4.524   9.364   7.374 -0.4977  0.2943  0.6137
20684SOL    HW164369   4.612   9.325   7.364  0.3617  2.3970 -0.6987
20684SOL    HW264370   4.502   9.396   7.287 -3.0937 -1.0773  0.6649
20685SOL     OW64371   0.422   8.441   9.953  0.0245 -0.1736  0.0358
20685SOL    HW164372   0.424   8.474  10.043  1.4727  1.0739 -0.3920
20685SOL    HW264373   0.514   8.431   9.930 -0.3190 -0.3037 -1.3637
20686SOL     OW64374   7.565   4.371   7.092 -0.2698  0.4263 -0.2592
20686SOL    HW164375   7.479   4.359   7.053  0.1838 -0.8854 -0.9375
20686SOL    HW264376   7.566   4.310   7.166 -0.4291  1.4917  0.6414
20687SOL     OW64377   1.759   0.318   3.172 -0.6312  0.0770  0.1181
20687SOL    HW164378   1.769   0.413   3.162 -0.6078 -0.1091 -2.1924
20687SOL    HW264379   1.816   0.281   3.104  1.1059 -1.7076  2.3843
20688SOL     OW64380   2.993   6.949   3.831  0.2592  0.2965 -0.0862
20688SOL    HW164381   2.925   6.971   3.768  1.1082 -0.0919 -1.1674
20688SOL    HW264382   3.075   6.960   3.783  0.9056 -0.5755  0.7756
20689SOL     OW64383   9.491   8.478   9.189  0.0216  0.3399 -0.2775
20689SOL    HW164384   9.519   8.453   9.277  0.6989  0.7609 -0.3656
20689SOL    HW264385   9.522   8.568   9.179  0.1910  0.1994 -1.0418
20690SOL     OW64386   1.449   8.762   7.251 -0.4792 -0.2496  0.2044
20690SOL    HW164387   1.378   8.728   7.196 -1.8395  0.3792  1.5174
20690SOL    HW264388   1.473   8.689   7.308 -1.7390  0.2033  1.3705
20691SOL     OW64389   6.663   6.926   5.934 -0.3917 -0.0727  0.4036
20691SOL    HW164390   6.577   6.889   5.915  0.1028 -1.0509 -0.0331
20691SOL    HW264391   6.647   6.994   6.000 -1.4962 -0.1894  0.2689
20692SOL     OW64392   7.436   4.085   2.614  0.1202 -0.3903 -0.0097
20692SOL    HW164393   7.403   4.033   2.687 -1.4094 -2.2605 -1.9095
20692SOL    HW264394   7.385   4.167   2.618  0.2210 -0.3696  1.1076
20693SOL     OW64395   1.876   4.941   7.574 -0.0691  0.0410  0.8559
20693SOL    HW164396   1.797   4.959   7.624 -0.2704  0.0488  0.5400
20693SOL    HW264397   1.862   4.853   7.537 -0.2621  0.3477  0.1813
20694SOL     OW64398   5.861   8.315   3.744 -0.0652 -0.4870 -0.5034
20694SOL    HW164399   5.869   8.220   3.736  1.0016 -0.4145 -0.3724
20694SOL    HW264400   5.799   8.339   3.675 -0.4191 -1.2820 -0.4740
20695SOL     OW64401   0.469   0.115   6.108  0.3378 -0.5099  0.2010
20695SOL    HW164402   0.543   0.170   6.083  0.2234 -0.4695 -0.0475
20695SOL    HW264403   0.448   0.142   6.197 -0.6746  0.8991 -0.4222
20696SOL     OW64404   1.555   6.865   2.409  0.0215 -0.6570 -0.3583
20696SOL    HW164405   1.537   6.772   2.401  3.2063 -1.4050 -0.0587
20696SOL    HW264406   1.581   6.892   2.321  0.8601 -0.5092 -0.0755
20697SOL     OW64407   1.315   0.589   7.022  0.7054  0.0604  0.1859
20697SOL    HW164408   1.410   0.582   7.033  0.9203  0.5961 -1.2157
20697SOL    HW264409   1.279   0.537   7.094  2.0731 -1.6804 -0.3233
20698SOL     OW64410   4.130   9.708   6.342 -0.2901 -0.3622  0.6014
20698SOL    HW164411   4.036   9.706   6.363 -0.3937  1.5196  0.5276
20698SOL    HW264412   4.145   9.798   6.312  1.3657 -0.8966 -0.2778
20699SOL     OW64413   9.450   4.669   4.801  0.1067  0.2929 -0.3677
20699SOL    HW164414   9.514   4.740   4.798  1.8392 -0.9747  2.3919
20699SOL    HW264415   9.500   4.590   4.781 -0.8559 -0.6054  0.6352
20700SOL     OW64416   7.540  10.347   4.968 -0.4664 -0.1992  0.2569
20700SOL    HW164417   7.460  10.342   4.915  1.0935  0.8829 -2.4031
20700SOL    HW264418   7.553  10.440   4.982  0.9076 -0.2785 -0.3541
20701SOL     OW64419   9.615   7.537   9.947 -0.0435  0.4883 -0.7596
20701SOL    HW164420   9.522   7.551   9.967  0.0995  0.7454 -0.2679
20701SOL    HW264421   9.634   7.601   9.879  0.2596  1.8248  0.5245
20702SOL     OW64422   0.413   9.630   2.821  0.1852  0.2764  0.3268
20702SOL    HW164423   0.418   9.589   2.907 -1.6579 -0.8880 -0.0891
20702SOL    HW264424   0.412   9.558   2.759 -1.2901  0.9725 -0.5145
20703SOL     OW64425   3.105   3.559   8.847 -0.1474 -0.1466  0.1840
20703SOL    HW164426   3.100   3.530   8.938  0.2060  1.4736  0.7541
20703SOL    HW264427   3.199   3.563   8.827 -0.1523  1.0078  0.2935
20704SOL     OW64428   0.550   6.925   0.772  0.6851  0.8759  0.4076
20704SOL    HW164429   0.507   6.883   0.847  2.0020  0.5134  0.9860
20704SOL    HW264430   0.484   6.924   0.703  1.0070 -3.4052 -0.0745
20705SOL     OW64431   2.536   3.304   8.581  0.2452  0.4488 -0.3272
20705SOL    HW164432   2.614   3.277   8.630 -0.5574  0.7370  1.2010
20705SOL    HW264433   2.524   3.237   8.515  0.1455 -1.2112  1.2913
20706SOL     OW64434   9.827   1.919   8.324  0.0476  0.4832 -0.0954
20706SOL    HW164435   9.738   1.949   8.343  0.0100  0.8772 -0.8503
20706SOL    HW264436   9.857   1.879   8.405 -0.1866  1.8888  0.7129
20707SOL     OW64437   1.199   7.595  10.151 -0.2037  0.1264  0.4892
20707SOL    HW164438   1.279   7.543  10.139  0.3248  1.1245 -0.5371
20707SOL    HW264439   1.129   7.541  10.113  0.1629 -0.3046  0.4168
20708SOL     OW64440   7.001   7.120   2.317 -0.6455  0.1765 -0.0184
20708SOL    HW164441   7.023   7.145   2.407  0.1191  2.1962 -0.7231
20708SOL    HW264442   6.927   7.060   2.327  0.4868 -1.0038  2.0327
20709SOL     OW64443  10.538   1.940   9.135  0.5887  0.4514 -0.0172
20709SOL    HW164444  10.517   1.981   9.051 -1.4845  1.7269  1.0289
20709SOL    HW264445  10.564   2.012   9.192  2.5343 -0.4691  0.3190
20710SOL     OW64446   5.358   8.786   0.482  0.1758 -0.1082  0.3161
20710SOL    HW164447   5.392   8.817   0.398  1.7061 -1.2132  0.4784
20710SOL    HW264448   5.363   8.863   0.540 -0.1551  0.4542 -0.3943
20711SOL     OW64449   8.050   1.985   4.678  0.3202  0.5064 -0.3405
20711SOL    HW164450   8.073   1.953   4.591  2.3301  1.5570 -0.2624
20711SOL    HW264451   8.105   1.934   4.738 -0.3130  0.4799  0.2358
20712SOL     OW64452   3.906   5.214   7.430  0.2343  0.7219 -0.6780
20712SOL    HW164453   3.950   5.216   7.345  0.3146  0.9223 -0.6323
20712SOL    HW264454   3.967   5.166   7.487 -0.1909 -0.1535 -0.9363
20713SOL     OW64455   4.918   6.218   0.877 -0.2071 -0.4676  0.3864
20713SOL    HW164456   4.842   6.169   0.849  0.3744 -0.3552 -1.5260
20713SOL    HW264457   4.920   6.295   0.819  0.9624 -0.1268  0.8470
20714SOL     OW64458   1.063   0.242   6.835 -0.0265  0.4390 -0.2210
20714SOL    HW164459   1.089   0.329   6.805 -0.7183  0.5553 -0.5055
20714SOL    HW264460   1.051   0.191   6.754 -0.4596  0.3320 -0.0950
20715SOL     OW64461   6.963   1.796   3.907 -0.3500 -0.1510  0.1117
20715SOL    HW164462   6.960   1.797   3.811  0.5550 -1.5671  0.0326
20715SOL    HW264463   6.875   1.819   3.934 -0.2151  2.0003 -1.0171
20716SOL     OW64464   4.388   7.280   7.674 -0.6189  0.1969 -0.2478
20716SOL    HW164465   4.379   7.243   7.587 -2.1220 -1.6996  0.6383
20716SOL    HW264466   4.377   7.205   7.733 -0.4828  1.5538  1.5820
20717SOL     OW64467   4.883   6.068   9.610 -0.3369 -0.2672  0.0055
20717SOL    HW164468   4.917   6.114   9.687  0.5571 -1.2602  0.2231
20717SOL    HW264469   4.865   5.979   9.641 -1.9904 -0.1159 -0.4278
20718SOL     OW64470   5.098   1.088   0.333 -0.1376  0.2884  0.2105
20718SOL    HW164471   5.082   0.997   0.308  1.2773  0.8040 -3.1513
20718SOL    HW264472   5.088   1.089   0.428  0.1943 -3.4533  0.4354
20719SOL     OW64473   1.546  10.013   2.278  0.2585 -0.1058 -0.1581
20719SOL    HW164474   1.513  10.091   2.322 -0.8109  0.2900 -1.5863
20719SOL    HW264475   1.484   9.944   2.301  1.0320 -0.4896  0.8529
20720SOL     OW64476   8.685   8.911   1.267 -0.3890  0.4670 -0.4136
20720SOL    HW164477   8.767   8.861   1.274 -0.2540  0.6431 -0.7215
20720SOL    HW264478   8.707   8.986   1.212 -0.3713  1.3203  0.7045
20721SOL     OW64479   7.472   9.499   9.336  0.2362 -0.8003 -0.1600
20721SOL    HW164480   7.447   9.580   9.293 -0.5679 -1.1159 -0.3112
20721SOL    HW264481   7.445   9.430   9.275 -1.9198 -1.3218  1.2529
20722SOL     OW64482   0.905   1.231   3.786 -0.3641  0.7403 -0.0572
20722SOL    HW164483   0.974   1.167   3.767  0.7497  2.0005 -0.4423
20722SOL    HW264484   0.944   1.289   3.852 -1.3956  0.9538  0.3765
20723SOL     OW64485   0.574  10.107   5.168 -0.7661 -0.1167  0.4189
20723SOL    HW164486   0.536  10.024   5.198 -1.7936  0.3641  0.5143
20723SOL    HW264487   0.569  10.164   5.245  1.1556 -0.3415  0.7520
20724SOL     OW64488   4.769   1.348   6.500 -0.3514  0.2251 -0.2555
20724SOL    HW164489   4.696   1.286   6.505 -0.7594  0.6959 -0.3312
20724SOL    HW264490   4.730   1.429   6.467  0.3294  0.2861 -0.9489
20725SOL     OW64491   7.128  10.257   8.143  0.2559 -0.1196 -0.0237
20725SOL    HW164492   7.185  10.333   8.138  1.0601 -0.7041  0.0478
20725SOL    HW264493   7.187  10.182   8.141 -0.5127 -0.7450  0.0030
20726SOL     OW64494   3.211   0.282   7.407  0.4539  0.1013 -0.5031
20726SOL    HW164495   3.277   0.329   7.459 -0.4302  1.0441 -0.2056
20726SOL    HW264496   3.134   0.278   7.465 -0.1073 -0.0258 -1.2499
20727SOL     OW64497   3.742   6.484   1.797  0.5771 -0.2014 -0.9280
20727SOL    HW164498   3.777   6.436   1.722  0.8782 -1.2868 -0.1307
20727SOL    HW264499   3.806   6.469   1.867 -0.7364 -1.0239  0.1517
20728SOL     OW64500   4.730   0.120   3.831 -0.2737  0.5736 -0.1489
20728SOL    HW164501   4.792   0.164   3.774 -0.7302  0.2110 -0.9498
20728SOL    HW264502   4.670   0.075   3.771 -1.3642  0.9881  0.5830
20729SOL     OW64503   1.687   9.464   3.265  0.7217  0.8158 -0.4563
20729SOL    HW164504   1.679   9.423   3.178  0.5241 -1.6276  0.6218
20729SOL    HW264505   1.698   9.557   3.247 -1.3008  0.6852 -3.0665
20730SOL     OW64506   8.066   3.711   0.288  0.6141 -0.1867 -0.1001
20730SOL    HW164507   8.086   3.712   0.195 -1.7788 -1.4769 -0.7073
20730SOL    HW264508   8.027   3.625   0.304  1.4663 -0.2122  2.2360
20731SOL     OW64509   6.440   3.443   1.956 -0.0455  0.6399 -0.1581
20731SOL    HW164510   6.365   3.405   2.002 -0.5985  2.4877  0.5927
20731SOL    HW264511   6.517   3.408   2.002 -0.4333 -0.8496 -0.5933
20732SOL     OW64512   9.521   0.390   7.794  0.3263 -0.1084 -0.0863
20732SOL    HW164513   9.445   0.447   7.800  1.6654  1.8362 -0.6675
20732SOL    HW264514   9.595   0.446   7.815  1.6982 -1.7016 -0.4374
20733SOL     OW64515   5.044   3.580   8.121 -0.2492 -0.6312 -0.2112
20733SOL    HW164516   4.978   3.593   8.189 -0.6246  0.0699 -0.6914
20733SOL    HW264517   5.095   3.661   8.122  0.9370 -1.3595  0.4860
20734SOL     OW64518  10.344   1.660   8.312 -0.4453 -0.0211  0.2876
20734SOL    HW164519  10.374   1.571   8.298 -1.3290 -0.8908  3.1494
20734SOL    HW264520  10.250   1.657   8.297 -0.3444  0.7173 -0.6112
20735SOL     OW64521   2.969   1.351   0.801  0.2002  0.1461  0.2603
20735SOL    HW164522   2.921   1.362   0.719 -1.3931 -2.2309  0.7836
20735SOL    HW264523   2.901   1.340   0.867  1.3900 -2.2289  1.2138
20736SOL     OW64524   7.257   9.955   3.914  0.6154 -0.1116  0.1826
20736SOL    HW164525   7.212   9.940   3.997  0.0707  1.2744  0.1547
20736SOL    HW264526   7.267   9.867   3.877  0.9244 -0.7679  1.7260
20737SOL     OW64527   2.733   8.143   2.533  0.0384  0.3962 -0.4542
20737SOL    HW164528   2.811   8.187   2.566 -1.4911  2.6497  0.3716
20737SOL    HW264529   2.715   8.185   2.449 -1.2451  1.1690  0.1792
20738SOL     OW64530   5.061   7.610   2.504  0.2155 -0.1804 -0.0781
20738SOL    HW164531   5.121   7.685   2.502 -0.4851  0.4910  1.7874
20738SOL    HW264532   4.976   7.647   2.481  0.3748 -1.0581 -2.3271
20739SOL     OW64533  10.324   6.969   6.158 -0.2221 -0.0881 -0.1576
20739SOL    HW164534  10.234   6.985   6.185 -0.5610 -1.6521 -0.2861
20739SOL    HW264535  10.363   6.921   6.230 -0.9752 -3.8376 -2.0330
20740SOL     OW64536   4.525   4.649   8.106 -0.2752  0.4595  0.0722
20740SOL    HW164537   4.604   4.700   8.121 -0.0130  0.3190 -0.7376
20740SOL    HW264538   4.453   4.711   8.119  0.0624  1.4409 -2.1504
20741SOL     OW64539   4.053   7.941  10.104  0.0152 -0.0371  0.2156
20741SOL    HW164540   4.060   7.849  10.076  1.3836 -0.1558  0.8412
20741SOL    HW264541   4.052   7.990  10.022 -2.2869 -0.6407 -0.1951
20742SOL     OW64542   1.822   7.865   5.150  0.2495 -0.6041 -0.4438
20742SOL    HW164543   1.733   7.851   5.181 -0.5204  1.2240 -1.6376
20742SOL    HW264544   1.877   7.840   5.224 -1.3289  0.1628  1.0691
20743SOL     OW64545   6.299   0.252   1.414 -0.2705  0.0488  0.7558
20743SOL    HW164546   6.376   0.195   1.424  0.3973  0.9176  0.6432
20743SOL    HW264547   6.237   0.200   1.363  0.1023 -0.7876  1.1260
20744SOL     OW64548   9.469  10.459   7.395  0.1518  0.0157 -0.2758
20744SOL    HW164549   9.425  10.480   7.477  3.7384  0.9503  1.5946
20744SOL    HW264550   9.487  10.544   7.355  3.0524 -0.0397  0.7025
20745SOL     OW64551   1.073  10.213   4.002 -0.0447  0.1921 -0.0637
20745SOL    HW164552   1.146  10.161   3.969 -0.7699 -2.0076  1.5680
20745SOL    HW264553   1.096  10.230   4.093 -0.9386  0.6602  0.0832
20746SOL     OW64554   1.015   9.778   4.675 -0.1665 -0.5525  0.1921
20746SOL    HW164555   0.997   9.868   4.647  0.3273 -0.6366 -0.4055
20746SOL    HW264556   0.933   9.749   4.714 -0.0563  0.4773  1.2549
20747SOL     OW64557   4.497   6.934   1.310 -0.7204 -0.3515  0.1992
20747SOL    HW164558   4.442   6.982   1.372 -1.1963  0.0227 -0.4883
20747SOL    HW264559   4.469   6.843   1.319 -1.1724 -0.2201  0.1460
20748SOL     OW64560   0.942   4.191   2.303 -0.7054 -0.2897  0.2901
20748SOL    HW164561   0.985   4.177   2.218 -2.7916 -1.3430 -0.6639
20748SOL    HW264562   0.928   4.286   2.307  0.9008 -0.0152  0.2695
20749SOL     OW64563   0.625   4.864   0.056 -0.2279  0.5093 -0.5647
20749SOL    HW164564   0.544   4.915   0.044 -1.2493 -1.2815 -1.9189
20749SOL    HW264565   0.595   4.780   0.090  1.5225  1.0989  2.8188
20750SOL     OW64566  10.015   6.124   4.239 -0.2785 -0.6767 -0.4372
20750SOL    HW164567  10.049   6.092   4.323 -0.8869  0.0538  0.0936
20750SOL    HW264568  10.082   6.097   4.175  1.3472  0.7593  0.5653
20751SOL     OW64569   9.688   4.901   2.834  0.0834  0.3850 -0.2369
20751SOL    HW164570   9.640   4.967   2.884  0.3289  1.4187 -1.3232
20751SOL    HW264571   9.619   4.843   2.800 -0.4530  1.7680 -1.6518
20752SOL     OW64572   0.308   7.738   4.788 -0.1314 -0.3782 -0.0959
20752SOL    HW164573   0.275   7.649   4.804 -0.3476  0.0973  2.4566
20752SOL    HW264574   0.391   7.741   4.835  0.7410  0.2820 -1.6084
20753SOL     OW64575   0.214   6.713   1.905  0.0643  0.3626 -0.5862
20753SOL    HW164576   0.210   6.620   1.927 -2.8428  0.9701  1.9886
20753SOL    HW264577   0.277   6.750   1.966  0.4140  0.2820 -0.8931
20754SOL     OW64578   1.219   3.847   4.740  0.0959  0.3662 -0.3648
20754SOL    HW164579   1.130   3.813   4.737  0.4052 -0.4523 -0.7150
20754SOL    HW264580   1.249   3.827   4.829  0.5632 -1.0894 -0.8227
20755SOL     OW64581   8.546   4.259   6.452  0.1922  0.1023  0.1138
20755SOL    HW164582   8.535   4.338   6.399  1.7989  1.0218  1.0558
20755SOL    HW264583   8.579   4.193   6.391  1.8024  1.0787 -0.1397
20756SOL     OW64584  10.444   9.852   6.822  0.1765  0.2244 -0.3816
20756SOL    HW164585  10.493   9.795   6.882  2.7478 -0.4024 -2.8434
20756SOL    HW264586  10.374   9.888   6.875  1.7271 -0.9821  2.7421
20757SOL     OW64587   3.763  10.073   7.736 -0.2923 -0.4745 -0.2711
20757SOL    HW164588   3.784  10.127   7.812  1.0083 -0.2576 -0.7649
20757SOL    HW264589   3.715  10.131   7.677 -0.4201 -0.3614 -0.0537
20758SOL     OW64590   7.964   1.627   9.892  0.0374 -0.0414  0.5851
20758SOL    HW164591   8.035   1.627   9.956  1.2290 -0.7023 -0.6802
20758SOL    HW264592   8.002   1.586   9.814 -1.2968  0.9242 -0.6222
20759SOL     OW64593   2.630  10.023   4.773 -0.3870 -0.1596 -0.0337
20759SOL    HW164594   2.626   9.941   4.724  1.3958 -0.4099  0.2099
20759SOL    HW264595   2.626  10.091   4.706 -0.6044 -0.4580 -0.3263
20760SOL     OW64596  10.289   3.398   1.662 -0.0555  0.1935 -0.2098
20760SOL    HW164597  10.331   3.484   1.658 -1.3056  0.8411 -0.1296
20760SOL    HW264598  10.361   3.335   1.662  0.9119  1.2696  0.6592
20761SOL     OW64599   3.007   7.639   1.909 -0.8106 -0.8910  0.5282
20761SOL    HW164600   3.102   7.653   1.905 -0.9353 -0.2161 -2.8249
20761SOL    HW264601   2.993   7.597   1.994  2.5462 -1.5113  0.9245
20762SOL     OW64602   0.009   2.914   1.007  0.4306 -0.1163  0.2222
20762SOL    HW164603  -0.030   2.964   1.079 -0.4834  0.0395 -0.3692
20762SOL    HW264604   0.000   2.823   1.035  1.2979  0.0015  0.9050
20763SOL     OW64605   9.142   8.032   0.399 -0.0864 -0.1037 -0.0727
20763SOL    HW164606   9.158   8.101   0.464  0.4591 -0.6260  0.3587
20763SOL    HW264607   9.048   8.015   0.406 -0.0598 -0.0497  0.4739
20764SOL     OW64608   0.535   8.516   6.273  0.2098 -0.2587 -0.0187
20764SOL    HW164609   0.601   8.566   6.226  0.1301 -0.2395 -0.1125
20764SOL    HW264610   0.479   8.582   6.314  0.1387 -0.2705 -0.0951
20765SOL     OW64611   8.897   5.676   0.000  0.6114 -0.2644 -0.0493
20765SOL    HW164612   8.917   5.719  -0.084  1.7514  0.0706  0.3653
20765SOL    HW264613   8.981   5.678   0.047 -0.6234  2.3238  2.3412
20766SOL     OW64614   8.370   4.433   0.171  0.4076  0.1523 -0.1861
20766SOL    HW164615   8.348   4.356   0.223 -0.8820  0.1762 -0.6713
20766SOL    HW264616   8.448   4.469   0.213  1.6902 -2.0150 -0.6102
20767SOL     OW64617   2.634   9.463   6.514 -0.6049 -0.0252 -0.4257
20767SOL    HW164618   2.657   9.504   6.597  0.6485  1.6881 -1.5389
20767SOL    HW264619   2.708   9.404   6.495 -0.2714  0.5205 -0.8763
20768SOL     OW64620   7.865   9.434   7.094  0.0088  0.1353  0.3309
20768SOL    HW164621   7.891   9.342   7.087 -0.0327  0.0893  0.7379
20768SOL    HW264622   7.946   9.481   7.113  0.1936  0.3141 -0.8328
20769SOL     OW64623   1.657   0.174   1.606 -0.1341  0.7530 -0.1854
20769SOL    HW164624   1.563   0.183   1.622 -0.1929 -0.6596  0.3512
20769SOL    HW264625   1.671   0.080   1.592  0.7348  1.2265 -3.4092
20770SOL     OW64626   1.785   0.825   1.944 -0.5767  0.3888 -0.3010
20770SOL    HW164627   1.821   0.872   2.019  0.0399  0.1332 -0.4296
20770SOL    HW264628   1.789   0.733   1.970 -1.7154  0.3842 -0.0754
20771SOL     OW64629  10.135   0.940   7.469 -0.7102 -0.3518  0.2350
20771SOL    HW164630  10.046   0.910   7.491  0.0297 -4.5159 -1.4304
20771SOL    HW264631  10.156   0.892   7.388  3.1517  0.2584  0.7201
20772SOL     OW64632   9.748  10.448   1.952 -0.0233 -0.6911  0.4370
20772SOL    HW164633   9.695  10.474   2.027  0.8463 -0.2744  0.9177
20772SOL    HW264634   9.691  10.390   1.901 -0.5848 -1.0649  1.4675
20773SOL     OW64635   7.744   8.871  10.048  0.6001  0.0915  0.5029
20773SOL    HW164636   7.779   8.889  10.136  1.8310 -0.1926  0.0795
20773SOL    HW264637   7.717   8.780  10.051 -0.5496  0.4210  0.9564
20774SOL     OW64638   0.379   3.814   9.714 -0.2100  0.2554 -0.1170
20774SOL    HW164639   0.291   3.842   9.738 -0.0284 -0.4521  1.5139
20774SOL    HW264640   0.380   3.720   9.730  0.2193 -0.1477 -2.2042
20775SOL     OW64641   5.522   2.697   0.069  0.1983 -0.2274  0.0481
20775SOL    HW164642   5.461   2.635   0.108 -1.1295  1.1386  0.2685
20775SOL    HW264643   5.571   2.732   0.143 -1.5015  1.4925  0.4680
20776SOL     OW64644   7.626   1.542   8.214  0.1806  0.1358 -0.4622
20776SOL    HW164645   7.698   1.583   8.262  1.7599 -1.2440 -1.5433
20776SOL    HW264646   7.592   1.611   8.158 -0.2706  1.1753  1.0508
20777SOL     OW64647   0.456   0.312   4.838  0.2088  0.5325  0.1781
20777SOL    HW164648   0.398   0.291   4.912  1.3263  0.1276  0.9716
20777SOL    HW264649   0.512   0.382   4.872  0.8297  0.2434 -0.2397
20778SOL     OW64650   5.694   1.869   0.452  0.0504 -0.4496  0.1553
20778SOL    HW164651   5.681   1.964   0.451  1.0989 -0.2829  0.5738
20778SOL    HW264652   5.749   1.852   0.375  0.5680 -0.5997  0.5562
20779SOL     OW64653   7.739  10.584   2.832  0.4236 -0.1103 -0.4062
20779SOL    HW164654   7.822  10.620   2.865 -0.5163  1.1732  0.6553
20779SOL    HW264655   7.753  10.489   2.832  1.2350 -0.0380  1.6335
20780SOL     OW64656   7.243   0.332   5.501  0.0480  0.0100 -0.5553
20780SOL    HW164657   7.204   0.323   5.588  1.2571 -0.5176 -0.0424
20780SOL    HW264658   7.311   0.265   5.498  1.9044  1.8137 -0.8649
20781SOL     OW64659   9.793   8.184   5.325 -0.2595  0.5447 -0.7717
20781SOL    HW164660   9.733   8.126   5.278 -1.4816  1.2525 -0.1303
20781SOL    HW264661   9.831   8.240   5.257  0.6478 -0.7237 -1.3493
20782SOL     OW64662   7.300   2.195   9.404  0.0941  0.2452  0.3127
20782SOL    HW164663   7.250   2.143   9.341  0.0512  0.2898  0.3102
20782SOL    HW264664   7.378   2.223   9.355  0.0853  0.2378  0.2940
20783SOL     OW64665   6.668   5.965   4.097 -0.3731 -0.0422 -0.4678
20783SOL    HW164666   6.671   5.871   4.076  0.6399  0.1821 -1.4800
20783SOL    HW264667   6.660   5.968   4.192 -1.4375 -1.1517 -0.4968
20784SOL     OW64668   2.647  10.568   4.242  0.3809 -0.0192  0.2553
20784SOL    HW164669   2.663  10.540   4.152  0.3005  0.9322 -0.0614
20784SOL    HW264670   2.576  10.633   4.235 -1.3625 -1.7107  1.2722
20785SOL     OW64671   4.733   0.981   2.415  0.4686  0.1087 -0.0354
20785SOL    HW164672   4.742   0.894   2.454  1.0883  0.3606  0.3958
20785SOL    HW264673   4.650   1.015   2.449  0.2430 -0.2909 -0.1791
20786SOL     OW64674   2.663  10.567   8.352 -0.0525 -0.5172  0.4006
20786SOL    HW164675   2.711  10.616   8.285 -0.8577  1.3321  1.0920
20786SOL    HW264676   2.688  10.610   8.434 -1.6928 -0.4802  0.9227
20787SOL     OW64677   3.044   5.777   3.607  0.1374  0.1044 -0.4046
20787SOL    HW164678   3.051   5.682   3.604  0.3768  0.1413 -1.1858
20787SOL    HW264679   3.133   5.808   3.592  0.1898  0.4481  0.5771
20788SOL     OW64680   4.470   4.477   9.274  0.8069  0.4968  0.1592
20788SOL    HW164681   4.518   4.419   9.333  0.3515 -0.6130 -0.5139
20788SOL    HW264682   4.536   4.508   9.212  1.1647  1.1749  0.8617
20789SOL     OW64683   4.283   3.708  10.082 -0.5528 -0.5852 -0.0455
20789SOL    HW164684   4.339   3.778  10.116  0.6267 -1.5197  0.0015
20789SOL    HW264685   4.291   3.713   9.987  0.1094 -1.0825 -0.0276
20790SOL     OW64686   2.430   7.650   0.715 -0.1044 -0.2858 -0.3494
20790SOL    HW164687   2.462   7.571   0.758  1.2522  0.3346 -0.1708
20790SOL    HW264688   2.462   7.722   0.769 -0.6711  0.4183 -0.9266
20791SOL     OW64689   6.073   3.186   6.329 -0.1899  0.0610 -0.1355
20791SOL    HW164690   6.154   3.229   6.302  0.6869 -1.9316 -0.8870
20791SOL    HW264691   6.036   3.152   6.247  0.4687 -2.6910  0.6119
20792SOL     OW64692   3.689   6.210   4.221 -0.2745  0.6046  0.3641
20792SOL    HW164693   3.771   6.260   4.215  0.8994 -1.3575 -1.5321
20792SOL    HW264694   3.707   6.144   4.288  0.3087 -0.7671 -1.0929
20793SOL     OW64695   1.660   9.541   0.139 -0.1285 -0.5126 -0.0697
20793SOL    HW164696   1.747   9.502   0.141 -0.2946 -1.0928 -2.1713
20793SOL    HW264697   1.602   9.471   0.168 -0.1469 -0.9854 -1.2168
20794SOL     OW64698   2.455   3.588   9.821 -0.1171  0.2423  0.5822
20794SOL    HW164699   2.426   3.497   9.813  0.1644  0.0449  1.5859
20794SOL    HW264700   2.480   3.597   9.913 -1.0062  1.5979  0.7240
20795SOL     OW64701   8.836   8.943   4.765 -0.2092 -0.2262  0.2120
20795SOL    HW164702   8.865   8.890   4.690 -0.7390  0.7115 -0.6814
20795SOL    HW264703   8.869   9.030   4.746  1.9603 -0.4656  2.4038
20796SOL     OW64704   7.473  10.244   1.282 -0.8963 -0.4447 -0.1985
20796SOL    HW164705   7.451  10.162   1.236 -2.4473 -1.1801  1.7125
20796SOL    HW264706   7.540  10.218   1.345 -2.3028 -0.5938  1.2970
20797SOL     OW64707   3.072   7.045   6.689 -0.1466  0.1345 -0.2232
20797SOL    HW164708   3.067   7.005   6.775  0.1376  2.2184  0.8181
20797SOL    HW264709   2.997   7.104   6.685  0.7817  1.3282 -0.7050
20798SOL     OW64710   4.099   7.085   1.205  1.0726 -0.3614  0.3696
20798SOL    HW164711   4.112   7.030   1.128  2.4308  1.0097 -0.4414
20798SOL    HW264712   4.005   7.080   1.223  0.9838 -2.0117 -0.3443
20799SOL     OW64713   4.588   9.006   7.419  0.0279 -0.1147 -0.0329
20799SOL    HW164714   4.671   9.052   7.413  0.8786 -1.4086  1.2066
20799SOL    HW264715   4.603   8.923   7.374 -0.3994 -0.6143  0.7242
20800SOL     OW64716   1.500   0.004   6.923  0.2596  0.0818  0.5584
20800SOL    HW164717   1.482   0.078   6.866  0.5220  1.0041  1.6248
20800SOL    HW264718   1.591  -0.019   6.904 -0.2285 -0.8819 -0.7502
20801SOL     OW64719   2.409   5.750   0.127  0.1220 -0.3496  0.1513
20801SOL    HW164720   2.426   5.735   0.034 -0.2103  1.2104 -0.1771
20801SOL    HW264721   2.494   5.733   0.169  0.7217  0.5445 -0.6459
20802SOL     OW64722   9.260   8.806   3.918 -0.6462 -0.1790  0.0558
20802SOL    HW164723   9.223   8.745   3.854 -0.8507 -0.0575  0.0579
20802SOL    HW264724   9.349   8.773   3.933 -1.0100 -0.9291  0.6343
20803SOL     OW64725   8.424   1.840   5.070  0.2725  0.3799 -0.9165
20803SOL    HW164726   8.492   1.854   5.135 -0.0748 -1.7565  0.0101
20803SOL    HW264727   8.469   1.842   4.986  1.4330 -0.6169 -0.3387
20804SOL     OW64728   0.441   3.759   7.282  0.3147  0.0695  0.0301
20804SOL    HW164729   0.444   3.835   7.223  1.2809  0.7125  0.8928
20804SOL    HW264730   0.358   3.769   7.328  0.1470  0.2529 -0.3029
20805SOL     OW64731   0.701   4.413   1.836  0.1631  0.8983  0.1870
20805SOL    HW164732   0.652   4.376   1.762  2.5451  1.8191 -2.0112
20805SOL    HW264733   0.691   4.508   1.826 -0.8643  1.0322  2.1141
20806SOL     OW64734   7.345   5.032   3.526  0.2218 -0.1971 -0.2847
20806SOL    HW164735   7.260   5.076   3.516  0.5432  0.1793 -1.5056
20806SOL    HW264736   7.408   5.103   3.530  0.8662 -0.4776 -3.3618
20807SOL     OW64737   9.512   6.953   6.262  0.3663  0.2912  0.6019
20807SOL    HW164738   9.576   6.913   6.202  0.2208 -0.8084  1.1423
20807SOL    HW264739   9.477   7.027   6.214 -1.5091 -1.9044 -1.6946
20808SOL     OW64740   6.864   7.839   6.661  0.0138 -0.1624 -0.2515
20808SOL    HW164741   6.800   7.894   6.616  1.2585  1.2990 -0.3362
20808SOL    HW264742   6.938   7.898   6.679  0.5323 -1.2870  1.5855
20809SOL     OW64743   1.110   5.700   4.248  0.2663 -0.4420 -0.5152
20809SOL    HW164744   1.161   5.696   4.329  1.1328 -1.1267 -1.0718
20809SOL    HW264745   1.026   5.660   4.270 -0.2257  1.0296  0.5153
20810SOL     OW64746   9.345  10.194   4.477  0.1317  0.1879  0.1768
20810SOL    HW164747   9.405  10.245   4.532 -0.2623 -0.5323  1.3080
20810SOL    HW264748   9.297  10.259   4.426  0.5939  0.8627  0.5964
20811SOL     OW64749   2.306   9.439   5.455  0.3462 -0.1353 -0.8186
20811SOL    HW164750   2.386   9.463   5.407 -0.0994  0.3836 -1.3132
20811SOL    HW264751   2.316   9.483   5.539  1.2331 -1.2253 -0.3151
20812SOL     OW64752   7.019   4.151  10.324 -0.3969 -0.2015 -0.7779
20812SOL    HW164753   7.004   4.183  10.413  0.8211 -1.2067 -0.1729
20812SOL    HW264754   6.934   4.114  10.297 -1.0993  1.1675 -0.5120
20813SOL     OW64755   3.383  10.131   4.436 -0.5254  0.1592  0.1764
20813SOL    HW164756   3.342  10.209   4.472 -0.9047  0.6223 -1.2106
20813SOL    HW264757   3.328  10.059   4.467  0.0279  0.3821  1.7516
20814SOL     OW64758   8.417   0.237   7.808  0.3392 -0.1964  0.2979
20814SOL    HW164759   8.476   0.304   7.772  0.0027  1.7866  3.1134
20814SOL    HW264760   8.341   0.286   7.838 -0.3856 -1.9946  1.5673
20815SOL     OW64761   5.111   8.244   5.878  0.4191  0.3846 -0.1798
20815SOL    HW164762   5.097   8.209   5.790 -0.8717  0.4492 -0.0206
20815SOL    HW264763   5.157   8.174   5.925 -0.4089 -0.3375 -0.4210
20816SOL     OW64764   9.348  10.038   5.630 -0.3284 -0.3532 -0.2242
20816SOL    HW164765   9.386   9.964   5.583 -2.3129 -0.7765 -1.2933
20816SOL    HW264766   9.283  10.074   5.569 -0.9523  0.9094  1.1160
20817SOL     OW64767   1.552   7.477   8.499 -0.2964 -1.2184 -0.2493
20817SOL    HW164768   1.482   7.449   8.558 -0.7343  0.2431 -0.0247
20817SOL    HW264769   1.507   7.495   8.416  0.1354 -2.1399 -0.6948
20818SOL     OW64770   4.210   5.821   4.002  0.2325 -0.0805 -0.2781
20818SOL    HW164771   4.190   5.833   3.909  0.3135 -0.9844 -0.4277
20818SOL    HW264772   4.288   5.765   4.003  0.1112 -0.2480  0.3362
20819SOL     OW64773   5.611   9.203   2.710  0.1611  0.4167 -0.3217
20819SOL    HW164774   5.685   9.143   2.716 -0.1330 -0.3140 -2.7523
20819SOL    HW264775   5.651   9.288   2.689  0.5597  1.1480  2.9222
20820SOL     OW64776   0.354   8.725   1.799 -0.2729  0.1375  0.2648
20820SOL    HW164777   0.414   8.684   1.737  0.7646  1.1577  0.5576
20820SOL    HW264778   0.290   8.770   1.745 -1.3370 -1.6829 -0.0640
20821SOL     OW64779  10.536   2.746   0.131  0.3041  0.3000  0.4709
20821SOL    HW164780  10.539   2.674   0.069  3.0528  1.5402 -0.9899
20821SOL    HW264781  10.605   2.727   0.194 -1.1225  0.0794  2.0437
20822SOL     OW64782   4.130   1.139   3.876 -0.0933  0.1269 -0.2494
20822SOL    HW164783   4.071   1.072   3.840  1.0101 -1.7058  1.1565
20822SOL    HW264784   4.196   1.151   3.808 -0.9830  0.7606 -1.0332
20823SOL     OW64785   8.678   0.685   5.720 -0.5469  0.0744  0.2924
20823SOL    HW164786   8.713   0.675   5.809 -0.1700 -0.1680  0.1238
20823SOL    HW264787   8.700   0.602   5.677  0.6537  0.7688 -0.4885
20824SOL     OW64788   6.289   6.738  10.177 -0.4154 -0.0839  0.6413
20824SOL    HW164789   6.304   6.645  10.198  0.7394 -0.2870 -0.8913
20824SOL    HW264790   6.327   6.749  10.090 -0.2095  1.9229  0.9370
20825SOL     OW64791   5.558   1.388   3.008 -0.0018  0.1997 -0.0896
20825SOL    HW164792   5.584   1.477   3.032  0.5238  0.0107  0.0584
20825SOL    HW264793   5.640   1.338   3.009 -0.0508  0.0351 -1.6401
20826SOL     OW64794   8.577   5.287   8.451  0.0983 -0.0564  0.1473
20826SOL    HW164795   8.666   5.318   8.436 -0.1795  1.1200  0.8635
20826SOL    HW264796   8.534   5.297   8.366  0.6633 -0.7627 -0.2402
20827SOL     OW64797   0.153   1.304   4.043 -0.0273 -0.6641  0.9867
20827SOL    HW164798   0.094   1.263   3.980 -0.2341 -2.9513  2.5592
20827SOL    HW264799   0.102   1.377   4.080  0.1407  0.7970 -1.4595
20828SOL     OW64800   9.097   9.549   4.231 -0.0237 -0.1243  0.2859
20828SOL    HW164801   9.132   9.576   4.316  0.0340  1.2395 -0.1428
20828SOL    HW264802   9.148   9.599   4.167 -1.0888  0.0386 -0.4710
20829SOL     OW64803   2.693   7.732   3.013 -0.5572  0.2930 -0.8297
20829SOL    HW164804   2.699   7.636   3.008  0.0485  0.2786  0.0115
20829SOL    HW264805   2.610   7.748   3.057 -0.8354  0.1742 -1.2957
20830SOL     OW64806   7.074   8.725   7.402  0.5031  0.1252  0.7852
20830SOL    HW164807   7.161   8.695   7.426  1.4455  1.1548 -1.0892
20830SOL    HW264808   7.087   8.773   7.320 -1.8446  0.2406  0.4069
20831SOL     OW64809   2.040   9.686   6.894  0.0091 -0.1860  0.2946
20831SOL    HW164810   1.960   9.707   6.942  0.1451 -1.4835  1.1436
20831SOL    HW264811   2.062   9.597   6.922  1.0843 -0.3064 -0.8444
20832SOL     OW64812   2.983   5.535   7.962 -0.2180 -0.4852  0.7035
20832SOL    HW164813   2.906   5.589   7.978 -0.3376 -0.4192 -0.0654
20832SOL    HW264814   2.983   5.519   7.868  1.6305  0.9245  0.3968
20833SOL     OW64815   1.460   5.753   7.117  0.2468 -0.2184 -0.1880
20833SOL    HW164816   1.476   5.842   7.149  0.7266 -0.3681 -0.0055
20833SOL    HW264817   1.515   5.746   7.039  1.7505 -1.0185  0.9079
20834SOL     OW64818   0.054   0.613   0.313  0.3150  0.9810 -0.1873
20834SOL    HW164819   0.003   0.677   0.362  1.8680  1.0272  1.4791
20834SOL    HW264820   0.115   0.665   0.261 -0.5800  0.8963 -1.3704
20835SOL     OW64821   2.107   2.030   3.462 -0.1747  0.2638 -0.5238
20835SOL    HW164822   2.043   2.084   3.415 -0.6484  2.4390  2.3404
20835SOL    HW264823   2.182   2.087   3.474 -1.5492  1.5120  4.6381
20836SOL     OW64824   5.736   3.112   8.602 -0.3115 -0.4387 -0.4493
20836SOL    HW164825   5.749   3.073   8.515 -0.0959  0.6013 -0.9010
20836SOL    HW264826   5.819   3.157   8.621 -0.2694 -0.8642  0.4092
20837SOL     OW64827   6.875   2.721   9.347  0.7167 -0.2495 -0.4362
20837SOL    HW164828   6.823   2.697   9.424 -0.6059  0.0764 -1.2003
20837SOL    HW264829   6.878   2.816   9.348  1.5386 -0.2643 -0.2727
20838SOL     OW64830   6.526   9.983   1.341 -0.5214 -0.0973 -0.2888
20838SOL    HW164831   6.468   9.919   1.299 -0.3899  0.5193 -1.4574
20838SOL    HW264832   6.599   9.992   1.280 -0.1941  0.6403  0.2005
20839SOL     OW64833   0.561   8.281   2.245 -1.1265 -0.5026  0.7331
20839SOL    HW164834   0.581   8.223   2.318  0.8496 -0.6349  0.1701
20839SOL    HW264835   0.631   8.264   2.182 -2.5158 -0.0750 -1.0100
20840SOL     OW64836  10.590   7.333  10.594 -0.0074  0.3252 -0.0808
20840SOL    HW164837  10.556   7.378  10.672  1.6996  1.1221  0.2336
20840SOL    HW264838  10.512   7.315  10.541 -1.1760 -0.0252  1.6817
20841SOL     OW64839  10.272   0.187   8.975 -0.6530  0.1578 -0.3954
20841SOL    HW164840  10.184   0.157   8.949 -0.8262  1.5284 -1.4838
20841SOL    HW264841  10.326   0.171   8.898  0.2079 -1.1751  0.4543
20842SOL     OW64842   0.443   6.137   7.847  0.2609  0.7231 -0.0218
20842SOL    HW164843   0.377   6.141   7.777  1.3664 -1.6592 -1.3391
20842SOL    HW264844   0.512   6.082   7.810  2.0720  1.4828  2.0646
20843SOL     OW64845   2.384   3.167   8.113  0.6233  0.0723  0.1028
20843SOL    HW164846   2.301   3.198   8.149  0.7845  0.0794  0.4777
20843SOL    HW264847   2.422   3.244   8.071 -0.0877 -0.2128 -1.0831
20844SOL     OW64848   8.737   0.445   3.450 -0.0631  0.3724  0.4361
20844SOL    HW164849   8.762   0.521   3.396 -1.4294  2.4481  2.5255
20844SOL    HW264850   8.650   0.422   3.420 -0.3117  0.7164  0.8798
20845SOL     OW64851   5.349   9.792   2.913 -0.3191  0.0343 -0.3504
20845SOL    HW164852   5.436   9.785   2.952  0.0856 -1.3776 -1.4001
20845SOL    HW264853   5.299   9.722   2.954 -0.8855  0.6535  0.0295
20846SOL     OW64854   4.990   1.134   6.308  0.0911  0.0093  0.2997
20846SOL    HW164855   4.895   1.148   6.306  0.1178  0.1868 -1.2509
20846SOL    HW264856   5.001   1.048   6.348 -0.9425 -1.2169 -1.8336
20847SOL     OW64857   1.519   2.669   5.698  0.5760 -0.0462  0.3574
20847SOL    HW164858   1.542   2.683   5.790  0.7681 -2.2824  0.7003
20847SOL    HW264859   1.604   2.672   5.652  0.5756  0.2169  0.3722
20848SOL     OW64860   1.826   6.852   6.808  0.0386  0.1196 -0.5924
20848SOL    HW164861   1.766   6.778   6.808  1.3343 -1.0051  0.6423
20848SOL    HW264862   1.906   6.818   6.848  0.1944  2.5797  1.4632
20849SOL     OW64863   7.812   8.576   1.777  0.1580  0.3298  0.0849
20849SOL    HW164864   7.907   8.574   1.780  0.2051 -2.8797 -0.3734
20849SOL    HW264865   7.790   8.592   1.685  0.1482  2.7402  0.4436
20850SOL     OW64866   2.749   5.440   7.559  0.3311  0.0463  0.7087
20850SOL    HW164867   2.807   5.449   7.635  0.7541 -2.3411  0.7286
20850SOL    HW264868   2.670   5.400   7.593 -0.6055  1.5131  0.3305
20851SOL     OW64869   9.673   5.459   3.318  0.7073 -0.1772 -0.4724
20851SOL    HW164870   9.740   5.510   3.271  1.4337 -2.9319 -2.6568
20851SOL    HW264871   9.723   5.407   3.381  0.2459  0.0551  0.0928
20852SOL     OW64872   1.093   6.828   3.556  0.5836 -0.3196 -0.0929
20852SOL    HW164873   1.035   6.886   3.507 -1.2148 -0.4125  1.8149
20852SOL    HW264874   1.149   6.888   3.606 -1.3349 -0.1106  1.9493
20853SOL     OW64875   3.523   0.020   0.913  0.2945  0.2540  0.3463
20853SOL    HW164876   3.600  -0.036   0.920  0.6488  0.7123  0.1178
20853SOL    HW264877   3.547   0.100   0.960 -0.3449  0.0790  1.0035
20854SOL     OW64878   3.007   1.497   7.304  0.0586  0.1869 -0.2762
20854SOL    HW164879   2.933   1.441   7.277 -1.1732  1.6578 -0.0918
20854SOL    HW264880   3.080   1.467   7.251 -0.9897 -0.4804 -1.4083
20855SOL     OW64881   6.165   0.569   9.321  0.5361  0.3011 -0.1553
20855SOL    HW164882   6.137   0.495   9.267 -0.6697  0.0250  0.8133
20855SOL    HW264883   6.093   0.631   9.317  0.1055 -0.0232  1.6619
20856SOL     OW64884   4.051   5.279   2.276 -0.5047  0.2588 -0.0639
20856SOL    HW164885   4.005   5.195   2.271 -0.9621  0.4970  0.0675
20856SOL    HW264886   4.042   5.305   2.368  1.0132 -0.3082  0.2707
20857SOL     OW64887   8.129   5.928   4.671 -0.0297 -0.3592 -0.5066
20857SOL    HW164888   8.200   5.871   4.641 -0.7717 -1.6248  0.0403
20857SOL    HW264889   8.119   5.907   4.764  0.2719  1.3514 -0.0399
20858SOL     OW64890   2.226   5.510   3.627 -0.2279  0.1319  0.4457
20858SOL    HW164891   2.283   5.572   3.581  0.9182 -0.3825  1.1248
20858SOL    HW264892   2.285   5.442   3.660 -1.6378 -2.5319 -2.0518
20859SOL     OW64893   5.902   2.152   9.709  0.6627 -0.0582 -0.1332
20859SOL    HW164894   5.986   2.193   9.687  0.2422  0.4432 -0.8645
20859SOL    HW264895   5.844   2.226   9.726 -0.2876 -0.2630 -2.1227
20860SOL     OW64896   6.970   5.664   9.544 -0.0680  0.2964  0.2306
20860SOL    HW164897   6.999   5.751   9.515 -0.5354  0.3461 -0.1035
20860SOL    HW264898   7.042   5.606   9.522  0.3809  0.6515  0.7510
20861SOL     OW64899   1.599   3.166   3.406 -0.1257 -0.3255 -0.2025
20861SOL    HW164900   1.647   3.242   3.373 -0.5958 -0.1993 -0.5923
20861SOL    HW264901   1.644   3.091   3.367  1.4304 -0.3712  1.5216
20862SOL     OW64902   8.729   0.389   3.088  0.7031  0.1533  0.2410
20862SOL    HW164903   8.760   0.298   3.094  0.8835  0.2947  1.9623
20862SOL    HW264904   8.643   0.387   3.129  0.0224  0.4865 -1.1332
20863SOL     OW64905   1.770   3.482   9.286 -0.5591  0.5794 -0.0681
20863SOL    HW164906   1.801   3.560   9.330  0.5014 -0.8300  1.8240
20863SOL    HW264907   1.848   3.429   9.273 -1.2776 -0.2625 -1.1438
20864SOL     OW64908   9.280   1.022   8.349 -0.4043 -0.0786  0.4492
20864SOL    HW164909   9.348   0.977   8.399 -1.4670 -2.1291  0.1509
20864SOL    HW264910   9.211   1.041   8.413  0.2621  1.7498  0.6962
20865SOL     OW64911   5.527   9.768   1.271  0.5909  0.4227 -0.3236
20865SOL    HW164912   5.452   9.709   1.267  0.7007  0.3447 -1.8702
20865SOL    HW264913   5.560   9.760   1.361  0.7444 -2.0597 -0.5364
20866SOL     OW64914   9.917   1.312   7.150  0.7470  0.5990  0.4124
20866SOL    HW164915   9.856   1.364   7.096  1.4380  0.4429 -0.5499
20866SOL    HW264916   9.860   1.259   7.205 -0.0231  0.1276 -0.7844
20867SOL     OW64917   6.005   7.693   3.937 -0.4842  0.0952 -0.3247
20867SOL    HW164918   5.932   7.632   3.930 -1.5349  1.2771 -0.1519
20867SOL    HW264919   6.062   7.655   4.004 -2.0315  0.1851  1.1074
20868SOL     OW64920   0.020   5.208   5.832 -0.3712 -0.5316  0.3988
20868SOL    HW164921   0.036   5.208   5.738 -2.0867 -1.1907  0.0863
20868SOL    HW264922   0.045   5.295   5.861  0.0862 -0.2970 -0.6723
20869SOL     OW64923   5.804   2.710   8.198 -0.0972  0.0310 -0.1691
20869SOL    HW164924   5.746   2.638   8.221 -1.0358  0.6130 -0.6580
20869SOL    HW264925   5.785   2.777   8.264  0.2649  0.0997 -0.1348
20870SOL     OW64926   9.332   2.379   8.779 -0.3029 -0.1243  0.5117
20870SOL    HW164927   9.373   2.440   8.841 -0.2260 -0.3056  0.6383
20870SOL    HW264928   9.310   2.434   8.704 -1.6449  0.4013  1.2354
20871SOL     OW64929   1.026   4.489   2.898 -0.4953 -0.2064  0.1371
20871SOL    HW164930   0.934   4.497   2.924 -0.5170 -1.0914  0.3891
20871SOL    HW264931   1.068   4.444   2.972  0.3482  1.0310  0.4399
20872SOL     OW64932  10.336   8.754   4.087 -0.2904 -0.4229  0.1377
20872SOL    HW164933  10.353   8.802   4.006  0.3258 -0.1262  0.4425
20872SOL    HW264934  10.417   8.708   4.105 -1.5046 -3.4228 -1.3385
20873SOL     OW64935   0.288   0.665   1.676  0.2230  0.2208 -0.3206
20873SOL    HW164936   0.340   0.616   1.739 -0.5801  0.8653  0.8681
20873SOL    HW264937   0.338   0.746   1.662 -0.4364  0.8489  0.8356
20874SOL     OW64938   5.494   6.698   4.718  0.5036 -0.2584 -0.5680
20874SOL    HW164939   5.526   6.635   4.654  1.0810  0.4438 -0.9946
20874SOL    HW264940   5.417   6.737   4.677 -0.5871 -1.5200  0.2051
20875SOL     OW64941  10.168   7.490   9.977  0.1783 -0.2375 -0.8467
20875SOL    HW164942  10.083   7.507  10.017  1.1012  0.0540  1.1596
20875SOL    HW264943  10.149   7.464   9.887 -2.0830 -1.2066 -0.1465
20876SOL     OW64944   9.748   4.606   4.213  0.0878 -0.4810  0.2231
20876SOL    HW164945   9.750   4.674   4.146 -0.8629 -0.6511 -0.0026
20876SOL    HW264946   9.816   4.544   4.187  1.4937  0.7492  0.8523
20877SOL     OW64947   4.065   1.576   0.095  0.0503  0.2533 -0.1067
20877SOL    HW164948   4.016   1.559   0.176  0.7421 -1.8081 -0.0509
20877SOL    HW264949   3.998   1.600   0.031 -0.8175 -0.4788  0.4899
20878SOL     OW64950   0.811   1.711   1.107 -0.2257  0.3096  0.0579
20878SOL    HW164951   0.832   1.620   1.084 -0.5948  0.5300 -1.2457
20878SOL    HW264952   0.730   1.730   1.060  0.9074  1.9439 -1.3915
20879SOL     OW64953   8.285  10.167   2.994  0.0994 -0.5497 -0.5898
20879SOL    HW164954   8.275  10.077   2.962 -0.4659 -1.0874  0.9853
20879SOL    HW264955   8.253  10.222   2.923  1.4299 -1.5249 -2.0078
20880SOL     OW64956   1.867  10.171   1.510 -0.0471  0.1555  0.5176
20880SOL    HW164957   1.960  10.160   1.531 -0.3320  0.1542  1.8265
20880SOL    HW264958   1.840  10.250   1.555 -0.7946 -0.0918  0.5282
20881SOL     OW64959   9.165   7.522   7.262 -0.0364  0.6031 -0.3915
20881SOL    HW164960   9.122   7.533   7.347  0.0465 -0.3908 -0.2054
20881SOL    HW264961   9.258   7.529   7.282 -0.0525  1.3520 -0.5660
20882SOL     OW64962   5.308   5.289   7.131  0.3249 -0.6262 -0.2443
20882SOL    HW164963   5.275   5.288   7.221 -1.5355 -0.4927 -0.8810
20882SOL    HW264964   5.253   5.353   7.086  0.2119 -1.7681 -1.8314
20883SOL     OW64965   8.765   1.917   3.100 -0.5894  0.9240 -0.0174
20883SOL    HW164966   8.824   1.989   3.121 -0.5135  1.2453 -1.2628
20883SOL    HW264967   8.822   1.847   3.069 -0.6612  0.2893  1.1973
20884SOL     OW64968   1.841   0.780   9.899 -0.2924  0.1955 -0.6006
20884SOL    HW164969   1.910   0.800   9.834  0.3854  1.1443  0.3804
20884SOL    HW264970   1.789   0.860   9.904  0.1344  0.4227  0.5771
20885SOL     OW64971   1.615   4.393   9.096 -0.2140 -0.4656  0.1254
20885SOL    HW164972   1.582   4.471   9.141  0.2282  0.7211 -1.5162
20885SOL    HW264973   1.707   4.390   9.120  0.1194  0.4068 -0.9816
20886SOL     OW64974   1.606   7.884   3.985  0.2815 -0.4344  0.3120
20886SOL    HW164975   1.523   7.837   3.997 -0.3593  0.3097 -0.9304
20886SOL    HW264976   1.644   7.844   3.907  0.7033 -0.2200  0.4072
20887SOL     OW64977   1.428   0.220   6.751  0.4382  0.0469  0.0905
20887SOL    HW164978   1.341   0.260   6.760 -0.2371 -1.5393  0.9234
20887SOL    HW264979   1.430   0.188   6.661  0.4591  0.7164 -0.1565
20888SOL     OW64980   0.369   8.676   8.413 -0.7742 -0.1845 -0.0140
20888SOL    HW164981   0.429   8.605   8.390 -0.3074  0.4776 -0.9229
20888SOL    HW264982   0.292   8.660   8.358 -0.9435 -0.3627  0.2746
20889SOL     OW64983   4.403   3.062   2.149 -0.2789  0.1525  0.4549
20889SOL    HW164984   4.460   3.126   2.108 -0.4538 -0.0379 -0.1018
20889SOL    HW264985   4.405   3.083   2.242 -0.4391  1.0484  0.2648
20890SOL     OW64986  10.156   9.851   0.600  0.2991  0.2682  0.1573
20890SOL    HW164987  10.227   9.889   0.549  0.5040  1.3789  1.2277
20890SOL    HW264988  10.081   9.848   0.540  1.2632 -1.0937 -1.0406
20891SOL     OW64989   0.635   5.043   0.892 -0.1463  0.1611  0.1847
20891SOL    HW164990   0.638   5.121   0.837  0.5208  0.1693  0.2287
20891SOL    HW264991   0.549   5.005   0.874 -0.5676  1.0112  0.3193
20892SOL     OW64992   3.325   7.424   9.380 -0.3627 -0.4063  0.0003
20892SOL    HW164993   3.366   7.488   9.321  1.0512 -1.3294 -0.0837
20892SOL    HW264994   3.393   7.357   9.393 -1.5140 -1.4835  0.7126
20893SOL     OW64995   6.347  10.105   5.424 -0.8275 -0.4282  0.1609
20893SOL    HW164996   6.299  10.181   5.390 -0.3475 -0.0883  0.2325
20893SOL    HW264997   6.359  10.048   5.348  0.8293  0.6383 -0.4303
20894SOL     OW64998   4.473   1.134   1.334  0.1644  0.6788  0.3910
20894SOL    HW164999   4.420   1.058   1.357 -0.7731  1.7927  2.0942
20894SOL    HW265000   4.484   1.127   1.239 -0.3388 -1.2792  0.4342
20895SOL     OW65001   5.882   0.671   5.247  0.0002 -0.1907 -1.0908
20895SOL    HW165002   5.972   0.703   5.235  0.4952 -1.2665 -0.4014
20895SOL    HW265003   5.846   0.668   5.159 -0.1471  2.3804 -1.2029
20896SOL     OW65004   0.943   0.334   3.411 -0.2685  0.4814 -0.3591
20896SOL    HW165005   0.926   0.391   3.486 -1.2599  0.7996 -0.8028
20896SOL    HW265006   0.912   0.384   3.336  1.9862  0.7716 -1.1855
20897SOL     OW65007   9.624   8.387   6.215  0.0595 -0.1026  0.1001
20897SOL    HW165008   9.601   8.294   6.221  0.0799 -0.1369 -0.3421
20897SOL    HW265009   9.560   8.423   6.153 -0.5828  0.3870  1.0135
20898SOL     OW65010   9.133   7.846   4.938  0.4189 -0.3060  0.3790
20898SOL    HW165011   9.053   7.897   4.929 -0.5398 -1.3063  2.5530
20898SOL    HW265012   9.116   7.765   4.892  1.5141  0.7455 -2.0662
20899SOL     OW65013  10.228   4.261   5.794 -0.1301 -0.4287 -0.6489
20899SOL    HW165014  10.170   4.260   5.717  2.2845  1.0847 -2.6625
20899SOL    HW265015  10.218   4.174   5.833 -2.5132 -0.7525 -1.8213
20900SOL     OW65016   8.141   2.250   9.933  0.4100  0.4954 -0.7979
20900SOL    HW165017   8.193   2.259  10.013 -1.1223  1.6346  0.1369
20900SOL    HW265018   8.168   2.324   9.878 -1.7293  2.4951  0.6586
20901SOL     OW65019   3.924   0.876   9.448  0.1687  0.5554  0.3527
20901SOL    HW165020   3.996   0.913   9.500 -0.0734  1.7412 -0.1264
20901SOL    HW265021   3.933   0.916   9.362  0.2745 -1.0232 -0.4030
20902SOL     OW65022   9.292   0.552   1.842  0.3367 -0.0719  0.3360
20902SOL    HW165023   9.206   0.556   1.802  1.1000 -0.4207 -1.4292
20902SOL    HW265024   9.289   0.616   1.913 -1.0155  0.7155 -0.4046
20903SOL     OW65025   3.711   5.591   8.340 -0.1468  0.1969 -0.2584
20903SOL    HW165026   3.626   5.587   8.384  0.2714  1.4211  0.7463
20903SOL    HW265027   3.774   5.593   8.412  0.5856  1.8127 -0.8992
20904SOL     OW65028   1.076   3.951   2.103  0.6775  0.2162  0.1920
20904SOL    HW165029   1.079   4.042   2.071  0.0671 -0.5476 -2.2787
20904SOL    HW265030   0.982   3.934   2.115  0.5258 -0.8100 -1.9063
20905SOL     OW65031   4.762   2.898   1.193  0.3763  0.5185 -0.0900
20905SOL    HW165032   4.729   2.830   1.133 -0.3332 -1.5144  2.4081
20905SOL    HW265033   4.856   2.881   1.198  0.5200  0.9969 -0.9194
20906SOL     OW65034   4.333   7.853   2.927 -0.1518 -0.6084 -0.3108
20906SOL    HW165035   4.408   7.797   2.908  0.8041 -0.6553  2.9630
20906SOL    HW265036   4.290   7.866   2.842  3.4342 -0.6902 -2.3196
20907SOL     OW65037   4.764   2.246   3.681 -0.0190 -0.0172  0.4254
20907SOL    HW165038   4.740   2.300   3.606  0.5505 -0.5900 -0.1837
20907SOL    HW265039   4.857   2.264   3.695 -0.2096  0.3731  1.2427
20908SOL     OW65040   1.378   5.093   1.249  0.0226 -0.1441  0.5756
20908SOL    HW165041   1.346   5.007   1.221  1.7030 -0.4638 -0.5062
20908SOL    HW265042   1.324   5.156   1.200 -2.4300 -0.4407  2.6847
20909SOL     OW65043   3.147   5.270   1.405 -0.5723  0.0797  0.5366
20909SOL    HW165044   3.108   5.339   1.459 -0.5149 -0.2329  0.9790
20909SOL    HW265045   3.096   5.192   1.425 -1.4184  0.2489 -0.8746
20910SOL     OW65046   1.886   7.523   4.129 -0.0817 -0.1978 -0.6537
20910SOL    HW165047   1.802   7.480   4.111  0.6526 -1.2709 -1.6301
20910SOL    HW265048   1.894   7.521   4.225 -1.0207 -0.3506 -0.5691
20911SOL     OW65049   0.201   9.957   9.085 -0.2795 -0.4595  0.2209
20911SOL    HW165050   0.139  10.002   9.027  0.2841 -2.2348 -1.9350
20911SOL    HW265051   0.286   9.994   9.063 -0.1715 -0.4308  0.6768
20912SOL     OW65052   4.084   3.743   5.301 -0.4940  0.2997  0.1450
20912SOL    HW165053   4.117   3.826   5.336  0.8827  0.4532 -1.3839
20912SOL    HW265054   4.046   3.699   5.376  0.5609  1.4596  1.4113
20913SOL     OW65055   6.854   7.847   5.770 -0.3796  0.1558 -0.4973
20913SOL    HW165056   6.783   7.869   5.710 -2.1792 -1.0074  1.0517
20913SOL    HW265057   6.932   7.886   5.732 -1.7460  0.9747 -2.6094
20914SOL     OW65058   1.355   0.563   4.675 -0.1381  0.5463  0.0219
20914SOL    HW165059   1.449   0.567   4.657 -0.1696 -0.3497 -0.4183
20914SOL    HW265060   1.325   0.654   4.667  0.4783  0.6775 -1.0675
20915SOL     OW65061   4.514   7.776   7.810  0.2134  0.0773 -0.1981
20915SOL    HW165062   4.465   7.751   7.732  1.1310  0.4251 -0.9081
20915SOL    HW265063   4.595   7.813   7.776  0.7770 -0.0804  0.9392
20916SOL     OW65064   0.733   0.472   3.147  0.2766  0.0812 -0.2682
20916SOL    HW165065   0.783   0.415   3.088  0.6568  0.1930 -0.0631
20916SOL    HW265066   0.663   0.508   3.093  0.3403 -0.1883 -0.5285
20917SOL     OW65067   9.707   3.978   2.684 -0.1333  0.5023 -0.6868
20917SOL    HW165068   9.781   3.929   2.719 -1.8539 -1.9986 -0.2799
20917SOL    HW265069   9.678   4.035   2.756 -0.6988 -1.0739  0.3739
20918SOL     OW65070   6.026   3.055   7.009  0.1991  0.1037 -0.1076
20918SOL    HW165071   6.038   3.131   6.952  1.4395 -0.7170 -0.9953
20918SOL    HW265072   6.062   3.082   7.093 -1.0488  1.1034  0.1288
20919SOL     OW65073   5.953   9.053   4.167 -1.0364  0.2622  0.3514
20919SOL    HW165074   6.026   9.088   4.218 -0.5518  0.0572 -0.1972
20919SOL    HW265075   5.982   8.967   4.138 -0.8273  0.8319 -1.2429
20920SOL     OW65076   3.257   0.998   5.463 -0.8231  0.5822  0.0827
20920SOL    HW165077   3.297   0.937   5.526  2.0568  0.9861 -1.1637
20920SOL    HW265078   3.219   1.067   5.517 -0.1437 -0.0622  1.4386
20921SOL     OW65079   4.106  10.456   1.029 -0.0577  0.5279  0.4979
20921SOL    HW165080   4.158  10.439   1.107 -0.3726  0.0950  0.6195
20921SOL    HW265081   4.163  10.432   0.956  0.8790  2.5921  0.4959
20922SOL     OW65082   7.962  10.246   5.353 -0.6375  0.3764 -0.1578
20922SOL    HW165083   7.889  10.192   5.323 -1.9283  1.7924  0.2727
20922SOL    HW265084   7.965  10.231   5.448 -0.9435  0.9380 -0.0497
20923SOL     OW65085   7.720   1.810   7.612  0.0139 -0.0268  0.3547
20923SOL    HW165086   7.671   1.748   7.665 -1.0391  0.9780  0.5975
20923SOL    HW265087   7.715   1.776   7.523 -2.8781  1.0346  0.0190
20924SOL     OW65088   7.070   2.417  10.026 -0.5255 -0.4984  0.4725
20924SOL    HW165089   7.090   2.480   9.956  2.1262 -2.1840 -0.4205
20924SOL    HW265090   7.112   2.336   9.999 -1.5744 -1.9590  2.8566
20925SOL     OW65091  10.456   3.662   1.192  0.3144 -0.1904  0.0897
20925SOL    HW165092  10.446   3.734   1.130  0.3555 -1.1644 -1.0861
20925SOL    HW265093  10.485   3.703   1.273 -2.5184  1.4875  0.3984
20926SOL     OW65094   1.325   6.246   5.995  0.0884 -0.1134 -0.2144
20926SOL    HW165095   1.301   6.336   5.975 -1.0620 -0.7780 -2.0740
20926SOL    HW265096   1.258   6.218   6.059  0.5594  0.3875  0.5085
20927SOL     OW65097   4.850   0.058   5.448  0.4988  0.1004 -0.3396
20927SOL    HW165098   4.881  -0.007   5.511  2.0353  1.0541 -0.0722
20927SOL    HW265099   4.767   0.022   5.415 -0.0345 -0.7151  1.7440
20928SOL     OW65100   8.716   9.632   0.392  0.3083  0.0019 -0.3517
20928SOL    HW165101   8.793   9.592   0.352 -0.0387  0.5721 -1.6388
20928SOL    HW265102   8.735   9.726   0.391 -0.4900  0.1691 -0.8997
20929SOL     OW65103   3.954   2.369   8.328 -0.2950  0.3113  0.0959
20929SOL    HW165104   3.877   2.328   8.290 -0.1762  1.0484 -0.9934
20929SOL    HW265105   3.919   2.434   8.390 -0.5260  0.1942  0.0898
20930SOL     OW65106   3.084   8.665   8.303 -0.0125  0.2767 -0.8776
20930SOL    HW165107   3.162   8.708   8.269  0.9580  0.2419  1.1603
20930SOL    HW265108   3.013   8.695   8.245  1.2341  1.5488 -1.8268
20931SOL     OW65109   8.429   1.074   0.938 -0.2187  0.0165  0.5538
20931SOL    HW165110   8.450   1.006   1.002 -0.1615 -1.2349 -0.7545
20931SOL    HW265111   8.513   1.114   0.917  0.1344 -1.2366 -0.5384
20932SOL     OW65112   7.326   8.324   6.909 -1.2206  0.3842 -1.0184
20932SOL    HW165113   7.315   8.279   6.826 -1.2341  1.3872 -1.5769
20932SOL    HW265114   7.412   8.366   6.902 -0.4113 -0.9813  0.1929
20933SOL     OW65115   1.018   7.164   4.708  0.0854 -0.0455 -0.1481
20933SOL    HW165116   0.949   7.222   4.676 -0.4719 -0.5245  0.1701
20933SOL    HW265117   1.015   7.088   4.650  0.9924  0.3452 -0.7319
20934SOL     OW65118   7.176   0.272   6.959  0.2480  0.0680 -0.0545
20934SOL    HW165119   7.168   0.276   7.054  1.4102 -0.0520  0.0690
20934SOL    HW265120   7.197   0.181   6.939 -0.0266  0.0820 -0.4258
20935SOL     OW65121  10.497  10.065   3.129  0.5097  0.4678 -0.6401
20935SOL    HW165122  10.479  10.159   3.120 -2.5879 -0.0693 -1.2344
20935SOL    HW265123  10.446  10.024   3.059 -1.1435 -1.8803  1.7501
20936SOL     OW65124   7.600   8.210   2.045  0.0535  0.0263 -0.1777
20936SOL    HW165125   7.521   8.263   2.029  0.6397  1.2410  0.7929
20936SOL    HW265126   7.649   8.215   1.963 -1.0146 -1.0387 -0.9200
20937SOL     OW65127   7.437   1.308   7.389 -0.3272  0.4155  0.0191
20937SOL    HW165128   7.418   1.393   7.428  0.1122  0.1460  0.8589
20937SOL    HW265129   7.386   1.306   7.308 -0.2470  1.5165 -0.0653
20938SOL     OW65130   5.405   4.001   6.366 -0.0242 -0.1294 -0.0643
20938SOL    HW165131   5.428   4.025   6.456  1.0603 -0.3711 -0.2720
20938SOL    HW265132   5.482   3.955   6.332 -1.2615 -2.1288 -0.3541
20939SOL     OW65133   9.688   6.202   8.295  1.1071 -0.0024 -0.2176
20939SOL    HW165134   9.753   6.239   8.235  0.5843  1.7325  0.2085
20939SOL    HW265135   9.716   6.232   8.382  0.6230 -0.5980  0.1561
20940SOL     OW65136   3.661   1.138   2.621  0.1349 -0.1603 -0.0054
20940SOL    HW165137   3.725   1.192   2.668 -0.0044 -0.3508  0.4046
20940SOL    HW265138   3.692   1.138   2.530  0.6223 -0.1087  0.1590
20941SOL     OW65139   6.590   8.107   3.570 -0.2283 -0.4429  0.8241
20941SOL    HW165140   6.660   8.113   3.505 -0.5877  0.0012  0.4735
20941SOL    HW265141   6.536   8.034   3.541 -0.0518 -0.6293  0.9601
20942SOL     OW65142   3.893   7.431   4.632 -0.0079 -0.0336 -0.0746
20942SOL    HW165143   3.856   7.351   4.594 -3.2495 -0.0136  2.5089
20942SOL    HW265144   3.900   7.492   4.559 -0.9973 -1.5130 -1.4751
20943SOL     OW65145   4.951   1.950   4.592 -0.1197 -0.0266  0.0875
20943SOL    HW165146   4.993   1.867   4.570 -1.0882 -0.2983 -0.8532
20943SOL    HW265147   4.867   1.947   4.546 -1.0634  0.5983  1.6751
20944SOL     OW65148   6.489   5.403  10.235  0.1548 -0.0413 -0.6237
20944SOL    HW165149   6.578   5.413  10.202  0.8455 -0.1222  1.0938
20944SOL    HW265150   6.501   5.386  10.329 -1.7753  3.8604  0.5257
20945SOL     OW65151   3.168   9.724   4.983  0.3153  0.0184  0.5102
20945SOL    HW165152   3.102   9.725   4.913 -0.1096  0.1715  0.9034
20945SOL    HW265153   3.178   9.631   5.004  1.7447 -0.1846 -0.9411
20946SOL     OW65154  10.291   4.639   2.179 -0.1293  0.5554  0.2663
20946SOL    HW165155  10.237   4.712   2.209 -2.1630 -0.9348  0.3914
20946SOL    HW265156  10.243   4.601   2.106  2.4403  1.1857 -1.9319
20947SOL     OW65157   9.037  10.543   2.155 -0.0861 -0.4591 -0.0724
20947SOL    HW165158   9.081  10.612   2.206  0.5348 -0.1328 -1.0222
20947SOL    HW265159   9.106  10.481   2.134 -0.3818 -0.6910 -0.3623
20948SOL     OW65160   1.557   6.013   5.143  0.2656 -0.0702  0.2895
20948SOL    HW165161   1.533   5.930   5.101  0.2087  0.0621  0.0564
20948SOL    HW265162   1.473   6.053   5.167  0.2089  0.6318 -0.9884
20949SOL     OW65163   1.526   3.146   5.570  0.4742  0.3442 -0.0995
20949SOL    HW165164   1.508   3.058   5.536  1.2250  0.2026 -0.1481
20949SOL    HW265165   1.444   3.193   5.559  0.7721  0.4289 -2.4736
20950SOL     OW65166   7.717   7.191   6.372  0.1115 -0.2671 -0.2255
20950SOL    HW165167   7.787   7.245   6.337  1.6570 -2.9846 -1.6834
20950SOL    HW265168   7.696   7.130   6.300 -1.6169 -1.5053  1.2289
20951SOL     OW65169   4.693   8.306   0.826  0.6581  0.3209 -0.3057
20951SOL    HW165170   4.743   8.355   0.892 -0.4770 -0.2951  1.0655
20951SOL    HW265171   4.604   8.338   0.835  0.1923 -0.9021 -0.4556
20952SOL     OW65172   1.336   0.172   6.492 -0.2659  0.5985  0.1229
20952SOL    HW165173   1.246   0.191   6.464 -0.2822  0.4548  0.0734
20952SOL    HW265174   1.387   0.175   6.412 -0.5552 -1.2734 -0.1949
20953SOL     OW65175   5.071   5.808   7.819  0.0264  0.1562 -0.2504
20953SOL    HW165176   4.989   5.846   7.851  0.2469  0.3519  0.0925
20953SOL    HW265177   5.117   5.780   7.899  0.7801  1.0469 -0.3580
20954SOL     OW65178   1.470   3.928   8.780  0.1339  0.2719 -0.2844
20954SOL    HW165179   1.413   3.869   8.730  0.3079  0.4485 -0.6963
20954SOL    HW265180   1.540   3.871   8.812 -2.3431 -0.8806  3.7842
20955SOL     OW65181   6.869   8.136   5.626  0.1959  0.0215  0.2367
20955SOL    HW165182   6.925   8.178   5.692 -2.2153  1.5898  1.4288
20955SOL    HW265183   6.812   8.078   5.676 -0.9641  0.4179 -0.5879
20956SOL     OW65184   1.123   2.570   5.612  0.5563  0.2603 -0.1636
20956SOL    HW165185   1.096   2.639   5.672 -0.2911  0.9904 -1.3661
20956SOL    HW265186   1.078   2.589   5.530 -0.0006 -1.9266 -0.4303
20957SOL     OW65187   4.894   3.233   2.561  0.0979  0.3535 -0.1430
20957SOL    HW165188   4.945   3.282   2.496 -1.9724  1.3158 -1.1402
20957SOL    HW265189   4.850   3.301   2.612  0.5176 -0.4341  1.3249
20958SOL     OW65190   3.168   2.923   6.583  0.0525  0.4771 -0.1388
20958SOL    HW165191   3.115   2.843   6.586  1.9534 -0.8644  0.1265
20958SOL    HW265192   3.229   2.914   6.657  0.3867  2.1292 -0.1749
20959SOL     OW65193   9.483   5.623   6.821 -0.5449 -0.0063 -0.1475
20959SOL    HW165194   9.535   5.651   6.746  0.4021  0.6442  0.7236
20959SOL    HW265195   9.521   5.538   6.846 -2.8116 -1.7603 -2.2118
20960SOL     OW65196   6.272   5.092   9.920  0.4296 -0.2700  0.4687
20960SOL    HW165197   6.326   5.097   9.841 -0.0841  0.9617  0.1733
20960SOL    HW265198   6.303   5.014   9.966  1.0494 -0.7445 -0.7210
20961SOL     OW65199   5.137   0.681   2.854 -0.2912 -0.1132  0.3532
20961SOL    HW165200   5.163   0.620   2.786 -1.0047 -0.0840  0.0503
20961SOL    HW265201   5.041   0.675   2.857 -0.8247  3.7234 -2.3227
20962SOL     OW65202   8.804   8.375   1.958 -1.0466 -0.5824 -0.1059
20962SOL    HW165203   8.771   8.310   1.896 -2.6608  0.4818 -0.4072
20962SOL    HW265204   8.728   8.427   1.983  0.2401  1.4814 -0.1967
20963SOL     OW65205   2.031   1.037   5.015 -0.0060  0.1024 -0.0476
20963SOL    HW165206   2.017   1.116   4.963  0.0010 -0.7099 -1.3256
20963SOL    HW265207   1.946   1.019   5.055 -0.5011 -0.2149 -1.1865
20964SOL     OW65208  10.104   7.692   8.284 -0.0732 -0.0567  0.5438
20964SOL    HW165209  10.145   7.732   8.361  1.7826  0.8467 -0.8068
20964SOL    HW265210  10.010   7.703   8.297  0.2817  2.7375  1.3475
20965SOL     OW65211   9.035  10.404   7.545  0.0065 -0.3056  0.2770
20965SOL    HW165212   9.066  10.410   7.455 -0.1426  1.7843  0.3150
20965SOL    HW265213   8.955  10.458   7.546 -1.2182 -2.0546  1.1829
20966SOL     OW65214   4.917   8.291   8.418  0.6045  0.6501 -0.3054
20966SOL    HW165215   4.915   8.200   8.446  0.4232  1.0643  1.1284
20966SOL    HW265216   5.006   8.320   8.438  0.0256  1.3840  1.3887
20967SOL     OW65217   8.218   0.931   1.426  0.3102 -0.1680 -0.7342
20967SOL    HW165218   8.254   0.984   1.355  1.0976 -0.9639 -0.9498
20967SOL    HW265219   8.169   0.992   1.480  1.2739  0.7970 -0.9242
20968SOL     OW65220   8.016   2.367   0.400 -0.0183 -0.6115  0.4638
20968SOL    HW165221   8.093   2.408   0.440 -0.6480  0.4273  0.6501
20968SOL    HW265222   7.966   2.335   0.475 -0.4641 -0.0046  0.4282
20969SOL     OW65223   6.381   7.871   5.589  0.1338  0.3658  0.7386
20969SOL    HW165224   6.306   7.813   5.579 -0.0038  0.2734  2.1444
20969SOL    HW265225   6.364   7.943   5.528  0.2599 -0.9840 -0.9685
20970SOL     OW65226   3.007   3.469   2.319 -0.3752  0.2599 -0.0839
20970SOL    HW165227   2.985   3.562   2.309  0.5315  0.4594 -0.3021
20970SOL    HW265228   3.048   3.445   2.236 -0.6116 -0.3416 -0.0285
20971SOL     OW65229   7.952   6.156   8.854  0.1179  0.2895  0.6735
20971SOL    HW165230   7.876   6.209   8.880 -0.2287  0.2893 -0.2847
20971SOL    HW265231   7.953   6.084   8.917 -1.5541 -0.4916 -0.1145
20972SOL     OW65232   3.365   9.790   9.839  0.3269 -0.4158 -0.1135
20972SOL    HW165233   3.272   9.767   9.825  0.5282 -1.0230 -0.5130
20972SOL    HW265234   3.408   9.765   9.757  0.3818  2.6787 -1.1707
20973SOL     OW65235   1.258   2.853   4.501 -0.3887  0.2273 -0.3762
20973SOL    HW165236   1.196   2.781   4.496 -0.5286  0.0508  2.2619
20973SOL    HW265237   1.262   2.875   4.595  0.9092  2.5394 -0.8828
20974SOL     OW65238   0.822   9.747   2.929 -0.1882  0.2351  0.0822
20974SOL    HW165239   0.751   9.774   2.871 -0.9669 -0.1701  0.8219
20974SOL    HW265240   0.820   9.810   3.000 -0.7484 -0.5843  0.8221
20975SOL     OW65241   6.608   1.656   5.154 -0.0890 -0.2436 -0.0898
20975SOL    HW165242   6.615   1.732   5.095  1.4182  0.5597  1.0547
20975SOL    HW265243   6.607   1.695   5.242  0.7485 -1.5509  0.5204
20976SOL     OW65244   7.113   1.151   2.448 -0.2009  0.6017 -0.3462
20976SOL    HW165245   7.166   1.201   2.386 -0.5607  1.9344  0.3796
20976SOL    HW265246   7.174   1.131   2.519 -0.5242  1.7877  0.3001
20977SOL     OW65247   3.083   9.074   1.958  0.2907 -0.3164  0.1145
20977SOL    HW165248   3.146   9.142   1.984  1.2058 -1.1498  0.1198
20977SOL    HW265249   3.124   8.992   1.985 -0.6912 -0.8934 -0.1209
20978SOL     OW65250   7.590   1.208   9.899  0.0308  0.6174  0.5526
20978SOL    HW165251   7.634   1.146   9.841  1.1186  0.3110  1.6744
20978SOL    HW265252   7.606   1.293   9.859 -0.6550  0.2850 -0.4784
20979SOL     OW65253   8.389   2.122   5.065  0.2389 -0.1406  0.1398
20979SOL    HW165254   8.384   2.039   5.112 -1.8407 -0.7423 -1.0241
20979SOL    HW265255   8.370   2.188   5.132  0.5049 -0.7108  0.7876
20980SOL     OW65256   0.798   7.974   9.464 -0.1567 -0.2780 -0.4848
20980SOL    HW165257   0.785   7.938   9.376 -1.2836 -1.9981  0.3482
20980SOL    HW265258   0.889   7.954   9.484  0.4245  1.0461 -1.6279
20981SOL     OW65259   6.016   2.015  10.035  0.3494  0.0397 -0.3041
20981SOL    HW165260   6.091   1.955  10.040 -0.3088 -0.7155  1.4631
20981SOL    HW265261   5.957   1.975   9.970  0.4349 -0.6283  0.0204
20982SOL     OW65262   8.426   1.089   3.658 -0.8114 -0.4097 -0.8210
20982SOL    HW165263   8.421   1.092   3.562 -1.0679  1.4041 -0.7947
20982SOL    HW265264   8.520   1.081   3.677 -0.8558 -2.2757 -1.1934
20983SOL     OW65265   7.983   9.496   9.918 -0.1429 -0.5618  0.0921
20983SOL    HW165266   7.912   9.435   9.896 -1.4293  0.8331  0.1282
20983SOL    HW265267   8.006   9.536   9.834 -2.9562  2.5716  0.5658
20984SOL     OW65268  10.351   7.286  10.501 -0.7470 -0.1121  0.5770
20984SOL    HW165269  10.354   7.345  10.426  2.9963  0.3355  0.8806
20984SOL    HW265270  10.322   7.202  10.465  2.3027 -0.3184 -1.8105
20985SOL     OW65271   3.107   5.744   9.765  0.1810 -0.1333  0.3092
20985SOL    HW165272   3.013   5.744   9.750  0.2145  1.3028 -0.1426
20985SOL    HW265273   3.132   5.836   9.756  1.4074 -0.2708  1.8745
20986SOL     OW65274   0.368   9.209   5.456  0.2365 -0.0371  0.3755
20986SOL    HW165275   0.332   9.289   5.417 -0.3180 -1.1911 -1.6301
20986SOL    HW265276   0.374   9.148   5.383  1.1783 -1.6567  1.7523
20987SOL     OW65277   4.564   0.710   3.113  0.1959  0.4560  0.0256
20987SOL    HW165278   4.505   0.721   3.038 -1.9536 -1.1396  1.3550
20987SOL    HW265279   4.602   0.624   3.102 -0.6180 -0.0588  1.0269
20988SOL     OW65280  10.178   5.082   1.122 -0.1705  0.1303  0.2321
20988SOL    HW165281  10.186   5.011   1.059  1.8067 -0.5297  1.1630
20988SOL    HW265282  10.084   5.089   1.138 -0.6497 -0.2970 -2.0344
20989SOL     OW65283  10.103   9.215   6.439  0.3728  0.5070 -0.7303
20989SOL    HW165284  10.159   9.290   6.459  0.4460 -0.5663  4.6391
20989SOL    HW265285  10.015   9.251   6.435  0.6522  1.2029 -0.6713
20990SOL     OW65286   8.418   4.610   4.085 -0.0596 -0.5792  0.1792
20990SOL    HW165287   8.474   4.639   4.156 -0.3926  0.0177  0.2024
20990SOL    HW265288   8.478   4.571   4.021  0.4045  0.2021  0.1305
20991SOL     OW65289   0.607   2.142   3.399  0.4723 -0.0727  0.2859
20991SOL    HW165290   0.553   2.218   3.423 -1.2548 -1.2978  0.4650
20991SOL    HW265291   0.576   2.117   3.312  0.3066 -1.1483  0.6355
20992SOL     OW65292   6.556   8.683   6.586  0.1477 -0.0026 -0.1006
20992SOL    HW165293   6.627   8.657   6.527 -0.7236 -0.4414 -0.9655
20992SOL    HW265294   6.494   8.611   6.583  0.3715 -0.3266  1.8664
20993SOL     OW65295   8.023   2.592   0.289 -0.8043  0.1133 -0.6660
20993SOL    HW165296   7.934   2.619   0.311 -0.8637  1.6362 -2.4899
20993SOL    HW265297   8.022   2.497   0.300 -2.0633  0.2859  1.2103
20994SOL     OW65298   1.855  10.261   3.305 -0.1824  0.4631 -0.0123
20994SOL    HW165299   1.892  10.280   3.391  0.8267  1.0955 -0.5734
20994SOL    HW265300   1.901  10.183   3.275  2.3964  2.4454 -1.6320
20995SOL     OW65301   7.334   6.759   0.633 -0.8943 -0.0655 -0.4662
20995SOL    HW165302   7.403   6.767   0.567  0.8281 -4.4521  0.4883
20995SOL    HW265303   7.364   6.814   0.705  0.9405 -0.7441 -0.6479
20996SOL     OW65304   5.363   0.632   8.774 -0.5680  0.2681  0.6745
20996SOL    HW165305   5.392   0.694   8.707  0.3233 -2.1928 -1.3787
20996SOL    HW265306   5.369   0.681   8.856  2.1651  2.2415 -0.5498
20997SOL     OW65307   3.940   3.826   3.860  0.1750  0.3632 -0.3316
20997SOL    HW165308   3.995   3.868   3.926  0.2825 -0.3356  0.0278
20997SOL    HW265309   3.953   3.879   3.781  2.9906 -0.9417 -0.8667
20998SOL     OW65310   7.735   9.544   6.029 -0.0584  0.0344 -0.1703
20998SOL    HW165311   7.699   9.569   5.944  0.2737 -0.1245 -0.3540
20998SOL    HW265312   7.760   9.628   6.070  1.2539  0.0038 -0.8752
20999SOL     OW65313   7.018  10.565   5.811 -0.2130 -0.3269  0.0866
20999SOL    HW165314   7.020  10.504   5.737 -0.1665  0.4029 -0.5270
20999SOL    HW265315   7.110  10.576   5.836 -0.3200 -1.6665  1.1943
21000SOL     OW65316   6.314  10.433   8.591  0.3165 -0.3933  0.6429
21000SOL    HW165317   6.356  10.484   8.521 -1.6688  1.3649  0.6272
21000SOL    HW265318   6.356  10.465   8.671  1.5893 -1.3783  0.4012
21001SOL     OW65319   7.706   3.944   8.980  0.1995 -0.1162 -0.2660
21001SOL    HW165320   7.743   3.868   9.026 -1.7009  0.5791  2.7006
21001SOL    HW265321   7.638   3.907   8.924 -0.5588 -0.6837  0.9870
21002SOL     OW65322  10.466   0.982   5.318  0.1491 -0.3300 -0.6728
21002SOL    HW165323  10.419   1.024   5.245 -2.2096 -1.6208 -0.0136
21002SOL    HW265324  10.501   1.054   5.369  0.1072  0.6598 -1.9904
21003SOL     OW65325   2.980   7.796   2.985 -0.3648  0.3329 -0.2825
21003SOL    HW165326   2.958   7.819   3.075 -2.1380  0.9618 -0.8264
21003SOL    HW265327   2.931   7.715   2.968 -1.0182  0.8645 -1.0254
21004SOL     OW65328   8.829   2.065   5.264 -0.4916  0.0346  0.7843
21004SOL    HW165329   8.841   2.132   5.197 -1.1150  1.5087  2.0992
21004SOL    HW265330   8.844   2.110   5.347 -3.1368 -0.8706  1.8478
21005SOL     OW65331   2.722   7.888   1.524 -0.0467 -0.1863 -0.2962
21005SOL    HW165332   2.690   7.801   1.548  2.8657 -1.3159 -0.1454
21005SOL    HW265333   2.788   7.908   1.590 -1.7346  2.9518  0.6582
21006SOL     OW65334   7.951   4.363   3.335  0.0448 -0.7518  0.3779
21006SOL    HW165335   7.981   4.344   3.246  0.4658 -0.0926  0.3705
21006SOL    HW265336   7.995   4.297   3.390  0.7948 -0.3773  0.2463
21007SOL     OW65337  10.222   5.560   1.168 -0.5853 -0.4623  0.3544
21007SOL    HW165338  10.283   5.630   1.144 -0.9186 -0.4697 -0.5388
21007SOL    HW265339  10.136   5.596   1.150 -0.8312 -0.6249  1.1681
21008SOL     OW65340  10.074   9.937   2.017 -0.2621  0.4304 -0.1482
21008SOL    HW165341  10.112  10.012   1.970 -0.2244  0.3294 -0.2791
21008SOL    HW265342   9.980   9.946   2.006 -0.2211 -0.0110 -0.8856
21009SOL     OW65343   3.678   9.915   0.977 -0.1142 -0.0959  0.3916
21009SOL    HW165344   3.610   9.916   0.910  0.2218  0.1333  0.0517
21009SOL    HW265345   3.637   9.958   1.053 -0.2575  0.3014  0.0938
21010SOL     OW65346   7.092  10.288   4.467 -0.3444 -0.0407  0.5874
21010SOL    HW165347   7.124  10.358   4.409  1.0816  0.3182  1.7500
21010SOL    HW265348   7.171  10.254   4.509 -1.2763 -0.7033  1.8688
21011SOL     OW65349   0.331   5.228   4.499 -0.5088  0.3589 -0.0585
21011SOL    HW165350   0.252   5.237   4.445 -0.7181 -1.0354 -0.0286
21011SOL    HW265351   0.339   5.134   4.513 -0.0200  0.6262  1.6983
21012SOL     OW65352   7.159   2.711   0.014 -0.4573  0.3133  0.1079
21012SOL    HW165353   7.070   2.738   0.036 -0.4554  1.2942 -1.0267
21012SOL    HW265354   7.182   2.762  -0.063  0.4132 -1.2888 -0.7476
21013SOL     OW65355   9.252   5.577   8.511  0.0272  0.4295 -0.2860
21013SOL    HW165356   9.205   5.615   8.436 -1.4189 -0.8114 -0.0424
21013SOL    HW265357   9.262   5.485   8.489 -0.2116  0.0927  0.9577
21014SOL     OW65358   9.737   1.803   9.038  0.1543  0.1111 -0.1789
21014SOL    HW165359   9.702   1.851   8.962 -1.5572  0.0771  0.5284
21014SOL    HW265360   9.673   1.733   9.053  0.8727 -0.3441  0.8324
21015SOL     OW65361   3.687   6.918   1.979 -0.0167  0.2165 -0.1928
21015SOL    HW165362   3.610   6.972   1.961  1.0272  2.1711  0.9340
21015SOL    HW265363   3.652   6.838   2.019 -1.4065  1.6870  1.6744
21016SOL     OW65364   3.772   9.323   7.693  0.1990 -0.0937  0.1427
21016SOL    HW165365   3.830   9.363   7.629  0.9651  0.5408  1.2047
21016SOL    HW265366   3.694   9.299   7.643  0.6317  0.7054 -0.9489
21017SOL     OW65367   7.354   8.705   4.527  0.5017 -0.0546  0.5696
21017SOL    HW165368   7.334   8.619   4.563 -0.7107 -0.0527 -0.0344
21017SOL    HW265369   7.385   8.686   4.438  0.1262  0.1344  0.3975
21018SOL     OW65370   9.682   5.469   2.121  0.0477 -0.6037 -0.0493
21018SOL    HW165371   9.611   5.406   2.107 -1.1324  0.8687 -1.0486
21018SOL    HW265372   9.758   5.429   2.079  0.5178 -3.2362  2.8996
21019SOL     OW65373   9.126   7.311   2.124  0.3204  0.5726 -0.0862
21019SOL    HW165374   9.112   7.353   2.209  0.5078 -1.1166  0.8224
21019SOL    HW265375   9.221   7.304   2.116  0.3498  1.6767 -0.9507
21020SOL     OW65376   4.188   1.774   3.440 -0.1477  0.2605 -0.0853
21020SOL    HW165377   4.182   1.687   3.401 -1.7450  0.6835 -0.8573
21020SOL    HW265378   4.281   1.795   3.437  0.1141 -0.9130 -1.0018
21021SOL     OW65379   9.382   4.608   5.777  0.1304 -0.2353  0.0193
21021SOL    HW165380   9.473   4.624   5.751 -0.3755  0.1280 -1.6164
21021SOL    HW265381   9.388   4.589   5.871  2.0497 -1.5889 -0.3145
21022SOL     OW65382   0.799   9.851   7.274 -0.1906  0.4065  0.2341
21022SOL    HW165383   0.878   9.901   7.254 -0.3810  0.6699  0.1372
21022SOL    HW265384   0.735   9.880   7.209  0.3191 -1.5141 -1.2132
21023SOL     OW65385   0.811   4.278   0.576  0.9072  0.4432 -0.2877
21023SOL    HW165386   0.905   4.260   0.567  0.6102 -0.9811 -0.8115
21023SOL    HW265387   0.773   4.251   0.493  0.1289  1.8660 -0.4202
21024SOL     OW65388   9.729   1.504   1.896 -0.5590  0.6543 -0.2228
21024SOL    HW165389   9.777   1.586   1.898 -0.0120  0.3521  2.5609
21024SOL    HW265390   9.637   1.531   1.886 -0.2610  1.5027 -0.7854
21025SOL     OW65391   8.106   1.613   0.011 -0.1661  0.4205 -0.3407
21025SOL    HW165392   8.148   1.565   0.082 -2.6945  0.5119  1.3575
21025SOL    HW265393   8.071   1.546  -0.048  1.8822  0.3442 -1.5460
21026SOL     OW65394   6.183   1.644   6.235  0.1557  0.0234 -0.2786
21026SOL    HW165395   6.135   1.562   6.222  0.2959 -0.2207  0.6452
21026SOL    HW265396   6.177   1.689   6.151  1.6490 -1.7665 -1.4438
21027SOL     OW65397   7.426   3.103   0.636  0.2561 -0.1197 -0.0652
21027SOL    HW165398   7.427   3.184   0.687  1.7517 -1.2845  1.9126
21027SOL    HW265399   7.416   3.034   0.702  0.4070 -1.6228 -1.5499
21028SOL     OW65400   2.803   6.005   5.315 -0.3242  0.2211 -0.2764
21028SOL    HW165401   2.788   6.098   5.302 -0.3716  0.2877  0.2406
21028SOL    HW265402   2.717   5.965   5.306 -0.3528  0.2626 -0.1824
21029SOL     OW65403   3.436   7.373   7.409  0.0322 -0.5539 -0.2487
21029SOL    HW165404   3.444   7.457   7.454 -2.8747 -0.5987  0.5706
21029SOL    HW265405   3.390   7.394   7.328  0.0115 -1.2544 -0.4216
21030SOL     OW65406   8.413   3.798   0.839 -0.3953 -0.4641  0.0342
21030SOL    HW165407   8.336   3.784   0.783 -1.3413 -1.9906  1.6181
21030SOL    HW265408   8.474   3.728   0.814 -0.2287 -0.2948 -0.0389
21031SOL     OW65409   0.254   8.100   8.169  0.0419  0.6647 -0.4065
21031SOL    HW165410   0.296   8.042   8.232  1.1876  1.6308 -0.2452
21031SOL    HW265411   0.322   8.119   8.104 -0.7767  0.6088 -1.3140
21032SOL     OW65412   6.788   0.354   8.966 -0.1348 -0.0380  0.2238
21032SOL    HW165413   6.769   0.273   9.014 -0.5623  0.0349  0.1832
21032SOL    HW265414   6.702   0.392   8.948 -0.1503 -1.1777 -2.5631
21033SOL     OW65415   1.221   6.336   5.439 -0.0781  0.2693 -0.3953
21033SOL    HW165416   1.244   6.418   5.483 -1.9386 -0.3401  1.9785
21033SOL    HW265417   1.304   6.300   5.411  0.9251  2.2637 -0.2060
21034SOL     OW65418   1.730   6.306   4.395  0.1166 -0.1534 -0.2706
21034SOL    HW165419   1.699   6.291   4.306 -0.5366  0.0539 -0.0890
21034SOL    HW265420   1.721   6.401   4.408 -1.0540 -0.3382  0.4494
21035SOL     OW65421  10.563   2.562   5.637 -0.2098  0.3084 -0.1938
21035SOL    HW165422  10.615   2.482   5.637 -0.9266 -0.1711  0.0883
21035SOL    HW265423  10.495   2.546   5.572  0.0037  0.9399 -0.5807
21036SOL     OW65424   9.034   0.525   8.872 -0.2002 -0.0684 -0.2727
21036SOL    HW165425   9.113   0.537   8.924  0.4266 -0.3742 -1.1416
21036SOL    HW265426   9.013   0.432   8.880  0.3147 -0.2711 -1.1318
21037SOL     OW65427   4.990   8.425   4.644 -0.3107 -0.6547 -0.3782
21037SOL    HW165428   5.070   8.376   4.660  0.2115 -0.2139 -1.5367
21037SOL    HW265429   4.928   8.391   4.708  0.4744 -1.7820 -0.1897
21038SOL     OW65430   8.644   0.689   6.017 -0.8053  0.4226 -0.0258
21038SOL    HW165431   8.658   0.782   5.997 -1.5288  0.7551  0.9270
21038SOL    HW265432   8.556   0.685   6.052  0.0358 -0.2449  2.1900
21039SOL     OW65433   4.590   5.217   9.058 -0.3060 -0.3887 -0.2671
21039SOL    HW165434   4.638   5.142   9.093 -1.0624 -0.2875  1.0604
21039SOL    HW265435   4.538   5.180   8.987 -1.5214 -1.4025  1.0892
21040SOL     OW65436   9.477   2.171   0.844  0.3548 -0.5622  0.6675
21040SOL    HW165437   9.440   2.176   0.932 -0.6611  0.4746  0.2104
21040SOL    HW265438   9.423   2.230   0.792  1.8899  0.0376 -0.3253
21041SOL     OW65439   1.197   9.585   1.852  0.0945 -0.3946 -0.9081
21041SOL    HW165440   1.223   9.496   1.876  1.8375  1.0993  3.8001
21041SOL    HW265441   1.104   9.590   1.874 -0.4317 -1.3868 -2.7194
21042SOL     OW65442   1.677   6.336   8.028  0.0160 -0.0957  0.0126
21042SOL    HW165443   1.590   6.307   8.004 -0.3486 -0.2799  1.4384
21042SOL    HW265444   1.734   6.261   8.009 -0.5096 -0.8278  1.1845
21043SOL     OW65445   7.564   9.164   8.911  0.2539 -0.5048 -0.6080
21043SOL    HW165446   7.529   9.089   8.960 -0.9278  0.5703  0.2786
21043SOL    HW265447   7.527   9.155   8.824  0.3737 -1.1182 -0.5992
21044SOL     OW65448   1.518   0.083   0.798  0.0455 -0.2818  0.0252
21044SOL    HW165449   1.569   0.110   0.874 -1.9738  0.3097  1.2584
21044SOL    HW265450   1.454   0.021   0.833 -1.5963  0.7827 -0.9318
21045SOL     OW65451   6.794   0.072   1.124 -0.4157  0.3137 -1.0504
21045SOL    HW165452   6.730   0.127   1.169  0.6975 -0.4542  1.6654
21045SOL    HW265453   6.801  -0.006   1.178  1.8618 -0.2017 -1.9687
21046SOL     OW65454   4.617   6.084   4.109 -0.1982  0.3634 -0.5327
21046SOL    HW165455   4.582   6.003   4.146 -0.0604 -0.3462 -1.9126
21046SOL    HW265456   4.577   6.091   4.023 -0.4436  1.9430 -0.3296
21047SOL     OW65457   9.309   0.394   3.421  0.0719  0.2623 -0.3274
21047SOL    HW165458   9.363   0.443   3.359 -0.2178 -0.7188 -1.3835
21047SOL    HW265459   9.372   0.360   3.486  0.6181 -0.1442 -1.0533
21048SOL     OW65460   7.619   9.312   0.186  0.2766 -0.0248 -0.0805
21048SOL    HW165461   7.532   9.320   0.227  0.4745 -0.8382  0.5171
21048SOL    HW265462   7.605   9.254   0.112  0.5928 -1.4825  0.9538
21049SOL     OW65463   2.009   5.697   7.659  0.5239  0.1282 -0.1599
21049SOL    HW165464   2.046   5.609   7.655  1.0469  0.3375 -0.0707
21049SOL    HW265465   2.078   5.750   7.699 -0.1821  0.3757  0.7624
21050SOL     OW65466   4.006   4.990   2.614 -0.5572 -0.5307 -0.0187
21050SOL    HW165467   4.043   4.944   2.690  1.5127  0.4981 -0.3319
21050SOL    HW265468   4.018   4.929   2.541  1.8779  0.2728 -0.3712
21051SOL     OW65469   5.660   2.806   4.492  0.3802  0.0485  0.7908
21051SOL    HW165470   5.750   2.810   4.525  0.6342 -1.4835  0.3503
21051SOL    HW265471   5.649   2.888   4.442  0.7830  1.2646  2.6040
21052SOL     OW65472   0.995   9.239   9.930 -0.1832 -0.1049 -0.1849
21052SOL    HW165473   0.934   9.282   9.869 -0.9355  1.0539  1.3170
21052SOL    HW265474   0.972   9.275  10.016  0.2164 -2.3801  0.9502
21053SOL     OW65475   3.375   0.733   5.797  0.0317  0.3048  0.3165
21053SOL    HW165476   3.286   0.752   5.767  0.2516 -0.8484 -1.1699
21053SOL    HW265477   3.431   0.757   5.723  0.8116 -0.4159  0.6649
21054SOL     OW65478   7.071   3.014   3.639  0.6293  0.2619  0.1010
21054SOL    HW165479   7.015   3.089   3.658 -0.0257 -0.1331 -0.2161
21054SOL    HW265480   7.093   3.024   3.546  1.7970  0.8680  0.4230
21055SOL     OW65481  10.284   9.288  10.272 -0.6155 -0.4242 -0.6778
21055SOL    HW165482  10.217   9.267  10.336 -1.7804  1.3894 -1.2422
21055SOL    HW265483  10.256   9.243  10.192 -0.0858 -1.2601 -0.4089
21056SOL     OW65484   5.589   9.166   0.863  0.4121  0.3300 -0.3517
21056SOL    HW165485   5.680   9.168   0.894  1.1924  1.5036 -2.5062
21056SOL    HW265486   5.563   9.258   0.860 -0.3844  0.0951 -0.9877
21057SOL     OW65487   1.083   7.528   1.337 -0.1154  0.4949  0.2641
21057SOL    HW165488   1.027   7.561   1.407 -1.7045  1.6041 -1.4265
21057SOL    HW265489   1.172   7.544   1.368 -0.7473  4.0227  0.7212
21058SOL     OW65490   8.652   1.501   1.825 -0.0522  0.2711 -0.1080
21058SOL    HW165491   8.680   1.592   1.826  1.9810 -0.3230  0.7745
21058SOL    HW265492   8.731   1.451   1.808 -1.3109 -1.3240 -1.7883
21059SOL     OW65493   1.393   5.090   1.947 -0.6343  0.1581 -0.0542
21059SOL    HW165494   1.460   5.154   1.922 -0.4964  0.8166  1.8324
21059SOL    HW265495   1.413   5.069   2.038 -3.0039  0.4084  0.5884
21060SOL     OW65496   8.062   5.811   6.521  0.2849 -0.1575 -0.5352
21060SOL    HW165497   8.033   5.892   6.477 -0.2077 -0.7086 -1.2471
21060SOL    HW265498   8.103   5.842   6.602 -0.6560  0.7612 -0.3816
21061SOL     OW65499   6.974  10.250   7.584 -0.7127  0.0421  1.2626
21061SOL    HW165500   6.961  10.181   7.519  1.0417  0.9907 -0.1673
21061SOL    HW265501   6.922  10.323   7.552  2.7039  1.6997 -1.1077
21062SOL     OW65502   9.992   1.652   0.679 -0.7648  0.7538 -0.1785
21062SOL    HW165503  10.059   1.589   0.706 -1.5942  0.0244  0.2444
21062SOL    HW265504   9.982   1.710   0.754 -0.2478  1.1790 -0.4359
21063SOL     OW65505   6.061   3.835   9.442 -0.2752  0.3076 -0.1152
21063SOL    HW165506   6.085   3.877   9.360 -2.2330  2.6725  0.3909
21063SOL    HW265507   5.974   3.797   9.425  0.8239 -2.4032 -0.1217
21064SOL     OW65508   4.272   5.293   6.003  0.1931  0.0948 -0.2270
21064SOL    HW165509   4.306   5.353   5.937  0.1317  0.4404  0.0581
21064SOL    HW265510   4.277   5.207   5.961 -0.6368  0.4121 -1.0035
21065SOL     OW65511   9.615   4.621   1.971 -0.0024 -0.2719  0.2761
21065SOL    HW165512   9.687   4.560   1.960  1.4645  1.5090 -0.6774
21065SOL    HW265513   9.620   4.649   2.062 -0.5847 -1.3953  0.6730
21066SOL     OW65514   5.280   2.027   3.502 -0.0444  0.6346 -0.0966
21066SOL    HW165515   5.363   2.045   3.546 -0.2759  1.1469  0.1291
21066SOL    HW265516   5.278   2.087   3.428 -0.2920  0.7396 -0.0047
21067SOL     OW65517   6.875   3.528   4.716  0.2936  0.0499  0.0556
21067SOL    HW165518   6.912   3.439   4.713  1.4193  0.4966  0.3200
21067SOL    HW265519   6.796   3.519   4.768 -0.9460 -1.2530 -1.9159
21068SOL     OW65520   5.060   6.600   3.157 -0.4699  0.1235 -0.2053
21068SOL    HW165521   4.989   6.581   3.217 -0.1075 -0.1759  0.1377
21068SOL    HW265522   5.018   6.643   3.082 -0.9244  0.4772  0.2494
21069SOL     OW65523   1.615   7.343   6.504 -0.1591  0.0685  0.5187
21069SOL    HW165524   1.633   7.434   6.481 -1.2790  0.4052  0.9464
21069SOL    HW265525   1.701   7.302   6.506  0.3266  1.0201 -0.0758
21070SOL     OW65526   3.920   5.279   3.444  0.1985 -0.3636 -0.2282
21070SOL    HW165527   3.934   5.330   3.364  0.1468  1.4974  0.9044
21070SOL    HW265528   4.006   5.274   3.485 -0.2506  1.1080  0.9619
21071SOL     OW65529   0.745   9.446   3.381  0.2850 -0.0885 -0.1751
21071SOL    HW165530   0.794   9.390   3.442 -0.4904 -0.0814  0.4660
21071SOL    HW265531   0.812   9.481   3.323  0.9886 -0.4388  0.3988
21072SOL     OW65532   6.832   9.036   5.355  0.1159 -0.0961  0.1220
21072SOL    HW165533   6.846   8.988   5.437  0.1934  1.7132  1.2066
21072SOL    HW265534   6.868   9.123   5.370  0.1392  0.2941 -1.8527
21073SOL     OW65535   6.244   8.479   3.284  0.2959  0.0456  0.3469
21073SOL    HW165536   6.322   8.521   3.320 -0.2939  1.8347 -0.3759
21073SOL    HW265537   6.189   8.461   3.361  1.3927 -1.2723  0.8677
21074SOL     OW65538   4.419   2.661   6.620  0.2521  0.2703 -0.0331
21074SOL    HW165539   4.457   2.618   6.543  2.9101  2.0222  0.1701
21074SOL    HW265540   4.377   2.740   6.585 -1.4031 -0.5323  0.0219
21075SOL     OW65541   1.248   6.112   8.722  0.5399 -0.4270 -0.1760
21075SOL    HW165542   1.307   6.045   8.687  1.7328  0.2309  0.5038
21075SOL    HW265543   1.253   6.184   8.659  0.5330 -0.3421 -0.0808
21076SOL     OW65544   1.946   1.824   0.209  0.0148 -0.2705 -1.0598
21076SOL    HW165545   1.877   1.767   0.175 -1.2096  0.6795 -0.2662
21076SOL    HW265546   1.936   1.906   0.160 -0.4821  0.4256  0.1734
21077SOL     OW65547   9.013   4.075   1.927 -0.1995 -0.1662 -0.5303
21077SOL    HW165548   8.976   4.045   1.844  1.0140 -0.2386 -1.0693
21077SOL    HW265549   9.107   4.081   1.910  0.2139 -1.3117  1.1979
21078SOL     OW65550   5.617   2.830  10.352  0.4835 -0.5189 -0.0818
21078SOL    HW165551   5.659   2.749  10.381  1.6772  0.3661  0.7580
21078SOL    HW265552   5.563   2.857  10.426 -0.4477 -0.8948 -0.6170
21079SOL     OW65553   3.046   3.343  10.502 -0.2301 -0.0177  0.4906
21079SOL    HW165554   3.115   3.408  10.507 -0.8539  0.6499  0.6447
21079SOL    HW265555   3.064   3.282  10.574 -0.0598  0.4070  0.8100
21080SOL     OW65556   6.316   7.037   5.624 -0.8023  0.5656 -0.0617
21080SOL    HW165557   6.361   6.993   5.552  1.6386 -0.2297  1.8099
21080SOL    HW265558   6.255   6.971   5.657  2.1184 -1.2947  2.0781
21081SOL     OW65559   4.588   5.384   6.452  0.1130 -0.0130 -0.3351
21081SOL    HW165560   4.547   5.431   6.380  0.6370 -0.2569 -0.7975
21081SOL    HW265561   4.613   5.300   6.415  3.7232  1.1742 -0.9690
21082SOL     OW65562   1.586   3.435   2.891 -0.2752 -0.1584 -0.2053
21082SOL    HW165563   1.631   3.504   2.939 -0.1317 -0.5731  0.2582
21082SOL    HW265564   1.493   3.456   2.902 -0.3704 -1.5976  2.3516
21083SOL     OW65565   2.399   0.030   8.537  0.4977  0.8778 -0.1139
21083SOL    HW165566   2.398  -0.057   8.497  1.4800  0.8154 -0.0229
21083SOL    HW265567   2.425   0.015   8.627 -1.4526  1.0518  0.5282
21084SOL     OW65568   4.550   6.841   8.244  0.7095  0.2303 -0.2387
21084SOL    HW165569   4.546   6.911   8.310  1.8080  0.1807 -0.1004
21084SOL    HW265570   4.593   6.768   8.289  2.7900  0.6764 -1.3933
21085SOL     OW65571   3.638   5.201   7.520 -0.1946  0.0508  0.5687
21085SOL    HW165572   3.611   5.139   7.453  0.5803 -0.8898  1.0822
21085SOL    HW265573   3.730   5.218   7.500  1.0688 -2.7553  3.1199
21086SOL     OW65574   3.157   1.962   9.588 -0.4704 -0.2711  0.0848
21086SOL    HW165575   3.212   2.015   9.530 -0.9983 -0.6586 -0.7842
21086SOL    HW265576   3.210   1.885   9.607 -0.0694  0.1241  0.5929
21087SOL     OW65577   9.274   8.232   1.238  0.1047  0.0893  0.3968
21087SOL    HW165578   9.355   8.184   1.256 -0.1145 -0.5320 -0.2321
21087SOL    HW265579   9.207   8.164   1.232 -0.3426  0.5431  0.2287
21088SOL     OW65580   9.225   2.906   3.287  0.7774 -0.2016  0.1513
21088SOL    HW165581   9.222   3.001   3.295 -1.2718 -0.0626 -1.2848
21088SOL    HW265582   9.286   2.890   3.215  0.8215  0.0608  0.1302
21089SOL     OW65583   8.375   8.811   5.408 -0.1888 -0.2488  0.4063
21089SOL    HW165584   8.421   8.805   5.492 -1.5921 -0.1582  1.2158
21089SOL    HW265585   8.438   8.777   5.344  0.3106 -1.9604  1.7091
21090SOL     OW65586   2.644   2.950   0.603 -0.3434 -0.4661  0.4418
21090SOL    HW165587   2.596   2.911   0.530 -1.7164 -2.6407  2.3644
21090SOL    HW265588   2.577   2.991   0.657  0.1892 -1.5516  2.0056
21091SOL     OW65589   7.274   4.979   8.603 -0.1794  0.3828 -0.1217
21091SOL    HW165590   7.205   4.929   8.562  1.2440 -2.9340  1.1401
21091SOL    HW265591   7.307   5.038   8.535 -1.6707 -0.7319 -1.8552
21092SOL     OW65592   0.022   8.631   4.756 -0.1495  0.4677 -0.1442
21092SOL    HW165593   0.045   8.702   4.695 -3.0614  1.2131 -0.5035
21092SOL    HW265594  -0.002   8.557   4.700  0.4855 -0.0019  0.1903
21093SOL     OW65595   5.045   5.168   1.494 -0.0437 -0.3002 -0.2726
21093SOL    HW165596   5.096   5.200   1.419  0.4253  1.5181  0.7706
21093SOL    HW265597   5.100   5.188   1.570 -1.5300  0.0666  0.7430
21094SOL     OW65598   2.360  10.584   5.067 -0.2090 -0.5376  0.3343
21094SOL    HW165599   2.271  10.557   5.046  0.5292 -2.6071 -0.3925
21094SOL    HW265600   2.413  10.506   5.049  1.5680  0.2103  2.0640
21095SOL     OW65601   4.711   7.169  10.111  0.2593 -0.2481 -0.0732
21095SOL    HW165602   4.762   7.106  10.059 -0.4913 -1.0564  0.1404
21095SOL    HW265603   4.646   7.202  10.049 -0.2653 -0.7786  0.1801
21096SOL     OW65604   8.559   4.147   5.031  0.0976  0.7244  0.8464
21096SOL    HW165605   8.528   4.071   5.080  0.6438  0.6856  1.1442
21096SOL    HW265606   8.560   4.218   5.095 -0.2415  0.9473  0.6119
21097SOL     OW65607   7.507   4.681   7.104 -0.1201  0.8222 -0.2890
21097SOL    HW165608   7.560   4.607   7.076  1.6371  2.1263 -0.5735
21097SOL    HW265609   7.544   4.708   7.188 -1.3042  0.8551  0.2484
21098SOL     OW65610   3.910   8.769   7.401 -0.0693 -0.2361 -0.3229
21098SOL    HW165611   3.977   8.705   7.377  2.8693  1.6146  2.1896
21098SOL    HW265612   3.840   8.717   7.441  1.4752 -2.0228  0.1847
21099SOL     OW65613   9.737  10.167   8.924  0.5260  0.0507 -0.4234
21099SOL    HW165614   9.730  10.254   8.963 -1.1035 -0.0236 -0.4862
21099SOL    HW265615   9.646  10.141   8.907  1.0844 -0.7732 -2.3996
21100SOL     OW65616   4.186   2.105   0.089 -0.4364 -0.1649  0.3860
21100SOL    HW165617   4.223   2.117   0.001 -0.4048  0.6823  0.5082
21100SOL    HW265618   4.164   2.012   0.093 -0.8163 -0.1355 -0.6679
21101SOL     OW65619   1.756  10.493   9.957  0.1408 -0.1881 -0.2929
21101SOL    HW165620   1.767  10.526  10.046  0.5674  2.1741 -1.1531
21101SOL    HW265621   1.661  10.486   9.945  0.0977 -1.5488  0.6578
21102SOL     OW65622   0.561   7.568   4.237 -0.4815  0.0687  0.5242
21102SOL    HW165623   0.525   7.548   4.151  0.4575  1.4605 -0.2239
21102SOL    HW265624   0.484   7.589   4.290 -1.0989 -1.1583  0.1504
21103SOL     OW65625   7.583  10.076   9.068 -0.2590 -0.0175  0.7382
21103SOL    HW165626   7.569  10.165   9.099  0.2631 -0.1908  1.4905
21103SOL    HW265627   7.634  10.087   8.987 -0.6570  0.3838  0.5360
21104SOL     OW65628   6.756   4.852   5.059 -0.4270 -0.3519  0.6811
21104SOL    HW165629   6.711   4.801   4.992 -0.6477  1.1050 -0.3253
21104SOL    HW265630   6.847   4.823   5.055 -0.5283 -0.6002  0.0672
21105SOL     OW65631   9.948   7.791   0.069 -0.1925 -0.6793  0.2137
21105SOL    HW165632   9.950   7.704   0.109 -2.2127 -0.8626 -0.0018
21105SOL    HW265633   9.891   7.781  -0.007 -1.1391  1.0154  0.6517
21106SOL     OW65634   6.132   2.347   7.719  0.1279  0.5517  0.1370
21106SOL    HW165635   6.215   2.392   7.705  0.9067 -0.9512 -0.3153
21106SOL    HW265636   6.130   2.328   7.813  0.8692 -0.4297 -0.0301
21107SOL     OW65637   9.450   8.152   6.236 -0.7999 -0.1623  0.0218
21107SOL    HW165638   9.465   8.168   6.329 -0.3417 -1.3208  0.1618
21107SOL    HW265639   9.423   8.060   6.231  0.7165 -0.5903 -1.1409
21108SOL     OW65640   9.938   2.671  10.515  0.6718  0.3557 -0.4719
21108SOL    HW165641   9.948   2.763  10.488 -0.0826  0.7618  0.5539
21108SOL    HW265642   9.846   2.664  10.541  0.9671 -0.4164  0.4226
21109SOL     OW65643   6.798  10.350   2.067  0.1476 -0.0892  0.1135
21109SOL    HW165644   6.789  10.443   2.046  0.6257 -0.0733 -0.0231
21109SOL    HW265645   6.758  10.342   2.154 -0.4311  0.1298 -0.1225
21110SOL     OW65646   9.145   9.789  10.088 -0.2226 -0.6909  0.1769
21110SOL    HW165647   9.189   9.858  10.137  3.1229 -2.0541 -0.6310
21110SOL    HW265648   9.060   9.779  10.132  0.2740  1.9760  2.0190
21111SOL     OW65649   3.328   1.779   9.307 -0.2057  0.1342 -0.5694
21111SOL    HW165650   3.344   1.695   9.265 -1.2519 -0.1458 -0.4439
21111SOL    HW265651   3.313   1.757   9.399  0.5171  0.5735 -0.3413
21112SOL     OW65652   5.111   1.757   4.515  0.2156 -0.7976 -0.2571
21112SOL    HW165653   5.159   1.688   4.560  0.7499 -2.2602 -2.8737
21112SOL    HW265654   5.176   1.800   4.460 -0.4403  0.8280  0.1605
21113SOL     OW65655   9.737   2.498   3.216 -0.4469  0.9692  0.1943
21113SOL    HW165656   9.679   2.537   3.151 -0.4675  0.1334 -0.3122
21113SOL    HW265657   9.801   2.566   3.235 -0.4735  1.2510 -0.6648
21114SOL     OW65658   6.495   7.512   6.067 -0.0406 -0.4188  0.0947
21114SOL    HW165659   6.549   7.549   5.998 -2.2302 -0.2749 -1.6459
21114SOL    HW265660   6.461   7.588   6.114  0.8068 -0.4926  0.8503
21115SOL     OW65661  10.324   5.796   1.101  0.5096 -0.2610  0.0266
21115SOL    HW165662  10.279   5.880   1.093  2.0013  0.4963 -0.5876
21115SOL    HW265663  10.360   5.779   1.014 -0.2700 -1.8518 -0.0278
21116SOL     OW65664   8.199   6.689   0.003  0.7148 -0.4222 -0.0291
21116SOL    HW165665   8.225   6.770   0.047  2.6783 -0.1543 -1.5648
21116SOL    HW265666   8.146   6.718  -0.071 -0.0060 -0.6754  0.3784
21117SOL     OW65667   4.590   9.202   0.076  0.0631  0.1949  0.3829
21117SOL    HW165668   4.533   9.200  -0.001 -0.3411 -0.2855  0.6880
21117SOL    HW265669   4.590   9.294   0.103 -0.5309  0.2079  0.3515
21118SOL     OW65670   3.824   9.782   1.183  0.5196  0.0693 -0.0891
21118SOL    HW165671   3.775   9.731   1.247  0.6473  0.0344 -0.0179
21118SOL    HW265672   3.760   9.806   1.117  0.6278 -0.8748 -0.5519
21119SOL     OW65673   3.817   8.840   2.508  0.7527 -0.2605  0.8146
21119SOL    HW165674   3.910   8.863   2.502  0.5295  0.9106  1.5343
21119SOL    HW265675   3.816   8.744   2.511  1.8419 -0.3523 -0.5716
21120SOL     OW65676   3.251   1.284   7.632  0.0060  0.6023  0.6924
21120SOL    HW165677   3.222   1.362   7.679  0.8230  0.4763  1.4407
21120SOL    HW265678   3.338   1.266   7.668 -0.2419 -0.7536  0.6481
21121SOL     OW65679   7.407   3.254   8.676  0.2970  0.1350  0.1405
21121SOL    HW165680   7.370   3.291   8.595  1.3850  0.3901 -0.2598
21121SOL    HW265681   7.455   3.176   8.646  1.1556  0.5297  0.4485
21122SOL     OW65682   0.429   3.467   8.885  0.0838 -0.3660  0.4725
21122SOL    HW165683   0.372   3.542   8.900 -0.2851 -0.6274  0.4095
21122SOL    HW265684   0.450   3.471   8.792 -1.7049 -1.5380 -0.0399
21123SOL     OW65685   5.469   0.441   7.506  0.1046  0.4071 -1.0554
21123SOL    HW165686   5.487   0.415   7.416 -0.5071  0.9993 -1.3593
21123SOL    HW265687   5.402   0.509   7.499 -1.1711 -0.6759 -0.0658
21124SOL     OW65688   4.128   0.984   9.646 -0.0973 -0.0559  1.0018
21124SOL    HW165689   4.098   1.063   9.601 -0.5752 -0.3354  0.8201
21124SOL    HW265690   4.129   1.008   9.739 -1.1638 -0.1172  1.0414
21125SOL     OW65691  10.593   6.522   4.835 -0.4215 -0.7252 -0.3688
21125SOL    HW165692  10.678   6.546   4.870  0.0776 -1.1650 -1.2538
21125SOL    HW265693  10.563   6.600   4.789 -0.6849 -0.4414  0.2639
21126SOL     OW65694   3.596   1.129   1.389  0.3808  0.2003  0.1372
21126SOL    HW165695   3.685   1.095   1.375  0.7362  1.0674  0.2245
21126SOL    HW265696   3.587   1.200   1.325 -0.2265  0.1543  0.1710
21127SOL     OW65697   3.731   4.605   7.759  0.5917  0.5780  0.0032
21127SOL    HW165698   3.806   4.599   7.818  1.9019  0.3832 -1.6296
21127SOL    HW265699   3.656   4.583   7.815  1.9957 -1.7799  1.1200
21128SOL     OW65700   9.815   8.690   8.247 -0.2122 -0.1368  0.3776
21128SOL    HW165701   9.855   8.605   8.263 -2.9387 -1.3365  1.3431
21128SOL    HW265702   9.769   8.712   8.328  0.9497  2.6356  0.4053
21129SOL     OW65703  10.496   0.334   6.846 -0.1301  0.7147  0.4780
21129SOL    HW165704  10.500   0.240   6.827 -2.3702  0.6143  0.2251
21129SOL    HW265705  10.405   0.358   6.830  0.1170  2.7018  1.6768
21130SOL     OW65706   8.662   9.471   7.710 -0.2699  0.1735  0.1318
21130SOL    HW165707   8.644   9.482   7.803  2.0369  0.2101  0.6333
21130SOL    HW265708   8.757   9.478   7.703 -0.3940  0.3623 -2.2611
21131SOL     OW65709   9.293   7.893   4.599  0.2066  0.1687  0.0483
21131SOL    HW165710   9.207   7.853   4.612 -0.1141  1.3179  1.9514
21131SOL    HW265711   9.301   7.903   4.505 -2.6370  1.7983 -0.1433
21132SOL     OW65712  10.286   4.023   5.889  0.0849 -0.6535 -0.0517
21132SOL    HW165713  10.261   4.003   5.979 -1.9649 -0.1614 -0.4594
21132SOL    HW265714  10.353   3.958   5.868  3.1745  1.2860  2.8763
21133SOL     OW65715   9.542   2.354   0.090 -0.6411 -0.1876  0.7563
21133SOL    HW165716   9.615   2.411   0.115 -1.1289  1.4136 -1.2029
21133SOL    HW265717   9.548   2.280   0.151  1.9910  0.3635  1.3257
21134SOL     OW65718   4.613   3.166   9.471 -0.0251  0.8795 -0.0465
21134SOL    HW165719   4.614   3.210   9.386  0.2463  0.5364 -0.2249
21134SOL    HW265720   4.701   3.180   9.506  1.2872 -2.3963 -1.6234
21135SOL     OW65721   0.953   0.797   0.791  0.2805  0.0673  0.4804
21135SOL    HW165722   0.885   0.753   0.739  0.8905 -2.8374  1.9268
21135SOL    HW265723   1.034   0.751   0.770  1.8786  3.1246 -0.8127
21136SOL     OW65724   5.323  10.285   6.542 -0.2242 -0.0703 -0.0933
21136SOL    HW165725   5.281  10.368   6.521 -2.8277 -1.4009 -0.6525
21136SOL    HW265726   5.302  10.270   6.634 -1.1392 -0.7914 -0.4022
21137SOL     OW65727   7.780   3.206  10.018  0.6731 -0.4076 -0.1154
21137SOL    HW165728   7.869   3.242  10.015  0.1437  0.9515  0.0888
21137SOL    HW265729   7.750   3.210   9.927  1.3288 -2.2655 -0.4608
21138SOL     OW65730   4.904   9.740   3.128 -0.0472  0.4081  0.5055
21138SOL    HW165731   4.862   9.765   3.210 -2.0910 -1.4720  0.1364
21138SOL    HW265732   4.962   9.667   3.152  1.2398  1.4180  0.6078
21139SOL     OW65733   2.744   8.281   2.271  0.3887 -0.1747  0.5441
21139SOL    HW165734   2.664   8.266   2.219 -0.5974  0.7071  1.7401
21139SOL    HW265735   2.746   8.376   2.283  0.0394 -0.4099  2.9054
21140SOL     OW65736   4.383   7.179   1.187 -0.0932  0.0555  1.0804
21140SOL    HW165737   4.429   7.098   1.165  0.1652  0.5644 -0.3982
21140SOL    HW265738   4.300   7.150   1.227 -1.0068 -1.0316 -1.4097
21141SOL     OW65739   5.608   1.611   3.571 -1.1603 -0.0177 -0.3464
21141SOL    HW165740   5.652   1.656   3.644 -2.9087  0.0841  0.6920
21141SOL    HW265741   5.522   1.653   3.566 -2.7703 -2.9514  0.4639
21142SOL     OW65742   7.642   1.676   8.610  0.2487  0.4233 -0.5594
21142SOL    HW165743   7.570   1.660   8.549  0.6066  1.5942 -1.3003
21142SOL    HW265744   7.602   1.663   8.697 -0.6866  0.4183 -0.9804
21143SOL     OW65745  10.169   4.872   0.955 -0.1257  0.0559  0.2866
21143SOL    HW165746  10.181   4.831   0.869 -1.9028 -1.2492  0.5940
21143SOL    HW265747  10.205   4.809   1.017  0.6389  0.7371  0.5499
21144SOL     OW65748   8.280  10.353   4.874  0.1511 -0.9094  0.1433
21144SOL    HW165749   8.366  10.315   4.894  0.0105 -1.2180  0.1773
21144SOL    HW265750   8.249  10.304   4.798 -0.6150 -1.7941  0.9914
21145SOL     OW65751   0.068   6.356   1.345  0.2856 -0.4926 -0.5688
21145SOL    HW165752   0.043   6.448   1.357  3.0041  0.3488 -0.6331
21145SOL    HW265753  -0.014   6.311   1.327 -1.1587  1.8951 -0.3859
21146SOL     OW65754   4.824  10.178   2.182 -0.4099  0.2922  0.2772
21146SOL    HW165755   4.868  10.243   2.236  0.5868 -0.2044  0.1021
21146SOL    HW265756   4.893  10.145   2.124 -1.1807 -0.0267 -0.4911
21147SOL     OW65757   5.042   5.789   6.801  0.0615  0.3331 -0.2908
21147SOL    HW165758   5.019   5.708   6.756  0.3053  0.1667 -0.1196
21147SOL    HW265759   5.101   5.834   6.741  0.6095 -0.0181 -0.0332
21148SOL     OW65760   9.245   4.716   4.996  0.0975  0.2300 -0.4410
21148SOL    HW165761   9.312   4.702   4.928  0.5115 -1.3112  0.2554
21148SOL    HW265762   9.232   4.811   4.996  2.4184  0.6148 -0.4804
21149SOL     OW65763   2.357   1.184   3.384 -0.3393  0.0694  1.2001
21149SOL    HW165764   2.318   1.252   3.330  0.3927 -0.2821  0.1826
21149SOL    HW265765   2.394   1.122   3.321 -1.5356 -1.6266  2.0622
21150SOL     OW65766   8.765   9.035  10.515 -0.0872  0.0432 -0.0695
21150SOL    HW165767   8.835   9.097  10.537 -1.1338  1.6190 -0.9177
21150SOL    HW265768   8.811   8.960  10.477  1.2296  0.3041  0.9055
21151SOL     OW65769   7.382   5.262   5.237 -0.4338  0.4704 -0.8184
21151SOL    HW165770   7.438   5.286   5.311  0.4147 -3.1853 -0.0518
21151SOL    HW265771   7.425   5.301   5.161  0.9804  1.0021  0.1961
21152SOL     OW65772   3.272   6.729   2.082 -0.0233 -0.2167  0.2122
21152SOL    HW165773   3.308   6.758   2.165 -2.2010  1.4827  0.6256
21152SOL    HW265774   3.220   6.651   2.103 -0.4861  0.1503  0.4292
21153SOL     OW65775   8.449   4.719   2.182  0.2006  0.6300  0.2613
21153SOL    HW165776   8.513   4.667   2.230  2.3905  2.2382 -0.7211
21153SOL    HW265777   8.409   4.775   2.249  0.7362  0.4844  0.7072
21154SOL     OW65778   2.935   3.475   1.044  0.2174  0.0183  0.7777
21154SOL    HW165779   3.002   3.540   1.023  0.3796  0.0987  1.4979
21154SOL    HW265780   2.853   3.512   1.012  0.6536 -0.6371 -1.2735
21155SOL     OW65781   9.528   8.898   6.198  0.2304  0.3218 -0.7567
21155SOL    HW165782   9.478   8.848   6.261  1.8169 -0.4791 -0.0946
21155SOL    HW265783   9.500   8.989   6.212 -0.1119  0.0424  0.4297
21156SOL     OW65784   0.680   2.499   3.579 -0.0967  0.7023  0.0109
21156SOL    HW165785   0.710   2.517   3.490  0.6256  2.4782  0.5513
21156SOL    HW265786   0.752   2.451   3.620 -0.3796 -0.0083 -0.3107
21157SOL     OW65787   0.240   8.892   6.735 -0.2238  0.6582  0.0084
21157SOL    HW165788   0.169   8.948   6.705 -0.3100  0.8875  0.6382
21157SOL    HW265789   0.303   8.951   6.776  0.0135  0.3782  0.0587
21158SOL     OW65790   5.144   2.261   7.756  0.9974 -0.3094 -0.6365
21158SOL    HW165791   5.070   2.285   7.812  1.9276  1.7050 -0.1930
21158SOL    HW265792   5.111   2.273   7.667  0.7244  0.4544 -0.4422
21159SOL     OW65793   1.644   6.972   1.791  0.1181 -0.4499 -0.3420
21159SOL    HW165794   1.737   6.962   1.811  0.2357  0.1682 -0.5522
21159SOL    HW265795   1.640   7.049   1.734 -0.4978 -0.6059 -0.5172
21160SOL     OW65796   9.813   5.365   4.792 -0.5604 -0.3580 -0.0685
21160SOL    HW165797   9.730   5.383   4.836  0.5458  1.4430  1.4365
21160SOL    HW265798   9.876   5.354   4.863  0.5313 -1.6362 -1.1785
21161SOL     OW65799   5.143   0.017   6.098  0.2146 -0.3413 -0.1946
21161SOL    HW165800   5.097  -0.049   6.150  0.3018 -2.4840 -2.6748
21161SOL    HW265801   5.233  -0.013   6.093  0.1173 -0.4676 -1.9026
21162SOL     OW65802   6.381   4.603   3.412 -0.0752  0.0918 -0.2665
21162SOL    HW165803   6.289   4.619   3.390 -0.2015  0.3867  0.4585
21162SOL    HW265804   6.379   4.574   3.503  0.5369 -0.0705 -0.3016
21163SOL     OW65805   3.775   2.820   5.382  0.2944  0.2200 -0.7150
21163SOL    HW165806   3.833   2.892   5.357 -0.7553  1.6278  0.6648
21163SOL    HW265807   3.691   2.843   5.341 -0.0847 -0.1497 -0.1507
21164SOL     OW65808   2.022   4.842  10.012 -0.8146  0.1373 -0.2569
21164SOL    HW165809   2.093   4.810   9.956 -0.4564  2.5375 -1.2943
21164SOL    HW265810   1.948   4.785   9.991 -0.1102 -0.3159 -1.6643
21165SOL     OW65811   7.584   5.675   5.074 -0.0633 -0.6115  0.0033
21165SOL    HW165812   7.601   5.587   5.042  0.0764 -0.7018  0.3168
21165SOL    HW265813   7.496   5.671   5.111  0.0602 -0.7002  0.2910
21166SOL     OW65814   4.076   6.042   9.774  0.2713 -0.3951  0.0461
21166SOL    HW165815   4.025   5.977   9.726 -0.4160 -1.8367  2.5414
21166SOL    HW265816   4.089   6.113   9.712 -1.6378 -1.5708 -1.8322
21167SOL     OW65817   2.190   3.239   0.907 -0.0953  0.0712 -0.0131
21167SOL    HW165818   2.174   3.297   0.832  0.1041 -0.3835 -0.4098
21167SOL    HW265819   2.200   3.152   0.868 -1.0159 -0.3369  0.6259
21168SOL     OW65820   6.099   5.419   0.099  0.7927 -1.1932  0.1723
21168SOL    HW165821   6.046   5.420   0.179  0.5773  1.7323  0.1189
21168SOL    HW265822   6.035   5.425   0.028  1.0776 -1.0050 -0.0694
21169SOL     OW65823   9.696   4.809   5.098 -0.3882 -0.3284 -0.3088
21169SOL    HW165824   9.609   4.785   5.130 -0.2315 -2.7270 -1.4026
21169SOL    HW265825   9.756   4.771   5.162 -0.1382 -0.3695 -0.5662
21170SOL     OW65826   3.511   3.571   5.618 -0.2838 -0.8500 -0.4689
21170SOL    HW165827   3.597   3.545   5.651 -0.5469 -2.0982 -0.7374
21170SOL    HW265828   3.520   3.665   5.601  0.4570 -0.5685  1.2474
21171SOL     OW65829   7.309   9.716   3.800 -0.0821 -0.5616 -0.2396
21171SOL    HW165830   7.404   9.723   3.813 -0.4779  1.1882  2.6979
21171SOL    HW265831   7.283   9.644   3.857 -0.7726  0.6447  1.0120
21172SOL     OW65832   5.112   1.368   9.810  0.3730 -0.2705  0.3910
21172SOL    HW165833   5.028   1.368   9.857  0.3118 -0.5690  0.2831
21172SOL    HW265834   5.112   1.286   9.761  0.5256 -0.0489  0.0217
21173SOL     OW65835   6.813   3.789   5.838 -0.2038  0.4797  0.4844
21173SOL    HW165836   6.754   3.757   5.907 -1.0293 -0.0632 -0.4385
21173SOL    HW265837   6.799   3.883   5.836 -0.4030  0.4586  0.8588
21174SOL     OW65838   4.012   0.069   4.827 -0.0823  0.6530  0.2296
21174SOL    HW165839   4.053   0.109   4.751 -1.3372 -0.1514 -0.9136
21174SOL    HW265840   4.076   0.079   4.897  2.0095 -0.4818 -1.4256
21175SOL     OW65841   2.727   9.582   0.364  0.4878 -0.1008  0.3956
21175SOL    HW165842   2.726   9.502   0.416 -0.3572  1.2940  2.7137
21175SOL    HW265843   2.640   9.620   0.376  0.8794  1.2031 -0.5987
21176SOL     OW65844   3.766   1.052   8.101  0.1879  0.1918  0.0792
21176SOL    HW165845   3.815   1.125   8.138  0.6978  0.1324 -0.4812
21176SOL    HW265846   3.674   1.076   8.116  0.3648  0.2627  1.2020
21177SOL     OW65847   0.785   7.506   8.385 -0.6249  0.3461 -0.2628
21177SOL    HW165848   0.838   7.438   8.343 -3.1553 -1.5231 -0.6434
21177SOL    HW265849   0.773   7.572   8.317 -0.0399  0.0873 -0.6296
21178SOL     OW65850   8.263   8.620   8.908  0.4330  0.3721  0.1937
21178SOL    HW165851   8.319   8.560   8.958 -0.3504  0.2999  1.0052
21178SOL    HW265852   8.193   8.564   8.874  0.3718  0.6156 -0.0785
21179SOL     OW65853   5.913   7.452   6.079 -0.0648 -0.0539 -0.0800
21179SOL    HW165854   5.858   7.410   6.146 -0.3380  0.3648 -0.0385
21179SOL    HW265855   5.851   7.485   6.015  0.1445  0.3793 -0.0578
21180SOL     OW65856   1.215   9.840   2.870  0.1014 -0.1025  0.2066
21180SOL    HW165857   1.156   9.808   2.802  0.7298 -1.5074  0.2867
21180SOL    HW265858   1.301   9.843   2.828  0.1152  1.2429  0.2913
21181SOL     OW65859   6.104   1.410   2.619  0.4814  0.3029 -0.1532
21181SOL    HW165860   6.082   1.352   2.547  2.4708 -1.8485  0.8489
21181SOL    HW265861   6.132   1.492   2.577 -1.9071  0.4545 -1.6178
21182SOL     OW65862   8.150   5.033   2.089  0.2527 -0.2506 -0.1182
21182SOL    HW165863   8.101   5.051   2.008 -0.6553  1.9484  0.8453
21182SOL    HW265864   8.167   4.939   2.086 -1.5114 -0.5889 -1.9071
21183SOL     OW65865   5.567   2.741   1.459 -0.0424 -0.2849 -0.3620
21183SOL    HW165866   5.605   2.821   1.493 -2.2242  0.3962  0.6572
21183SOL    HW265867   5.562   2.682   1.534 -0.4749 -0.5662 -0.6030
21184SOL     OW65868   5.877   1.025   3.876 -0.5374  0.4814 -0.0467
21184SOL    HW165869   5.820   1.069   3.813 -1.3271  0.6504  0.7765
21184SOL    HW265870   5.853   1.062   3.961  0.4162  0.1543  0.3799
21185SOL     OW65871   7.846   4.565   7.753  0.2978  0.1682  0.1687
21185SOL    HW165872   7.920   4.605   7.797  0.6624 -0.4415  0.1195
21185SOL    HW265873   7.848   4.473   7.780  0.0758 -0.0476 -0.5082
21186SOL     OW65874   0.260  10.435   6.992 -0.2190  0.1982 -0.4303
21186SOL    HW165875   0.354  10.416   6.985  0.1910  1.5594  0.8127
21186SOL    HW265876   0.221  10.356   7.028  1.0651  0.7828  2.5090
21187SOL     OW65877   5.508   1.827   5.300  0.1257  0.5638 -0.4695
21187SOL    HW165878   5.545   1.789   5.380  1.7843 -0.3161 -1.5882
21187SOL    HW265879   5.473   1.752   5.252  0.1876  0.9292 -1.0984
21188SOL     OW65880  10.193   2.808   0.170 -0.4123 -0.0319 -0.2873
21188SOL    HW165881  10.201   2.734   0.230  0.2592 -1.2712 -1.8381
21188SOL    HW265882  10.100   2.811   0.149 -0.6319  0.3288  0.6805
21189SOL     OW65883   9.753   3.280   6.158 -0.4298 -0.4915  0.3068
21189SOL    HW165884   9.784   3.332   6.232 -2.0033 -1.1387  1.4733
21189SOL    HW265885   9.830   3.270   6.102  0.9483 -0.4167  2.0975
21190SOL     OW65886   0.641   1.152   2.315 -0.4479  0.1286 -0.8004
21190SOL    HW165887   0.693   1.088   2.267 -0.0470 -1.2303  1.2943
21190SOL    HW265888   0.704   1.193   2.375 -1.5790 -1.2025  1.4428
21191SOL     OW65889   6.733   0.898   7.334 -0.1770  0.0954 -0.0680
21191SOL    HW165890   6.649   0.893   7.380 -0.1748  0.7698  0.0216
21191SOL    HW265891   6.709   0.910   7.242 -0.1803 -1.1382 -0.2535
21192SOL     OW65892   7.519   4.675   4.446  0.3937 -0.0150 -0.1687
21192SOL    HW165893   7.552   4.599   4.493  0.2256 -0.7461 -1.2142
21192SOL    HW265894   7.597   4.713   4.403  0.5257  0.5800  0.5695
21193SOL     OW65895   2.192   1.594   0.739 -0.1406  0.1949 -0.1802
21193SOL    HW165896   2.193   1.562   0.648 -1.7628 -1.1525  0.2203
21193SOL    HW265897   2.284   1.606   0.761  0.3573 -0.6381 -1.6234
21194SOL     OW65898   1.335  10.069  10.181  0.6657 -0.0667  0.2139
21194SOL    HW165899   1.263  10.049  10.121  1.0144  0.1499 -0.2822
21194SOL    HW265900   1.352  10.162  10.167  1.4006 -0.2353 -0.0680
21195SOL     OW65901   5.495   5.259   5.572 -0.5491 -0.0657 -0.7473
21195SOL    HW165902   5.543   5.314   5.634 -2.2144  0.1611  0.4163
21195SOL    HW265903   5.549   5.259   5.493  0.3588  1.8061 -0.1920
21196SOL     OW65904   4.001   7.024   3.883  0.5196 -0.3750  0.0132
21196SOL    HW165905   3.917   7.067   3.901 -0.1282 -1.4516 -0.3924
21196SOL    HW265906   4.061   7.061   3.949 -0.0932  0.8848 -0.1106
21197SOL     OW65907   3.279   8.521   2.854 -0.1515  0.1611 -0.3477
21197SOL    HW165908   3.322   8.602   2.828  0.6332  0.2205  1.0483
21197SOL    HW265909   3.290   8.517   2.949 -2.0391 -0.5330 -0.1229
21198SOL     OW65910   9.547  10.265   1.930 -0.1226  0.1981 -0.2349
21198SOL    HW165911   9.478  10.234   1.873  0.6454 -1.7884 -0.1626
21198SOL    HW265912   9.549  10.202   2.002  0.2668  1.5037  0.9425
21199SOL     OW65913   3.093   9.874   1.907  0.0839 -0.2851  0.2233
21199SOL    HW165914   3.152   9.803   1.882  0.2752  0.0100 -0.1587
21199SOL    HW265915   3.052   9.843   1.988 -1.8881 -2.0738 -1.3184
21200SOL     OW65916   0.508   8.097   5.267  0.6086  0.2666  0.1126
21200SOL    HW165917   0.444   8.062   5.328 -0.9052  2.1851 -0.3099
21200SOL    HW265918   0.591   8.095   5.315 -0.4416  1.2824  2.0661
21201SOL     OW65919   8.573   0.088   9.958 -0.2484 -0.1355  0.0086
21201SOL    HW165920   8.546   0.125  10.042 -1.1423  1.8018 -1.0658
21201SOL    HW265921   8.496   0.098   9.902  0.9632  0.4918 -1.6144
21202SOL     OW65922   6.151   1.190  10.290 -0.4969  0.3616  0.9924
21202SOL    HW165923   6.113   1.253  10.228 -0.8322  0.4682  1.2987
21202SOL    HW265924   6.245   1.204  10.284 -0.1072 -2.5747 -2.6526
21203SOL     OW65925   2.942  10.559   1.270 -0.1139 -0.5727  0.4365
21203SOL    HW165926   2.969  10.561   1.178  0.4913 -0.9539  0.6008
21203SOL    HW265927   3.019  10.588   1.318 -0.4366 -0.3489  0.8315
21204SOL     OW65928   1.947   1.463   0.034 -0.0173  0.2669 -0.5341
21204SOL    HW165929   1.860   1.440   0.002 -0.1271  0.0888 -0.1068
21204SOL    HW265930   1.948   1.559   0.034 -0.6016  0.2906  0.4763
21205SOL     OW65931   4.888  10.411   9.386 -0.4258 -0.3067 -0.9050
21205SOL    HW165932   4.802  10.445   9.411 -0.5046 -0.0004 -1.5826
21205SOL    HW265933   4.874  10.373   9.299  0.4938  1.2573 -1.7710
21206SOL     OW65934   5.212   0.623   9.168  0.3436 -0.3349 -0.5690
21206SOL    HW165935   5.270   0.657   9.101 -1.2150 -1.0495 -2.3706
21206SOL    HW265936   5.168   0.701   9.203 -2.3417 -0.1505 -3.8339
21207SOL     OW65937   1.697   8.803   7.595 -0.2439 -0.3223 -0.1186
21207SOL    HW165938   1.606   8.817   7.624 -0.5217 -2.4244  0.1679
21207SOL    HW265939   1.748   8.865   7.646 -1.4690  0.6943 -0.0648
21208SOL     OW65940   0.335   6.144   5.170  0.0540 -0.4139 -0.0876
21208SOL    HW165941   0.282   6.110   5.242  0.6314  0.3458  0.7090
21208SOL    HW265942   0.420   6.101   5.180  1.2823  2.1635  1.7934
21209SOL     OW65943   0.809   7.981   2.911 -0.2241 -0.5110  0.5915
21209SOL    HW165944   0.786   7.919   2.980 -0.7123 -1.0174 -0.0017
21209SOL    HW265945   0.739   7.971   2.846 -1.7483  2.5105  1.5920
21210SOL     OW65946   9.425   8.754   5.134  0.2765  0.2195  0.1718
21210SOL    HW165947   9.348   8.761   5.189  1.3627  0.1913  1.7668
21210SOL    HW265948   9.436   8.660   5.119 -0.1958  0.2451 -0.3983
21211SOL     OW65949   1.523   3.724   5.876  0.4605  0.0668  0.2449
21211SOL    HW165950   1.447   3.681   5.916  0.4243 -2.4704 -2.2390
21211SOL    HW265951   1.498   3.735   5.784  2.7934 -0.1316 -0.4738
21212SOL     OW65952   5.322   8.429   3.387  0.1798  0.3926 -0.5371
21212SOL    HW165953   5.316   8.495   3.455 -0.5316  1.0178 -1.1772
21212SOL    HW265954   5.412   8.397   3.391  0.0449  0.1355  0.9359
21213SOL     OW65955   4.804  10.387   0.999  0.2730  1.1527  0.2174
21213SOL    HW165956   4.881  10.333   1.016 -0.9210 -0.6543  0.0547
21213SOL    HW265957   4.765  10.399   1.085 -0.9489 -0.5882 -0.0543
21214SOL     OW65958   9.689   7.706   9.665  0.2922  0.1090  0.1519
21214SOL    HW165959   9.772   7.744   9.694  0.4610  0.8750 -1.2337
21214SOL    HW265960   9.703   7.686   9.572 -0.7430 -0.7220  0.1531
21215SOL     OW65961   1.033   9.738   1.087  0.8477 -0.4153  0.3880
21215SOL    HW165962   0.977   9.707   1.016  0.8870 -0.1986  0.2599
21215SOL    HW265963   1.092   9.665   1.106  0.7680 -0.5111  0.2663
21216SOL     OW65964   0.342  10.055   0.292  0.8621  0.0283  0.1964
21216SOL    HW165965   0.366  10.009   0.211 -1.8000  0.2996 -0.8664
21216SOL    HW265966   0.315  10.142   0.262  1.4626  0.7490  1.6357
21217SOL     OW65967   4.526   8.116   7.243 -0.8368 -0.0043 -0.1136
21217SOL    HW165968   4.482   8.157   7.169 -0.6051  2.2589  0.9034
21217SOL    HW265969   4.617   8.105   7.214 -1.0275 -0.3304 -0.5968
21218SOL     OW65970   8.992   6.191   4.219  0.1687 -0.0322  0.0343
21218SOL    HW165971   8.916   6.162   4.270  1.9882 -3.8382  0.9213
21218SOL    HW265972   8.975   6.157   4.131  0.6822 -0.6851  0.1784
21219SOL     OW65973   9.866   5.818   6.093 -0.1832  0.4713 -0.5890
21219SOL    HW165974   9.877   5.758   6.168  0.2039 -0.2209 -1.1840
21219SOL    HW265975   9.817   5.892   6.128  2.4790  1.5866  1.1360
21220SOL     OW65976   3.605   0.476   5.630  0.1151 -0.2199 -0.0719
21220SOL    HW165977   3.594   0.435   5.716  1.1718  1.0283  0.6985
21220SOL    HW265978   3.687   0.524   5.637 -0.9263  1.8057 -0.9923
21221SOL     OW65979   8.696   9.255   3.770  0.6726 -0.0634 -0.4407
21221SOL    HW165980   8.670   9.261   3.678 -0.9265 -0.2334 -0.0291
21221SOL    HW265981   8.758   9.327   3.782  1.4143 -0.4388 -1.7934
21222SOL     OW65982   3.642   7.287   8.036 -0.2572  0.2053  0.1494
21222SOL    HW165983   3.721   7.240   8.010 -0.1363  1.6899 -2.6033
21222SOL    HW265984   3.571   7.228   8.011 -0.0790  0.8831 -2.2323
21223SOL     OW65985   1.648   5.976   7.814 -0.5945 -0.0226  0.3001
21223SOL    HW165986   1.708   6.005   7.883  0.8792 -1.1912 -0.4273
21223SOL    HW265987   1.702   5.974   7.735 -1.8730 -0.1298 -0.6007
21224SOL     OW65988   9.703   5.087   2.205 -0.0828 -0.0341  0.0399
21224SOL    HW165989   9.658   5.097   2.288 -0.1594  2.0636 -0.2065
21224SOL    HW265990   9.648   5.132   2.142 -0.0057 -1.5563 -1.1781
21225SOL     OW65991   8.984   8.281   8.519  0.4127 -0.2626 -0.1899
21225SOL    HW165992   9.054   8.259   8.580  1.7177 -0.4625 -1.6748
21225SOL    HW265993   9.022   8.349   8.463  0.2712 -1.9351 -2.4427
21226SOL     OW65994   8.140   4.456   1.899 -0.9440  0.2509 -0.4284
21226SOL    HW165995   8.217   4.509   1.920 -0.9386  0.9211 -1.9979
21226SOL    HW265996   8.069   4.520   1.891 -1.8732 -0.4195  1.6539
21227SOL     OW65997   9.670   8.825   4.528  0.1803 -0.0022  0.1610
21227SOL    HW165998   9.686   8.747   4.475  0.5401  0.0526  0.1850
21227SOL    HW265999   9.704   8.897   4.475 -0.3607  0.1698  0.0372
21228SOL     OW66000   7.307   9.363   2.871  0.1234 -0.2221 -0.4635
21228SOL    HW166001   7.402   9.369   2.883  0.1415 -1.0197 -0.1859
21228SOL    HW266002   7.271   9.429   2.930  0.5754  1.6516 -2.1512
21229SOL     OW66003   0.366   3.104   6.449 -0.7822 -0.1681  0.2028
21229SOL    HW166004   0.415   3.095   6.367 -0.6488 -1.2387  0.3896
21229SOL    HW266005   0.287   3.152   6.424 -0.9187 -0.7963 -0.6352
21230SOL     OW66006   8.348   9.653   3.818 -0.5746 -0.4038  0.0705
21230SOL    HW166007   8.389   9.728   3.862 -0.1873  0.2496 -1.3394
21230SOL    HW266008   8.297   9.610   3.886  0.1901  0.4296  1.2033
21231SOL     OW66009   1.226   1.861   5.485  0.7237 -0.4048 -0.0788
21231SOL    HW166010   1.160   1.917   5.525  0.9963 -0.2573  0.1764
21231SOL    HW266011   1.180   1.781   5.462  0.1420  0.2311 -1.2072
21232SOL     OW66012   7.786   8.550   9.293  0.0660 -0.2880 -0.2138
21232SOL    HW166013   7.875   8.544   9.259  0.4872  1.6107  0.4413
21232SOL    HW266014   7.755   8.635   9.264 -1.9229 -1.2919 -1.2348
21233SOL     OW66015   2.566   5.938   4.406  0.5479 -0.1465  0.0877
21233SOL    HW166016   2.503   5.944   4.333  0.1082 -0.3365  0.4448
21233SOL    HW266017   2.547   5.853   4.446 -0.0697  0.4783  1.1874
21234SOL     OW66018   1.164   3.297   5.777  0.4922  0.5598  0.0187
21234SOL    HW166019   1.121   3.274   5.694  1.8606 -1.7982 -0.1104
21234SOL    HW266020   1.091   3.313   5.837 -0.5865 -1.3893 -0.6836
21235SOL     OW66021   6.222   4.684   7.865  0.3489 -0.4689  0.6840
21235SOL    HW166022   6.170   4.747   7.815  1.6603  0.1170  0.0012
21235SOL    HW266023   6.164   4.654   7.934 -0.5323  0.9881  0.6073
21236SOL     OW66024   3.610   1.276   0.719 -0.4344  0.3216 -0.6560
21236SOL    HW166025   3.649   1.363   0.710 -0.2711  0.3367  0.1210
21236SOL    HW266026   3.662   1.221   0.660 -0.1837  0.6336 -0.7320
21237SOL     OW66027   7.323   3.574   7.993 -0.1920  0.1076  0.3873
21237SOL    HW166028   7.241   3.543   8.032 -0.9846 -1.4391 -2.2465
21237SOL    HW266029   7.302   3.663   7.962 -0.3392  0.3615  1.1999
21238SOL     OW66030   3.282  10.217   1.183  0.6327  0.2245 -0.5693
21238SOL    HW166031   3.253  10.144   1.129  0.1156  1.4649 -2.0229
21238SOL    HW266032   3.284  10.292   1.124  0.7015  1.5020  0.9820
21239SOL     OW66033   1.053   9.424   5.203 -1.0593 -0.6926  0.3697
21239SOL    HW166034   1.138   9.382   5.219 -0.0734  1.6344  1.7752
21239SOL    HW266035   1.028   9.393   5.116  1.4582 -1.1401 -0.2904
21240SOL     OW66036   8.633   1.104   0.290 -0.0568 -0.5364 -0.4716
21240SOL    HW166037   8.545   1.108   0.328 -0.3093 -1.0340 -0.9904
21240SOL    HW266038   8.672   1.025   0.328 -0.7840 -1.7911 -2.1954
21241SOL     OW66039   6.352   7.408   5.805  0.3475 -0.0904  0.0659
21241SOL    HW166040   6.300   7.416   5.886  1.0424 -1.5196  0.6875
21241SOL    HW266041   6.401   7.490   5.800 -0.4078  0.4077  0.5841
21242SOL     OW66042   2.139   5.183   8.191 -0.1754  0.0158 -0.1672
21242SOL    HW166043   2.055   5.223   8.166 -0.7343 -0.1343  1.3761
21242SOL    HW266044   2.143   5.195   8.286  0.8983 -1.2387 -0.0397
21243SOL     OW66045   3.658   1.231  10.075  0.2426  0.4279 -0.1164
21243SOL    HW166046   3.617   1.292  10.135  0.6671  1.1651 -0.5631
21243SOL    HW266047   3.587   1.172  10.048 -1.2102  3.1570 -2.7926
21244SOL     OW66048   5.500   5.963   8.075  0.6062  0.0247 -0.1455
21244SOL    HW166049   5.480   5.893   8.137 -0.2195 -1.3006 -1.8171
21244SOL    HW266050   5.452   5.939   7.996  0.3640  2.4684 -0.8142
21245SOL     OW66051   0.395   1.789   4.463  0.2329 -0.3435  0.1977
21245SOL    HW166052   0.366   1.698   4.453  0.2181 -0.2420 -0.8300
21245SOL    HW266053   0.484   1.783   4.497  1.2600 -0.8630 -2.3416
21246SOL     OW66054   4.679   3.444   1.734 -0.0072 -0.2480 -0.0056
21246SOL    HW166055   4.632   3.365   1.707 -1.2285  0.6073 -0.4905
21246SOL    HW266056   4.714   3.481   1.653  1.1803 -0.6467  0.3026
21247SOL     OW66057   0.218   3.483   2.688 -0.1707 -0.2260  0.4058
21247SOL    HW166058   0.217   3.506   2.780  1.1948 -1.1800  0.6973
21247SOL    HW266059   0.311   3.482   2.664 -0.5229  0.9930 -1.2579
21248SOL     OW66060   6.915   4.640   0.432 -0.4294  0.6914 -0.1211
21248SOL    HW166061   6.917   4.586   0.353 -1.2257 -0.4880  0.6416
21248SOL    HW266062   6.959   4.587   0.499 -0.3956  1.3822  0.4217
21249SOL     OW66063   0.085   2.804   5.625 -0.0627  0.3241  0.1595
21249SOL    HW166064   0.070   2.709   5.620 -0.4548  0.4017 -0.1745
21249SOL    HW266065   0.019   2.835   5.688  1.6534  0.0443  2.2217
21250SOL     OW66066   0.198   9.242   6.241  0.1311  0.2875  0.0564
21250SOL    HW166067   0.142   9.181   6.289 -0.2314  0.7423  0.2250
21250SOL    HW266068   0.211   9.201   6.156 -2.3951  1.1908 -0.8856
21251SOL     OW66069  10.129   0.779   5.944  0.0101 -0.0048 -0.5510
21251SOL    HW166070  10.038   0.756   5.924 -0.0818  0.5132 -0.7543
21251SOL    HW266071  10.124   0.869   5.979  0.3453 -0.3052  0.3072
21252SOL     OW66072   1.717   6.534   2.618  0.3440 -0.1332  0.5997
21252SOL    HW166073   1.786   6.582   2.665  0.5420 -0.3823  0.5615
21252SOL    HW266074   1.639   6.547   2.672  0.5729 -0.4263  1.0047
21253SOL     OW66075   3.930   7.021   8.407  0.2795  0.4555  0.1281
21253SOL    HW166076   3.925   7.114   8.426  1.5264  0.7856 -0.9656
21253SOL    HW266077   3.840   6.993   8.394 -0.2516  1.1244  2.0551
21254SOL     OW66078   1.427   2.809   0.704 -0.4781  0.2813 -0.0036
21254SOL    HW166079   1.333   2.801   0.720 -0.2150  0.4096  1.8458
21254SOL    HW266080   1.442   2.903   0.695 -0.5611  0.2423 -0.5582
21255SOL     OW66081   4.237   0.401   5.431 -0.3048 -0.2405  0.1383
21255SOL    HW166082   4.163   0.440   5.385 -0.3184  0.0598  0.4125
21255SOL    HW266083   4.202   0.321   5.470  0.1667 -1.5569 -1.9711
21256SOL     OW66084   2.620   5.849   8.349 -0.1466 -0.0370 -0.5900
21256SOL    HW166085   2.627   5.814   8.438 -0.7069 -0.3142 -0.6462
21256SOL    HW266086   2.698   5.902   8.338  0.5009 -0.9150 -0.3368
21257SOL     OW66087   5.118   7.967   3.370  0.6757 -0.4562  0.4522
21257SOL    HW166088   5.128   7.884   3.322  0.9514 -0.0155 -0.2722
21257SOL    HW266089   5.042   7.953   3.427  0.6392 -1.1604  0.2459
21258SOL     OW66090   0.033   1.478   3.010 -0.6982 -0.0867 -0.1936
21258SOL    HW166091   0.050   1.437   3.094  3.3487  1.7211  0.0891
21258SOL    HW266092   0.048   1.409   2.946 -1.2163 -0.8203  0.4582
21259SOL     OW66093   2.927   5.071   7.941  0.0639  0.2869  0.1133
21259SOL    HW166094   2.931   4.988   7.989  1.8662  0.4164  0.2491
21259SOL    HW266095   2.954   5.137   8.005 -0.6607  0.9069 -0.1997
21260SOL     OW66096   2.269   3.221   7.726 -0.0498 -0.2655 -0.3182
21260SOL    HW166097   2.194   3.272   7.757 -0.5937 -0.9002 -0.5573
21260SOL    HW266098   2.336   3.234   7.792 -0.8486 -0.8096  0.6347
21261SOL     OW66099   2.686   3.520   5.208  0.3908  0.1748  0.3976
21261SOL    HW166100   2.639   3.439   5.229 -0.6560  0.1855 -1.6372
21261SOL    HW266101   2.742   3.497   5.133  0.4017  1.2163  0.0706
21262SOL     OW66102   4.827   4.486   2.899  0.3372 -0.1416  0.1414
21262SOL    HW166103   4.813   4.453   2.988  0.5576 -1.0534 -0.1507
21262SOL    HW266104   4.906   4.539   2.905  0.2472 -0.0498  0.5291
21263SOL     OW66105  10.053   2.546   5.587 -0.1325 -0.4601  0.4956
21263SOL    HW166106  10.079   2.454   5.584 -2.3300 -1.1045 -0.6665
21263SOL    HW266107   9.966   2.546   5.626 -0.1934  1.1217  0.4273
21264SOL     OW66108   2.963   2.329   8.185 -0.6547  0.5589  0.3476
21264SOL    HW166109   2.989   2.421   8.198  0.2051  0.4326 -0.3737
21264SOL    HW266110   2.881   2.321   8.233 -0.1844  1.4158  1.3396
21265SOL     OW66111   8.287   1.231   2.840  0.3459 -0.5131  0.3719
21265SOL    HW166112   8.219   1.298   2.828  1.1433  0.7796  2.5872
21265SOL    HW266113   8.369   1.276   2.820  0.7444 -1.5108 -0.3348
21266SOL     OW66114   5.282   6.813   1.730 -0.2900 -0.0929 -0.5117
21266SOL    HW166115   5.223   6.872   1.683 -0.7754 -0.7845 -0.8063
21266SOL    HW266116   5.223   6.755   1.778  0.1968  0.3830  0.6866
21267SOL     OW66117  10.445   2.519   9.379  0.7101 -0.1073  0.0780
21267SOL    HW166118  10.419   2.438   9.335  0.0085  0.4555 -0.5736
21267SOL    HW266119  10.388   2.586   9.342 -0.5939  0.2579  2.5399
21268SOL     OW66120   0.715   7.971   9.765  0.7359 -0.5987 -0.2337
21268SOL    HW166121   0.732   8.059   9.732 -0.9167  0.6431  1.9015
21268SOL    HW266122   0.714   7.915   9.687  3.0536  1.0087 -1.5277
21269SOL     OW66123   5.153   4.549   0.336  0.2836  0.0318  0.7319
21269SOL    HW166124   5.165   4.472   0.390 -0.4177 -1.4524 -1.1146
21269SOL    HW266125   5.193   4.527   0.252 -1.6068  0.8723 -0.4812
21270SOL     OW66126   5.930   4.765   9.378 -0.2893  0.0926 -0.2721
21270SOL    HW166127   5.931   4.734   9.469  1.8434 -2.5234 -1.0261
21270SOL    HW266128   5.889   4.693   9.329  0.4966  0.5165 -1.6016
21271SOL     OW66129   9.098   4.131   0.555  0.6932 -0.2940 -0.5907
21271SOL    HW166130   9.151   4.184   0.614 -0.0409  0.5201 -0.6370
21271SOL    HW266131   9.161   4.084   0.500  1.3610 -0.0814 -0.0142
21272SOL     OW66132   9.262   9.709   8.828  0.5649 -0.1755  0.3827
21272SOL    HW166133   9.279   9.726   8.735 -2.5474 -1.1112 -0.4986
21272SOL    HW266134   9.246   9.615   8.833  0.1634 -0.0564  1.7669
21273SOL     OW66135   3.230  10.071   3.284  0.4187  0.0956  0.3938
21273SOL    HW166136   3.161  10.123   3.324  1.3102  0.8785  0.9462
21273SOL    HW266137   3.294  10.057   3.354  1.0316 -0.2368 -0.2196
21274SOL     OW66138   9.926   6.177   7.115  0.3262 -0.0179 -0.1318
21274SOL    HW166139   9.860   6.213   7.175  1.5773  1.9149  0.1656
21274SOL    HW266140   9.988   6.131   7.172  0.4991  0.1831 -0.1587
21275SOL     OW66141   4.943   1.147  10.096 -0.4465 -0.5058 -0.1740
21275SOL    HW166142   4.851   1.122  10.106 -0.8380  0.6291 -0.8533
21275SOL    HW266143   4.943   1.213  10.027  0.8370 -0.2085  0.0881
21276SOL     OW66144  10.124   9.809   3.951  0.0259 -0.5208 -0.3915
21276SOL    HW166145  10.068   9.736   3.923  0.2944 -1.0544  0.4416
21276SOL    HW266146  10.213   9.774   3.947  0.0716 -0.6558  1.1866
21277SOL     OW66147   1.210   0.656   9.377  0.3378 -0.9572  0.3657
21277SOL    HW166148   1.149   0.679   9.447 -1.2556 -0.1026 -1.2424
21277SOL    HW266149   1.192   0.564   9.359 -2.0283 -0.2152 -1.4798
21278SOL     OW66150   9.222   6.498   8.644  0.1983 -0.3379  0.3379
21278SOL    HW166151   9.206   6.410   8.611  0.1995 -0.5960  1.0149
21278SOL    HW266152   9.285   6.487   8.715  1.7681  0.4348 -0.8768
21279SOL     OW66153   4.372   6.199   0.294 -0.1742 -0.0183 -0.0457
21279SOL    HW166154   4.278   6.220   0.297 -0.3502 -0.6124 -0.8900
21279SOL    HW266155   4.405   6.247   0.219  0.2904  0.4853  0.4718
21280SOL     OW66156   1.171   8.777   3.111 -0.0014 -1.0095  0.0599
21280SOL    HW166157   1.243   8.757   3.052 -0.1463  1.9096 -1.2609
21280SOL    HW266158   1.213   8.815   3.189 -0.0237  0.5370 -0.6418
21281SOL     OW66159   5.193   9.662   4.976 -0.2693 -0.1705 -0.5440
21281SOL    HW166160   5.180   9.617   4.893 -1.1410 -1.4597  0.2494
21281SOL    HW266161   5.129   9.734   4.975  0.7031  0.7037 -1.5604
21282SOL     OW66162   9.896   0.428   5.963  0.1933  0.2269  0.1192
21282SOL    HW166163   9.870   0.487   5.892  1.3144 -0.5569 -1.0136
21282SOL    HW266164   9.853   0.345   5.942  0.4891  0.0053  0.3811
21283SOL     OW66165   5.408   0.694   2.258  0.0855 -0.1187 -0.3834
21283SOL    HW166166   5.452   0.744   2.190  2.4645 -0.5777  0.7134
21283SOL    HW266167   5.434   0.737   2.340 -0.1557 -1.4054  0.3974
21284SOL     OW66168  10.003   6.784   3.965  0.6667 -0.1050 -0.2753
21284SOL    HW166169   9.909   6.768   3.953  0.2741  1.6933  0.1161
21284SOL    HW266170  10.011   6.816   4.054  1.1535  2.7119 -1.2152
21285SOL     OW66171  10.344   3.450   2.774 -0.1054  0.1101  0.4647
21285SOL    HW166172  10.308   3.379   2.722  2.1193 -1.7275  1.2673
21285SOL    HW266173  10.336   3.527   2.718  0.2571 -1.3594 -1.7295
21286SOL     OW66174   1.501   6.944   2.045  0.8911  0.0079  0.5436
21286SOL    HW166175   1.551   6.936   1.964  1.5287  0.5997  0.8764
21286SOL    HW266176   1.538   7.020   2.089 -0.0615  0.2345  0.9704
21287SOL     OW66177   7.961   4.858   9.206 -0.1216  0.2966  0.2751
21287SOL    HW166178   7.885   4.830   9.257 -0.7850  1.2480 -0.1831
21287SOL    HW266179   7.927   4.872   9.118  0.5757  0.7910  0.0795
21288SOL     OW66180   0.140   1.566   2.193  0.3193 -0.1771 -0.0288
21288SOL    HW166181   0.149   1.651   2.236  0.1204 -0.4050  0.4703
21288SOL    HW266182   0.159   1.583   2.101  1.3335  0.1982  0.2468
21289SOL     OW66183   5.775   3.899   2.109  0.0723 -0.4011  0.2732
21289SOL    HW166184   5.800   3.991   2.116 -0.3545 -0.3939  2.3853
21289SOL    HW266185   5.847   3.851   2.152  0.2601 -1.0739 -0.7421
21290SOL     OW66186   8.592   2.604   0.183 -0.4832  0.6039 -0.4112
21290SOL    HW166187   8.538   2.638   0.112  0.4894 -1.9156 -2.5337
21290SOL    HW266188   8.679   2.639   0.166 -0.1900 -0.2149 -0.6629
21291SOL     OW66189   8.286   1.548   8.664 -0.4814 -0.5049  0.8672
21291SOL    HW166190   8.249   1.625   8.707  1.0287 -0.2085  1.7317
21291SOL    HW266191   8.319   1.581   8.580  0.5959 -0.0611  1.4384
21292SOL     OW66192   8.124   9.827   4.424  0.1689  0.0882  0.2732
21292SOL    HW166193   8.088   9.759   4.480  0.8888 -1.2066 -0.7940
21292SOL    HW266194   8.188   9.782   4.369 -0.2707  1.3657 -1.3608
21293SOL     OW66195   4.229   2.488  10.334  0.5614  0.4920  0.1802
21293SOL    HW166196   4.206   2.411  10.282  0.1623 -1.3961  2.9444
21293SOL    HW266197   4.153   2.546  10.325 -0.0720 -0.3919 -0.2678
21294SOL     OW66198   1.043   2.046   4.890  0.1966  0.5832  0.3307
21294SOL    HW166199   1.131   2.045   4.930  0.2627  0.5534  0.1836
21294SOL    HW266200   1.007   1.960   4.911  0.4177  0.3861 -0.0907
21295SOL     OW66201   1.664   5.979   9.062  0.0286 -0.0558 -0.3974
21295SOL    HW166202   1.630   6.054   9.110  1.7550  1.9339 -2.0894
21295SOL    HW266203   1.629   5.989   8.974  1.2962 -0.5222 -0.9702
21296SOL     OW66204   5.598   4.944   9.627  0.6002  0.1953  0.0352
21296SOL    HW166205   5.670   4.982   9.679  1.0447  0.3373 -0.6681
21296SOL    HW266206   5.591   4.854   9.658  2.1816 -0.3246 -0.9826
21297SOL     OW66207   2.007   7.422   7.212 -0.3674 -0.4164 -0.2137
21297SOL    HW166208   1.979   7.349   7.267 -1.7541 -2.9604 -3.8990
21297SOL    HW266209   1.940   7.428   7.143  1.0051  2.7479 -1.5052
21298SOL     OW66210  10.242   5.171   3.444  0.1126  0.4865  0.5666
21298SOL    HW166211  10.179   5.153   3.375  0.1788  1.5975  0.1950
21298SOL    HW266212  10.325   5.136   3.411 -0.2596 -0.8041  0.9755
21299SOL     OW66213   7.709   6.285   5.872  0.1564  0.0392  0.0697
21299SOL    HW166214   7.687   6.211   5.816  1.2473  0.3054 -0.7549
21299SOL    HW266215   7.729   6.246   5.957 -0.0986 -0.5252 -0.1243
21300SOL     OW66216   0.600   9.924   5.366 -0.0456  0.3729 -0.1829
21300SOL    HW166217   0.689   9.935   5.399 -0.4050 -0.6351  1.2564
21300SOL    HW266218   0.544   9.941   5.442 -1.0161 -0.1844 -0.7452
21301SOL     OW66219   0.950   5.591   1.942  0.3574  0.0970 -0.2106
21301SOL    HW166220   0.862   5.554   1.955  0.7940 -2.0297 -2.4594
21301SOL    HW266221   0.981   5.611   2.030 -2.1507  0.4119  0.6897
21302SOL     OW66222   9.135   6.747   0.325 -0.1693 -0.3604 -0.0961
21302SOL    HW166223   9.105   6.762   0.235 -0.8803  0.4680  0.2757
21302SOL    HW266224   9.165   6.832   0.355 -0.1836 -0.5791  0.5518
21303SOL     OW66225   3.369   8.151   8.471  0.0039  0.3666  0.0034
21303SOL    HW166226   3.391   8.066   8.509  1.0773  0.8211  0.4548
21303SOL    HW266227   3.357   8.134   8.378  1.2627 -0.1265 -0.0988
21304SOL     OW66228   0.234   7.241   4.444 -0.4616 -0.4087 -0.8290
21304SOL    HW166229   0.191   7.256   4.528  0.3429 -0.5773 -0.3814
21304SOL    HW266230   0.218   7.321   4.394 -2.0714 -0.8259 -1.0159
21305SOL     OW66231   4.713   9.282   6.588 -0.0931 -0.0353  1.1452
21305SOL    HW166232   4.767   9.210   6.620 -0.0983  0.1266  1.5339
21305SOL    HW266233   4.718   9.277   6.493  0.8176  0.1322  1.1761
21306SOL     OW66234   5.156   3.436   6.905  0.2578 -0.2275  0.0308
21306SOL    HW166235   5.103   3.488   6.965  0.7074 -0.5838  0.7570
21306SOL    HW266236   5.093   3.396   6.845 -0.0953  1.0885 -0.5046
21307SOL     OW66237   1.441   1.970   8.243  0.9930  0.1118  0.3515
21307SOL    HW166238   1.400   1.893   8.284  0.3803  0.2184 -0.0459
21307SOL    HW266239   1.367   2.027   8.222  1.0465 -0.7449 -2.6280
21308SOL     OW66240   8.559  10.587   6.182 -0.1390 -0.0956 -0.3574
21308SOL    HW166241   8.608  10.566   6.102 -1.4150 -1.9880 -0.7129
21308SOL    HW266242   8.523  10.503   6.210  0.2748  0.5116  2.2395
21309SOL     OW66243   5.725   6.719   2.650  0.3999 -0.3267  0.3933
21309SOL    HW166244   5.798   6.761   2.695  0.2565 -0.3063  0.6136
21309SOL    HW266245   5.682   6.789   2.601 -0.1255 -0.1083  1.1421
21310SOL     OW66246   8.540   5.584   5.765  0.4832 -0.0417  0.3395
21310SOL    HW166247   8.489   5.570   5.685  3.1108 -1.9021 -1.1532
21310SOL    HW266248   8.599   5.656   5.744  0.4061  0.2303  1.0358
21311SOL     OW66249   0.434   2.306   3.671  0.3725 -0.4894  0.0457
21311SOL    HW166250   0.502   2.374   3.667  0.1188 -0.2692 -1.1443
21311SOL    HW266251   0.481   2.225   3.691  0.7505 -0.0629  0.9265
21312SOL     OW66252   4.350  10.540  10.107  0.1452 -0.2377 -0.4233
21312SOL    HW166253   4.273  10.504  10.064 -0.1350  0.3394 -0.4167
21312SOL    HW266254   4.412  10.558  10.036 -0.7565  1.8065 -0.7707
21313SOL     OW66255   4.616   6.023   8.227 -0.3265  1.0152  0.7713
21313SOL    HW166256   4.596   6.061   8.141  0.5986 -0.0285  0.0602
21313SOL    HW266257   4.680   6.084   8.265  1.2890  0.1721 -0.4361
21314SOL     OW66258   9.122   6.673   2.906  0.3744 -0.1832 -0.2030
21314SOL    HW166259   9.100   6.582   2.925 -1.2660  0.0615 -0.7714
21314SOL    HW266260   9.202   6.668   2.853  0.4135 -1.2637 -0.0671
21315SOL     OW66261   9.660   9.466   9.441  0.3787 -0.3385  0.4091
21315SOL    HW166262   9.671   9.495   9.350 -2.6110  0.8462  0.3282
21315SOL    HW266263   9.689   9.375   9.440 -0.8116 -0.7814 -2.0903
21316SOL     OW66264   2.190   4.754   4.554  0.6087 -0.0749  0.3661
21316SOL    HW166265   2.148   4.800   4.626  0.5778  0.5142 -0.0150
21316SOL    HW266266   2.192   4.819   4.483  1.1742 -0.4482  0.0350
21317SOL     OW66267   4.784   3.847   9.446  0.0056 -0.7351  0.2224
21317SOL    HW166268   4.818   3.877   9.362  1.5485 -2.5849  0.1053
21317SOL    HW266269   4.697   3.885   9.452  0.3632  0.4945 -1.6005
21318SOL     OW66270   3.976   1.227   0.328 -0.1023  0.4805 -0.0423
21318SOL    HW166271   4.022   1.188   0.254  0.1426 -1.1373  0.9204
21318SOL    HW266272   4.027   1.202   0.405 -1.4236  0.4224  0.8634
21319SOL     OW66273  10.576   8.264   0.738 -0.1444  0.1350  0.3223
21319SOL    HW166274  10.645   8.321   0.704  0.3454 -1.0475 -0.7384
21319SOL    HW266275  10.618   8.179   0.751 -1.4565 -0.7402 -0.7784
21320SOL     OW66276   7.421   4.814   0.012  0.3412  0.0506  0.0819
21320SOL    HW166277   7.465   4.856  -0.062  0.2268  0.6199  0.3279
21320SOL    HW266278   7.428   4.720  -0.005 -0.7192  0.1976 -1.2505
21321SOL     OW66279   1.966   7.037   4.520 -0.1369  0.5181 -0.4584
21321SOL    HW166280   1.883   7.019   4.477  0.1265 -0.3167 -0.6287
21321SOL    HW266281   1.942   7.054   4.612 -0.5208  0.5869 -0.5688
21322SOL     OW66282   8.837   0.298   8.078  0.1571 -0.1593 -0.1446
21322SOL    HW166283   8.930   0.287   8.058 -0.0456 -0.3335 -1.0517
21322SOL    HW266284   8.834   0.378   8.131  0.7994  0.0212 -0.3609
21323SOL     OW66285   7.368   4.437   4.296 -0.0574 -0.3036 -0.1386
21323SOL    HW166286   7.435   4.488   4.341 -0.1503 -1.5122  1.4755
21323SOL    HW266287   7.334   4.378   4.363 -2.0877 -0.3720 -1.1516
21324SOL     OW66288   2.070   5.140   6.087  0.1715 -0.1358  0.2994
21324SOL    HW166289   2.125   5.069   6.054  1.6846  0.4385  1.4430
21324SOL    HW266290   2.121   5.178   6.159 -0.5359  2.1291 -0.3074
21325SOL     OW66291   5.558   5.132  10.024  0.1802 -0.5986 -0.0561
21325SOL    HW166292   5.579   5.224  10.005 -0.5470 -0.6163 -1.0691
21325SOL    HW266293   5.463   5.126  10.010 -0.0148 -1.1941  1.4034
21326SOL     OW66294   2.889   4.498   2.023 -0.2273 -0.0590  0.0366
21326SOL    HW166295   2.793   4.501   2.023 -0.2108  1.0852  0.4848
21326SOL    HW266296   2.910   4.405   2.017 -1.3694 -0.3437  0.1527
21327SOL     OW66297   9.777   0.299   6.521  0.0465 -0.2441  0.5197
21327SOL    HW166298   9.863   0.267   6.492  0.3116  1.6380 -0.9353
21327SOL    HW266299   9.722   0.221   6.520  1.1050 -1.0469 -1.0924
21328SOL     OW66300   8.246   3.038   8.327 -0.1895  0.0061  0.5296
21328SOL    HW166301   8.257   2.999   8.414 -2.0266 -0.9298  0.3996
21328SOL    HW266302   8.328   3.085   8.311  0.3896 -0.2065  2.5494
21329SOL     OW66303   7.988   5.420   3.114 -0.2279 -0.0040 -0.4155
21329SOL    HW166304   7.992   5.503   3.162 -0.6041  0.9083 -1.8906
21329SOL    HW266305   7.906   5.425   3.064 -1.5784 -2.4012  1.3763
21330SOL     OW66306   8.872   5.196   7.213  0.5711 -0.0173  0.0175
21330SOL    HW166307   8.913   5.180   7.127  1.0502 -0.6169  0.3485
21330SOL    HW266308   8.930   5.152   7.275 -1.5918 -2.6710  0.3348
21331SOL     OW66309   2.893   0.072   5.275  0.6554 -0.0591 -0.2415
21331SOL    HW166310   2.909   0.166   5.283  0.3814 -0.0156 -0.2070
21331SOL    HW266311   2.899   0.039   5.365 -0.3995  0.1110 -0.0927
21332SOL     OW66312   3.229   3.108   7.826  0.1900  0.3941 -0.1412
21332SOL    HW166313   3.149   3.057   7.813  0.2375  0.0507  0.8311
21332SOL    HW266314   3.257   3.086   7.915  1.4724  0.3753 -0.5368
21333SOL     OW66315   3.112   5.555   8.420 -0.2705  0.0815  0.2092
21333SOL    HW166316   3.061   5.526   8.496  1.4159 -0.4262  1.2170
21333SOL    HW266317   3.151   5.475   8.386  3.0362  0.7593  1.9529
21334SOL     OW66318   0.277   5.744   9.620  0.4800  0.2487 -0.0923
21334SOL    HW166319   0.324   5.796   9.555  0.0043 -0.5300 -1.0913
21334SOL    HW266320   0.282   5.654   9.587 -1.2501  0.0663  0.0344
21335SOL     OW66321   1.837   8.544  10.095 -0.4994 -0.5485 -0.3671
21335SOL    HW166322   1.805   8.481  10.031 -1.8338 -0.6670  0.3858
21335SOL    HW266323   1.775   8.617  10.090  0.3114  0.1563 -0.3470
21336SOL     OW66324   4.843   6.167   9.032  0.4886 -0.0704 -0.3441
21336SOL    HW166325   4.749   6.172   9.015  0.3093 -1.2495  0.2341
21336SOL    HW266326   4.850   6.140   9.123  1.3869 -0.1986 -0.4402
21337SOL     OW66327   3.155   6.572   9.709 -0.2284  0.5940  0.2852
21337SOL    HW166328   3.250   6.584   9.707 -0.4497  2.6971 -0.8233
21337SOL    HW266329   3.141   6.494   9.763  2.1428 -0.1562 -0.1007
21338SOL     OW66330   8.243   5.796   9.146 -0.6642  0.2740  0.0600
21338SOL    HW166331   8.298   5.872   9.166  0.9437 -0.8617  0.2207
21338SOL    HW266332   8.222   5.805   9.053 -0.0864  0.6994 -0.0378
21339SOL     OW66333   8.445   4.260   4.084 -0.2500 -0.2977  0.0860
21339SOL    HW166334   8.460   4.324   4.154 -2.2614  1.8648 -1.3093
21339SOL    HW266335   8.531   4.246   4.045  0.2868  1.3793  0.5958
21340SOL     OW66336   7.926   8.993   1.408  0.1066 -0.2588  0.1904
21340SOL    HW166337   8.008   8.946   1.423  0.4798 -0.0538 -1.1010
21340SOL    HW266338   7.920   9.054   1.480  1.9086  0.8174 -0.5081
21341SOL     OW66339   6.782   1.265   5.226  1.2221  0.2491 -0.0773
21341SOL    HW166340   6.822   1.183   5.255  0.2636 -0.0657  0.4057
21341SOL    HW266341   6.752   1.307   5.306 -0.4016 -0.0695 -0.4801
21342SOL     OW66342   1.800   5.909   9.745  0.0743  0.1390  0.0077
21342SOL    HW166343   1.762   5.823   9.762  1.6090 -0.6601 -0.4549
21342SOL    HW266344   1.725   5.963   9.718 -0.5073 -1.9510 -3.0879
21343SOL     OW66345   1.737   7.130   6.833 -0.0073 -0.1065  0.1535
21343SOL    HW166346   1.651   7.168   6.814 -0.3296 -1.1521 -0.5778
21343SOL    HW266347   1.722   7.035   6.834  1.0998 -0.2998  0.1678
21344SOL     OW66348   6.511   6.584   1.814  0.0726 -0.2164  0.3787
21344SOL    HW166349   6.496   6.490   1.822  0.3777 -0.7030 -3.3478
21344SOL    HW266350   6.598   6.597   1.853  0.2541 -1.5542  0.4906
21345SOL     OW66351   7.554   0.644   0.836 -0.1911 -0.2933 -0.0847
21345SOL    HW166352   7.582   0.691   0.915 -0.7518 -2.0210  1.2053
21345SOL    HW266353   7.459   0.638   0.843 -0.1410 -1.6021 -0.1846
21346SOL     OW66354   2.504   1.090   0.478  0.0205 -0.0648 -0.3141
21346SOL    HW166355   2.522   1.167   0.532 -0.4383  0.9031 -1.5229
21346SOL    HW266356   2.519   1.016   0.538  0.7845  0.9265  0.7763
21347SOL     OW66357   6.020   1.480   0.364 -0.2142  0.1082  0.1371
21347SOL    HW166358   6.071   1.536   0.307 -1.4775  0.9618 -0.1864
21347SOL    HW266359   6.036   1.391   0.332 -1.3716  0.6040 -1.9751
21348SOL     OW66360   3.180   6.534   2.507 -0.1092  0.8026 -0.3240
21348SOL    HW166361   3.097   6.582   2.501  0.8613  2.5168 -0.8187
21348SOL    HW266362   3.243   6.600   2.537  0.6608 -1.0200  2.3885
21349SOL     OW66363   7.318   1.963  10.478 -0.3230  0.2910  0.3382
21349SOL    HW166364   7.362   1.906  10.415 -0.1254  0.6338  0.1567
21349SOL    HW266365   7.387   1.989  10.539 -0.6680 -0.6003  1.1134
21350SOL     OW66366   5.869   9.559   6.927  0.7971 -0.4854 -0.1673
21350SOL    HW166367   5.958   9.531   6.909  0.9074  0.2480 -0.8720
21350SOL    HW266368   5.828   9.564   6.840  0.5473  0.6633 -0.0064
21351SOL     OW66369   9.457   7.651   0.102 -0.0965 -0.2307  0.3254
21351SOL    HW166370   9.519   7.694   0.161  0.0942  1.0235 -0.7246
21351SOL    HW266371   9.382   7.711   0.098  1.1348  1.3316 -2.9840
21352SOL     OW66372   5.422   3.399   7.264  0.5632 -0.5327  0.4010
21352SOL    HW166373   5.469   3.321   7.292 -1.3848 -1.0784  2.5282
21352SOL    HW266374   5.358   3.414   7.334 -0.7439  1.5569 -1.1198
21353SOL     OW66375   2.556   2.181   8.002  0.5991  0.2616  0.5335
21353SOL    HW166376   2.637   2.200   7.955  0.3563  3.7461  1.2233
21353SOL    HW266377   2.492   2.160   7.934  1.2718  0.9526 -0.3297
21354SOL     OW66378   3.572   8.415  10.155 -0.0073 -0.1033 -0.4759
21354SOL    HW166379   3.545   8.392  10.244  3.2633 -2.8393 -0.0066
21354SOL    HW266380   3.549   8.338  10.102 -0.8793  1.0310 -1.8357
21355SOL     OW66381   3.529   0.172   1.284 -0.4749 -0.0467 -1.2128
21355SOL    HW166382   3.538   0.080   1.260 -0.6524 -0.8633  1.5267
21355SOL    HW266383   3.599   0.187   1.347 -1.8938  0.9806  0.1996
21356SOL     OW66384   0.854   8.011   3.262 -0.0089  0.2512  0.0893
21356SOL    HW166385   0.862   8.078   3.194  3.1186 -0.9237 -0.8861
21356SOL    HW266386   0.804   7.940   3.220 -0.9046  0.8028  0.1871
21357SOL     OW66387   9.384   4.331   8.290  0.3375 -0.1299  0.3905
21357SOL    HW166388   9.474   4.299   8.293  0.4398  0.1027 -0.0675
21357SOL    HW266389   9.330   4.253   8.302  0.5840  0.1002  4.0969
21358SOL     OW66390   3.731   1.337   7.909 -0.3257  0.0929 -0.0790
21358SOL    HW166391   3.827   1.334   7.901 -0.3497 -0.6136 -0.1744
21358SOL    HW266392   3.711   1.430   7.917  0.3051  0.3165 -0.9004
21359SOL     OW66393  10.149   2.572   8.554 -0.1470  0.7409  0.8555
21359SOL    HW166394  10.078   2.554   8.492  1.5364  0.0253 -1.0030
21359SOL    HW266395  10.181   2.485   8.579 -0.3476  1.0419  2.2376
21360SOL     OW66396  10.526   9.708  10.084 -0.1906  0.1286 -0.6842
21360SOL    HW166397  10.604   9.685  10.134 -0.1268 -0.0272 -0.8513
21360SOL    HW266398  10.546   9.680   9.994  0.4998  2.1733 -1.2322
21361SOL     OW66399   9.649   6.661   9.310  0.3156  0.0443 -0.2658
21361SOL    HW166400   9.631   6.724   9.239  0.7907  0.5969  0.0906
21361SOL    HW266401   9.732   6.620   9.284  0.2006 -0.1625 -0.3072
21362SOL     OW66402   6.803   2.917   1.110  0.0322  0.1329  0.1582
21362SOL    HW166403   6.749   2.942   1.184  0.0511  2.0599 -0.4353
21362SOL    HW266404   6.741   2.907   1.037  0.3670  1.6919 -0.3653
21363SOL     OW66405   1.169   3.043   9.028 -0.2790  0.9067  0.1580
21363SOL    HW166406   1.153   3.031   8.934 -0.1083 -0.6507  0.3031
21363SOL    HW266407   1.230   3.116   9.033 -1.1212  1.7149 -0.8654
21364SOL     OW66408   5.643   0.952  10.230 -0.0837 -0.0435 -0.1197
21364SOL    HW166409   5.632   0.967  10.136  0.8411 -0.2217 -0.2693
21364SOL    HW266410   5.737   0.958  10.244  0.3039 -3.8043  0.0881
21365SOL     OW66411   0.473   9.775   7.084 -0.4156  0.0338  0.0133
21365SOL    HW166412   0.557   9.749   7.046 -0.2031  0.0115  0.4846
21365SOL    HW266413   0.458   9.863   7.051 -0.7617 -0.3756 -0.9750
21366SOL     OW66414   8.055   4.585   6.048 -0.7269 -0.2102  0.3364
21366SOL    HW166415   8.014   4.501   6.063  0.0796 -1.2642 -2.5529
21366SOL    HW266416   8.147   4.572   6.071 -0.7015  0.0150  0.3660
21367SOL     OW66417   3.554   4.200   4.173  0.2869  0.1746 -0.1556
21367SOL    HW166418   3.620   4.262   4.143  0.0524  0.0335 -0.9991
21367SOL    HW266419   3.592   4.114   4.154 -0.3762  0.0959 -1.2244
21368SOL     OW66420   9.638   3.993   1.368 -0.3010  0.1080  0.3272
21368SOL    HW166421   9.586   4.065   1.332 -1.4856 -1.1682 -0.6586
21368SOL    HW266422   9.627   3.922   1.304 -0.4676 -1.4613  2.0193
21369SOL     OW66423   4.464   5.833   5.959 -0.5330 -0.0936  0.1829
21369SOL    HW166424   4.465   5.797   6.048 -1.9814 -0.3234  0.1232
21369SOL    HW266425   4.472   5.928   5.972 -0.8510 -0.1176  0.5758
21370SOL     OW66426   3.904  10.164   2.987  0.4582 -0.0740  0.4531
21370SOL    HW166427   3.987  10.140   2.945 -0.2928  0.6932 -1.5778
21370SOL    HW266428   3.837  10.120   2.935 -0.4786  0.1288  1.4494
21371SOL     OW66429   6.507   1.239  10.345 -0.6730  0.1697 -0.4224
21371SOL    HW166430   6.438   1.306  10.343 -0.3351  0.5088 -0.8072
21371SOL    HW266431   6.568   1.265  10.276  0.0421  0.0793  0.1637
21372SOL     OW66432   1.962   6.813   8.624  0.1394  0.2295  0.0689
21372SOL    HW166433   2.043   6.789   8.579  1.6700  2.5442  1.3856
21372SOL    HW266434   1.951   6.745   8.691  0.2897 -0.7673 -0.8924
21373SOL     OW66435   9.522   6.825   5.629 -0.3413 -0.2427 -0.1097
21373SOL    HW166436   9.503   6.835   5.535 -0.6310 -1.1846 -0.1573
21373SOL    HW266437   9.617   6.812   5.633 -0.4074 -0.8118 -0.3268
21374SOL     OW66438  10.220   4.260  10.555 -0.1400  0.3712 -0.0651
21374SOL    HW166439  10.268   4.281  10.475  0.6701  1.4066  0.6704
21374SOL    HW266440  10.285   4.269  10.625 -0.6993 -0.9970  0.6851
21375SOL     OW66441   7.271  10.065   0.573 -0.2688 -0.2575 -0.4423
21375SOL    HW166442   7.301  10.147   0.535 -1.2547  0.4210  0.2031
21375SOL    HW266443   7.263  10.082   0.667  0.7909 -1.4956 -0.1021
21376SOL     OW66444   4.030   3.830   0.609 -0.0497 -0.3693 -0.2243
21376SOL    HW166445   3.943   3.790   0.607  0.0005 -0.4624 -0.7403
21376SOL    HW266446   4.055   3.836   0.517  1.5907 -2.7278 -0.0136
21377SOL     OW66447   8.652   6.273   3.583 -0.1481  0.0675  0.3163
21377SOL    HW166448   8.724   6.218   3.550 -0.3228 -0.3092  0.5502
21377SOL    HW266449   8.677   6.362   3.559 -0.2126 -0.1844 -0.7278
21378SOL     OW66450   8.034   5.353   9.951 -0.1672  0.1249 -0.7425
21378SOL    HW166451   7.990   5.437   9.941  0.8344  0.7975  0.2025
21378SOL    HW266452   8.128   5.374   9.950  0.1364 -1.1517 -1.8264
21379SOL     OW66453   8.090   6.011   2.900  0.4113 -0.4011  0.5404
21379SOL    HW166454   8.089   5.921   2.868 -0.1422 -0.2847  0.2105
21379SOL    HW266455   8.048   6.006   2.986  0.2903 -0.4448  0.4794
21380SOL     OW66456   0.046   1.254   5.697  0.0108  1.0161  0.4306
21380SOL    HW166457   0.097   1.202   5.634  0.9964 -0.3276  2.2300
21380SOL    HW266458  -0.002   1.188   5.747 -1.2625  2.1026  0.6599
21381SOL     OW66459   6.654   6.653  10.331  0.1642 -0.3430  1.3905
21381SOL    HW166460   6.639   6.673  10.238  1.1255 -1.4654  0.9635
21381SOL    HW266461   6.570   6.621  10.362 -0.7683  1.9694  1.4941
21382SOL     OW66462   3.677   3.295   8.391 -0.0605 -0.1317  0.3268
21382SOL    HW166463   3.687   3.201   8.403 -0.3453 -0.1552  0.3716
21382SOL    HW266464   3.673   3.308   8.296 -2.8689 -0.4593  0.3283
21383SOL     OW66465   4.319   1.212   1.705  0.0365 -0.0481  0.1448
21383SOL    HW166466   4.412   1.226   1.721  0.1143 -0.8926  0.4413
21383SOL    HW266467   4.283   1.189   1.791  0.0162 -2.1837 -0.3975
21384SOL     OW66468   0.798   7.567   9.228 -0.1776  0.0942 -0.0040
21384SOL    HW166469   0.788   7.657   9.195 -0.2550 -0.4612 -1.5885
21384SOL    HW266470   0.784   7.574   9.322 -2.3462  1.4435 -0.3504
21385SOL     OW66471   4.967   4.316   3.729 -0.1174 -0.2273 -0.0786
21385SOL    HW166472   5.032   4.381   3.757 -0.8992  0.5574 -0.0535
21385SOL    HW266473   4.948   4.265   3.808  0.9492 -0.9040 -0.2396
21386SOL     OW66474   9.658   4.268   8.285  0.2893 -0.2720 -0.8833
21386SOL    HW166475   9.712   4.192   8.262 -1.2198 -1.8987  0.5726
21386SOL    HW266476   9.721   4.335   8.310  1.7211 -1.9684  0.4155
21387SOL     OW66477   3.441   2.570   3.480  0.4189  0.6632  0.2678
21387SOL    HW166478   3.434   2.654   3.436  0.0128 -0.9263 -2.9969
21387SOL    HW266479   3.351   2.542   3.496  0.3018 -0.9418 -2.6198
21388SOL     OW66480   9.239   9.077   0.095  0.0471  0.0691  0.2191
21388SOL    HW166481   9.296   9.054   0.168  0.7528 -3.1704 -1.1719
21388SOL    HW266482   9.150   9.073   0.131  0.3627 -1.8205  0.9069
21389SOL     OW66483   4.483   8.011   8.582  0.4021  0.1532  0.5425
21389SOL    HW166484   4.576   8.029   8.596  0.7526 -1.6158  0.7744
21389SOL    HW266485   4.481   7.921   8.549 -1.1346  0.6820 -0.9716
21390SOL     OW66486   6.333   5.372   9.981 -0.3135 -0.1738 -0.4578
21390SOL    HW166487   6.354   5.361  10.074  0.0099 -0.5213 -0.5699
21390SOL    HW266488   6.306   5.285   9.953  2.1081 -0.7282 -1.3195
21391SOL     OW66489   2.337   4.553   1.229  0.3406  0.0088 -0.1370
21391SOL    HW166490   2.362   4.601   1.150  1.8141  1.0938  0.9426
21391SOL    HW266491   2.358   4.612   1.301 -2.3957 -0.3145  1.0734
21392SOL     OW66492   3.877   3.488   8.479 -0.6686  0.1944 -0.0111
21392SOL    HW166493   3.796   3.439   8.472 -0.8479  0.6933 -2.2822
21392SOL    HW266494   3.853   3.578   8.456  0.5460  0.2847 -1.0688
21393SOL     OW66495   9.725   8.981   6.809 -0.1699  0.5250  0.0304
21393SOL    HW166496   9.775   9.027   6.876  0.5437 -1.6435  1.0946
21393SOL    HW266497   9.634   8.993   6.834 -0.0523  1.8253 -0.0907
21394SOL     OW66498   5.956   6.819   8.030  0.1933  0.1827  0.3719
21394SOL    HW166499   5.987   6.910   8.031 -0.7236  0.5002  0.8225
21394SOL    HW266500   5.876   6.821   7.978  0.9619 -0.6604 -0.9015
21395SOL     OW66501   2.279   2.381   4.776  0.3036 -0.0223 -0.4665
21395SOL    HW166502   2.346   2.402   4.842  2.0637 -2.0782 -1.4902
21395SOL    HW266503   2.220   2.322   4.821 -0.1432  0.8077  0.0693
21396SOL     OW66504   5.365   7.611   8.479 -0.1694 -0.3455 -0.0228
21396SOL    HW166505   5.321   7.649   8.403 -1.5146 -0.3983  0.6910
21396SOL    HW266506   5.293   7.589   8.539  0.7465 -1.7619  0.5959
21397SOL     OW66507   8.594   3.048   4.762 -0.8012 -0.3991  0.6496
21397SOL    HW166508   8.666   3.021   4.705 -0.8909 -1.5799  1.0875
21397SOL    HW266509   8.518   3.051   4.705 -0.6062 -0.1390  0.4010
21398SOL     OW66510   4.675   0.599   7.399  0.2899  0.4036  0.0522
21398SOL    HW166511   4.666   0.691   7.373  1.6843 -0.0369 -2.2294
21398SOL    HW266512   4.611   0.552   7.346  0.1176 -0.0402  0.6436
21399SOL     OW66513  10.530   7.763   3.186  0.3778 -0.0415 -0.0034
21399SOL    HW166514  10.559   7.672   3.190 -1.9428 -0.9097 -1.0747
21399SOL    HW266515  10.469   7.773   3.259  2.1782  1.3474  1.4036
21400SOL     OW66516   0.493   0.280   3.273 -0.8777 -0.3777  0.1556
21400SOL    HW166517   0.433   0.211   3.301  0.6983 -2.3146 -0.9775
21400SOL    HW266518   0.483   0.283   3.177 -0.5210  0.5742  0.1417
21401SOL     OW66519   0.947   2.892   2.976  1.2031  0.4482  0.1133
21401SOL    HW166520   1.025   2.904   3.030  1.5603 -0.6420 -0.1443
21401SOL    HW266521   0.966   2.815   2.923  1.1763  1.9399 -2.1599
21402SOL     OW66522   5.838   5.445   5.102  0.1143  0.1260 -0.0779
21402SOL    HW166523   5.773   5.408   5.042  0.3238 -0.1912 -0.1086
21402SOL    HW266524   5.786   5.497   5.163 -0.2441 -0.6956  0.3291
21403SOL     OW66525   6.019   5.927  10.282  0.0833  0.7382 -0.2749
21403SOL    HW166526   5.932   5.963  10.298  0.1425  1.0411 -0.6158
21403SOL    HW266527   6.067   5.998  10.239  0.8010  0.9231  0.7745
21404SOL     OW66528   2.685   6.188   0.963 -0.0925  0.2705 -0.2360
21404SOL    HW166529   2.702   6.094   0.969 -1.1320  0.1346  1.5267
21404SOL    HW266530   2.760   6.224   0.916  2.5471 -0.9288  2.6675
21405SOL     OW66531   3.401   2.722   0.299  0.4645  0.0059 -0.9477
21405SOL    HW166532   3.432   2.636   0.271  0.5918 -1.4865  3.1239
21405SOL    HW266533   3.481   2.770   0.322  0.3535  1.1605 -2.6914
21406SOL     OW66534   4.287   1.515   1.214  0.3363 -0.3977  0.1308
21406SOL    HW166535   4.256   1.591   1.264  1.5878  0.6666 -0.6232
21406SOL    HW266536   4.282   1.544   1.122 -0.8158 -1.8823 -0.3092
21407SOL     OW66537   6.065   6.705   3.068  0.0931 -0.6026 -0.2019
21407SOL    HW166538   6.010   6.751   3.005  0.9070 -0.7415 -1.0380
21407SOL    HW266539   6.006   6.682   3.140 -0.6160  0.5266 -0.4081
21408SOL     OW66540   4.850   4.424   6.730  0.1775 -0.5652 -0.2658
21408SOL    HW166541   4.770   4.372   6.742  1.3542 -2.1178  1.3000
21408SOL    HW266542   4.851   4.484   6.804  1.6900 -2.3062  1.2052
21409SOL     OW66543   8.442   8.474   2.767  0.1141  0.3357 -0.1291
21409SOL    HW166544   8.496   8.486   2.689  1.9511 -0.6198  0.9275
21409SOL    HW266545   8.353   8.496   2.738  0.7811  0.3637 -2.3712
21410SOL     OW66546   8.710   7.403   2.038  0.0691  0.0078  0.3374
21410SOL    HW166547   8.648   7.462   1.997  0.1882 -0.7105 -0.9123
21410SOL    HW266548   8.758   7.363   1.965 -0.0891 -1.7166  1.1316
21411SOL     OW66549   7.639   2.645   7.325  0.4955 -0.6789 -0.2192
21411SOL    HW166550   7.721   2.660   7.372  0.0753  0.3172  0.2265
21411SOL    HW266551   7.574   2.628   7.393 -0.4350  2.2409 -0.2587
21412SOL     OW66552   3.324   0.857   4.430 -0.2439  0.3892 -0.5846
21412SOL    HW166553   3.289   0.770   4.408 -0.4548 -0.0510  1.2946
21412SOL    HW266554   3.382   0.841   4.504 -1.8125  2.0716  1.1036
21413SOL     OW66555   3.533   9.447   4.552 -0.0093  0.2759  0.0749
21413SOL    HW166556   3.618   9.405   4.536 -0.2298 -1.6457  3.1237
21413SOL    HW266557   3.469   9.383   4.522 -0.6588  2.6217 -4.3936
21414SOL     OW66558   9.076   5.593   0.875  0.2059  0.3479 -0.3611
21414SOL    HW166559   9.008   5.541   0.834  0.8006 -0.4022 -0.4160
21414SOL    HW266560   9.035   5.679   0.889 -0.1421  0.5321 -2.1707
21415SOL     OW66561   6.946   0.902   0.848 -0.4542 -0.0227  0.0681
21415SOL    HW166562   6.930   0.995   0.862  0.3590  0.4963 -1.9851
21415SOL    HW266563   7.038   0.898   0.819 -0.7085 -1.3601 -0.6437
21416SOL     OW66564   3.494   2.202   1.000  0.5344  0.1648 -0.4179
21416SOL    HW166565   3.480   2.145   0.924  1.2107  1.1722 -1.3170
21416SOL    HW266566   3.579   2.175   1.035  0.0958 -0.4913  0.1771
21417SOL     OW66567   7.959   2.825   5.616 -0.3262  0.0416 -0.2702
21417SOL    HW166568   7.894   2.796   5.553  1.5666 -1.7879 -1.5041
21417SOL    HW266569   7.980   2.747   5.667 -0.5142  1.0687  1.4864
21418SOL     OW66570   3.721   6.552   0.118 -0.0096 -0.5493  0.0760
21418SOL    HW166571   3.718   6.490   0.045  2.8404 -2.5948  1.4673
21418SOL    HW266572   3.810   6.586   0.116 -0.5904  1.1565  1.2554
21419SOL     OW66573   1.083   8.330   2.893  0.2034  0.2500 -0.1381
21419SOL    HW166574   1.155   8.374   2.937  0.7026 -1.1757  0.5146
21419SOL    HW266575   1.014   8.397   2.886  0.2016  0.6081  2.5912
21420SOL     OW66576   8.472   8.831   0.267  0.1890  0.3932  0.4431
21420SOL    HW166577   8.439   8.907   0.317 -0.5924  0.3008  0.0822
21420SOL    HW266578   8.393   8.782   0.244  0.7088 -0.6683  0.8770
21421SOL     OW66579   5.679   3.558  10.491 -0.1191  0.0285  0.4958
21421SOL    HW166580   5.672   3.594  10.580  0.8074 -0.0320  0.5955
21421SOL    HW266581   5.635   3.624  10.436  0.0926  0.5055  0.8851
21422SOL     OW66582   3.989   6.595   1.460 -0.3974  0.1224 -0.1650
21422SOL    HW166583   4.021   6.579   1.549 -1.4275  1.7928  0.5522
21422SOL    HW266584   4.024   6.681   1.437 -2.3104  0.9238 -0.2856
21423SOL     OW66585   3.562   1.944   9.819  0.6008  0.3886  0.3665
21423SOL    HW166586   3.488   2.003   9.807  0.8510  0.6412  0.0499
21423SOL    HW266587   3.542   1.869   9.764  0.7334  0.6039  0.0212
21424SOL     OW66588   3.437   0.961   1.535 -0.4263 -0.0397  0.1265
21424SOL    HW166589   3.463   0.898   1.468 -0.2196  0.2996 -0.1179
21424SOL    HW266590   3.482   1.042   1.511 -1.8746  0.6371 -0.4305
21425SOL     OW66591   9.466   1.153   3.589 -0.3827 -0.0942 -0.4137
21425SOL    HW166592   9.557   1.179   3.579 -0.6976  0.7106 -1.3557
21425SOL    HW266593   9.454   1.145   3.684  0.0031  2.3494 -0.0939
21426SOL     OW66594   2.426   3.139   5.152 -0.4952 -0.6919  0.0945
21426SOL    HW166595   2.380   3.060   5.179 -1.9180  0.1134  0.1430
21426SOL    HW266596   2.357   3.195   5.116  0.6103  0.1968 -0.6958
21427SOL     OW66597   7.703   5.421   3.822 -0.1447 -0.0707 -0.4043
21427SOL    HW166598   7.754   5.494   3.786  0.2473 -0.6393 -1.0248
21427SOL    HW266599   7.758   5.387   3.892 -0.0872 -0.1042 -0.4654
21428SOL     OW66600   3.611   4.238   2.201 -0.6260  0.2096  0.1288
21428SOL    HW166601   3.623   4.143   2.198  0.0156  0.2911 -0.0461
21428SOL    HW266602   3.546   4.256   2.132  1.0155  0.1399 -1.5270
21429SOL     OW66603   0.708   1.154   4.942  0.1538 -0.3147 -0.2632
21429SOL    HW166604   0.729   1.141   5.034 -2.2411 -0.0050  0.3991
21429SOL    HW266605   0.613   1.145   4.937  0.2419 -0.6565 -2.7796
21430SOL     OW66606   8.688   2.338   3.498 -0.0303 -0.4351 -0.0660
21430SOL    HW166607   8.705   2.256   3.452 -0.2995  0.1114 -1.1813
21430SOL    HW266608   8.767   2.355   3.548  0.4496 -0.8404 -0.6767
21431SOL     OW66609   9.948   0.662   8.607 -0.7724  0.0196 -0.3247
21431SOL    HW166610  10.010   0.736   8.604 -0.7510 -0.0315 -1.1661
21431SOL    HW266611   9.982   0.606   8.676 -0.1612  0.2459 -0.4351
21432SOL     OW66612   2.421   6.062   3.006 -0.1713 -0.4782  0.3188
21432SOL    HW166613   2.367   6.110   2.943 -0.2954 -1.2263 -0.1622
21432SOL    HW266614   2.380   6.078   3.091 -1.0950 -0.9439 -0.0233
21433SOL     OW66615   7.213   5.613   2.721 -0.6116  0.0529 -0.2433
21433SOL    HW166616   7.178   5.586   2.636  1.3187 -2.5868 -0.3312
21433SOL    HW266617   7.301   5.646   2.702 -0.7146  0.8358  0.5774
21434SOL     OW66618   5.648   5.646  10.102 -0.1640  0.0323  0.5046
21434SOL    HW166619   5.600   5.716  10.147 -1.3034 -0.6301  0.3738
21434SOL    HW266620   5.732   5.685  10.080 -0.0966  0.8043  1.9857
21435SOL     OW66621   2.319   7.021   7.465 -0.5171  0.1204  0.0937
21435SOL    HW166622   2.250   6.979   7.516 -0.8842 -0.2070 -0.6492
21435SOL    HW266623   2.286   7.110   7.448 -1.2475 -0.3488 -1.1207
21436SOL     OW66624   1.628   8.690   8.853  0.0613 -0.2818 -0.0750
21436SOL    HW166625   1.713   8.652   8.835  0.0745  0.2543 -1.2635
21436SOL    HW266626   1.647   8.772   8.899  0.0070 -1.9523  3.2237
21437SOL     OW66627   4.204   3.554   0.452 -0.1077  0.2547  0.0847
21437SOL    HW166628   4.246   3.527   0.534 -1.2303  0.8635  0.8848
21437SOL    HW266629   4.273   3.546   0.387  0.1075 -2.9028  0.5323
21438SOL     OW66630   5.340   1.614   1.264 -0.3333 -0.1283  0.5373
21438SOL    HW166631   5.431   1.643   1.263  0.0476 -0.9921  2.8353
21438SOL    HW266632   5.298   1.666   1.196  1.8606  0.2794 -0.6110
21439SOL     OW66633   2.023   0.901   9.750  0.1999  0.1326  0.2079
21439SOL    HW166634   2.106   0.878   9.709 -0.1499  0.0280 -0.4554
21439SOL    HW266635   2.022   0.997   9.749  0.1105  0.1321 -0.2205
21440SOL     OW66636   5.313   1.967   1.780 -0.1266  0.0080  0.2756
21440SOL    HW166637   5.348   1.978   1.868  2.6124  1.4612 -0.8711
21440SOL    HW266638   5.386   1.930   1.730 -1.3296  0.0321 -1.5897
21441SOL     OW66639   2.484   6.057   2.571  0.5270 -0.0755 -0.0782
21441SOL    HW166640   2.551   6.121   2.596  1.2795 -1.1150  0.6670
21441SOL    HW266641   2.506   6.034   2.481  0.1843  0.7830 -0.3907
21442SOL     OW66642   0.244   8.515   7.150  0.7278  0.3161 -0.1635
21442SOL    HW166643   0.284   8.437   7.188  3.0742  1.2725 -0.4636
21442SOL    HW266644   0.182   8.482   7.086  1.2142 -1.3021  0.1716
21443SOL     OW66645   5.662   0.083   3.031  0.0322  0.6823  0.5629
21443SOL    HW166646   5.696   0.004   3.072  2.6940  1.9442  0.9853
21443SOL    HW266647   5.649   0.058   2.939 -0.8562 -0.6920  1.0304
21444SOL     OW66648   4.613   2.748   5.036 -0.0337  0.1272 -0.2736
21444SOL    HW166649   4.656   2.776   4.955  0.6912 -0.1047  0.0202
21444SOL    HW266650   4.626   2.821   5.096 -0.5400  0.2843 -0.3526
21445SOL     OW66651   7.572   5.750   1.181  0.4545 -0.3526  0.0846
21445SOL    HW166652   7.561   5.788   1.093  0.9285 -1.7481 -0.6099
21445SOL    HW266653   7.537   5.816   1.240 -0.2424  0.4585 -1.1835
21446SOL     OW66654   3.857   4.984  10.405 -0.4451 -0.8504  0.3934
21446SOL    HW166655   3.882   4.916  10.343  0.4452 -0.1179 -0.0780
21446SOL    HW266656   3.773   5.017  10.373  1.2572  1.4448 -2.1507
21447SOL     OW66657   4.701   1.290   4.264 -0.1209 -0.1105  0.2908
21447SOL    HW166658   4.643   1.216   4.246  1.6859 -1.0750 -2.1364
21447SOL    HW266659   4.770   1.254   4.319  0.1093  0.0587  0.1176
21448SOL     OW66660   3.496   8.832   5.992  0.1432 -0.3018  0.0479
21448SOL    HW166661   3.499   8.741   5.962 -0.9725  0.3412 -2.2310
21448SOL    HW266662   3.408   8.862   5.968  0.2251  1.1866  1.4528
21449SOL     OW66663   1.611   6.861   4.827 -0.9515  0.6170  0.2176
21449SOL    HW166664   1.633   6.867   4.734 -1.9670 -0.3730 -0.1145
21449SOL    HW266665   1.688   6.821   4.868  0.2421  2.6807  0.1568
21450SOL     OW66666  10.558   7.615   1.041 -0.5125 -0.0710  0.1089
21450SOL    HW166667  10.603   7.556   1.102 -1.9517 -0.5561  0.7517
21450SOL    HW266668  10.626   7.675   1.012  0.3983 -0.3147  1.6033
21451SOL     OW66669   2.614   7.325   9.447  0.1563 -0.0073  0.7517
21451SOL    HW166670   2.690   7.379   9.465  0.9978 -1.1173  0.6270
21451SOL    HW266671   2.559   7.380   9.391  0.2359  1.2830  1.8800
21452SOL     OW66672   3.460  10.145   5.156 -0.6504  0.0679  0.0640
21452SOL    HW166673   3.538  10.106   5.117 -1.1473  0.6705 -1.6215
21452SOL    HW266674   3.407  10.070   5.183 -0.1610 -0.3676 -0.1702
21453SOL     OW66675   4.695   4.729   7.528  0.2527  0.2405 -0.7046
21453SOL    HW166676   4.684   4.648   7.477  0.1753  0.6036 -1.2653
21453SOL    HW266677   4.623   4.785   7.500 -0.4415  0.0423  0.5933
21454SOL     OW66678   2.656   1.353   1.336 -0.2311 -0.6260 -0.3313
21454SOL    HW166679   2.569   1.369   1.300 -0.3672  0.4196  0.4162
21454SOL    HW266680   2.674   1.261   1.315 -0.9954 -0.5211 -1.5529
21455SOL     OW66681   3.721   7.302   5.539  0.0876  0.0365  0.0440
21455SOL    HW166682   3.697   7.283   5.449 -0.8447  0.8064  0.1077
21455SOL    HW266683   3.639   7.331   5.580  0.5089 -0.2163  1.1166
21456SOL     OW66684   9.691   6.068   9.966 -0.0567 -0.3812 -0.5813
21456SOL    HW166685   9.764   6.022   9.925  0.9545 -0.1007  0.8318
21456SOL    HW266686   9.638   5.999  10.005  0.2426 -0.4964 -0.3762
21457SOL     OW66687   2.282   9.560   5.707 -0.1776 -0.3475  0.5321
21457SOL    HW166688   2.316   9.538   5.794  0.1861 -0.3482  0.3909
21457SOL    HW266689   2.330   9.640   5.683  2.1383 -2.0872 -1.0404
21458SOL     OW66690   9.479   9.903   0.256  0.2288  0.5162 -0.1586
21458SOL    HW166691   9.526   9.849   0.192 -0.4042  1.1107 -1.1540
21458SOL    HW266692   9.490   9.992   0.224  1.9039  1.1290  1.8672
21459SOL     OW66693   2.048  10.310   2.522  0.1632 -0.5756  0.2096
21459SOL    HW166694   2.034  10.363   2.444 -0.4539 -0.0444  0.6730
21459SOL    HW266695   1.961  10.279   2.546  0.6020 -2.5554 -0.5494
21460SOL     OW66696   7.865   9.860   3.154  0.0636 -0.2388 -0.0169
21460SOL    HW166697   7.813   9.881   3.232  0.2641 -0.8115  0.2824
21460SOL    HW266698   7.802   9.861   3.082 -0.2726 -0.4510  0.2697
21461SOL     OW66699   6.406   8.462   6.511 -1.0789 -0.2887  0.3503
21461SOL    HW166700   6.341   8.490   6.446 -0.6726 -0.2324 -0.0377
21461SOL    HW266701   6.424   8.370   6.489  0.9111  0.4104 -1.2193
21462SOL     OW66702   5.873   8.483   2.073  0.1182  0.0197 -0.7989
21462SOL    HW166703   5.813   8.539   2.121  0.2870 -0.6566  0.2391
21462SOL    HW266704   5.938   8.543   2.036 -0.4858  0.6261 -0.8842
21463SOL     OW66705   1.339   7.202   4.300  0.4813 -1.0784  0.0647
21463SOL    HW166706   1.248   7.176   4.287 -0.0449  0.0191  1.3574
21463SOL    HW266707   1.369   7.230   4.213  0.3231 -3.5214 -0.8600
21464SOL     OW66708   6.701   1.534   3.931 -0.4258 -0.1280 -0.2514
21464SOL    HW166709   6.650   1.466   3.886  1.0763 -0.7917 -1.0045
21464SOL    HW266710   6.718   1.599   3.863  1.3544 -0.8500 -0.5308
21465SOL     OW66711   3.459   2.915   2.370  0.0181  0.4283  0.7640
21465SOL    HW166712   3.549   2.932   2.343  0.7452  0.5514  3.0571
21465SOL    HW266713   3.415   2.884   2.291  2.4584 -1.1445 -0.0825
21466SOL     OW66714   6.973   9.159   4.746 -0.3999  0.1506 -0.0398
21466SOL    HW166715   7.020   9.076   4.739 -0.4043  0.2487 -1.6940
21466SOL    HW266716   7.016   9.205   4.817 -0.5766 -1.3648  1.0977
21467SOL     OW66717   8.993   2.667   8.152  0.1369 -0.2261  0.2464
21467SOL    HW166718   9.030   2.736   8.098 -1.6869  0.7560  0.1753
21467SOL    HW266719   8.997   2.589   8.098  1.8436 -0.1326  0.1752
21468SOL     OW66720   0.423   3.795   8.515 -0.0396  0.1746  0.0663
21468SOL    HW166721   0.339   3.762   8.483 -0.8912  1.5160  0.8398
21468SOL    HW266722   0.473   3.716   8.537 -0.5167 -0.6960 -1.7643
21469SOL     OW66723   9.116   3.867   7.137 -0.0218  0.0546  0.1377
21469SOL    HW166724   9.138   3.955   7.170  0.3045 -0.4238  1.2590
21469SOL    HW266725   9.031   3.847   7.177 -0.2050 -0.0542 -0.2995
21470SOL     OW66726   6.484   8.580   4.050  0.2877 -0.0769  0.0668
21470SOL    HW166727   6.558   8.559   3.993 -2.2808  1.3338 -4.2687
21470SOL    HW266728   6.431   8.501   4.051 -0.2474  0.2622 -0.5625
21471SOL     OW66729   5.214   7.869   3.008  0.3510 -0.4007 -0.1084
21471SOL    HW166730   5.222   7.824   3.092  0.4573  0.3802  0.3040
21471SOL    HW266731   5.135   7.922   3.016  1.4601  1.2673  0.2692
21472SOL     OW66732   5.665   4.330   5.129 -0.0011  0.3065 -0.3395
21472SOL    HW166733   5.695   4.324   5.219 -2.6719  2.3214  0.8322
21472SOL    HW266734   5.745   4.331   5.077  1.7796  1.6348  2.1871
21473SOL     OW66735   5.058   1.889   3.393 -0.7002 -0.0836  0.1258
21473SOL    HW166736   5.132   1.935   3.431  0.9930 -0.0776 -2.9032
21473SOL    HW266737   5.042   1.933   3.310 -3.2493 -0.9580  0.0641
21474SOL     OW66738   8.304   6.787   6.008  0.4062 -0.2829  0.0732
21474SOL    HW166739   8.309   6.827   6.095  0.4819  0.3762 -0.2280
21474SOL    HW266740   8.221   6.740   6.008 -0.3860  1.0565 -0.0450
21475SOL     OW66741   0.604   6.644   8.941 -0.5922 -0.0743 -0.3103
21475SOL    HW166742   0.524   6.633   8.890 -0.3089 -1.3359 -0.5163
21475SOL    HW266743   0.631   6.554   8.962 -1.6055  0.3480  3.5101
21476SOL     OW66744   8.657   8.551   7.240  0.6861  0.0391  0.1250
21476SOL    HW166745   8.649   8.464   7.280  1.2909  0.2212  0.6709
21476SOL    HW266746   8.749   8.574   7.252  0.4018  1.0148  0.5512
21477SOL     OW66747   3.560   8.898   2.405  0.3058 -0.0650  0.0634
21477SOL    HW166748   3.573   8.963   2.336 -0.5321  1.8189  1.6070
21477SOL    HW266749   3.647   8.886   2.443  0.6213 -0.5251 -0.7630
21478SOL     OW66750  10.405   2.008   1.128  0.0180 -0.0447  1.1274
21478SOL    HW166751  10.440   2.044   1.209 -1.3827 -1.1039  2.2536
21478SOL    HW266752  10.316   2.043   1.123  0.8042  1.9412 -1.2486
21479SOL     OW66753   0.209  10.090   8.179 -0.0858  0.2332 -0.1748
21479SOL    HW166754   0.155  10.158   8.140  0.6152  0.7772 -0.2191
21479SOL    HW266755   0.299  10.123   8.171  0.2923 -0.8279 -0.4641
21480SOL     OW66756   1.564   6.123   0.401 -0.6330 -0.5688  0.0603
21480SOL    HW166757   1.629   6.136   0.470 -1.2016 -1.7405  0.8653
21480SOL    HW266758   1.486   6.093   0.447 -0.5430 -3.0201 -1.1777
21481SOL     OW66759   4.118   6.752   4.798 -0.7034  0.5073  0.0487
21481SOL    HW166760   4.133   6.847   4.804  0.2929  0.3589  0.0172
21481SOL    HW266761   4.169   6.715   4.870  1.2600 -0.2293 -1.6365
21482SOL     OW66762   6.501   8.082   7.550  0.3748 -0.2436  0.2137
21482SOL    HW166763   6.546   8.031   7.482 -0.2615  1.0592 -1.2480
21482SOL    HW266764   6.414   8.042   7.557  0.6473 -0.7600  0.7211
21483SOL     OW66765   8.707   7.434   5.830  0.6694 -0.3455 -0.0749
21483SOL    HW166766   8.620   7.440   5.791  1.4675  1.0807 -1.7990
21483SOL    HW266767   8.710   7.507   5.892  0.3549 -0.9515  0.6759
21484SOL     OW66768   2.274   8.637   2.171  0.5804  0.1206  0.3857
21484SOL    HW166769   2.338   8.707   2.156  0.9286  0.0633  1.5014
21484SOL    HW266770   2.252   8.606   2.084  1.7385  0.4414 -0.0469
21485SOL     OW66771   5.698   2.182   0.716 -0.4604  0.3901 -0.3340
21485SOL    HW166772   5.639   2.230   0.658 -0.2387  1.4568  0.2947
21485SOL    HW266773   5.641   2.144   0.783 -0.4115  2.2402  0.8472
21486SOL     OW66774   1.822   7.860   6.849 -0.3608 -0.4447  0.0819
21486SOL    HW166775   1.831   7.919   6.924  1.1660  0.5317 -0.8286
21486SOL    HW266776   1.751   7.898   6.797 -1.5713 -1.2425  1.0873
21487SOL     OW66777   9.320   0.341   7.046  0.0965 -0.5283 -0.5104
21487SOL    HW166778   9.366   0.257   7.042 -0.8807 -1.1013 -0.0245
21487SOL    HW266779   9.230   0.321   7.020 -0.2254  0.3058 -0.0924
21488SOL     OW66780   8.463   3.128   7.918 -0.1932  0.0014 -0.1298
21488SOL    HW166781   8.508   3.064   7.972  0.2445  1.0316  0.7589
21488SOL    HW266782   8.491   3.108   7.829  2.0810  0.6150  0.3956
21489SOL     OW66783  10.318   6.950   4.733 -0.0054 -0.5468 -0.4255
21489SOL    HW166784  10.309   7.043   4.713 -0.2321  0.2694  2.9652
21489SOL    HW266785  10.232   6.913   4.713 -0.1659  0.1116 -1.0025
21490SOL     OW66786   0.812   9.268   2.328  0.0515 -0.2114  0.2815
21490SOL    HW166787   0.741   9.214   2.362  0.4385 -0.5764  0.5169
21490SOL    HW266788   0.851   9.216   2.258 -1.2890  0.8823 -1.3889
21491SOL     OW66789   0.752   6.360  10.112 -0.8825  0.1330 -0.5772
21491SOL    HW166790   0.741   6.370  10.017  0.8278 -0.6421 -0.8898
21491SOL    HW266791   0.743   6.266  10.127 -1.8223  0.3296  0.1396
21492SOL     OW66792   0.599   2.563   0.736 -0.0659  0.2451 -0.3657
21492SOL    HW166793   0.512   2.590   0.707 -0.4334  1.3154  1.5910
21492SOL    HW266794   0.598   2.467   0.731 -0.7462  0.3021 -1.9226
21493SOL     OW66795   0.586   9.923   1.549  0.1946  0.0580 -0.3613
21493SOL    HW166796   0.516   9.988   1.549  0.9986  1.0126  1.8454
21493SOL    HW266797   0.541   9.840   1.535 -1.4996  0.5929  1.3830
21494SOL     OW66798   7.085   0.663   1.645  0.4117  0.3998  0.0944
21494SOL    HW166799   7.026   0.665   1.720  0.9987  1.1266  0.5587
21494SOL    HW266800   7.107   0.755   1.630  0.3958  0.2499 -0.8980
21495SOL     OW66801   4.075   6.505   1.699 -0.3540  0.2130  0.0336
21495SOL    HW166802   4.043   6.515   1.789 -0.4105 -0.5122  0.0997
21495SOL    HW266803   4.161   6.464   1.709  0.5720  2.0467 -0.1484
21496SOL     OW66804   5.316   5.279   0.378  0.6261  0.4634 -0.1052
21496SOL    HW166805   5.372   5.345   0.417  2.7179  0.0917 -2.2275
21496SOL    HW266806   5.236   5.326   0.355  0.7845  1.4651  1.2602
21497SOL     OW66807   7.931   2.964   3.122  0.3563  0.1537 -0.6591
21497SOL    HW166808   7.943   2.882   3.074  1.0845 -0.7068  0.9395
21497SOL    HW266809   7.985   2.955   3.200  0.6240  2.2562 -0.5336
21498SOL     OW66810   7.115   7.644   8.128 -0.0911 -0.4012 -0.6441
21498SOL    HW166811   7.055   7.599   8.069 -1.9487  0.7508  0.2639
21498SOL    HW266812   7.119   7.733   8.095 -1.1425  0.2512  0.9203
21499SOL     OW66813   5.754   2.683   5.902  0.0388 -0.1937  0.1403
21499SOL    HW166814   5.746   2.729   5.819  1.3012  0.3581  0.2911
21499SOL    HW266815   5.672   2.699   5.947 -0.3855  0.0802 -0.7158
21500SOL     OW66816   3.644   1.741   4.509 -0.3195  0.3881  0.2970
21500SOL    HW166817   3.572   1.679   4.506 -2.2080  2.3950  1.0944
21500SOL    HW266818   3.665   1.750   4.602  1.4002 -0.5622  0.0522
21501SOL     OW66819   0.973   2.903   1.049 -0.2565  0.2859  0.4651
21501SOL    HW166820   1.024   2.909   1.130  1.2345 -0.6949 -0.3582
21501SOL    HW266821   0.954   2.993   1.026  1.8197  0.7634  0.3922
21502SOL     OW66822   8.695   0.240   7.496 -0.6089 -0.3997  0.3369
21502SOL    HW166823   8.743   0.230   7.579 -0.2999 -1.2022  0.0701
21502SOL    HW266824   8.761   0.276   7.435 -0.4671 -1.0597  0.0944
21503SOL     OW66825   0.145   1.519   9.695 -0.6212  0.2364  0.2692
21503SOL    HW166826   0.098   1.449   9.740 -1.1052  0.7562  0.5765
21503SOL    HW266827   0.127   1.504   9.602  0.2850 -0.7679  0.2335
21504SOL     OW66828   2.628   8.403   9.782  0.2723  0.4063  0.1303
21504SOL    HW166829   2.592   8.314   9.776  1.8350 -0.1872 -1.1033
21504SOL    HW266830   2.723   8.391   9.782  0.5217  2.0398  1.0862
21505SOL     OW66831   7.942   4.086   7.973 -0.1228 -0.4527  0.0831
21505SOL    HW166832   7.921   4.058   8.062 -0.2729  0.4552  0.3500
21505SOL    HW266833   8.021   4.036   7.950 -1.0661 -1.9686  0.0543
21506SOL     OW66834   8.216   7.856   6.086  0.0433 -0.5364  0.4771
21506SOL    HW166835   8.246   7.913   6.015 -1.6522 -0.9921 -0.6549
21506SOL    HW266836   8.213   7.769   6.047  0.3264 -1.0270  1.5113
21507SOL     OW66837   7.487   0.636   6.027  0.6451  0.0435 -0.5592
21507SOL    HW166838   7.545   0.677   6.091 -0.5708  0.2042  0.4713
21507SOL    HW266839   7.471   0.705   5.962  0.9114  0.2840 -0.3730
21508SOL     OW66840   2.834   2.497   5.662 -0.5070  0.1138  0.2689
21508SOL    HW166841   2.784   2.518   5.741  0.3883  0.1471  0.8452
21508SOL    HW266842   2.917   2.462   5.695 -0.2465 -0.1820 -0.6649
21509SOL     OW66843   6.772   4.451   9.943 -0.1476  0.0653 -0.1224
21509SOL    HW166844   6.755   4.394  10.018 -0.1697  0.1105 -0.0928
21509SOL    HW266845   6.865   4.437   9.923  0.2905  1.2645  0.9454
21510SOL     OW66846   7.345   4.849   6.623 -0.1355  0.0723  0.1877
21510SOL    HW166847   7.399   4.902   6.564  0.7623 -1.1558 -0.1413
21510SOL    HW266848   7.394   4.847   6.705 -0.2447 -0.1276  0.2469
21511SOL     OW66849   0.787   0.508   4.056  0.3405  0.5220 -0.4075
21511SOL    HW166850   0.711   0.494   4.113  0.3499  0.4140 -0.4217
21511SOL    HW266851   0.762   0.581   4.001  0.5679  1.0308  0.1517
21512SOL     OW66852   1.491   0.439   1.515  0.8429 -0.0492  0.0309
21512SOL    HW166853   1.408   0.393   1.525 -0.1788  1.5756 -0.6324
21512SOL    HW266854   1.514   0.467   1.603 -0.3235  1.1496 -0.0209
21513SOL     OW66855   5.902   9.441   1.003 -0.2042 -0.1856 -0.2129
21513SOL    HW166856   5.842   9.438   0.928 -0.2378 -2.3887 -0.1587
21513SOL    HW266857   5.976   9.494   0.972 -1.7651  1.9759 -0.5229
21514SOL     OW66858  10.402   8.400   4.811 -0.3146  0.1271  0.0500
21514SOL    HW166859  10.368   8.327   4.758 -0.1133  0.2894 -0.3058
21514SOL    HW266860  10.475   8.435   4.760 -1.3278  1.5261 -0.5196
21515SOL     OW66861   2.295   6.588   4.585  0.6388 -0.3557  0.2271
21515SOL    HW166862   2.309   6.496   4.608 -0.7064 -0.6869 -0.1922
21515SOL    HW266863   2.210   6.610   4.625  1.0678  0.7791  0.5475
21516SOL     OW66864   0.568   8.047   3.680  0.0242 -0.3191 -0.3240
21516SOL    HW166865   0.498   8.068   3.618 -0.1375  0.8950  0.2415
21516SOL    HW266866   0.631   7.995   3.629 -0.9072 -0.7715 -1.0393
21517SOL     OW66867   0.848  10.406   3.960 -0.3887  0.2144 -0.2332
21517SOL    HW166868   0.920  10.353   3.996 -0.7018  0.2025  0.3978
21517SOL    HW266869   0.892  10.478   3.914  0.0342  0.1057 -0.0055
21518SOL     OW66870   8.190  10.581   3.097  0.3670 -0.0659  0.5256
21518SOL    HW166871   8.282  10.579   3.069  0.1193 -0.8491 -0.2350
21518SOL    HW266872   8.145  10.520   3.039 -0.4402 -0.5454  1.6246
21519SOL     OW66873   3.416   0.435   6.874 -0.6003  0.3342  0.4655
21519SOL    HW166874   3.464   0.395   6.946  0.2705  1.5149  0.5759
21519SOL    HW266875   3.474   0.427   6.799 -1.2803 -0.4078 -0.0057
21520SOL     OW66876   3.933   8.717   1.800 -0.6438  0.4893  0.2097
21520SOL    HW166877   4.008   8.751   1.752 -1.8088  2.2864 -0.4227
21520SOL    HW266878   3.949   8.623   1.806  1.3326  0.7400 -0.4455
21521SOL     OW66879   5.757  10.020   4.495  0.2098  0.3654 -0.1019
21521SOL    HW166880   5.791   9.971   4.570 -1.6368  0.1606  0.6640
21521SOL    HW266881   5.811   9.991   4.422  0.8914 -0.8225  0.8222
21522SOL     OW66882   1.351   2.357   2.107 -0.0325  0.0842 -0.0508
21522SOL    HW166883   1.269   2.350   2.155 -0.6857  1.5028 -0.8908
21522SOL    HW266884   1.379   2.266   2.093 -1.1151 -0.3945  0.8094
21523SOL     OW66885   9.616   7.252   9.678  0.1040 -0.1059  0.1908
21523SOL    HW166886   9.589   7.283   9.591  0.9381 -0.6096 -0.2649
21523SOL    HW266887   9.704   7.289   9.689  0.4841 -1.0182  0.3026
21524SOL     OW66888   7.161   7.439   3.046  0.2901 -0.1384 -0.2214
21524SOL    HW166889   7.139   7.519   3.094 -0.0390 -0.7366  0.6487
21524SOL    HW266890   7.097   7.435   2.976  0.3098  0.3635 -0.2700
21525SOL     OW66891   0.231   3.003   5.492  0.5335 -0.0125 -0.4257
21525SOL    HW166892   0.198   3.004   5.402 -0.5948  2.9309 -0.0913
21525SOL    HW266893   0.169   2.947   5.539  0.6347 -0.8833 -1.2940
21526SOL     OW66894   4.209  10.187   6.051  0.3370  0.2560 -0.0828
21526SOL    HW166895   4.266  10.111   6.065 -0.1141  0.3102  2.3734
21526SOL    HW266896   4.253  10.259   6.094 -0.8816  0.6183  0.5928
21527SOL     OW66897   1.931   6.414  10.012  0.4274  0.6211 -0.2535
21527SOL    HW166898   1.840   6.406  10.040  0.2810 -0.8261 -1.0171
21527SOL    HW266899   1.949   6.508  10.016 -0.9802  0.9011  0.2659
21528SOL     OW66900   8.659   4.535   1.283  0.6484 -0.0969  0.5336
21528SOL    HW166901   8.582   4.501   1.328  0.1728  0.7914  0.4167
21528SOL    HW266902   8.624   4.601   1.223  1.3835 -0.5179 -0.3801
21529SOL     OW66903   5.866   7.261  10.479  0.2445 -0.2484 -0.3588
21529SOL    HW166904   5.808   7.334  10.456 -1.0421 -0.6794  1.3589
21529SOL    HW266905   5.893   7.279  10.569  2.5882 -0.2293 -0.9916
21530SOL     OW66906   8.071   4.759   8.862  0.0351 -0.0448  0.6604
21530SOL    HW166907   7.987   4.724   8.833  1.0643 -2.1800  0.0198
21530SOL    HW266908   8.084   4.722   8.950  0.5415 -0.1705  0.5372
21531SOL     OW66909   0.477   1.124   0.954 -0.1076 -1.0912 -0.0975
21531SOL    HW166910   0.414   1.055   0.976  1.5041 -2.4867  0.3919
21531SOL    HW266911   0.554   1.103   1.006  0.0801  1.7778  0.9260
21532SOL     OW66912   3.011   5.979   2.968  0.4150  0.5151 -0.1400
21532SOL    HW166913   3.041   6.003   2.880  1.5778 -0.1934  0.0391
21532SOL    HW266914   2.918   5.962   2.958  0.0260  2.6823 -0.7615
21533SOL     OW66915   2.074   3.621   6.083  0.3271  0.3026 -0.9344
21533SOL    HW166916   2.007   3.666   6.032 -1.1153  0.4029  0.9260
21533SOL    HW266917   2.156   3.664   6.058 -0.5578  1.6072 -1.7560
21534SOL     OW66918   4.651   5.665   6.667 -0.0823 -0.6399 -0.2457
21534SOL    HW166919   4.691   5.739   6.712 -0.4998 -0.7618  0.3327
21534SOL    HW266920   4.557   5.685   6.666 -0.2451 -1.3429  0.2690
21535SOL     OW66921   4.358   1.127   7.200 -0.6209 -0.3949 -0.2878
21535SOL    HW166922   4.377   1.153   7.290  0.6512 -0.0230 -0.6460
21535SOL    HW266923   4.266   1.100   7.202 -0.2792 -1.5996  1.3880
21536SOL     OW66924   0.911   8.723   9.201 -0.2366  0.3339 -0.2864
21536SOL    HW166925   0.972   8.723   9.127  0.0978  2.6519 -0.0783
21536SOL    HW266926   0.836   8.672   9.171  2.0873 -3.4969 -0.2228
21537SOL     OW66927   8.737   5.612   1.863 -0.4192 -0.2510 -0.3074
21537SOL    HW166928   8.767   5.540   1.807 -1.6432 -0.2072 -1.0469
21537SOL    HW266929   8.791   5.605   1.941  0.2114 -1.3249 -0.8156
21538SOL     OW66930   0.880   1.810   7.684 -0.2859  0.3021 -0.1055
21538SOL    HW166931   0.813   1.803   7.752  0.3765 -0.6648  0.4645
21538SOL    HW266932   0.831   1.827   7.604 -1.0958  1.1668  0.5489
21539SOL     OW66933   0.037   3.836   8.186  0.3090 -0.4788 -0.1751
21539SOL    HW166934   0.090   3.758   8.201 -0.2359 -0.7315  0.4946
21539SOL    HW266935   0.059   3.894   8.259 -0.0337 -0.4213 -0.1160
21540SOL     OW66936   6.611   9.217   8.630  0.2493  0.0487 -0.9278
21540SOL    HW166937   6.620   9.312   8.641  2.2759  0.2259 -3.2274
21540SOL    HW266938   6.596   9.206   8.536 -1.7651 -1.8672 -0.4581
21541SOL     OW66939   8.627   3.443   7.708  0.4817 -0.7734 -0.6223
21541SOL    HW166940   8.703   3.436   7.649  0.4967 -0.0528 -0.7087
21541SOL    HW266941   8.551   3.440   7.649  0.4832 -0.4230 -0.6441
21542SOL     OW66942   7.821   0.164   4.392 -0.1204  0.2019  0.6420
21542SOL    HW166943   7.878   0.240   4.405 -0.8083  0.9774 -0.7319
21542SOL    HW266944   7.821   0.120   4.477  1.4606  0.9064  1.0484
21543SOL     OW66945   9.972   9.993   1.710  0.0274 -0.6640 -0.6266
21543SOL    HW166946  10.024  10.046   1.771 -0.8570 -2.6666  2.1086
21543SOL    HW266947   9.901  10.049   1.682  0.0614  0.1280  0.8060
21544SOL     OW66948   3.424   9.082   9.861 -0.2329  0.1548 -0.3921
21544SOL    HW166949   3.337   9.063   9.827  0.3349 -4.6431  0.0894
21544SOL    HW266950   3.413   9.085   9.956 -0.0271  1.0102 -0.3833
21545SOL     OW66951   0.438   0.423   5.217 -0.6464 -0.5795 -0.3051
21545SOL    HW166952   0.457   0.506   5.262 -1.4610  0.2034 -1.3673
21545SOL    HW266953   0.504   0.362   5.251  0.6240  0.7585 -0.2635
21546SOL     OW66954   9.336   5.879   5.646  0.2576 -0.2494 -0.3408
21546SOL    HW166955   9.349   5.974   5.650  1.5466 -0.4181 -0.2731
21546SOL    HW266956   9.421   5.844   5.619  0.0231 -1.4531  0.4189
21547SOL     OW66957   0.077   7.742   9.532 -0.3643 -0.1973 -0.1965
21547SOL    HW166958   0.147   7.710   9.588 -1.7886  0.4428  2.1128
21547SOL    HW266959  -0.003   7.732   9.585 -2.0749 -1.0141 -2.7314
21548SOL     OW66960   3.816   4.780   7.290  0.2593  1.1046 -0.2801
21548SOL    HW166961   3.884   4.713   7.282 -0.5995  0.3675 -1.7617
21548SOL    HW266962   3.803   4.789   7.385 -0.9839 -2.3022  0.0043
21549SOL     OW66963   2.955   2.613   4.835  0.3967 -0.4776 -0.2699
21549SOL    HW166964   3.013   2.647   4.767  1.8560 -2.1875  0.0533
21549SOL    HW266965   2.983   2.522   4.848  1.1180  0.1334  3.5824
21550SOL     OW66966   1.023   5.127   7.970 -0.0293 -0.1466 -1.2210
21550SOL    HW166967   1.001   5.083   8.052  2.2598  0.2136 -0.3587
21550SOL    HW266968   1.061   5.059   7.915 -0.4518 -0.1304 -1.5405
21551SOL     OW66969   2.633   3.051   3.246 -0.2660 -0.3939 -0.3148
21551SOL    HW166970   2.593   3.041   3.332 -1.2638 -1.2237 -0.8603
21551SOL    HW266971   2.560   3.064   3.186  0.3496 -0.6946 -1.1577
21552SOL     OW66972   9.104   7.182   9.852 -0.0563 -0.5679 -0.5035
21552SOL    HW166973   9.124   7.088   9.848 -1.2215 -0.7804 -1.9399
21552SOL    HW266974   9.183   7.225   9.821  0.2829 -1.0931 -0.3809
21553SOL     OW66975  10.509   3.295   1.617  0.1469 -0.0182  0.4109
21553SOL    HW166976  10.499   3.202   1.597 -0.0116  0.4535 -2.1041
21553SOL    HW266977  10.563   3.329   1.545 -1.9873  2.2985 -0.2226
21554SOL     OW66978   5.047   9.535   0.714 -0.3596 -0.0885 -0.2853
21554SOL    HW166979   4.963   9.506   0.678  1.4016 -2.9171 -2.4851
21554SOL    HW266980   5.083   9.458   0.756  0.6685  1.4200  1.7719
21555SOL     OW66981   8.671   2.776   4.898  0.2543 -0.0760  0.5799
21555SOL    HW166982   8.686   2.725   4.818 -1.1673  0.6725 -0.1981
21555SOL    HW266983   8.576   2.774   4.910  0.4764 -0.9169  2.7788
21556SOL     OW66984   9.806   9.580   0.953 -0.2773  0.3909  0.2888
21556SOL    HW166985   9.835   9.633   0.878 -0.7126 -0.2196 -0.3289
21556SOL    HW266986   9.835   9.491   0.931 -0.7551  0.1420  0.6575
21557SOL     OW66987   6.799   0.643   8.071 -0.0194  0.5262 -0.2401
21557SOL    HW166988   6.734   0.655   8.002  0.6147  1.3778 -0.7039
21557SOL    HW266989   6.815   0.731   8.105  0.3122  0.2243  0.3985
21558SOL     OW66990   2.530   9.466   3.078 -0.4214 -0.1197  0.5857
21558SOL    HW166991   2.519   9.399   3.011  1.5105  0.6833 -0.6420
21558SOL    HW266992   2.553   9.417   3.157  0.5155 -0.9733 -0.1779
21559SOL     OW66993   6.070   6.937   7.678  0.0320 -0.3632  0.0646
21559SOL    HW166994   6.015   6.982   7.613  0.4351  0.0709  0.0213
21559SOL    HW266995   6.158   6.942   7.642  0.4062  0.6750  1.0574
21560SOL     OW66996   2.247   2.037   6.525 -0.1617  0.7159  0.1855
21560SOL    HW166997   2.205   2.103   6.470 -1.3890 -1.3084 -1.4299
21560SOL    HW266998   2.178   1.973   6.544  0.3885  0.9336  3.5772
21561SOL     OW66999   9.277   0.912   5.978  0.3450 -0.1131  0.2095
21561SOL    HW167000   9.260   0.942   5.889 -0.2131 -0.4344  0.2053
21561SOL    HW267001   9.191   0.888   6.012  0.3967  1.0056  1.2052
21562SOL     OW67002   5.558   7.956   1.151 -0.0469 -0.6061 -0.7099
21562SOL    HW167003   5.481   7.914   1.191  0.5808 -1.1788 -0.0675
21562SOL    HW267004   5.546   8.049   1.169  0.6662 -0.9007  1.7176
21563SOL     OW67005   9.841   7.424   3.374 -0.8834  0.3983 -0.5928
21563SOL    HW167006   9.798   7.344   3.407 -2.0271  0.7739 -1.1059
21563SOL    HW267007   9.769   7.475   3.337 -0.1850  1.7614 -0.0981
21564SOL     OW67008   4.441  10.446   3.384 -0.0283  0.0286 -0.1321
21564SOL    HW167009   4.374  10.504   3.348 -0.2067 -0.1340 -0.0588
21564SOL    HW267010   4.408  10.420   3.470  0.7692  1.0706  0.5194
21565SOL     OW67011   3.580   4.748   5.626  0.4875  0.0607 -0.1156
21565SOL    HW167012   3.654   4.769   5.568  0.4190  1.8753  0.4046
21565SOL    HW267013   3.531   4.830   5.633 -1.4133 -1.0225 -0.1784
21566SOL     OW67014   0.281   0.888   1.383  0.2708  0.8584 -0.6035
21566SOL    HW167015   0.201   0.904   1.333 -0.0403 -0.1167 -0.4541
21566SOL    HW267016   0.344   0.858   1.318 -0.4671 -1.5248 -0.3402
21567SOL     OW67017   9.271   1.609   7.627  0.2537  0.0419  0.0616
21567SOL    HW167018   9.189   1.569   7.598  0.9763 -0.4443 -1.4230
21567SOL    HW267019   9.244   1.683   7.682 -1.1405 -1.2701  1.2392
21568SOL     OW67020   5.639   3.545   4.637 -0.1926 -0.2350 -0.2387
21568SOL    HW167021   5.574   3.490   4.679  0.3697  0.3565  1.5139
21568SOL    HW267022   5.709   3.485   4.612  0.3238 -0.3922  1.4611
21569SOL     OW67023   8.093   1.480   9.722  0.4447  0.4563  0.0259
21569SOL    HW167024   8.173   1.434   9.746 -1.6203 -2.8863  1.0811
21569SOL    HW267025   8.094   1.481   9.626  1.2236 -0.5730  0.0068
21570SOL     OW67026   9.177   7.651   2.121 -0.3119 -0.3625  0.2049
21570SOL    HW167027   9.213   7.739   2.108  1.7013 -1.2994 -1.0744
21570SOL    HW267028   9.205   7.602   2.044 -0.0575 -2.5405  1.5977
21571SOL     OW67029   1.878   9.521  10.489  0.0290 -0.0925 -0.2234
21571SOL    HW167030   1.796   9.511  10.441 -0.2338  1.1880 -0.0929
21571SOL    HW267031   1.927   9.586  10.439  0.4156  0.0955  0.3872
21572SOL     OW67032   9.535   9.940   1.161 -0.3225 -0.1443 -0.4595
21572SOL    HW167033   9.469   9.871   1.166  1.6678 -2.0482  2.7296
21572SOL    HW267034   9.604   9.904   1.105  0.7801 -0.8885  1.3164
21573SOL     OW67035   7.971   1.700   1.228 -0.2982 -0.0324 -0.6581
21573SOL    HW167036   7.899   1.748   1.186 -0.4017  0.1958 -0.2279
21573SOL    HW267037   7.938   1.611   1.238 -0.8639  0.2630  0.3104
21574SOL     OW67038   7.311   3.798   2.546  0.2100 -0.6154  0.0207
21574SOL    HW167039   7.333   3.808   2.638 -0.8467 -1.4410  0.3853
21574SOL    HW267040   7.247   3.867   2.529 -1.2035 -1.7574  0.4937
21575SOL     OW67041   4.210   5.659   6.227 -0.3413 -0.1407  0.2740
21575SOL    HW167042   4.149   5.713   6.277 -0.2624  2.4925 -2.2115
21575SOL    HW267043   4.295   5.702   6.237 -0.2317  0.1837 -1.5839
21576SOL     OW67044   7.504   6.386   5.251  0.2044 -0.0023 -0.2835
21576SOL    HW167045   7.589   6.373   5.293 -0.0450 -0.7402  0.0064
21576SOL    HW267046   7.452   6.311   5.277 -0.7187  0.7019 -0.0299
21577SOL     OW67047   3.006   7.202   1.468 -0.2528  0.0557  0.1187
21577SOL    HW167048   2.932   7.169   1.519 -0.4896 -0.6673 -0.6543
21577SOL    HW267049   3.078   7.208   1.530 -1.2831  2.1051  1.2273
21578SOL     OW67050   6.518   9.965   6.729 -0.4402 -0.1984 -0.3478
21578SOL    HW167051   6.473   9.882   6.742  0.0835 -0.2925  1.0781
21578SOL    HW267052   6.609   9.947   6.754 -0.3162  0.7891 -0.0252
21579SOL     OW67053   7.936   8.457   5.750  0.5968 -0.2900 -0.0379
21579SOL    HW167054   7.993   8.512   5.803  1.9961 -0.8315 -0.9056
21579SOL    HW267055   7.925   8.504   5.667 -0.6338  0.0270  0.2838
21580SOL     OW67056   8.109   3.812   3.762 -0.3585 -0.1721 -0.2491
21580SOL    HW167057   8.188   3.760   3.746 -0.2200 -0.4616  1.2462
21580SOL    HW267058   8.042   3.746   3.780 -1.7126 -0.1121 -4.1869
21581SOL     OW67059   5.362   9.416   3.699 -0.4502  0.0086 -0.1633
21581SOL    HW167060   5.390   9.497   3.742 -2.5010  0.6868  0.0346
21581SOL    HW267061   5.434   9.393   3.642  0.5878  1.4582  0.4773
21582SOL     OW67062   3.131   9.498   2.424  0.3545 -0.3634  0.3489
21582SOL    HW167063   3.135   9.576   2.368 -2.1574  0.0092  0.5858
21582SOL    HW267064   3.053   9.451   2.394 -0.7209 -0.4747  3.0794
21583SOL     OW67065   7.751   2.664  10.101 -0.0947 -0.3365  0.4182
21583SOL    HW167066   7.796   2.579  10.097 -1.1094 -0.8690 -0.2117
21583SOL    HW267067   7.677   2.649  10.160 -0.5650 -0.0469 -0.0850
21584SOL     OW67068   8.514  10.479   0.694 -0.0248 -0.0780 -0.4263
21584SOL    HW167069   8.523  10.399   0.746  0.4858  1.3933  1.8976
21584SOL    HW267070   8.533  10.452   0.604  2.8597 -2.0772  0.6370
21585SOL     OW67071   8.931   9.548   7.718  0.3222  0.4015 -0.3821
21585SOL    HW167072   8.989   9.484   7.758  1.6286  0.0802 -2.6258
21585SOL    HW267073   8.970   9.565   7.632 -0.4001  3.6123 -0.2048
21586SOL     OW67074   4.820   5.539   3.463  0.3232  0.4449  0.4139
21586SOL    HW167075   4.768   5.576   3.391 -1.7981  3.4618  3.1901
21586SOL    HW267076   4.902   5.588   3.460  0.0513  0.9081  0.2849
21587SOL     OW67077   5.992   4.833   2.896 -0.0832  0.3338  0.2595
21587SOL    HW167078   6.053   4.861   2.828 -0.8818 -1.2946 -1.2166
21587SOL    HW267079   5.963   4.746   2.867 -0.3700 -0.4692  2.7730
21588SOL     OW67080   3.226   6.713   3.197  0.1916 -0.2803  0.4517
21588SOL    HW167081   3.148   6.757   3.163  0.7363  0.4462  0.1227
21588SOL    HW267082   3.203   6.620   3.195 -1.0240 -0.0212  1.2865
21589SOL     OW67083   9.585  10.507   3.127 -0.2138  0.1875 -0.4708
21589SOL    HW167084   9.494  10.478   3.131 -0.3970  0.6429 -1.0588
21589SOL    HW267085   9.592  10.550   3.042  0.1424  1.5030  0.1971
21590SOL     OW67086   7.526   4.440   1.806 -0.7683  0.1693 -0.5390
21590SOL    HW167087   7.620   4.447   1.819 -0.5583 -0.9442 -1.3206
21590SOL    HW267088   7.509   4.483   1.723 -1.0896  1.1300  0.0091
21591SOL     OW67089   8.838   6.631   0.445  0.4019 -0.0185  0.3256
21591SOL    HW167090   8.928   6.640   0.413  0.2069  1.8550  0.2200
21591SOL    HW267091   8.846   6.637   0.540  0.4062 -0.0656  0.3283
21592SOL     OW67092   2.822   5.900   4.481  0.4823 -0.6864 -0.1650
21592SOL    HW167093   2.804   5.839   4.552  0.5608 -2.0032 -1.2476
21592SOL    HW267094   2.736   5.929   4.451  0.4485  1.4762  1.7420
21593SOL     OW67095   8.932   7.035   3.586  0.2609  0.5102 -0.0909
21593SOL    HW167096   8.858   7.025   3.646  0.4153 -1.8301 -0.2035
21593SOL    HW267097   9.009   7.013   3.639  0.5591 -0.0453 -0.7446
21594SOL     OW67098   5.360   0.108   7.790 -0.7858  0.6848 -0.0797
21594SOL    HW167099   5.351   0.134   7.881  2.0318  2.1606 -0.1347
21594SOL    HW267100   5.321   0.180   7.740 -1.7897  0.1516 -0.0972
21595SOL     OW67101   8.280   0.837   7.634  0.0031  0.3214 -0.1481
21595SOL    HW167102   8.273   0.833   7.538  0.3440  1.0470 -0.2115
21595SOL    HW267103   8.372   0.817   7.652 -0.1013  0.0031  0.0473
21596SOL     OW67104   1.234   0.503   2.269 -0.4023 -0.7795  0.7142
21596SOL    HW167105   1.269   0.502   2.180  0.4787 -2.0952  1.0517
21596SOL    HW267106   1.286   0.570   2.315  0.2328 -1.2258  0.6542
21597SOL     OW67107   2.582   9.653  10.317  0.1508 -0.3774 -0.0571
21597SOL    HW167108   2.607   9.568  10.352  1.2327 -1.1030 -2.3432
21597SOL    HW267109   2.664   9.702  10.313  0.2183 -0.5396 -1.9374
21598SOL     OW67110   7.173   8.450   3.770 -0.0886 -0.6959  0.0971
21598SOL    HW167111   7.104   8.387   3.792 -0.2395 -0.2351  0.9869
21598SOL    HW267112   7.153   8.527   3.824  2.2225 -1.2677  1.9069
21599SOL     OW67113   0.639   7.388   2.004  0.3686  0.1470  0.4283
21599SOL    HW167114   0.648   7.317   2.068 -0.3969 -0.9138 -0.5887
21599SOL    HW267115   0.727   7.425   1.997  0.7092 -0.4727  1.2433
21600SOL     OW67116   9.880   3.417   1.112  0.7822 -0.6915 -0.1091
21600SOL    HW167117   9.936   3.485   1.151 -0.0167 -0.2535  0.3001
21600SOL    HW267118   9.918   3.402   1.026  1.1833  0.0325 -0.0718
21601SOL     OW67119   2.947   9.237   0.694 -0.1756  0.8796  0.0315
21601SOL    HW167120   2.889   9.178   0.742  0.5396  1.0717  1.1566
21601SOL    HW267121   3.004   9.275   0.760  0.0696  2.0532 -0.8183
21602SOL     OW67122   7.505   7.577   9.917 -0.0458  0.7933  0.6845
21602SOL    HW167123   7.591   7.620   9.909  0.3913 -0.1943 -0.2706
21602SOL    HW267124   7.523   7.499   9.969 -0.5843  1.1109  1.3555
21603SOL     OW67125  10.007   3.928   3.625  0.2098  0.5534 -0.4093
21603SOL    HW167126   9.989   4.014   3.664  1.1601  0.1351  1.0200
21603SOL    HW267127  10.099   3.911   3.645 -0.3143 -1.4120  0.5458
21604SOL     OW67128   2.698   9.105   7.018 -0.6883 -0.5286 -0.7682
21604SOL    HW167129   2.673   9.053   7.094  0.2902 -0.1135 -0.1377
21604SOL    HW267130   2.640   9.180   7.020 -0.4397 -0.3453 -0.2192
21605SOL     OW67131   7.976   7.697   9.736 -0.8265 -0.4719 -0.2197
21605SOL    HW167132   8.038   7.637   9.694 -0.2197  0.9913 -1.5299
21605SOL    HW267133   8.031   7.760   9.783 -1.3814 -0.0001 -0.1924
21606SOL     OW67134   5.165   9.357   7.572 -0.6346  0.0033  0.7119
21606SOL    HW167135   5.114   9.309   7.638  0.0161  1.3112  2.2542
21606SOL    HW267136   5.245   9.382   7.618 -0.4397  1.5099 -0.3804
21607SOL     OW67137   7.436   6.835   4.579 -0.2349 -0.3228  0.1883
21607SOL    HW167138   7.414   6.859   4.669 -0.3030  0.3002  0.0071
21607SOL    HW267139   7.366   6.874   4.527  0.7846  0.8701 -0.3141
21608SOL     OW67140   0.829   0.302   3.913  0.2579  0.4667  0.3644
21608SOL    HW167141   0.810   0.366   3.982 -2.7786 -0.2498  0.3632
21608SOL    HW267142   0.752   0.246   3.912  1.1770 -0.8855 -2.1820
21609SOL     OW67143   8.960  10.002  10.473 -0.0050  0.1674  0.2940
21609SOL    HW167144   9.033  10.052  10.437 -0.8726  2.3246  1.3527
21609SOL    HW267145   8.884  10.030  10.422 -0.2874 -1.2849 -0.1252
21610SOL     OW67146   1.037   1.961   2.210  1.2905  0.4363 -0.4973
21610SOL    HW167147   1.037   1.867   2.194 -0.1111  0.6967 -2.2578
21610SOL    HW267148   1.129   1.986   2.201  1.8168 -0.8520  0.8412
21611SOL     OW67149   9.589   0.782   6.651 -0.7732  0.1419 -0.3638
21611SOL    HW167150   9.586   0.697   6.694  0.4787 -0.1014 -0.7290
21611SOL    HW267151   9.679   0.792   6.623 -0.5072  2.2524  0.9939
21612SOL     OW67152   6.827   5.248   5.004  0.2920  0.2536  0.2845
21612SOL    HW167153   6.739   5.269   5.034 -0.2435  1.4790 -1.9875
21612SOL    HW267154   6.871   5.214   5.082 -1.3635  2.1156  2.1458
21613SOL     OW67155   2.358   5.966   4.184 -0.6915 -0.1198 -0.3641
21613SOL    HW167156   2.335   6.039   4.241  1.6066 -0.5089  1.1758
21613SOL    HW267157   2.304   5.893   4.215 -0.3233 -0.0145  0.5496
21614SOL     OW67158   6.635   1.252   4.664  0.1030 -0.3951 -0.5298
21614SOL    HW167159   6.685   1.240   4.583  0.4293  1.1709 -0.5902
21614SOL    HW267160   6.611   1.344   4.664  0.2742 -0.3136  1.2515
21615SOL     OW67161   9.436   2.146   1.157 -0.4484 -0.0414  0.2067
21615SOL    HW167162   9.518   2.126   1.203 -1.5630  0.0789  2.3937
21615SOL    HW267163   9.386   2.064   1.162 -0.9194  0.2274 -0.0693
21616SOL     OW67164   3.234   6.563  10.243 -0.1268 -0.4168  0.1745
21616SOL    HW167165   3.230   6.643  10.295 -3.0599 -0.1224 -0.3398
21616SOL    HW267166   3.314   6.572  10.191  0.3918  1.4548  1.2052
21617SOL     OW67167   3.825   9.786   2.143  0.1070 -0.0590  0.6333
21617SOL    HW167168   3.776   9.849   2.196 -1.0737 -0.0482 -0.4245
21617SOL    HW267169   3.905   9.833   2.118 -0.2025  0.5936  0.8364
21618SOL     OW67170   7.622   8.957   7.005  0.0936 -0.1537  0.3712
21618SOL    HW167171   7.611   8.877   6.954  1.5151 -0.8921  1.1490
21618SOL    HW267172   7.716   8.962   7.021  0.7038  3.6984 -2.8357
21619SOL     OW67173   1.313   9.982  10.436 -0.0512 -0.0608 -0.0398
21619SOL    HW167174   1.382  10.022  10.489  0.4546 -2.2560  1.0593
21619SOL    HW267175   1.337  10.004  10.346  1.4673  0.1455  0.3893
21620SOL     OW67176  10.482   1.762   7.403 -0.0728  0.3293 -0.0041
21620SOL    HW167177  10.458   1.838   7.350  0.1942  0.3851 -0.0435
21620SOL    HW267178  10.452   1.785   7.492  0.4872  0.7087  0.0917
21621SOL     OW67179   7.244   6.248  10.251  0.1701  0.6008  0.4766
21621SOL    HW167180   7.217   6.340  10.254 -0.6007  0.3809  0.8473
21621SOL    HW267181   7.257   6.225  10.343 -1.9874 -0.2861  0.6298
21622SOL     OW67182   8.822   3.233  10.528  0.3188 -0.1119 -0.2055
21622SOL    HW167183   8.826   3.325  10.500 -0.5901  0.2940  0.8861
21622SOL    HW267184   8.775   3.189  10.458 -2.3435  0.9665  0.7822
21623SOL     OW67185   6.565   7.078   1.455  0.2318  0.3057 -0.1769
21623SOL    HW167186   6.502   7.041   1.516  1.0848 -1.3188 -0.2116
21623SOL    HW267187   6.644   7.091   1.507  0.7556 -0.4527 -0.7623
21624SOL     OW67188   7.435   6.172   0.466 -0.0541 -0.0050  0.2227
21624SOL    HW167189   7.449   6.251   0.519  0.1940 -0.1248  0.3377
21624SOL    HW267190   7.516   6.163   0.416 -0.5381  0.4889 -0.6879
21625SOL     OW67191   3.422   1.540  10.538  0.0247 -0.4109  0.0550
21625SOL    HW167192   3.482   1.549  10.464 -1.3761  0.8250 -1.0133
21625SOL    HW267193   3.394   1.630  10.557 -2.4356 -0.9909 -0.3877
21626SOL     OW67194   6.523   7.022   3.252 -0.3688  0.0408  0.3356
21626SOL    HW167195   6.448   7.081   3.254  0.8005  1.5742  0.7565
21626SOL    HW267196   6.599   7.079   3.266  0.7804 -1.6367  1.2477
21627SOL     OW67197   5.766   9.385   7.780  0.3112  0.1054 -0.2727
21627SOL    HW167198   5.737   9.320   7.717  1.3643 -0.6207 -0.0235
21627SOL    HW267199   5.714   9.367   7.859 -0.1649  0.2694 -0.5419
21628SOL     OW67200   4.077   3.798   6.223  0.4290 -0.3057 -0.2020
21628SOL    HW167201   4.014   3.818   6.292  0.7648 -0.1967  0.0741
21628SOL    HW267202   4.135   3.733   6.262  0.1572 -0.8207 -0.6418
21629SOL     OW67203   2.712   7.592   9.687  0.2829  0.1508 -0.5370
21629SOL    HW167204   2.780   7.555   9.630  1.0716 -0.3381  0.6697
21629SOL    HW267205   2.735   7.560   9.774 -1.9879 -0.6971 -0.1949
21630SOL     OW67206   6.240   0.174   7.266  0.9211 -0.0915  0.0730
21630SOL    HW167207   6.160   0.132   7.299  1.0717  0.2502  0.8909
21630SOL    HW267208   6.221   0.191   7.174  0.8855 -2.0089 -0.3150
21631SOL     OW67209   0.901   2.632   8.158 -0.0565  0.3438 -0.2024
21631SOL    HW167210   0.928   2.704   8.215  0.4520  0.5984 -0.7484
21631SOL    HW267211   0.813   2.609   8.188 -0.9069  2.2590 -1.0234
21632SOL     OW67212   4.530   6.158   8.738  0.1134 -0.1727 -0.1466
21632SOL    HW167213   4.539   6.098   8.812  3.4696  0.1681 -0.1203
21632SOL    HW267214   4.582   6.234   8.762 -0.6260  0.9454 -1.9156
21633SOL     OW67215   3.911   2.673   6.307 -0.5865  0.1935  0.1176
21633SOL    HW167216   3.901   2.766   6.327  1.1719 -0.0822  2.7227
21633SOL    HW267217   3.899   2.629   6.391  0.7993 -1.7419 -0.6471
21634SOL     OW67218   7.222   8.963   0.219  0.1743 -0.4655 -0.0365
21634SOL    HW167219   7.152   8.897   0.221  1.1685 -1.7875 -2.8098
21634SOL    HW267220   7.303   8.911   0.212  1.4471  1.0277  2.4838
21635SOL     OW67221   1.232   8.027   6.272 -0.1709  0.2824  0.9973
21635SOL    HW167222   1.239   8.116   6.238 -0.7850 -0.4494 -1.2040
21635SOL    HW267223   1.186   8.037   6.356  1.0433  2.1402  1.4815
21636SOL     OW67224   2.670   4.475   9.815  0.3552  0.5620  0.1298
21636SOL    HW167225   2.695   4.484   9.723 -0.2369  2.6942  0.1221
21636SOL    HW267226   2.723   4.540   9.861 -0.7697  0.8855  1.0074
21637SOL     OW67227   4.795   5.152   9.598 -0.2682 -0.2787 -0.2628
21637SOL    HW167228   4.870   5.135   9.656 -1.2654  0.8750  1.4353
21637SOL    HW267229   4.719   5.154   9.656 -1.3179  1.0219 -1.6018
21638SOL     OW67230   7.542  10.055   0.476 -0.5183  0.0879  0.4144
21638SOL    HW167231   7.462  10.003   0.485 -1.0077  0.8375  0.5676
21638SOL    HW267232   7.517  10.141   0.511 -0.1190  0.7938 -0.9908
21639SOL     OW67233   6.458  10.238   5.905  0.5771 -0.3281  0.7181
21639SOL    HW167234   6.498  10.197   5.982  0.2351 -0.2251  0.9539
21639SOL    HW267235   6.532  10.259   5.848  1.4366  3.7867  2.9500
21640SOL     OW67236   7.986   3.050   9.608 -0.1848  0.2040 -0.2268
21640SOL    HW167237   7.944   2.964   9.603  0.7577 -0.2770 -0.2314
21640SOL    HW267238   8.047   3.051   9.533  1.9057 -0.3161  1.3638
21641SOL     OW67239   0.342   3.791   5.702 -0.3835 -0.0182 -0.0780
21641SOL    HW167240   0.388   3.805   5.785 -0.0981  0.1967 -0.2659
21641SOL    HW267241   0.273   3.857   5.701 -0.3190  0.0503 -0.0549
21642SOL     OW67242   8.677   8.206   7.135 -0.0793  0.3612 -0.9908
21642SOL    HW167243   8.688   8.184   7.042 -0.3785  1.4990 -1.3235
21642SOL    HW267244   8.765   8.226   7.165  0.4810 -2.8276 -0.2039
21643SOL     OW67245   1.282   1.725   1.015  0.1518  0.2479 -0.1289
21643SOL    HW167246   1.257   1.733   1.107 -2.1638 -0.1778 -0.6478
21643SOL    HW267247   1.356   1.664   1.015 -0.4598 -0.5480  1.3907
21644SOL     OW67248   9.005   0.455   6.733  0.3263  0.2456 -0.5433
21644SOL    HW167249   9.097   0.482   6.733  0.1118  1.0255 -1.2831
21644SOL    HW267250   8.957   0.537   6.742 -0.3206 -0.0053 -1.5503
21645SOL     OW67251   0.117   7.802   2.285  0.5871  0.2954 -0.4943
21645SOL    HW167252   0.184   7.862   2.252 -0.7558  2.2443  0.1237
21645SOL    HW267253   0.068   7.853   2.349 -1.5623 -0.9863 -0.9812
21646SOL     OW67254   9.609   9.660   9.184  0.0815 -0.1211  0.3542
21646SOL    HW167255   9.518   9.678   9.160  1.0008  0.3893 -3.4958
21646SOL    HW267256   9.638   9.597   9.118  2.8673  0.6706  0.7251
21647SOL     OW67257   5.512   3.332   4.218  0.2578  0.3796  0.2810
21647SOL    HW167258   5.552   3.419   4.215 -1.6509  1.2812 -2.2996
21647SOL    HW267259   5.426   3.347   4.256 -0.0818 -0.4076 -0.1727
21648SOL     OW67260   9.056   9.123   2.237 -0.1169 -0.3630  0.6021
21648SOL    HW167261   8.993   9.054   2.217  0.5798 -0.6724 -0.6233
21648SOL    HW267262   9.003   9.192   2.279 -1.1662 -0.8329  0.0998
21649SOL     OW67263   5.196   3.158   3.867 -0.1910  0.2705 -0.2034
21649SOL    HW167264   5.223   3.169   3.776 -1.2685  1.0403 -0.4485
21649SOL    HW267265   5.278   3.163   3.917  0.6220 -1.7636 -1.2079
21650SOL     OW67266   5.932   7.218   3.251 -0.7553  0.3092  0.3991
21650SOL    HW167267   5.895   7.305   3.239 -1.5908 -0.0477  0.3457
21650SOL    HW267268   5.949   7.186   3.163 -1.8308 -0.1598  0.3491
21651SOL     OW67269   5.193   6.933   3.748 -0.3944 -0.2675  0.2958
21651SOL    HW167270   5.160   6.852   3.708  1.8815 -0.9287 -0.4160
21651SOL    HW267271   5.237   6.903   3.828  0.2285  0.2975  0.1698
21652SOL     OW67272   0.837   1.593   3.240  1.1663  0.3692  0.3629
21652SOL    HW167273   0.897   1.653   3.196  0.2496  0.1424 -1.2858
21652SOL    HW267274   0.755   1.641   3.247  0.6041 -0.4326 -0.3996
21653SOL     OW67275   9.046   2.841   9.880  0.4636 -0.0291  0.2489
21653SOL    HW167276   9.077   2.807   9.964 -2.1870 -0.6478  1.0619
21653SOL    HW267277   9.087   2.927   9.872  1.3393 -0.2705  1.8210
21654SOL     OW67278   8.371   3.213   4.276  0.3043 -0.3576 -0.2372
21654SOL    HW167279   8.343   3.286   4.332 -0.1317 -0.6037 -0.1255
21654SOL    HW267280   8.298   3.200   4.216 -0.9154 -2.5226  1.5426
21655SOL     OW67281   3.518   6.362   7.865  0.4698 -0.0915 -0.0100
21655SOL    HW167282   3.531   6.402   7.778  2.4569 -0.2574  0.1551
21655SOL    HW267283   3.584   6.293   7.868  1.4410  0.8506  2.1714
21656SOL     OW67284   2.864   1.238   8.509 -0.2985 -0.2170  0.4355
21656SOL    HW167285   2.772   1.263   8.514 -0.2402 -0.1676  1.4651
21656SOL    HW267286   2.912   1.321   8.507 -0.2553 -0.2438  0.3335
21657SOL     OW67287   3.230   7.257   6.852 -0.4880  0.1200 -0.6504
21657SOL    HW167288   3.151   7.261   6.798 -0.1912  0.7570 -1.0471
21657SOL    HW267289   3.301   7.280   6.793 -0.3898  3.2138  0.4589
21658SOL     OW67290   4.105   5.560   9.592 -0.5444 -0.1014 -0.2376
21658SOL    HW167291   4.049   5.636   9.578  0.3213  0.6835  0.4116
21658SOL    HW267292   4.061   5.509   9.660  0.4947  1.5992  1.8323
21659SOL     OW67293   4.082   6.230   9.294  0.3879 -0.2857 -0.1567
21659SOL    HW167294   4.089   6.211   9.388 -0.3404  0.0744 -0.0242
21659SOL    HW267295   4.040   6.316   9.290  0.1356 -0.4367 -0.8250
21660SOL     OW67296  10.294   0.160   4.157  0.2382 -0.0996  0.5826
21660SOL    HW167297  10.272   0.253   4.149 -1.3691 -0.4872  0.1404
21660SOL    HW267298  10.291   0.127   4.067  0.3137 -0.6765  0.7875
21661SOL     OW67299   0.869   7.276   7.518 -0.3942 -0.1768 -0.1479
21661SOL    HW167300   0.951   7.307   7.558 -0.0366 -1.3210  0.0347
21661SOL    HW267301   0.827   7.356   7.485 -0.0851  0.6498  1.3785
21662SOL     OW67302   3.485   9.028   3.669  0.2849  0.1407  0.2010
21662SOL    HW167303   3.560   9.012   3.612  0.1472 -0.0114  0.0634
21662SOL    HW267304   3.439   8.944   3.673 -1.8026  1.0460 -2.4551
21663SOL     OW67305  10.270   3.502   6.279  0.1334  0.6458  0.3697
21663SOL    HW167306  10.289   3.551   6.359  2.2456  1.2305 -0.4014
21663SOL    HW267307  10.197   3.548   6.239 -1.9764 -0.5409  2.6270
21664SOL     OW67308   6.293   2.541   1.787  0.1270  0.4203 -0.2891
21664SOL    HW167309   6.366   2.516   1.845  0.2639  1.5449  0.0379
21664SOL    HW267310   6.334   2.551   1.701  0.0911 -0.3355 -0.4028
21665SOL     OW67311   6.289   4.925   5.988 -0.9077 -0.5838  0.3005
21665SOL    HW167312   6.244   5.006   5.962 -2.4882 -1.9303 -1.4520
21665SOL    HW267313   6.348   4.906   5.915 -0.6063 -1.0424  0.6607
21666SOL     OW67314   6.242   2.075   9.448  0.1975 -0.5862  0.4458
21666SOL    HW167315   6.308   2.072   9.517  2.0030  0.3473 -1.1286
21666SOL    HW267316   6.181   2.143   9.476  0.5796 -0.6124  1.3780
21667SOL     OW67317   8.742   9.493   1.273 -0.2821  0.5566 -0.1486
21667SOL    HW167318   8.738   9.507   1.178 -1.2626 -0.7338 -0.3267
21667SOL    HW267319   8.652   9.499   1.302 -0.0464  0.4397  0.6252
21668SOL     OW67320   5.187  10.179   1.173 -0.9735 -0.1476  0.8717
21668SOL    HW167321   5.139  10.193   1.255  0.8107  0.3224  1.8937
21668SOL    HW267322   5.220  10.090   1.180 -0.3407  0.0894  0.9274
21669SOL     OW67323   4.882   7.787   2.864 -0.5435  0.2763 -0.2938
21669SOL    HW167324   4.939   7.839   2.922 -0.1794  0.2292 -0.6062
21669SOL    HW267325   4.921   7.700   2.865 -0.3461  0.3540 -0.8647
21670SOL     OW67326   6.870   6.290   4.716  0.1858 -0.6741 -0.3414
21670SOL    HW167327   6.858   6.227   4.645  0.5359 -1.1625  0.0285
21670SOL    HW267328   6.807   6.360   4.696 -1.0397 -1.6744 -0.1452
21671SOL     OW67329   3.938   1.426   1.378  0.5262 -0.5509  0.4791
21671SOL    HW167330   3.935   1.399   1.470  1.3595  0.9261  0.9720
21671SOL    HW267331   4.022   1.393   1.347 -0.4656 -2.5135 -0.2772
21672SOL     OW67332   5.246   5.094   4.588  0.5297  0.6877 -0.0988
21672SOL    HW167333   5.282   5.058   4.507  0.2571  1.8050 -0.7288
21672SOL    HW267334   5.223   5.017   4.640  1.9704 -0.0453 -0.5045
21673SOL     OW67335   6.502   8.777   7.692  0.5314 -0.0883 -0.1110
21673SOL    HW167336   6.596   8.777   7.709  0.6598 -0.1287 -0.8270
21673SOL    HW267337   6.466   8.834   7.760  1.1581  0.5430 -0.3007
21674SOL     OW67338   2.970   0.407   2.445  0.4562 -0.2574 -0.8246
21674SOL    HW167339   2.964   0.320   2.406  1.1152 -0.0196 -1.4709
21674SOL    HW267340   2.952   0.392   2.538  2.3396 -1.3811 -0.5708
21675SOL     OW67341   2.672   8.578   9.473  0.6848 -0.7302 -0.0961
21675SOL    HW167342   2.583   8.578   9.508  0.4425  0.8598 -0.6353
21675SOL    HW267343   2.712   8.657   9.509  0.9908  0.0070 -1.9394
21676SOL     OW67344   1.433   5.862   7.976  0.1997 -0.2638  0.0210
21676SOL    HW167345   1.380   5.790   7.941  2.0610 -1.0737 -1.3185
21676SOL    HW267346   1.391   5.941   7.942 -1.8551 -0.6512  1.4889
21677SOL     OW67347   9.253   3.268   3.818  0.6165 -0.1765  0.3024
21677SOL    HW167348   9.298   3.347   3.847 -1.7141  0.8519  1.3102
21677SOL    HW267349   9.198   3.297   3.745  0.1241 -0.9689  0.3498
21678SOL     OW67350   0.064   5.088   1.580  0.0744  0.0093  0.8715
21678SOL    HW167351  -0.026   5.122   1.581 -0.1017 -0.4494  1.0033
21678SOL    HW267352   0.077   5.060   1.489  0.3332  0.7146  0.6865
21679SOL     OW67353   5.194   9.878   1.214  0.5079  0.3091 -0.2179
21679SOL    HW167354   5.248   9.827   1.275 -0.8367  0.0996  0.8374
21679SOL    HW267355   5.132   9.814   1.178 -0.2669  0.9094  0.0329
21680SOL     OW67356   5.525   9.451   2.471 -0.4666 -0.1580 -0.3974
21680SOL    HW167357   5.603   9.477   2.519 -0.4957 -1.5859  0.5091
21680SOL    HW267358   5.454   9.502   2.512 -0.3663 -0.7500  0.5636
21681SOL     OW67359   6.325   2.646   5.740  0.1857 -0.1284 -0.5966
21681SOL    HW167360   6.409   2.634   5.696  0.4181  1.1049 -0.5158
21681SOL    HW267361   6.335   2.602   5.824  0.4668 -0.6725 -0.9059
21682SOL     OW67362   6.737  10.528   5.505 -0.2179 -0.4020  0.4894
21682SOL    HW167363   6.781  10.532   5.420  1.5515 -0.5155  1.3754
21682SOL    HW267364   6.802  10.493   5.565 -1.1040  0.6189  2.1233
21683SOL     OW67365   4.636   0.264   6.086  0.1200  0.6779  0.4048
21683SOL    HW167366   4.659   0.178   6.122  1.5897  0.4783 -0.8998
21683SOL    HW267367   4.545   0.278   6.111 -0.2846 -1.4703  0.2613
21684SOL     OW67368   3.518   2.776   5.256  0.3375  0.4576 -0.1522
21684SOL    HW167369   3.573   2.741   5.185 -0.0533 -1.1545  0.2904
21684SOL    HW267370   3.469   2.847   5.215 -0.5273 -0.9950 -1.7894
21685SOL     OW67371   4.389   1.265   5.619  0.9378 -0.2885 -0.2607
21685SOL    HW167372   4.372   1.171   5.619  2.3043 -0.5921 -1.7733
21685SOL    HW267373   4.341   1.298   5.543 -0.0407  0.3701  0.6197
21686SOL     OW67374  10.154   8.965   5.937  0.6055  0.9028  0.2732
21686SOL    HW167375  10.163   8.877   5.900  0.3953  1.5397 -1.3805
21686SOL    HW267376  10.145   8.950   6.031  0.6987 -0.8346  0.0477
21687SOL     OW67377   7.551   2.758   4.023  0.7805  0.3475  0.2856
21687SOL    HW167378   7.597   2.765   3.940 -0.8909  2.0508 -0.5662
21687SOL    HW267379   7.600   2.814   4.083  1.0231  0.4690 -0.0258
21688SOL     OW67380   7.829   1.260   6.205  0.4849 -0.1618 -0.6716
21688SOL    HW167381   7.895   1.321   6.237  0.3697 -0.6511  0.5664
21688SOL    HW267382   7.869   1.220   6.127  0.7700  1.0798 -1.1838
21689SOL     OW67383   0.023  10.438   6.180 -0.1989 -0.4639 -0.1575
21689SOL    HW167384  -0.006  10.505   6.118 -2.6905 -0.6351  0.6923
21689SOL    HW267385   0.078  10.380   6.128  1.5516  1.8339 -1.0660
21690SOL     OW67386   9.096   1.703   5.773  0.0156 -0.0303  0.2717
21690SOL    HW167387   9.158   1.775   5.784 -0.1738  0.4988 -1.7531
21690SOL    HW267388   9.137   1.629   5.819  0.5386  1.1543  1.7911
21691SOL     OW67389   9.137   7.169   8.627 -0.1780  0.1674  0.1417
21691SOL    HW167390   9.226   7.140   8.605 -0.4020 -0.1681 -0.3159
21691SOL    HW267391   9.144   7.195   8.719  0.3979  0.1469  0.1112
21692SOL     OW67392   8.976   8.223   5.630 -0.2747  0.3801 -0.0702
21692SOL    HW167393   9.065   8.246   5.656  0.5910 -3.2810  0.8108
21692SOL    HW267394   8.931   8.202   5.712 -0.9790 -0.7517 -0.7180
21693SOL     OW67395   4.257  10.426   9.291  0.1896 -0.1196  0.6595
21693SOL    HW167396   4.244  10.369   9.367 -0.1328 -1.9471 -0.6894
21693SOL    HW267397   4.171  10.465   9.275  0.2795  0.3367  1.2653
21694SOL     OW67398   8.537   2.888   3.356 -0.1011 -0.3059 -0.3345
21694SOL    HW167399   8.554   2.869   3.264  0.4592 -1.5597  0.0011
21694SOL    HW267400   8.529   2.802   3.397  0.8426  0.2037  0.9971
21695SOL     OW67401   8.214   1.291   5.595 -0.0909 -0.1622 -0.0497
21695SOL    HW167402   8.267   1.315   5.519 -1.8820 -3.0184 -2.4371
21695SOL    HW267403   8.276   1.251   5.656  1.2835  1.6150 -0.2087
21696SOL     OW67404   5.837   2.344   0.242 -0.0404  0.3035 -0.0352
21696SOL    HW167405   5.848   2.285   0.167 -0.3074 -0.8492  0.8081
21696SOL    HW267406   5.752   2.320   0.279 -0.4555  1.6699 -0.0431
21697SOL     OW67407   0.692   1.792   3.530 -0.4271  0.2440  0.0708
21697SOL    HW167408   0.704   1.781   3.436  0.3259 -0.8033  0.2768
21697SOL    HW267409   0.598   1.808   3.541 -0.3542  1.4746 -0.9442
21698SOL     OW67410   7.375   3.972   0.901  0.2417  0.5157 -0.2136
21698SOL    HW167411   7.392   4.043   0.963 -2.1157  0.9573  0.0349
21698SOL    HW267412   7.375   3.893   0.954 -0.2834  0.7242  0.1080
21699SOL     OW67413   2.576   1.851   2.272 -0.1518  0.3531 -0.6107
21699SOL    HW167414   2.616   1.779   2.321 -1.6084 -1.0254 -1.3644
21699SOL    HW267415   2.576   1.822   2.181  1.4956  2.4040 -1.3685
21700SOL     OW67416   0.789   5.620   8.600  0.1099 -1.2547 -0.0146
21700SOL    HW167417   0.816   5.649   8.513 -1.0430 -1.1042 -0.3291
21700SOL    HW267418   0.872   5.603   8.645  0.7317 -1.3294 -1.1275
21701SOL     OW67419   2.082   6.284   7.401  0.0802  0.0849 -0.1852
21701SOL    HW167420   2.149   6.352   7.411  0.5700 -0.6229  1.9503
21701SOL    HW267421   2.014   6.307   7.464  1.4465 -2.6324  2.5530
21702SOL     OW67422   0.352   7.981   5.463 -0.4705 -0.1777  0.0276
21702SOL    HW167423   0.336   7.951   5.553  0.0716  0.3710  0.3217
21702SOL    HW267424   0.289   7.934   5.410 -0.4314 -0.9230  0.6273
21703SOL     OW67425   0.581   0.822   6.078 -0.7181  0.5621  0.2845
21703SOL    HW167426   0.486   0.813   6.066 -0.4479 -0.9073 -1.0658
21703SOL    HW267427   0.604   0.752   6.138 -0.5095  1.0550  0.7831
21704SOL     OW67428  10.116   6.808   8.908 -0.1929  0.4589  0.0207
21704SOL    HW167429  10.061   6.831   8.983  0.4544 -1.0667  1.0272
21704SOL    HW267430  10.172   6.885   8.895 -2.0311  1.7650 -0.5898
21705SOL     OW67431   9.829   5.035   9.963 -0.3569  0.2561 -0.1881
21705SOL    HW167432   9.751   5.000  10.005 -0.7965  0.7655 -0.5710
21705SOL    HW267433   9.809   5.127   9.947 -0.9077 -0.2604 -3.0303
21706SOL     OW67434   9.522   1.106   2.050 -0.0841  0.2702 -0.6824
21706SOL    HW167435   9.548   1.139   2.136  0.4523 -1.0870 -0.3053
21706SOL    HW267436   9.430   1.131   2.042 -0.6554 -1.0754  1.0635
21707SOL     OW67437   4.097   7.319   7.408 -0.5448 -0.3099 -0.5386
21707SOL    HW167438   4.155   7.243   7.415 -0.2516 -0.0620 -0.2432
21707SOL    HW267439   4.010   7.281   7.398 -0.4098 -0.6883 -0.3129
21708SOL     OW67440   9.705   8.119   4.852  0.0024  0.0440  0.9068
21708SOL    HW167441   9.613   8.100   4.871 -0.4131  2.6544  1.9005
21708SOL    HW267442   9.702   8.174   4.774  0.6191  0.9638  1.5153
21709SOL     OW67443   2.265   8.668   4.252  0.2206  0.1730 -0.0609
21709SOL    HW167444   2.236   8.582   4.281 -0.2322  0.3162 -0.0927
21709SOL    HW267445   2.192   8.703   4.201  0.0725  0.9216  0.6432
21710SOL     OW67446   0.491   5.762   6.513  0.1015  0.7542  0.4601
21710SOL    HW167447   0.486   5.689   6.451 -1.9531 -0.6622  2.1517
21710SOL    HW267448   0.579   5.756   6.550  0.3582 -0.1377 -0.2675
21711SOL     OW67449   6.138   9.775   8.866 -0.0288 -0.1267 -0.0360
21711SOL    HW167450   6.152   9.787   8.772 -2.0638 -0.7523 -0.4532
21711SOL    HW267451   6.224   9.794   8.905  0.5915  1.1942 -1.8984
21712SOL     OW67452   6.388   1.837   8.661 -0.6549  0.7565  0.0388
21712SOL    HW167453   6.463   1.838   8.721  0.9421  0.0941 -1.8437
21712SOL    HW267454   6.313   1.860   8.716  0.4537 -1.3016  2.6088
21713SOL     OW67455  10.306   0.871   3.978 -0.4434 -0.3400 -0.1342
21713SOL    HW167456  10.329   0.924   4.054  1.4147 -1.2146 -0.0187
21713SOL    HW267457  10.255   0.929   3.923  1.6391  1.6966 -0.0878
21714SOL     OW67458   5.016   9.408   4.974 -0.3580  0.1430  0.0013
21714SOL    HW167459   5.110   9.421   4.961 -0.1006 -0.9058  0.7316
21714SOL    HW267460   4.985   9.372   4.892 -0.1203  0.4679 -0.2336
21715SOL     OW67461   1.209   8.756   0.542 -0.0593  0.8539  0.3108
21715SOL    HW167462   1.119   8.788   0.548 -0.7385 -1.1507  2.0364
21715SOL    HW267463   1.228   8.720   0.628  0.9379 -2.3580 -1.0581
21716SOL     OW67464  10.273   8.149   8.971 -0.3255 -0.0833 -0.7062
21716SOL    HW167465  10.243   8.195   8.892 -2.1395  0.1488  0.0669
21716SOL    HW267466  10.198   8.096   8.998  0.1197  0.1333  1.0728
21717SOL     OW67467   5.786   8.518   4.791  0.4823 -0.2722 -0.1334
21717SOL    HW167468   5.864   8.562   4.758 -0.0308  1.7158  1.1415
21717SOL    HW267469   5.819   8.446   4.845  1.4158  0.2521 -0.0037
21718SOL     OW67470   3.295  10.562   9.835  0.0099  0.5977  0.1721
21718SOL    HW167471   3.377  10.563   9.884  0.5750  1.3121 -0.7492
21718SOL    HW267472   3.267  10.654   9.833 -1.2297  0.2675  1.1402
21719SOL     OW67473  10.462   0.762   8.133 -0.3812 -0.1282  0.1612
21719SOL    HW167474  10.478   0.693   8.069  0.5967 -1.3952  1.7031
21719SOL    HW267475  10.430   0.716   8.211 -1.7913  1.3902  0.5512
21720SOL     OW67476   1.165   5.011   9.018 -0.4617  0.1441 -0.4550
21720SOL    HW167477   1.240   4.976   9.066 -1.1791  0.7274  1.2061
21720SOL    HW267478   1.202   5.072   8.955  0.5406 -0.7268 -0.7269
21721SOL     OW67479   9.349  10.590  10.476  0.0782 -0.1358 -0.2339
21721SOL    HW167480   9.291  10.644  10.530 -1.3279 -1.2561 -0.5879
21721SOL    HW267481   9.401  10.654  10.426  0.4680  0.9023  1.4248
21722SOL     OW67482   1.584   8.222   8.122  0.2833  0.5907  0.0122
21722SOL    HW167483   1.556   8.309   8.091 -0.7768 -0.2909 -1.6802
21722SOL    HW267484   1.629   8.184   8.047  1.8524  0.1134  1.1549
21723SOL     OW67485   4.205   0.146   0.417 -0.0279  0.3992 -0.3996
21723SOL    HW167486   4.152   0.208   0.466 -0.7521  0.3416 -1.0980
21723SOL    HW267487   4.186   0.061   0.456  0.0806  0.4618 -0.2062
21724SOL     OW67488   2.158   4.093   6.496 -0.6225  0.0459 -0.3440
21724SOL    HW167489   2.217   4.167   6.506  1.2677 -1.4320 -0.1317
21724SOL    HW267490   2.181   4.033   6.567 -1.6829 -1.0344 -0.8705
21725SOL     OW67491   1.202   6.061   9.530 -0.0479 -0.1286  0.1070
21725SOL    HW167492   1.215   6.044   9.623 -0.4623  1.0405  0.3858
21725SOL    HW267493   1.282   6.026   9.489 -0.1546 -1.2510  0.8063
21726SOL     OW67494  10.215   0.477   1.854 -0.4276  0.3876 -0.0434
21726SOL    HW167495  10.280   0.488   1.785 -0.0776 -0.4834  0.1354
21726SOL    HW267496  10.224   0.556   1.908  0.7804  0.0825  0.2261
21727SOL     OW67497   1.241   9.585   8.815  0.4553  0.6155 -0.0187
21727SOL    HW167498   1.200   9.631   8.888  0.3169 -0.5904  0.6786
21727SOL    HW267499   1.200   9.623   8.737 -0.5354  0.8152  0.5904
21728SOL     OW67500   5.978   0.150   7.621 -0.2816 -0.1827  0.8024
21728SOL    HW167501   5.885   0.170   7.608 -0.1761  0.4892  1.0423
21728SOL    HW267502   6.015   0.232   7.654  0.5504 -0.1952 -0.0671
21729SOL     OW67503   5.360   6.619   7.654 -0.0259 -0.1547  0.4468
21729SOL    HW167504   5.406   6.643   7.574 -2.5807  0.0765 -1.0836
21729SOL    HW267505   5.362   6.523   7.655 -0.0399 -0.1594  0.0532
21730SOL     OW67506   6.180   9.271   6.935  0.6007  0.0110  0.1524
21730SOL    HW167507   6.187   9.208   6.863 -0.5279  0.9245 -0.7783
21730SOL    HW267508   6.141   9.221   7.007  1.9354 -0.9632  0.2456
21731SOL     OW67509   2.524   6.130   6.266  0.0914  0.1472 -0.6312
21731SOL    HW167510   2.469   6.172   6.201 -1.7581  1.9308  1.9123
21731SOL    HW267511   2.476   6.051   6.291 -0.2033  0.5044 -0.0476
21732SOL     OW67512   5.329   7.523   0.192 -0.4640 -0.4153  0.2961
21732SOL    HW167513   5.253   7.513   0.136  0.4422  2.1353 -1.5605
21732SOL    HW267514   5.296   7.506   0.281 -2.9160 -0.4352 -0.5450
21733SOL     OW67515   7.431   5.731   9.844 -0.6324 -0.1786  0.0411
21733SOL    HW167516   7.382   5.688   9.775  0.5702 -0.5244 -0.6183
21733SOL    HW267517   7.434   5.823   9.817 -0.4901 -0.2464 -0.1782
21734SOL     OW67518   5.859   5.991   9.865 -0.0004  0.9066  0.2502
21734SOL    HW167519   5.877   6.050   9.938 -0.6889  0.1389  1.0566
21734SOL    HW267520   5.852   6.049   9.789  1.9937  1.6036  0.5371
21735SOL     OW67521   9.012   0.654   3.610  0.2018 -0.5375  0.3130
21735SOL    HW167522   8.926   0.638   3.651  1.1108 -3.1817  1.4410
21735SOL    HW267523   9.075   0.616   3.672  2.5792  3.8515  0.9930
21736SOL     OW67524   1.864   7.467   8.372  0.4046  0.2746 -0.4279
21736SOL    HW167525   1.894   7.475   8.463  1.2414  1.5711 -0.7946
21736SOL    HW267526   1.871   7.373   8.354 -0.9870 -0.2141  1.2139
21737SOL     OW67527   4.216   3.624   2.504 -0.2697 -0.4615 -0.2133
21737SOL    HW167528   4.278   3.697   2.501 -1.2594  0.3714 -1.5688
21737SOL    HW267529   4.229   3.586   2.591  1.2924  0.4112 -0.0070
21738SOL     OW67530   6.765   5.390  10.202 -0.1350  0.4939  0.0637
21738SOL    HW167531   6.769   5.378  10.297  1.4749  0.9463  0.0816
21738SOL    HW267532   6.837   5.337  10.168  0.6716  2.0114 -0.6952
21739SOL     OW67533   4.167  10.134   5.782 -0.4866  0.5143  0.3450
21739SOL    HW167534   4.163  10.188   5.860 -0.3870 -0.3217  0.9449
21739SOL    HW267535   4.126  10.187   5.713 -2.7258  0.3481  1.4913
21740SOL     OW67536   5.846  10.385   2.881  0.0395  0.1728  0.0173
21740SOL    HW167537   5.775  10.422   2.829 -0.0766  2.7283  1.7870
21740SOL    HW267538   5.818  10.396   2.972  1.9390 -0.3837  0.7231
21741SOL     OW67539   2.973   2.159   4.086 -0.0939 -0.4446 -0.4940
21741SOL    HW167540   2.948   2.074   4.123 -0.6885 -0.4591 -0.9237
21741SOL    HW267541   3.017   2.137   4.004  1.3272 -0.4177  0.2296
21742SOL     OW67542   7.872  10.593   3.531 -0.1835  0.9818 -0.4441
21742SOL    HW167543   7.861  10.627   3.620  0.3069  0.9442 -0.3696
21742SOL    HW267544   7.966  10.598   3.515  0.0992 -1.4966  0.0240
21743SOL     OW67545   0.474  10.293   6.923 -0.1453 -0.8302 -0.3529
21743SOL    HW167546   0.566  10.289   6.951 -0.2626 -1.1334 -0.0127
21743SOL    HW267547   0.478  10.322   6.832  0.2993 -1.0507 -0.4056
21744SOL     OW67548   3.090   5.637   0.539  0.6109  0.0527 -0.0250
21744SOL    HW167549   3.143   5.717   0.547  0.2205  0.3196 -0.0672
21744SOL    HW267550   3.071   5.611   0.629  1.6265 -0.6029  0.0221
21745SOL     OW67551   7.375   2.396   5.120 -0.4403 -0.3375  0.1410
21745SOL    HW167552   7.424   2.319   5.150 -1.5905 -0.9169  0.5966
21745SOL    HW267553   7.430   2.433   5.051  0.0944 -1.6279 -0.1646
21746SOL     OW67554   6.269   6.409  10.052 -0.3082  0.8012  0.3069
21746SOL    HW167555   6.360   6.384  10.038 -0.1172  2.2399 -1.3021
21746SOL    HW267556   6.248   6.374  10.139  0.9959 -1.7264 -0.2813
21747SOL     OW67557   9.644   6.225   7.632 -0.1317 -0.0033 -0.3718
21747SOL    HW167558   9.636   6.300   7.691  0.1876 -0.1537 -0.1375
21747SOL    HW267559   9.692   6.258   7.556  2.1076 -0.5401  0.7472
21748SOL     OW67560   4.814   0.816   4.792  0.0683 -0.0947  0.1632
21748SOL    HW167561   4.864   0.893   4.766  0.1486 -0.4365 -0.7374
21748SOL    HW267562   4.878   0.759   4.834 -0.0295  0.4014  0.9917
21749SOL     OW67563   6.784   7.424   2.374 -0.1498  0.4992  0.1958
21749SOL    HW167564   6.852   7.476   2.416 -0.8835  2.1053 -0.4793
21749SOL    HW267565   6.788   7.339   2.416  1.2229  1.0556  1.2500
21750SOL     OW67566   6.993   6.909   2.047 -0.0934 -0.3541 -0.7796
21750SOL    HW167567   7.081   6.871   2.046 -0.2696 -0.8337  0.3496
21750SOL    HW267568   7.001   6.988   2.100 -0.3457 -0.3944 -0.6818
21751SOL     OW67569   8.302   7.420   8.350  0.0402  0.3145  0.2146
21751SOL    HW167570   8.296   7.330   8.316 -0.0038  0.1429  0.6691
21751SOL    HW267571   8.392   7.429   8.380  0.7177  1.1768 -1.8578
21752SOL     OW67572   4.031   0.845   5.501 -0.0176  0.1438  0.3000
21752SOL    HW167573   4.073   0.823   5.584  1.3832  1.0188 -0.1311
21752SOL    HW267574   4.105   0.863   5.442 -0.8303 -3.0414 -1.9317
21753SOL     OW67575   4.336   5.867   8.875  0.4745 -0.1260 -0.1670
21753SOL    HW167576   4.431   5.864   8.888  0.5949 -0.0771 -0.9721
21753SOL    HW267577   4.300   5.886   8.961  1.2709  1.0550 -0.0739
21754SOL     OW67578   7.753   2.940   3.648  0.1061  0.1016 -0.2869
21754SOL    HW167579   7.763   3.028   3.611 -1.7455  0.6383  0.4013
21754SOL    HW267580   7.822   2.889   3.605  0.3241  1.5388 -1.7643
21755SOL     OW67581   0.511   4.163   9.784  0.2456  0.5353 -1.3248
21755SOL    HW167582   0.514   4.068   9.796 -0.9055  0.7787  1.5019
21755SOL    HW267583   0.588   4.196   9.830  0.0286  1.0661 -1.3362
21756SOL     OW67584   2.506   7.098   4.745  0.2456  0.5805 -0.5358
21756SOL    HW167585   2.575   7.089   4.679  2.6110  0.6893  1.7564
21756SOL    HW267586   2.490   7.008   4.775  0.4911  0.7006 -0.0349
21757SOL     OW67587   8.572   0.986   9.109 -0.4970 -0.0796 -0.3629
21757SOL    HW167588   8.664   0.969   9.090 -0.8235 -2.2844 -0.1589
21757SOL    HW267589   8.525   0.954   9.033 -1.0357  3.6452 -1.8169
21758SOL     OW67590   9.965   9.627   2.824  0.0332  0.4110  0.2525
21758SOL    HW167591   9.874   9.653   2.834 -0.3113 -0.4400 -0.5560
21758SOL    HW267592   9.962   9.545   2.775  1.1599 -0.4019  1.4814
21759SOL     OW67593   2.308   3.745   1.400  0.8563 -0.2797 -0.0126
21759SOL    HW167594   2.229   3.693   1.412  1.0218  0.0421  3.2130
21759SOL    HW267595   2.296   3.821   1.458  1.7656  2.0078 -2.5863
21760SOL     OW67596   6.460   3.986   5.879 -0.1505  0.2170 -0.6501
21760SOL    HW167597   6.410   3.904   5.878 -1.2852  0.8967 -1.8009
21760SOL    HW267598   6.417   4.040   5.945  1.2742 -0.4660  0.9208
21761SOL     OW67599   1.395   9.367   8.514  0.1808  0.1989 -0.2586
21761SOL    HW167600   1.438   9.392   8.595  1.1954  0.4814 -0.8727
21761SOL    HW267601   1.464   9.326   8.461 -0.7818 -1.3293 -0.4086
21762SOL     OW67602   3.117   2.591   7.751 -0.3670  0.0116  0.3486
21762SOL    HW167603   3.150   2.609   7.664 -0.5553 -0.4036  0.1851
21762SOL    HW267604   3.026   2.564   7.737 -0.1397 -0.9342  0.5731
21763SOL     OW67605   6.566  10.225   3.013  0.1498 -0.4634  0.1395
21763SOL    HW167606   6.498  10.158   3.016  0.9282 -1.3185 -0.8350
21763SOL    HW267607   6.616  10.205   2.935  0.5630  1.1149 -0.0316
21764SOL     OW67608   0.135   6.729   6.549  0.2361  0.1926  0.4432
21764SOL    HW167609   0.157   6.803   6.604  0.9336 -1.1968  2.1348
21764SOL    HW267610   0.172   6.750   6.463  0.1061  1.9142  0.7866
21765SOL     OW67611   9.738   2.045   1.289  0.0576  0.0616 -0.0605
21765SOL    HW167612   9.809   1.993   1.324  0.5732  1.4902  1.0901
21765SOL    HW267613   9.697   2.086   1.365  0.0200  1.7609 -0.9349
21766SOL     OW67614   7.223   5.503   0.293 -0.2254 -0.2489  0.2009
21766SOL    HW167615   7.199   5.440   0.361 -0.2886 -0.8838 -0.4070
21766SOL    HW267616   7.318   5.495   0.286 -0.1662  0.1231  0.5008
21767SOL     OW67617   5.373   3.448   0.382 -0.4959  0.3381 -0.8257
21767SOL    HW167618   5.378   3.523   0.324  0.4015  1.5704  0.7648
21767SOL    HW267619   5.461   3.412   0.383 -0.3932  0.5763  0.0409
21768SOL     OW67620   4.321   2.011   8.675 -0.3218 -0.0100 -0.0406
21768SOL    HW167621   4.295   2.025   8.584  2.2959  1.0146 -0.7101
21768SOL    HW267622   4.351   1.920   8.677 -0.6064 -0.1085 -0.1199
21769SOL     OW67623   9.785  10.419   5.808 -0.3887 -0.0159  0.3387
21769SOL    HW167624   9.727  10.424   5.732  0.0831  2.1724  0.0633
21769SOL    HW267625   9.727  10.431   5.883 -0.6537 -0.7109  0.2531
21770SOL     OW67626   4.907   6.880   3.149  0.0133  0.2111 -0.2222
21770SOL    HW167627   4.847   6.953   3.134  0.5360  0.7222  0.1176
21770SOL    HW267628   4.893   6.855   3.240  2.1941  2.1398  0.7556
21771SOL     OW67629   2.130   6.872   4.841 -0.2223 -0.6744  1.0011
21771SOL    HW167630   2.164   6.860   4.929  3.3599 -0.2941 -0.1613
21771SOL    HW267631   2.111   6.965   4.834  4.4851  0.4879  0.0529
21772SOL     OW67632   2.899   4.971   7.313  0.5861  0.2879 -0.8746
21772SOL    HW167633   2.981   4.972   7.264 -0.1899 -0.0599 -2.2355
21772SOL    HW267634   2.888   4.880   7.339  0.7142  0.3659 -0.5471
21773SOL     OW67635  10.538   2.056   0.418 -0.0337 -0.7206 -0.1412
21773SOL    HW167636  10.515   2.146   0.441 -0.0944 -0.3947 -1.4121
21773SOL    HW267637  10.611   2.064   0.357  0.8529 -1.6027  0.7602
21774SOL     OW67638  10.451   8.731   2.048  0.3722 -0.3874 -0.5234
21774SOL    HW167639  10.462   8.657   1.988 -0.4953 -0.8148 -0.1755
21774SOL    HW267640  10.539   8.768   2.058  1.3228 -2.8804  1.2770
21775SOL     OW67641   6.642   7.846   3.393  0.2494  0.2867  0.0583
21775SOL    HW167642   6.715   7.853   3.455 -0.1193  2.3391  0.3275
21775SOL    HW267643   6.566   7.824   3.448  0.5569 -1.6134 -0.1934
21776SOL     OW67644   8.194   6.109   0.055 -0.2493 -0.1663  0.4420
21776SOL    HW167645   8.178   6.070  -0.031 -2.9859  0.1913  0.6772
21776SOL    HW267646   8.106   6.121   0.092  0.6543  2.8721  1.8661
21777SOL     OW67647   3.413   0.836   6.288 -0.0478 -0.4240 -0.3454
21777SOL    HW167648   3.433   0.906   6.350  1.7971  0.7056 -2.0877
21777SOL    HW267649   3.343   0.870   6.233  1.0191  0.2255 -1.3526
21778SOL     OW67650   3.973   4.819   2.862  0.0821 -0.6273  0.0225
21778SOL    HW167651   3.984   4.764   2.940  2.0807 -0.3856 -0.0269
21778SOL    HW267652   3.937   4.901   2.895  2.0056 -0.0884  0.9360
21779SOL     OW67653   1.990  10.436   0.723  0.3957 -0.5420  0.1420
21779SOL    HW167654   1.963  10.370   0.787 -0.4878  0.4701  0.8308
21779SOL    HW267655   1.955  10.518   0.757  0.9826  0.1968 -1.0087
21780SOL     OW67656   5.020   8.624   8.285 -0.0018 -0.3887 -1.0034
21780SOL    HW167657   5.111   8.650   8.296  0.7556 -0.8317 -4.9688
21780SOL    HW267658   5.023   8.529   8.271 -1.3847 -0.7583  0.7251
21781SOL     OW67659   0.962   9.150   0.848  0.1957  0.4977 -0.3847
21781SOL    HW167660   1.041   9.203   0.835  1.7819 -1.8973 -1.2326
21781SOL    HW267661   0.969   9.081   0.781 -1.7264 -0.7890  0.6584
21782SOL     OW67662   8.367   1.207   7.484 -0.2732  0.0183  0.1219
21782SOL    HW167663   8.377   1.295   7.448  0.2071  0.3694  1.0667
21782SOL    HW267664   8.275   1.187   7.473 -0.3983  0.6622 -0.0689
21783SOL     OW67665   7.359   4.661   8.532  0.8863  0.0713  0.0290
21783SOL    HW167666   7.320   4.578   8.558  0.3149  0.3456  0.0458
21783SOL    HW267667   7.395   4.697   8.614  2.1146 -0.6595 -0.1545
21784SOL     OW67668   3.144   9.640   3.026  0.1899 -0.2563 -0.1225
21784SOL    HW167669   3.195   9.720   3.016 -0.6532  0.2206 -0.7709
21784SOL    HW267670   3.201   9.570   2.994  1.3957 -0.1128  1.5871
21785SOL     OW67671   0.230   9.318   5.940 -0.3324  0.3376 -0.3975
21785SOL    HW167672   0.241   9.409   5.969 -2.8639  0.6292 -0.0825
21785SOL    HW267673   0.135   9.305   5.940 -0.0371 -2.9075  1.3967
21786SOL     OW67674   6.138   2.906   4.113 -0.3428  0.0779  0.4803
21786SOL    HW167675   6.112   2.921   4.204 -0.6550  0.3075  0.3544
21786SOL    HW267676   6.218   2.853   4.119 -0.6818 -0.4002  0.8752
21787SOL     OW67677   9.505   5.127   1.159 -0.1576 -0.2858  0.3043
21787SOL    HW167678   9.523   5.075   1.237  0.0488  0.3005  0.6567
21787SOL    HW267679   9.426   5.088   1.122 -0.6435 -0.1731  1.1742
21788SOL     OW67680   6.155  10.369   1.550  0.0563  0.2095 -0.1745
21788SOL    HW167681   6.177  10.421   1.627  1.0500  0.7658 -0.7987
21788SOL    HW267682   6.191  10.282   1.569 -0.3192  0.1500  0.2727
21789SOL     OW67683  10.196   2.753   2.522  0.0049 -0.0615 -0.7269
21789SOL    HW167684  10.255   2.689   2.562  1.4380  1.2630 -0.6130
21789SOL    HW267685  10.108   2.722   2.544  0.6736 -1.5492 -0.0162
21790SOL     OW67686   9.624   6.073   1.539  0.1786  0.0116 -0.3016
21790SOL    HW167687   9.688   6.137   1.509  0.6105 -0.8147 -1.1541
21790SOL    HW267688   9.641   5.994   1.488 -0.3863 -0.7848  0.6851
21791SOL     OW67689  10.458   7.926   9.276 -0.2555 -0.3296 -0.5651
21791SOL    HW167690  10.492   8.015   9.270  0.8110 -0.6715  0.1409
21791SOL    HW267691  10.435   7.902   9.186  1.5417 -0.1281 -1.1108
21792SOL     OW67692   1.099   0.647   1.316 -0.1179 -0.2720 -0.1447
21792SOL    HW167693   1.111   0.703   1.239  0.3437  0.5940  0.5343
21792SOL    HW267694   1.068   0.564   1.281 -1.1852  0.5231 -1.1731
21793SOL     OW67695   8.056   9.234   9.339  0.6172 -0.1889 -0.1813
21793SOL    HW167696   8.101   9.163   9.384 -0.2486 -0.2742  0.5632
21793SOL    HW267697   7.984   9.192   9.293  0.4313  0.1315 -0.1885
21794SOL     OW67698   0.376   7.524   5.214 -0.3226 -0.1629  0.1744
21794SOL    HW167699   0.428   7.485   5.144 -0.4970  0.8058 -0.5042
21794SOL    HW267700   0.392   7.618   5.207 -0.6005 -0.0201  1.2263
21795SOL     OW67701   5.629   4.889   7.550  0.1861  0.1297 -0.0730
21795SOL    HW167702   5.575   4.844   7.614  0.3689  1.7583  1.2977
21795SOL    HW267703   5.676   4.956   7.600  1.8055  0.2228 -1.5802
21796SOL     OW67704   6.670   0.706   1.522 -0.0239  0.0339 -0.6471
21796SOL    HW167705   6.744   0.695   1.462 -0.7946 -0.5452 -1.5221
21796SOL    HW267706   6.687   0.790   1.566  1.0810 -0.0345 -0.9158
21797SOL     OW67707   4.291   8.896   2.934 -0.0821 -0.8267  0.4858
21797SOL    HW167708   4.261   8.814   2.974 -3.0985  0.3588  0.8777
21797SOL    HW267709   4.211   8.940   2.907  1.4570  1.9738  0.1764
21798SOL     OW67710   7.570   2.403   9.395 -0.1517  0.2037  0.2203
21798SOL    HW167711   7.540   2.365   9.313  0.1084 -0.3082  0.3583
21798SOL    HW267712   7.506   2.472   9.415 -0.5300 -0.0487 -0.1170
21799SOL     OW67713   4.750   3.848   7.642 -0.1013  0.8968  0.3394
21799SOL    HW167714   4.776   3.760   7.615  1.6434  1.3713  0.3604
21799SOL    HW267715   4.726   3.893   7.561  1.3314  1.1125  0.0056
21800SOL     OW67716   6.289   0.540   0.707 -0.4885 -0.3914  0.1266
21800SOL    HW167717   6.336   0.544   0.791 -0.7983 -0.9817  0.3331
21800SOL    HW267718   6.324   0.614   0.657  1.2119 -1.2293 -0.0078
21801SOL     OW67719   2.753   3.325  10.036  0.1761  0.2230 -0.2346
21801SOL    HW167720   2.734   3.345  10.127  0.4704 -0.3092 -0.0487
21801SOL    HW267721   2.748   3.229  10.031 -3.2153  0.3405 -1.5254
21802SOL     OW67722   1.996   9.195   5.705 -0.2776  0.0550 -0.4655
21802SOL    HW167723   1.920   9.239   5.743  0.7337  1.2857  0.2169
21802SOL    HW267724   1.968   9.104   5.693 -1.8524  0.4863 -0.2783
21803SOL     OW67725   6.358   4.028   1.956 -0.2404  0.0284  0.2122
21803SOL    HW167726   6.418   4.005   1.886  1.5395 -0.9461  1.9495
21803SOL    HW267727   6.283   4.067   1.912  0.1764 -1.7941 -2.3240
21804SOL     OW67728   5.313   8.870   6.066  0.3637 -0.2979  0.1783
21804SOL    HW167729   5.337   8.962   6.061  0.7961 -0.4683 -1.8275
21804SOL    HW267730   5.219   8.868   6.048  0.5109 -0.2900 -0.6432
21805SOL     OW67731   3.135   7.015   1.190 -0.3480  0.4776 -0.4887
21805SOL    HW167732   3.118   7.065   1.270 -1.2154  0.2080 -0.5025
21805SOL    HW267733   3.054   6.969   1.172  0.6914 -1.6939  0.0432
21806SOL     OW67734   5.995   4.446   7.832  0.2442 -0.0739  0.1951
21806SOL    HW167735   5.988   4.486   7.919  1.3069 -0.0832  0.3008
21806SOL    HW267736   5.929   4.377   7.832 -1.8411  1.8150 -0.1042
21807SOL     OW67737   3.204   4.046   3.252 -0.1016 -0.5609  0.1320
21807SOL    HW167738   3.123   4.027   3.205 -1.3143 -0.1766  2.0076
21807SOL    HW267739   3.196   4.138   3.277 -0.2980 -1.1978  2.5738
21808SOL     OW67740   2.862  10.495   9.821 -0.3294 -0.1978  0.0464
21808SOL    HW167741   2.800  10.439   9.867 -0.3575  1.1551  1.7320
21808SOL    HW267742   2.927  10.519   9.887  1.7301 -1.0746 -1.5024
21809SOL     OW67743   2.170   2.282   4.340 -0.1313  0.1370 -0.1538
21809SOL    HW167744   2.138   2.193   4.324  0.0967  0.2216 -1.1261
21809SOL    HW267745   2.153   2.297   4.434  0.7986 -1.3003  0.2673
21810SOL     OW67746   0.765   6.818   9.582  0.1369  0.2628  0.4114
21810SOL    HW167747   0.827   6.751   9.555 -1.5258 -1.2446  0.1093
21810SOL    HW267748   0.797   6.899   9.542  0.5574 -0.9405 -1.8256
21811SOL     OW67749   5.539   5.164   7.069  0.2329  0.0189  0.5704
21811SOL    HW167750   5.463   5.222   7.069 -0.4066 -0.7872  1.4380
21811SOL    HW267751   5.535   5.119   7.153  2.2169  0.6324  1.0353
21812SOL     OW67752   8.938   5.852   0.309  0.0745 -1.1590  0.0331
21812SOL    HW167753   8.883   5.912   0.259 -0.5234 -0.4167  1.5060
21812SOL    HW267754   9.008   5.827   0.249 -1.3929 -1.4694 -1.6294
21813SOL     OW67755   1.936   2.433   1.492 -0.2047 -0.7680 -0.2115
21813SOL    HW167756   2.013   2.458   1.544  0.9468 -0.1446 -2.1400
21813SOL    HW267757   1.967   2.363   1.435 -1.0950 -0.5965 -0.9233
21814SOL     OW67758   6.157   3.781   3.259  0.4302  0.0028 -0.1779
21814SOL    HW167759   6.155   3.869   3.222  0.6546 -0.4078 -1.1991
21814SOL    HW267760   6.251   3.762   3.268  0.6743 -1.8104 -4.2345
21815SOL     OW67761   1.665   0.786   6.798  0.4487 -0.2075  0.2035
21815SOL    HW167762   1.626   0.869   6.825 -1.1892  0.1413 -2.7415
21815SOL    HW267763   1.755   0.808   6.776 -0.1580  1.0416 -1.2420
21816SOL     OW67764   6.285   0.037   0.603  0.3664 -0.2813 -0.1424
21816SOL    HW167765   6.266  -0.047   0.643 -0.3816 -0.5255 -0.9713
21816SOL    HW267766   6.329   0.014   0.521  0.2201  0.1313 -0.3375
21817SOL     OW67767   3.487   2.289   4.089  0.6842  0.7638  0.4310
21817SOL    HW167768   3.453   2.316   4.003  0.1223 -2.9385 -0.6958
21817SOL    HW267769   3.578   2.266   4.073  0.7997  0.8007  1.0231
21818SOL     OW67770   7.960   7.901   4.390  0.5567 -0.2548 -0.2126
21818SOL    HW167771   8.040   7.900   4.443 -0.0452  2.0977  0.8990
21818SOL    HW267772   7.931   7.992   4.393 -0.8000 -0.5163 -2.7223
21819SOL     OW67773   8.757   0.051   9.404 -0.2933  0.2932  0.4613
21819SOL    HW167774   8.814  -0.017   9.369 -0.7328 -0.7237  1.6451
21819SOL    HW267775   8.814   0.105   9.458 -0.0913  0.3998  0.1409
21820SOL     OW67776   4.023   6.750   2.890 -0.2236  0.2692  0.1512
21820SOL    HW167777   3.938   6.770   2.853 -1.2570 -1.0512  1.6535
21820SOL    HW267778   4.086   6.783   2.826 -1.8565 -0.3252 -1.8739
21821SOL     OW67779   9.175   5.223   2.181  0.3278 -0.0290 -0.2734
21821SOL    HW167780   9.228   5.234   2.260  0.6769  0.7695 -0.5951
21821SOL    HW267781   9.176   5.310   2.140 -1.1696 -0.0193 -0.3409
21822SOL     OW67782   6.575   9.756   6.400  0.5458  0.4498 -0.4729
21822SOL    HW167783   6.607   9.666   6.402 -0.2760  0.1712  0.7447
21822SOL    HW267784   6.634   9.801   6.339  2.2215 -0.4266  0.4414
21823SOL     OW67785   1.298   2.187   4.553 -0.3243  0.7434  0.3201
21823SOL    HW167786   1.291   2.271   4.507 -1.0498  0.8318  0.5701
21823SOL    HW267787   1.267   2.207   4.642  0.9264  0.5465  0.8174
21824SOL     OW67788   2.863   9.127   1.111 -0.1482 -0.2087  0.6277
21824SOL    HW167789   2.792   9.073   1.146 -1.3483  1.6706  1.1827
21824SOL    HW267790   2.831   9.216   1.115  1.6635  0.5666 -0.5859
21825SOL     OW67791   5.022   4.749   3.686  0.6621  0.6293 -0.1541
21825SOL    HW167792   4.975   4.804   3.624 -0.0467 -1.0006 -1.1047
21825SOL    HW267793   5.086   4.700   3.633 -0.9490 -1.8846  0.0492
21826SOL     OW67794   7.951  10.416   6.618 -0.2963  0.3596  0.2224
21826SOL    HW167795   7.930  10.356   6.546  1.3299  1.5508 -1.3529
21826SOL    HW267796   7.906  10.497   6.595  0.0184  0.6712  0.6997
21827SOL     OW67797   0.963   5.951   5.957 -0.0241 -0.3085  0.4413
21827SOL    HW167798   0.917   5.995   6.028 -0.8629 -1.1241  0.4131
21827SOL    HW267799   1.054   5.981   5.965 -0.5523  1.3930  0.4389
21828SOL     OW67800   6.809   6.098   8.868  0.8247 -0.8559 -0.7153
21828SOL    HW167801   6.740   6.034   8.856 -0.9373  0.6600  0.6928
21828SOL    HW267802   6.795   6.162   8.798  2.0259 -1.4916 -1.5757
21829SOL     OW67803   6.752   0.470   1.237 -1.2025 -1.0991 -0.8996
21829SOL    HW167804   6.690   0.448   1.306  0.0760 -0.5364  0.4896
21829SOL    HW267805   6.838   0.453   1.275 -0.4473 -0.6627 -2.3176
21830SOL     OW67806   8.102   7.910   6.531 -0.0878  0.2202 -0.0841
21830SOL    HW167807   8.025   7.967   6.531  0.2062  0.6500  1.1484
21830SOL    HW267808   8.173   7.966   6.564  0.4219 -0.5804  0.1931
21831SOL     OW67809   9.463   0.145   6.994  0.2204  0.0701  0.1773
21831SOL    HW167810   9.558   0.145   7.000  0.1438 -0.5653  2.1107
21831SOL    HW267811   9.444   0.103   6.910  1.6296  1.9228 -1.1201
21832SOL     OW67812   1.844   1.341   9.007 -0.2021  0.2272 -0.5324
21832SOL    HW167813   1.819   1.255   9.039  0.9266  0.3431  0.7374
21832SOL    HW267814   1.777   1.400   9.042  0.9870  0.3482  1.7466
21833SOL     OW67815   0.730   8.384  10.205 -0.2219  0.1184  0.1915
21833SOL    HW167816   0.751   8.299  10.243  1.0528  0.5077  0.4248
21833SOL    HW267817   0.640   8.401  10.232 -1.0826 -1.8622 -1.2075
21834SOL     OW67818   5.464   9.513   5.499  0.0378  0.1914 -0.0885
21834SOL    HW167819   5.385   9.458   5.496  0.2042 -0.0266 -1.0094
21834SOL    HW267820   5.474   9.536   5.591  0.4010 -1.9965  0.4940
21835SOL     OW67821   7.567   7.057   0.276  0.0810 -0.1802  0.2773
21835SOL    HW167822   7.555   7.109   0.355  2.3027  0.3529  0.3405
21835SOL    HW267823   7.515   7.101   0.209 -0.8276  0.0772  1.1280
21836SOL     OW67824   1.578   3.040   1.026 -0.2933 -0.1022  0.0367
21836SOL    HW167825   1.527   2.980   0.972 -1.4808  0.5374  0.4128
21836SOL    HW267826   1.523   3.117   1.035  0.6481  0.5214  0.6660
21837SOL     OW67827   4.273   9.540  10.249 -0.4595  0.0555  0.1895
21837SOL    HW167828   4.253   9.456  10.291 -1.8767 -0.1114 -0.7694
21837SOL    HW267829   4.275   9.603  10.321  1.0870 -0.8460  0.9838
21838SOL     OW67830   4.866   0.913   5.896  0.2969 -0.0148 -0.0289
21838SOL    HW167831   4.919   0.980   5.852  0.1406 -0.0986 -0.3479
21838SOL    HW267832   4.779   0.952   5.903  0.3943  0.1121  0.4706
21839SOL     OW67833   4.833   7.376   7.266  0.0114  0.3370  0.1420
21839SOL    HW167834   4.765   7.432   7.229 -0.5025 -1.4272 -1.7172
21839SOL    HW267835   4.902   7.375   7.200  0.1136 -0.9907  0.2415
21840SOL     OW67836   2.792   6.837   8.333  0.1251  0.2761 -0.5484
21840SOL    HW167837   2.816   6.745   8.324 -0.1074  0.0626  0.7518
21840SOL    HW267838   2.792   6.871   8.244  0.5965 -0.8845 -1.0113
21841SOL     OW67839   5.933   1.171   2.096 -0.2115  0.3188  0.1526
21841SOL    HW167840   5.871   1.242   2.081 -1.0099 -0.3511  0.1900
21841SOL    HW267841   5.918   1.110   2.024  0.0864 -0.0625  0.4085
21842SOL     OW67842   9.570   6.823   0.481 -0.1468 -0.1561 -0.1353
21842SOL    HW167843   9.489   6.871   0.465 -0.8708 -1.4147 -0.3379
21842SOL    HW267844   9.547   6.759   0.548  0.0610 -2.0458 -1.8019
21843SOL     OW67845   9.739   2.544   0.187 -0.0567  0.2844 -0.5935
21843SOL    HW167846   9.826   2.541   0.227 -0.1028  0.2568 -0.4941
21843SOL    HW267847   9.685   2.591   0.250  0.3459  2.0906 -1.5464
21844SOL     OW67848   1.262   3.818   1.681  0.6879  0.0765  0.2805
21844SOL    HW167849   1.169   3.838   1.667  1.0126  0.9404 -0.7681
21844SOL    HW267850   1.261   3.744   1.742 -0.7032 -0.3513 -0.2084
21845SOL     OW67851   6.005   4.811   4.755 -0.0094  0.1208  0.0753
21845SOL    HW167852   6.073   4.866   4.716 -0.4344  1.3020  0.9279
21845SOL    HW267853   5.992   4.740   4.693 -1.4296  2.4657 -2.5187
21846SOL     OW67854   8.455   1.132   4.589 -0.5381  0.8063  0.0309
21846SOL    HW167855   8.548   1.128   4.611 -0.4347  1.7226 -0.1840
21846SOL    HW267856   8.445   1.216   4.544 -1.8060  1.6080  1.7174
21847SOL     OW67857   7.740   7.381   3.691 -0.0772 -0.2519  0.1097
21847SOL    HW167858   7.707   7.311   3.634  1.1342 -0.7280 -0.0535
21847SOL    HW267859   7.671   7.447   3.691 -0.4508 -0.5992 -1.2750
21848SOL     OW67860   8.962   1.450   6.837  0.4158  0.2214  0.2489
21848SOL    HW167861   9.021   1.377   6.855 -0.1960 -0.2563  0.3484
21848SOL    HW267862   8.909   1.421   6.763 -1.2495 -0.3178  1.5629
21849SOL     OW67863   2.231   6.549   7.101  0.0768  0.2526  0.4453
21849SOL    HW167864   2.255   6.477   7.043  1.5220 -0.5855  1.9914
21849SOL    HW267865   2.181   6.507   7.171  0.4099  0.8338  1.0414
21850SOL     OW67866   8.470   6.037   5.805  0.0546 -0.0435 -0.2096
21850SOL    HW167867   8.548   6.044   5.860 -0.1347 -1.6150  0.3148
21850SOL    HW267868   8.471   6.116   5.751  0.3788  1.4548  1.8752
21851SOL     OW67869   8.894  10.442   9.295 -0.6212  0.3752 -0.2083
21851SOL    HW167870   8.982  10.447   9.260 -0.2324 -0.2918  0.6322
21851SOL    HW267871   8.902  10.386   9.373 -2.3005 -2.3284 -1.8238
21852SOL     OW67872   2.649   6.408   1.152 -0.0120  0.4970  0.0985
21852SOL    HW167873   2.557   6.433   1.141  0.3132  1.1331 -1.3603
21852SOL    HW267874   2.655   6.321   1.114 -0.0465  0.3796  0.3606
21853SOL     OW67875   7.248   7.856   9.675 -0.8267  0.1574  0.3280
21853SOL    HW167876   7.255   7.782   9.736 -1.2588  0.3517  0.6221
21853SOL    HW267877   7.172   7.905   9.707  0.0613  1.2829  0.7424
21854SOL     OW67878   4.471   3.448   8.589 -0.7701  0.5158  0.5939
21854SOL    HW167879   4.400   3.414   8.644 -0.7488 -0.9704 -0.2459
21854SOL    HW267880   4.460   3.403   8.505  1.7373 -0.5236  0.7333
21855SOL     OW67881   4.326   8.492   4.478 -0.3224  0.1792  0.2471
21855SOL    HW167882   4.303   8.466   4.389  2.5455  1.2431 -0.9209
21855SOL    HW267883   4.403   8.441   4.500 -0.3607  0.6910  1.7260
21856SOL     OW67884   4.251   6.137   3.475 -0.1231 -0.3817 -0.1118
21856SOL    HW167885   4.221   6.047   3.465  0.6192 -1.0722  2.8374
21856SOL    HW267886   4.294   6.158   3.392 -3.6965 -1.2543 -2.3956
21857SOL     OW67887  10.225   3.988   7.316 -0.5802  0.2884 -0.3125
21857SOL    HW167888  10.275   4.067   7.336 -2.2432  1.8202 -1.8276
21857SOL    HW267889  10.247   3.927   7.386  2.2108  1.3809 -0.1190
21858SOL     OW67890   4.897   4.631   3.347 -0.7055 -0.0213 -0.5063
21858SOL    HW167891   4.933   4.677   3.271  0.1914  0.4765  0.2093
21858SOL    HW267892   4.897   4.696   3.417 -1.1891 -0.5812  0.0238
21859SOL     OW67893   9.214   6.873   7.264 -0.6430 -0.3855 -0.2387
21859SOL    HW167894   9.124   6.843   7.249 -0.4354 -0.9827 -0.3274
21859SOL    HW267895   9.207   6.931   7.340 -1.4071  1.1352 -1.4211
21860SOL     OW67896   4.064   4.356   7.502 -0.0734 -0.5452  0.6613
21860SOL    HW167897   4.125   4.430   7.497 -0.3901 -0.3642 -0.9684
21860SOL    HW267898   3.978   4.397   7.509 -0.3697 -0.6756 -1.5139
21861SOL     OW67899   7.305   5.570  10.297  0.2351  0.0238 -0.6083
21861SOL    HW167900   7.318   5.661  10.272  0.7740 -0.4256 -2.0399
21861SOL    HW267901   7.282   5.526  10.216 -1.3720 -0.8921  0.2879
21862SOL     OW67902   9.963   0.891   3.676 -0.0966  0.1353 -0.0518
21862SOL    HW167903   9.971   0.796   3.679  0.9389  0.2070  2.3464
21862SOL    HW267904   9.869   0.907   3.666 -0.7291 -1.2366  2.6183
21863SOL     OW67905   8.210   4.993   0.803 -0.3302  0.0844  0.4788
21863SOL    HW167906   8.158   5.040   0.869 -0.9426  1.9793 -1.2594
21863SOL    HW267907   8.157   4.998   0.724  0.6149 -1.7149 -0.3135
21864SOL     OW67908   2.635   3.953   2.507 -0.2795 -0.5216 -0.2762
21864SOL    HW167909   2.580   4.031   2.516 -0.4919 -0.7402  0.3317
21864SOL    HW267910   2.610   3.917   2.422 -1.0490 -0.5982 -0.0256
21865SOL     OW67911   2.228   1.104   4.715  0.4096  0.4303  0.8428
21865SOL    HW167912   2.315   1.081   4.746  0.1910  0.4301  1.4796
21865SOL    HW267913   2.169   1.049   4.767  0.1309 -1.5000 -1.3783
21866SOL     OW67914   7.689   0.998   1.316  0.3466 -0.8697  0.4514
21866SOL    HW167915   7.652   1.063   1.255 -0.5831 -0.1060  1.7797
21866SOL    HW267916   7.783   1.004   1.303  0.1629 -2.2688 -2.4363
21867SOL     OW67917   2.744   3.203   6.551 -0.1555 -0.2830 -0.3400
21867SOL    HW167918   2.743   3.297   6.535  2.4785 -0.2546 -0.7574
21867SOL    HW267919   2.718   3.164   6.468  1.5391  0.0829 -1.0899
21868SOL     OW67920   2.467   1.618   1.731 -0.3748  0.0945  0.1070
21868SOL    HW167921   2.446   1.705   1.696  0.0241  0.0060 -0.3652
21868SOL    HW267922   2.547   1.592   1.685  0.7143  0.3592  1.7711
21869SOL     OW67923   9.215   5.878   1.298  0.3157 -0.2869  0.0668
21869SOL    HW167924   9.262   5.894   1.380  0.2737 -0.8866  0.2134
21869SOL    HW267925   9.257   5.800   1.261 -1.6519 -1.9589  1.0752
21870SOL     OW67926   9.996   5.673   1.126  0.0411  0.1816 -0.1925
21870SOL    HW167927  10.001   5.752   1.181 -1.8782 -0.4790  1.0624
21870SOL    HW267928   9.927   5.693   1.063  0.0063 -0.2333 -0.2872
21871SOL     OW67929   3.182   3.317   3.546  0.6871  0.9833 -0.0868
21871SOL    HW167930   3.159   3.280   3.460 -0.4587  0.6839  0.3240
21871SOL    HW267931   3.188   3.411   3.531  1.0719  0.8784 -0.6122
21872SOL     OW67932   6.882   9.292   7.508  0.5136  0.1633 -0.4120
21872SOL    HW167933   6.812   9.353   7.532 -0.8897 -0.6751 -2.0779
21872SOL    HW267934   6.855   9.258   7.423  2.7950 -0.5118 -0.9188
21873SOL     OW67935   0.847   8.543   9.382 -0.0852 -0.8723 -0.3166
21873SOL    HW167936   0.889   8.611   9.328  1.5770 -1.4095  0.2460
21873SOL    HW267937   0.856   8.463   9.331 -1.0996 -0.8965 -0.4957
21874SOL     OW67938   5.457   6.159   3.543  0.6896 -0.7495  0.5902
21874SOL    HW167939   5.544   6.197   3.530 -0.4728  1.7811 -0.4958
21874SOL    HW267940   5.430   6.131   3.455 -0.6664  1.1593  0.3365
21875SOL     OW67941   6.158   6.735   4.630  0.0413  0.1929  0.0139
21875SOL    HW167942   6.221   6.784   4.682  0.6367 -0.6062  0.0540
21875SOL    HW267943   6.193   6.737   4.541  0.3272 -0.5720  0.1038
21876SOL     OW67944   7.103   9.990   6.282  0.5718  0.3531  0.0383
21876SOL    HW167945   7.183  10.039   6.264  0.4946  0.1970 -0.7351
21876SOL    HW267946   7.064   9.974   6.197 -0.9572  1.5092  0.4899
21877SOL     OW67947   6.701   0.402   7.457  0.8009  0.0419  0.1123
21877SOL    HW167948   6.620   0.355   7.437  1.4367 -1.6089  1.2569
21877SOL    HW267949   6.733   0.430   7.372  0.0920 -1.0990 -0.5594
21878SOL     OW67950   1.195   9.606   9.816 -0.3850  0.3485 -0.4196
21878SOL    HW167951   1.205   9.699   9.797  0.7265  0.4116  0.3412
21878SOL    HW267952   1.279   9.567   9.793 -0.4118 -0.2465  0.4031
21879SOL     OW67953   5.576   9.473   4.287  0.1606  0.4511 -0.9425
21879SOL    HW167954   5.614   9.507   4.367  0.6789 -1.6117 -0.2539
21879SOL    HW267955   5.542   9.550   4.241 -0.6262  1.6280  1.4810
21880SOL     OW67956   6.331   0.669  10.003 -0.2582  0.0227 -0.1227
21880SOL    HW167957   6.320   0.587  10.051 -0.5866 -0.1420 -0.4761
21880SOL    HW267958   6.242   0.694   9.979 -0.2769  1.0300  0.8860
21881SOL     OW67959  10.149   7.361   8.703  0.8178  0.2820  0.3715
21881SOL    HW167960  10.212   7.432   8.717  0.1810  0.9243  0.0763
21881SOL    HW267961  10.064   7.405   8.699  0.3222 -0.5932  0.9957
21882SOL     OW67962   3.575   1.695   2.965 -0.1848  0.7282 -0.5986
21882SOL    HW167963   3.586   1.769   2.905  1.9206  0.3404 -0.7504
21882SOL    HW267964   3.586   1.617   2.910 -0.6786  0.3138 -0.1265
21883SOL     OW67965   1.174   5.922   4.112 -0.2960 -0.6968  0.5047
21883SOL    HW167966   1.120   5.918   4.034  1.8551 -0.6717 -1.0606
21883SOL    HW267967   1.155   5.841   4.159 -0.2327 -1.6427 -1.0350
21884SOL     OW67968   3.375   9.527   3.685 -0.6951  0.4218  0.3434
21884SOL    HW167969   3.435   9.580   3.633 -0.9711  0.2606 -0.1409
21884SOL    HW267970   3.386   9.438   3.653 -2.0947  0.5621 -0.6493
21885SOL     OW67971   2.426   3.063   4.625 -0.3798  0.1208 -0.2847
21885SOL    HW167972   2.429   2.968   4.627  0.6771  0.1381 -0.0441
21885SOL    HW267973   2.466   3.087   4.542 -0.2427  0.3582 -0.1527
21886SOL     OW67974   7.292   0.626   1.182  0.1686 -0.7696  0.2108
21886SOL    HW167975   7.279   0.637   1.276  0.7635  0.2150  0.1928
21886SOL    HW267976   7.204   0.618   1.146 -0.2379  1.4526  0.5703
21887SOL     OW67977   8.159   4.036   5.160 -0.7657 -0.4565  0.1596
21887SOL    HW167978   8.066   4.058   5.152 -0.3904  2.8973  2.7746
21887SOL    HW267979   8.204   4.119   5.146  1.7874 -1.7221  0.3592
21888SOL     OW67980   1.699   0.724   8.863  0.0719  0.0901 -0.1920
21888SOL    HW167981   1.781   0.770   8.881 -0.0122  0.4181 -0.6305
21888SOL    HW267982   1.652   0.782   8.804 -0.9501  0.4092  0.8867
21889SOL     OW67983   7.532   3.728   6.167 -0.5191  0.2724  0.1386
21889SOL    HW167984   7.502   3.695   6.082 -0.8196 -1.4731  0.8697
21889SOL    HW267985   7.501   3.663   6.230  0.3324  1.1411  1.5098
21890SOL     OW67986   6.395   2.129   1.818  0.0666  0.0175 -0.1641
21890SOL    HW167987   6.388   2.062   1.751  1.1147  0.0558 -0.3272
21890SOL    HW267988   6.448   2.198   1.777 -2.1850  1.6389 -0.5440
21891SOL     OW67989   3.645   8.047   7.031  0.2509 -0.5934  0.3198
21891SOL    HW167990   3.642   7.975   6.969  0.0063 -2.5609  2.4895
21891SOL    HW267991   3.730   8.039   7.074  0.8608  1.3642 -0.4007
21892SOL     OW67992   6.611  10.337   6.854  0.0619  0.0035 -0.3678
21892SOL    HW167993   6.661  10.364   6.777  2.3203 -1.2587  0.5544
21892SOL    HW267994   6.564  10.259   6.826  1.5818 -0.9816 -0.2871
21893SOL     OW67995   7.791   1.821   7.948  0.6918 -0.7494 -0.3591
21893SOL    HW167996   7.804   1.868   7.866  0.6050  0.8513  0.5116
21893SOL    HW267997   7.838   1.738   7.936  2.3770  0.2894 -1.3009
21894SOL     OW67998   6.348   6.340   7.467  0.0465  0.1395  0.1379
21894SOL    HW167999   6.361   6.275   7.398 -0.3851  0.3640 -0.1578
21894SOL    HW268000   6.432   6.385   7.474  0.7755 -1.3291  1.2697
21895SOL     OW68001   8.799   1.226   1.509  0.2343 -0.1046 -0.1984
21895SOL    HW168002   8.887   1.241   1.544  0.3512  0.0087 -0.5379
21895SOL    HW268003   8.775   1.309   1.467  0.0093 -0.1699 -0.2010
21896SOL     OW68004   4.407   9.285   7.868 -0.3886  0.2180  0.5282
21896SOL    HW168005   4.339   9.329   7.920  0.8249  2.7211  0.1112
21896SOL    HW268006   4.372   9.283   7.779 -0.1747  1.0101  0.4183
21897SOL     OW68007   8.160   8.197   9.931  0.0220  0.4709 -0.1690
21897SOL    HW168008   8.118   8.195  10.016 -1.0014  2.1361 -0.5853
21897SOL    HW268009   8.117   8.127   9.881 -1.0082  0.9854 -0.0231
21898SOL     OW68010   5.243   6.708   2.537  1.0480 -0.5348 -0.4197
21898SOL    HW168011   5.336   6.728   2.538  0.9364 -0.0251 -0.1646
21898SOL    HW268012   5.222   6.688   2.629  1.1066 -1.6045 -0.6251
21899SOL     OW68013   2.568   1.996   5.866  0.8280 -0.5349 -0.0065
21899SOL    HW168014   2.492   1.960   5.912  0.0859  0.5423 -0.3478
21899SOL    HW268015   2.534   2.073   5.821  2.6225  1.4020  1.7484
21900SOL     OW68016   1.501   1.078   6.598  0.5823 -0.1216 -0.2034
21900SOL    HW168017   1.525   0.991   6.568 -0.0134  0.0037 -1.0763
21900SOL    HW268018   1.544   1.137   6.537 -0.3255  0.1458 -0.6087
21901SOL     OW68019   3.900   0.406   0.296  0.1525  0.0553 -0.0674
21901SOL    HW168020   3.970   0.462   0.265  0.8841 -0.9268 -0.2440
21901SOL    HW268021   3.822   0.462   0.297  1.1622  1.5381  1.3865
21902SOL     OW68022   1.990   1.065   3.749 -0.4914  0.0002 -0.1597
21902SOL    HW168023   1.952   1.087   3.665 -0.8381 -0.4496 -0.1240
21902SOL    HW268024   1.980   0.970   3.756  2.3682 -0.4594 -1.0121
21903SOL     OW68025   9.000   6.055   1.661  0.4100 -0.2185 -0.2468
21903SOL    HW168026   8.958   6.013   1.736  1.0669  0.0334  0.2778
21903SOL    HW268027   9.003   5.987   1.594  0.1229 -0.5552  0.0762
21904SOL     OW68028   5.636   6.177   1.359  0.1291 -0.2427  0.4292
21904SOL    HW168029   5.641   6.086   1.389  0.6073 -0.3165  0.1221
21904SOL    HW268030   5.590   6.222   1.430 -1.6504 -1.0414 -0.1511
21905SOL     OW68031   6.268   9.534   9.639 -0.3902  0.1956 -0.0687
21905SOL    HW168032   6.336   9.592   9.674 -0.1482  0.0942 -0.3590
21905SOL    HW268033   6.190   9.589   9.632 -0.3344  0.3179  0.2504
21906SOL     OW68034   7.759   4.369   6.476  0.3117  0.0547 -0.2367
21906SOL    HW168035   7.681   4.337   6.521  0.2935  2.6388  1.8147
21906SOL    HW268036   7.821   4.297   6.480 -1.2033 -1.2707  0.1177
21907SOL     OW68037   3.239   1.392   7.193  0.6988  0.5460 -0.1498
21907SOL    HW168038   3.253   1.482   7.165 -0.4165  0.1939 -2.0898
21907SOL    HW268039   3.312   1.343   7.154  0.5278  0.4150 -0.3095
21908SOL     OW68040   7.335   5.466   3.687  0.2552 -0.5629  0.6720
21908SOL    HW168041   7.250   5.443   3.724  0.7224 -0.5069  1.8590
21908SOL    HW268042   7.385   5.384   3.690 -0.3663 -1.1175 -1.9448
21909SOL     OW68043   4.185   8.533   7.356  0.3142 -0.4260  0.2236
21909SOL    HW168044   4.093   8.525   7.381  0.0250  1.6963  0.0000
21909SOL    HW268045   4.212   8.619   7.389  1.6699 -0.1769 -1.4126
21910SOL     OW68046   1.204   7.491  10.495  0.0071  0.9084 -0.1699
21910SOL    HW168047   1.188   7.586  10.499  0.4758  0.9571  0.7381
21910SOL    HW268048   1.235   7.468  10.582  0.0523 -0.0626 -0.4308
21911SOL     OW68049   5.710   8.037   3.416  0.3075 -0.0939 -0.3611
21911SOL    HW168050   5.635   8.075   3.462  0.3883 -0.5737  0.1672
21911SOL    HW268051   5.681   7.950   3.390 -0.9101  1.2080 -4.0624
21912SOL     OW68052   7.889   4.117   9.027 -0.1572  0.2042  0.0452
21912SOL    HW168053   7.820   4.067   8.983 -0.8925 -0.1472  1.5544
21912SOL    HW268054   7.912   4.065   9.103  1.6244  0.4465 -0.2796
21913SOL     OW68055   4.358   2.434  10.556 -0.0293  0.2922 -0.1195
21913SOL    HW168056   4.301   2.449  10.480  1.9825  0.6119 -1.6272
21913SOL    HW268057   4.391   2.345  10.545 -1.5114 -0.5744  1.7090
21914SOL     OW68058   7.856   3.769   5.078  0.2674 -0.4912  0.2389
21914SOL    HW168059   7.787   3.828   5.050  1.6951  1.2421  0.1652
21914SOL    HW268060   7.922   3.775   5.009  1.0611 -1.0590  0.9321
21915SOL     OW68061   3.117   6.088   6.090 -0.7694 -0.3567 -0.0399
21915SOL    HW168062   3.151   6.142   6.162  0.1399  2.0064 -2.1104
21915SOL    HW268063   3.058   6.026   6.133  1.8357 -0.9895  3.0960
21916SOL     OW68064   6.181   0.302   4.613 -0.2723  0.1304 -0.3347
21916SOL    HW168065   6.122   0.249   4.667 -0.3749  0.9466  0.3782
21916SOL    HW268066   6.126   0.335   4.542 -0.6928  0.8978  0.3334
21917SOL     OW68067   5.930   8.763   4.746  0.2130  0.2552  0.3315
21917SOL    HW168068   6.019   8.731   4.733 -0.2540 -1.2031  0.5400
21917SOL    HW268069   5.914   8.820   4.671  1.0881  0.0165 -0.0540
21918SOL     OW68070   1.963   1.925   3.704  0.4850  0.2718 -0.0441
21918SOL    HW168071   1.987   1.889   3.790  0.8991 -0.3151 -0.3965
21918SOL    HW268072   2.043   1.966   3.672  0.6715 -0.5470 -0.6571
21919SOL     OW68073   5.074   9.437   0.334  0.1177  0.0162  0.2170
21919SOL    HW168074   5.086   9.457   0.427 -1.1910  2.7528 -0.0936
21919SOL    HW268075   5.132   9.498   0.289  0.8846 -1.4168 -0.8108
21920SOL     OW68076   1.304   1.260   6.643  0.3657 -0.1711 -0.4747
21920SOL    HW168077   1.377   1.212   6.603  0.8768 -0.3354  0.6078
21920SOL    HW268078   1.279   1.207   6.718  0.6030  0.9754  0.4494
21921SOL     OW68079   6.676   3.110   6.976 -0.0211  0.4407  0.5744
21921SOL    HW168080   6.669   3.097   6.881 -1.6165  1.7616  0.4771
21921SOL    HW268081   6.766   3.085   6.996  0.1868 -0.4192 -1.1881
21922SOL     OW68082   8.321   3.537   8.782 -0.0089  0.2490 -0.4420
21922SOL    HW168083   8.267   3.541   8.860  1.0399 -2.4495  0.5320
21922SOL    HW268084   8.320   3.445   8.756  4.2227 -0.0972 -0.1617
21923SOL     OW68085   7.166  10.464   2.903  0.2199  0.6834 -0.2419
21923SOL    HW168086   7.127  10.422   2.980  1.0954  1.4235  0.6470
21923SOL    HW268087   7.252  10.424   2.895 -0.0735  0.2078 -1.2094
21924SOL     OW68088   2.701   4.139   0.455  0.1218 -0.0422 -0.0875
21924SOL    HW168089   2.684   4.058   0.406  1.7994 -0.9317  0.7073
21924SOL    HW268090   2.771   4.182   0.406  0.8847 -0.2775  0.7743
21925SOL     OW68091  10.003   2.592   3.796 -0.0589 -0.2067  0.1618
21925SOL    HW168092   9.925   2.615   3.847 -0.6294  0.3741 -0.9392
21925SOL    HW268093   9.989   2.501   3.770  0.0795 -0.4000  0.7551
21926SOL     OW68094  10.110   2.386   6.248 -0.5072 -0.2692 -0.1025
21926SOL    HW168095  10.018   2.376   6.223 -0.4746  0.7955 -0.7125
21926SOL    HW268096  10.119   2.478   6.270  0.5671 -0.1994 -0.7306
21927SOL     OW68097   4.295  10.109   9.240 -0.0053 -0.1459 -0.4663
21927SOL    HW168098   4.238  10.117   9.316 -1.0845 -1.3619 -1.1174
21927SOL    HW268099   4.353  10.185   9.245 -1.4068  0.8953  0.4337
21928SOL     OW68100   0.621   3.419   8.171  0.1475  0.2456  0.2972
21928SOL    HW168101   0.694   3.381   8.220 -0.0372 -1.1185 -0.4068
21928SOL    HW268102   0.658   3.496   8.128  0.0958  2.0425  3.2053
21929SOL     OW68103   7.914   5.010   6.602  0.1260 -0.0649  0.2243
21929SOL    HW168104   7.892   4.971   6.686 -0.7998  0.0468  0.0490
21929SOL    HW268105   7.830   5.017   6.556  0.4647  0.8833 -0.2749
21930SOL     OW68106   5.254   8.266   1.346  1.2985  0.0865 -0.3000
21930SOL    HW168107   5.329   8.251   1.288  1.2247 -1.2814 -0.0711
21930SOL    HW268108   5.190   8.200   1.321  0.8540  0.1324  0.6475
21931SOL     OW68109   6.845   4.076   5.253 -0.3058  0.6284  0.5387
21931SOL    HW168110   6.879   4.044   5.336 -1.5906 -1.8498  0.1939
21931SOL    HW268111   6.909   4.046   5.188 -0.0521  1.2886  0.4781
21932SOL     OW68112   4.842   4.090   4.551 -0.0415 -0.4056  0.2525
21932SOL    HW168113   4.841   4.124   4.461 -2.2062 -1.4802 -0.2075
21932SOL    HW268114   4.799   4.158   4.603 -0.3259 -0.5004  0.1463
21933SOL     OW68115   5.318   4.614   7.133 -0.4720  0.3082 -0.0876
21933SOL    HW168116   5.315   4.549   7.063 -0.1116 -0.2801  0.4343
21933SOL    HW268117   5.404   4.655   7.125  0.0208 -0.5291  0.6759
21934SOL     OW68118   0.351   7.156   2.333 -0.4414  0.1127 -0.0660
21934SOL    HW168119   0.382   7.127   2.247  0.9935  0.0166  0.4506
21934SOL    HW268120   0.412   7.115   2.395  0.2724  2.3712  0.8259
21935SOL     OW68121   9.090   9.345   8.299 -0.3037 -0.0930 -0.1096
21935SOL    HW168122   9.063   9.258   8.269 -0.6757  0.0457 -0.1898
21935SOL    HW268123   9.067   9.403   8.226 -0.3200  0.1083  0.0566
21936SOL     OW68124   4.398   7.445   3.373 -0.6506 -0.0214  0.4336
21936SOL    HW168125   4.303   7.454   3.361 -0.3909  0.9313 -1.1461
21936SOL    HW268126   4.407   7.402   3.458 -2.4643  1.1681  1.2919
21937SOL     OW68127   4.844   3.086  10.531  0.5167  0.2282 -0.8261
21937SOL    HW168128   4.775   3.125  10.478 -1.0160  0.3405  1.1080
21937SOL    HW268129   4.798   3.052  10.608  2.4787 -0.8256 -0.0415
21938SOL     OW68130   4.344   3.633   9.504  0.4227  0.2157  0.4830
21938SOL    HW168131   4.404   3.682   9.448  0.0852  0.0187 -0.0576
21938SOL    HW268132   4.392   3.552   9.525  0.3502  0.0605  0.0571
21939SOL     OW68133   7.877   3.414   6.503  0.3130 -0.0716 -0.3413
21939SOL    HW168134   7.811   3.439   6.439 -0.0471  0.6387  0.2891
21939SOL    HW268135   7.894   3.321   6.485  0.5710  0.2261 -1.7599
21940SOL     OW68136   4.486   5.622   6.911 -0.0271 -0.3507 -0.3567
21940SOL    HW168137   4.413   5.559   6.911  0.9839 -1.5678 -0.2390
21940SOL    HW268138   4.451   5.699   6.956 -1.3192 -0.8036 -0.5411
21941SOL     OW68139   3.550   7.555   1.138 -0.3070  0.4812  0.2508
21941SOL    HW168140   3.500   7.634   1.116  0.9857  1.1010 -0.6703
21941SOL    HW268141   3.487   7.497   1.179 -1.6637  1.3963 -0.4413
21942SOL     OW68142   9.280   3.547   7.775 -0.0803  0.2961 -0.6015
21942SOL    HW168143   9.324   3.523   7.694 -0.8263  0.0779 -0.9486
21942SOL    HW268144   9.350   3.581   7.831  0.7211 -1.0392 -0.7374
21943SOL     OW68145   6.871   5.506   9.930 -0.4940  0.3970 -0.5956
21943SOL    HW168146   6.789   5.465   9.902 -0.8521  1.3071 -0.9287
21943SOL    HW268147   6.846   5.595   9.953  0.0480  0.0844  1.3260
21944SOL     OW68148   1.418   4.031   9.300 -0.4510  0.1060 -0.2758
21944SOL    HW168149   1.485   3.983   9.349 -1.4188 -1.9674 -0.8838
21944SOL    HW268150   1.406   3.980   9.220 -1.3680  1.5390 -1.0874
21945SOL     OW68151   1.388   8.059   5.425  0.1733  0.3428  0.1071
21945SOL    HW168152   1.372   8.107   5.507  0.1958 -0.8357  0.8165
21945SOL    HW268153   1.399   8.128   5.359 -0.9740  1.3098  0.8733
21946SOL     OW68154   6.684   3.926   9.643  0.1613  0.3532  0.6033
21946SOL    HW168155   6.638   3.846   9.618  0.9244  0.5327 -1.5377
21946SOL    HW268156   6.768   3.921   9.598  0.0498  2.5533  0.0295
21947SOL     OW68157   2.316   7.798   2.123  0.4451 -0.2142  0.5233
21947SOL    HW168158   2.327   7.855   2.199  0.1931  0.5113  0.0262
21947SOL    HW268159   2.325   7.709   2.158 -0.8956  0.0481  1.6248
21948SOL     OW68160   0.421   8.848   3.766  0.7335 -0.1174  0.4448
21948SOL    HW168161   0.346   8.890   3.722 -0.0446 -0.6421  1.2465
21948SOL    HW268162   0.382   8.799   3.838  1.9426  0.2864  1.4075
21949SOL     OW68163   5.100   3.809   4.721 -0.0609 -0.6061  0.3950
21949SOL    HW168164   5.131   3.893   4.756  2.3480 -2.0529  2.0468
21949SOL    HW268165   5.142   3.802   4.635 -0.3897 -0.0725  0.1867
21950SOL     OW68166   3.340   9.255   6.400 -0.0696  0.3859  0.3791
21950SOL    HW168167   3.301   9.340   6.423  1.3262  1.1781 -0.0010
21950SOL    HW268168   3.422   9.279   6.356 -1.0721 -1.0866 -2.5789
21951SOL     OW68169   8.894   0.894   2.702 -0.4829 -0.1038 -0.2086
21951SOL    HW168170   8.869   0.920   2.791 -1.3059  1.9773 -0.9770
21951SOL    HW268171   8.814   0.857   2.665  0.0574 -1.6534  0.1281
21952SOL     OW68172   8.747   8.693   6.982 -0.9924  0.1487  0.1820
21952SOL    HW168173   8.782   8.605   6.967 -3.9993 -0.8281 -2.0063
21952SOL    HW268174   8.673   8.680   7.040 -0.3741  1.5750  1.3562
21953SOL     OW68175   9.122   8.891   1.987  0.1444  0.5620  0.5634
21953SOL    HW168176   9.055   8.862   2.049  0.8248 -0.6036  0.7846
21953SOL    HW268177   9.115   8.986   1.987 -2.0614  0.4531 -0.0497
21954SOL     OW68178   9.386   0.591   1.046 -0.0569  0.4839  0.1536
21954SOL    HW168179   9.296   0.609   1.074  0.3623  1.2840  1.0624
21954SOL    HW268180   9.432   0.570   1.127  0.6732  0.5269 -0.2457
21955SOL     OW68181   4.122   4.844   2.035 -0.5270 -0.4739 -0.2678
21955SOL    HW168182   4.067   4.784   2.085  0.0799 -0.1952  0.7870
21955SOL    HW268183   4.197   4.860   2.093 -1.6238  2.9316  0.4497
21956SOL     OW68184   0.811   0.754  10.100 -0.3208  0.2272  0.0710
21956SOL    HW168185   0.798   0.717  10.187 -1.7773  2.3089  0.8459
21956SOL    HW268186   0.763   0.696  10.041  1.2005 -1.5565  0.5189
21957SOL     OW68187   8.797   9.653   7.278 -0.3772 -0.0360  0.2382
21957SOL    HW168188   8.764   9.580   7.331 -0.2527 -0.6428 -0.5061
21957SOL    HW268189   8.884   9.624   7.251 -1.4242 -0.9188 -2.4940
21958SOL     OW68190   3.084   7.618   1.329 -0.3520 -0.1861  0.2441
21958SOL    HW168191   3.113   7.664   1.408  0.6994  0.0468 -0.2676
21958SOL    HW268192   3.101   7.526   1.348  4.1282  0.1117 -1.3061
21959SOL     OW68193   9.200   1.886   8.520  0.0248 -0.2744  0.3205
21959SOL    HW168194   9.214   1.795   8.496 -0.5208  0.1732 -1.8581
21959SOL    HW268195   9.276   1.933   8.485 -0.4894  0.3319  0.0035
21960SOL     OW68196   5.719   3.822   0.740  0.1681 -0.1650  0.7079
21960SOL    HW168197   5.777   3.814   0.663 -0.0300  2.8451  0.1222
21960SOL    HW268198   5.637   3.783   0.711  0.0410  1.0571 -0.7585
21961SOL     OW68199   6.716   8.696   3.308  0.2691 -0.4139  0.3474
21961SOL    HW168200   6.789   8.707   3.247  0.2829  0.9283  0.5642
21961SOL    HW268201   6.726   8.608   3.343  0.9546 -0.7693 -0.6867
21962SOL     OW68202   3.781   3.933   5.073 -0.1143 -0.4332  0.1503
21962SOL    HW168203   3.801   3.839   5.076  1.1338 -0.3142 -2.1624
21962SOL    HW268204   3.859   3.975   5.110 -0.0914 -0.2707 -0.0825
21963SOL     OW68205   8.649   1.832   5.650  0.0905 -0.2390  0.5974
21963SOL    HW168206   8.694   1.779   5.585  0.7865  0.4081  0.5276
21963SOL    HW268207   8.642   1.775   5.727  1.1767 -0.3182  0.6595
21964SOL     OW68208   0.954   5.792   5.719  0.7362  0.7407 -0.6677
21964SOL    HW168209   1.031   5.737   5.733  1.3277  1.6455 -0.2341
21964SOL    HW268210   0.950   5.847   5.798 -1.4027 -0.4935  0.1630
21965SOL     OW68211   1.045   1.062  10.355  0.2656 -0.4032 -0.5822
21965SOL    HW168212   1.102   1.103  10.419 -0.1486 -2.3942  1.1809
21965SOL    HW268213   0.960   1.105  10.368  0.3259 -0.3948 -0.1963
21966SOL     OW68214   9.593   5.377   4.933  0.2004 -0.2264  0.4340
21966SOL    HW168215   9.569   5.397   5.023 -1.6517  0.2118 -0.0961
21966SOL    HW268216   9.577   5.283   4.924 -3.6324  0.3048 -0.4020
21967SOL     OW68217   0.777   7.051   0.702 -0.2775  0.0134 -0.4928
21967SOL    HW168218   0.714   6.986   0.733 -0.4370  1.0467  1.5313
21967SOL    HW268219   0.861   7.021   0.737 -0.1115  0.1161 -0.8036
21968SOL     OW68220   9.171   3.932   6.089 -0.2662  0.4765 -0.3091
21968SOL    HW168221   9.099   3.913   6.149 -1.2955  0.8911 -1.3743
21968SOL    HW268222   9.129   3.942   6.003  0.9535  1.5523 -0.8180
21969SOL     OW68223   3.478   9.761   2.330 -0.1631 -0.0098 -0.2772
21969SOL    HW168224   3.389   9.797   2.328 -0.2812 -0.2733  0.2827
21969SOL    HW268225   3.468   9.671   2.362  0.5822  0.8475  2.6922
21970SOL     OW68226   1.757   3.077   1.243  0.0889 -0.1226  0.3035
21970SOL    HW168227   1.785   3.117   1.161  1.4949  0.9709  1.2599
21970SOL    HW268228   1.667   3.049   1.228 -0.6022  2.4700 -0.7595
21971SOL     OW68229   1.148   0.225   8.013  0.6490  0.0132 -0.2580
21971SOL    HW168230   1.198   0.231   7.932 -1.0069 -1.2766 -1.4544
21971SOL    HW268231   1.060   0.257   7.989  0.6443  1.5565  1.5775
21972SOL     OW68232   7.543   2.246   7.068 -0.6592  0.0289 -0.2005
21972SOL    HW168233   7.557   2.184   6.997 -0.0251 -0.6165  0.4775
21972SOL    HW268234   7.597   2.322   7.044 -0.9328  0.0704 -0.7057
21973SOL     OW68235   7.260   0.037   1.460 -0.2445  0.0903 -0.1592
21973SOL    HW168236   7.173   0.071   1.441 -0.5177 -1.3156 -1.5799
21973SOL    HW268237   7.297   0.099   1.523 -1.5395  1.7425 -0.9654
21974SOL     OW68238   5.903   4.087   8.813  0.1816 -0.5894  0.5559
21974SOL    HW168239   5.926   4.090   8.721 -0.5342  0.6565  0.3923
21974SOL    HW268240   5.812   4.057   8.815 -0.1408  0.3638  0.7688
21975SOL     OW68241   7.879   6.332   9.957 -0.3270 -0.0768 -0.7764
21975SOL    HW168242   7.969   6.351   9.929 -0.2671  1.2969  0.1942
21975SOL    HW268243   7.886   6.251  10.007  0.5362  0.4209 -0.0514
21976SOL     OW68244   0.677   6.244   5.041  0.5271  0.0321  0.0280
21976SOL    HW168245   0.593   6.290   5.035 -0.4722 -1.6079  0.8001
21976SOL    HW268246   0.728   6.278   4.967 -0.3507  1.9114  0.2181
21977SOL     OW68247   9.961   5.541  10.513 -0.3970  0.1333  0.4763
21977SOL    HW168248  10.051   5.569  10.526  0.4104 -1.6300 -0.8743
21977SOL    HW268249   9.958   5.451  10.545 -1.3234 -0.2689 -0.6537
21978SOL     OW68250   1.643   2.178   6.091  0.2198  0.1368  0.0329
21978SOL    HW168251   1.612   2.102   6.041  0.5027  0.0297  0.0225
21978SOL    HW268252   1.570   2.199   6.149  0.0045  0.0738 -0.2082
21979SOL     OW68253   2.647   4.132   5.642 -0.3903  0.5254 -0.4536
21979SOL    HW168254   2.587   4.202   5.668 -1.0019 -0.0064 -0.4182
21979SOL    HW268255   2.596   4.078   5.582 -0.0582 -0.1319 -0.1541
21980SOL     OW68256   3.550   4.935   7.965  0.4672 -0.5667  0.1658
21980SOL    HW168257   3.590   4.955   7.880  0.7556 -0.3773  0.3435
21980SOL    HW268258   3.461   4.906   7.944  0.0941  0.7396 -0.1189
21981SOL     OW68259   3.287   1.215   1.194  0.2106  0.3285  0.1528
21981SOL    HW168260   3.315   1.132   1.156 -0.7181 -0.6261  1.4381
21981SOL    HW268261   3.361   1.274   1.182  1.0016 -0.7734 -0.5258
21982SOL     OW68262   2.138   7.316   0.158 -0.1433 -0.3272 -0.5198
21982SOL    HW168263   2.155   7.268   0.239  0.8113 -0.3543 -0.7233
21982SOL    HW268264   2.132   7.247   0.091 -2.0500 -0.3993 -0.3271
21983SOL     OW68265   0.838   0.246   9.587  0.3361  0.2603 -0.5501
21983SOL    HW168266   0.758   0.194   9.593  0.1084  0.3646 -2.1777
21983SOL    HW268267   0.813   0.334   9.616  0.2193 -0.0370  0.2638
21984SOL     OW68268   6.077   8.570   5.135  0.1671 -0.0561 -0.4502
21984SOL    HW168269   6.080   8.653   5.183  1.6840  0.5529 -1.4835
21984SOL    HW268270   6.136   8.584   5.061 -1.0677 -1.3989 -1.7582
21985SOL     OW68271   5.740   3.124   8.157  0.0219  0.1800  0.1195
21985SOL    HW168272   5.657   3.078   8.145 -0.1336  0.8043 -1.3763
21985SOL    HW268273   5.770   3.144   8.069  1.4107  0.6218  0.6576
21986SOL     OW68274   1.567  10.265   7.089  0.1783 -0.1480  0.0284
21986SOL    HW168275   1.513  10.260   7.168 -0.9089 -0.0532 -0.6856
21986SOL    HW268276   1.513  10.225   7.021  1.1063 -0.2446 -0.6749
21987SOL     OW68277   3.646   5.636   0.590  0.0402 -0.5462 -0.4535
21987SOL    HW168278   3.605   5.696   0.528  1.4775  2.1994  1.0858
21987SOL    HW268279   3.575   5.607   0.647 -0.0953  4.0187  2.1103
21988SOL     OW68280   9.904   6.434   7.897 -0.4620  0.2005  0.3274
21988SOL    HW168281   9.916   6.361   7.837 -1.5017  0.2283  0.0616
21988SOL    HW268282   9.977   6.493   7.880 -0.1347 -0.3296 -0.1129
21989SOL     OW68283   9.351   3.651   3.161 -0.4872 -0.3130 -0.2431
21989SOL    HW168284   9.322   3.684   3.246  0.5743 -0.3288  0.1448
21989SOL    HW268285   9.423   3.709   3.136 -0.5101 -0.5740 -0.9266
21990SOL     OW68286   9.217   3.185   7.321  0.0363 -0.4948 -0.4583
21990SOL    HW168287   9.161   3.151   7.391  0.2853 -2.4625 -1.1528
21990SOL    HW268288   9.205   3.124   7.249 -1.1498  2.1254 -2.6502
21991SOL     OW68289   5.470   8.355   4.754 -0.7343 -0.1752  0.3265
21991SOL    HW168290   5.500   8.442   4.729 -1.6472 -0.5343 -2.3467
21991SOL    HW268291   5.451   8.362   4.848  1.7029  1.7131  0.7934
21992SOL     OW68292   3.053   6.797   7.847  0.1301 -0.6269  0.3089
21992SOL    HW168293   3.134   6.754   7.822  0.4984  0.6346 -0.8346
21992SOL    HW268294   3.010   6.737   7.908  4.0627  0.5597  4.8376
21993SOL     OW68295   3.740  10.317   2.519  0.4953  0.1858 -0.0487
21993SOL    HW168296   3.730  10.394   2.464 -0.5548 -0.5386 -0.9191
21993SOL    HW268297   3.752  10.245   2.458 -2.5253 -0.9362  0.4712
21994SOL     OW68298   1.863   3.700   9.746 -0.3407  0.1495 -0.6125
21994SOL    HW168299   1.777   3.691   9.787 -0.1931  2.1198  0.2727
21994SOL    HW268300   1.916   3.632   9.787 -1.0332  0.0141  0.0912
21995SOL     OW68301   4.096   5.507   3.672 -0.4355  0.0168 -0.6203
21995SOL    HW168302   4.127   5.416   3.664  0.0045  0.1359 -0.3135
21995SOL    HW268303   4.112   5.545   3.585 -1.4355 -0.4404 -1.0209
21996SOL     OW68304   1.967   0.601   8.649 -0.6908  0.1250  0.2963
21996SOL    HW168305   1.882   0.557   8.652 -1.2083  1.1269  1.2100
21996SOL    HW268306   1.948   0.687   8.612  0.2415 -0.2453 -1.1135
21997SOL     OW68307   7.050   2.259   9.062 -0.1743 -0.3326 -1.0483
21997SOL    HW168308   7.106   2.336   9.061 -0.4719 -0.1113 -1.8829
21997SOL    HW268309   7.046   2.233   9.154  1.3160 -0.3844 -0.9744
21998SOL     OW68310   1.056   1.081   0.750 -0.1653 -0.1792  0.5150
21998SOL    HW168311   0.989   1.148   0.758  0.6558  0.5015  2.0696
21998SOL    HW268312   1.015   1.000   0.781 -0.9626 -0.3090 -0.7830
21999SOL     OW68313   8.797   6.636   2.694  0.0597  0.2023 -0.1096
21999SOL    HW168314   8.874   6.689   2.712 -0.2430  0.4037  0.6124
21999SOL    HW268315   8.832   6.550   2.669  0.5292  0.5216 -0.5812
22000SOL     OW68316   2.463   3.890   0.271 -0.7456 -0.4240 -0.4138
22000SOL    HW168317   2.527   3.893   0.200  0.6250 -2.9244  0.5743
22000SOL    HW268318   2.380   3.870   0.228 -0.3295 -0.0243 -1.4437
22001SOL     OW68319   1.897   5.494   9.653  0.0277 -0.3176  0.8861
22001SOL    HW168320   1.840   5.567   9.678 -1.0139 -1.1066  0.8963
22001SOL    HW268321   1.983   5.519   9.685 -0.5176  0.4416  1.8184
22002SOL     OW68322   0.487   1.255   9.983 -0.1414  0.0697 -0.3445
22002SOL    HW168323   0.461   1.344   9.958 -0.4332  0.3748  0.9898
22002SOL    HW268324   0.437   1.198   9.925 -0.6120  0.7556 -0.6274
22003SOL     OW68325   5.887   1.807   4.596 -0.2977  0.0429  0.2206
22003SOL    HW168326   5.901   1.822   4.690  0.1825 -0.7755  0.2956
22003SOL    HW268327   5.946   1.869   4.553  1.0278 -0.9807  0.5018
22004SOL     OW68328   2.736   1.100  10.016  0.1712  0.3428 -0.1526
22004SOL    HW168329   2.831   1.091  10.024  0.3091 -3.3739 -3.1384
22004SOL    HW268330   2.723   1.153   9.937 -0.2111 -0.0245 -0.3394
22005SOL     OW68331   4.474   6.949  10.441  0.0892 -0.2587  0.5008
22005SOL    HW168332   4.467   6.854  10.445 -1.7805 -0.2283 -0.8314
22005SOL    HW268333   4.470   6.978  10.532 -0.2512 -1.3973  0.8606
22006SOL     OW68334   0.505   8.726  10.486  0.5360 -0.1594 -0.0156
22006SOL    HW168335   0.545   8.800  10.441 -1.1335  0.1424 -1.1057
22006SOL    HW268336   0.498   8.657  10.419 -0.8636 -0.1346  0.0623
22007SOL     OW68337   6.591  10.169   2.746  0.5049  0.5793 -0.0788
22007SOL    HW168338   6.597  10.073   2.750  0.4237  0.5884  0.3859
22007SOL    HW268339   6.681  10.199   2.739  0.5280  0.4689 -0.2738
22008SOL     OW68340   1.343   9.502   4.668 -0.0539 -0.2135 -0.1037
22008SOL    HW168341   1.432   9.535   4.666  0.0127 -0.3134  0.8418
22008SOL    HW268342   1.297   9.558   4.731 -1.2363  1.2054 -2.1287
22009SOL     OW68343   9.860   6.287   8.498 -0.4000 -0.2236  0.0081
22009SOL    HW168344   9.845   6.381   8.494  0.3040  0.1384  3.2254
22009SOL    HW268345   9.866   6.267   8.592  1.9178 -3.0610 -0.5722
22010SOL     OW68346   5.135   4.554   4.932  0.4857  0.4727 -0.5445
22010SOL    HW168347   5.222   4.514   4.938  0.1899 -0.1479 -0.3206
22010SOL    HW268348   5.079   4.497   4.985  0.1251  1.4089  0.0960
22011SOL     OW68349   9.537  10.182   3.864  0.0251  0.0293 -0.3106
22011SOL    HW168350   9.550  10.270   3.828  0.1243 -0.1417 -0.6871
22011SOL    HW268351   9.478  10.139   3.803 -1.2204  0.3183  0.6421
22012SOL     OW68352   3.669   3.953   2.531  0.4882 -0.5352 -0.3949
22012SOL    HW168353   3.740   4.002   2.573 -1.0088  1.4633 -0.0457
22012SOL    HW268354   3.711   3.875   2.495  2.5967 -0.1114  0.9996
22013SOL     OW68355   8.728   6.928   5.835  0.1865 -0.1971 -0.0805
22013SOL    HW168356   8.652   6.986   5.838 -0.0745 -0.5568  0.3940
22013SOL    HW268357   8.798   6.981   5.798 -0.0463  0.4290  0.3643
22014SOL     OW68358   0.757   6.097   9.706  0.2133  0.6272  0.2302
22014SOL    HW168359   0.679   6.045   9.684  1.0693 -0.6313  0.0920
22014SOL    HW268360   0.825   6.065   9.648  0.7517  2.0175  0.0596
22015SOL     OW68361   9.050   3.416   3.085  0.1233 -0.5024 -0.5053
22015SOL    HW168362   9.068   3.462   3.004  0.3080  0.0168 -0.1739
22015SOL    HW268363   8.983   3.352   3.062  1.9519 -2.1193 -1.6522
22016SOL     OW68364   1.046   6.441   0.552  0.5507  0.2427 -0.1722
22016SOL    HW168365   1.043   6.513   0.616  0.0939  1.5640 -1.6096
22016SOL    HW268366   0.955   6.420   0.536  0.6838 -1.5678  1.1359
22017SOL     OW68367   0.102   9.229   6.892  0.3303 -0.7141  0.2752
22017SOL    HW168368   0.147   9.251   6.973 -1.2538 -0.3260  1.1105
22017SOL    HW268369   0.050   9.152   6.913  0.2601 -0.8919 -0.5079
22018SOL     OW68370   7.910   2.413   7.312  0.4035 -0.0122  0.1042
22018SOL    HW168371   7.927   2.413   7.218  1.6904 -0.4710  0.3105
22018SOL    HW268372   7.907   2.506   7.336  0.4623  0.1032 -0.3360
22019SOL     OW68373   6.943   1.221   4.715  0.3096 -0.3295  0.0419
22019SOL    HW168374   6.983   1.138   4.744  0.3377  0.0663  1.1796
22019SOL    HW268375   6.934   1.211   4.620  2.4129 -0.7559 -0.1797
22020SOL     OW68376   2.918   6.987   2.983 -0.4053 -0.4656 -0.2612
22020SOL    HW168377   2.965   7.041   3.046 -0.5473  1.2617 -1.5733
22020SOL    HW268378   2.913   6.901   3.025  0.3269  0.3610  1.6557
22021SOL     OW68379   3.717   2.427   1.971  0.0952  0.6725  0.5498
22021SOL    HW168380   3.743   2.500   2.028  1.1766 -0.1486  1.1511
22021SOL    HW268381   3.643   2.461   1.921 -0.4152  1.6571  1.9268
22022SOL     OW68382   9.871   4.112   4.632 -0.2419  0.2136  0.3975
22022SOL    HW168383   9.943   4.127   4.693 -1.1428  1.6883  1.1392
22022SOL    HW268384   9.833   4.198   4.616 -0.9724 -0.3331 -1.1062
22023SOL     OW68385   7.747   7.886   6.792 -0.9371 -0.0724 -0.2901
22023SOL    HW168386   7.662   7.899   6.751 -0.5492  2.2601 -0.4974
22023SOL    HW268387   7.795   7.967   6.775  0.4552 -0.3319  1.9110
22024SOL     OW68388   1.387   3.480   5.214  0.0841  0.3466 -0.0344
22024SOL    HW168389   1.430   3.420   5.275 -1.6429 -0.2307  0.6756
22024SOL    HW268390   1.304   3.438   5.194 -0.4325  1.7129 -0.8756
22025SOL     OW68391   7.419   8.749   8.116 -0.2847  0.3924 -0.6043
22025SOL    HW168392   7.464   8.743   8.032 -1.3989  2.9076 -1.4678
22025SOL    HW268393   7.472   8.808   8.169  0.8254 -1.7596  0.8621
22026SOL     OW68394   5.295   9.138   4.210  0.1640  0.3080  0.1834
22026SOL    HW168395   5.297   9.190   4.129  0.5070  0.7366  0.4636
22026SOL    HW268396   5.204   9.108   4.216  0.7083 -2.1824 -1.8869
22027SOL     OW68397   1.520   1.897   4.285  0.4695 -0.7210 -0.7690
22027SOL    HW168398   1.428   1.883   4.304  0.3773  1.5904  0.9005
22027SOL    HW268399   1.520   1.971   4.224  1.2032  1.5955  1.8341
22028SOL     OW68400   2.630   6.234   3.913 -0.0719 -0.0862  0.6315
22028SOL    HW168401   2.560   6.261   3.973  0.7727 -0.8737  2.0321
22028SOL    HW268402   2.711   6.254   3.960  0.6443  0.0766 -0.6279
22029SOL     OW68403   6.666   3.500   2.169  0.1657 -0.1292 -0.0171
22029SOL    HW168404   6.606   3.562   2.210  0.4206 -0.8298  1.4594
22029SOL    HW268405   6.751   3.543   2.171 -0.1409  0.6387 -1.6244
22030SOL     OW68406   6.647   2.866   8.372  0.5288 -0.0255  0.2738
22030SOL    HW168407   6.654   2.788   8.427  0.0709  0.8500  1.6536
22030SOL    HW268408   6.701   2.931   8.417  3.7906 -0.4594 -2.7009
22031SOL     OW68409   1.750   6.277   6.276  0.2011  0.2898  0.3704
22031SOL    HW168410   1.690   6.250   6.207  1.7692 -0.7617 -0.6589
22031SOL    HW268411   1.824   6.316   6.229  1.8050 -1.4391  1.3426
22032SOL     OW68412   2.834   8.253   7.595  0.0346 -0.1131  0.4894
22032SOL    HW168413   2.879   8.336   7.582  0.5345 -0.2417  1.2923
22032SOL    HW268414   2.766   8.252   7.528 -1.0807  1.7144  1.4984
22033SOL     OW68415   1.361   9.996   9.729  0.3926  0.0751  0.3922
22033SOL    HW168416   1.307   9.918   9.712  1.1948 -0.3625 -0.2598
22033SOL    HW268417   1.419   9.969   9.801 -0.1199  0.4824  0.9687
22034SOL     OW68418   0.744   7.641   2.336 -0.3376 -0.3900 -0.3199
22034SOL    HW168419   0.829   7.600   2.350 -1.1154 -1.5682  1.2672
22034SOL    HW268420   0.687   7.570   2.309 -1.3775 -0.1252  1.0684
22035SOL     OW68421   6.497   6.305   9.967  0.5300 -0.2099 -0.3631
22035SOL    HW168422   6.564   6.304  10.035  0.7535  0.0718 -0.5761
22035SOL    HW268423   6.540   6.344   9.891 -0.0156  0.4458 -0.3507
22036SOL     OW68424   8.857   8.011   6.124  0.1263 -0.1107  0.2785
22036SOL    HW168425   8.903   8.054   6.052  0.9092 -0.5062  0.5252
22036SOL    HW268426   8.919   8.013   6.197 -0.0178 -1.1687  0.4503
22037SOL     OW68427  10.212   9.222   5.902 -0.4399 -0.8588  0.0131
22037SOL    HW168428  10.162   9.256   5.828  2.7844  1.2333 -1.3869
22037SOL    HW268429  10.204   9.126   5.893 -3.5083 -0.6786 -0.4467
22038SOL     OW68430  10.228   7.663   2.770 -0.4050 -0.5093 -0.3282
22038SOL    HW168431  10.291   7.731   2.796 -1.3377 -0.3256  1.6672
22038SOL    HW268432  10.245   7.649   2.677  1.2994  0.8738 -0.2840
22039SOL     OW68433   8.965   9.498   2.057 -0.4351  0.4414 -0.7515
22039SOL    HW168434   8.895   9.441   2.089  1.4979 -0.8122  1.5525
22039SOL    HW268435   8.921   9.581   2.038 -2.5240 -0.2159  0.8411
22040SOL     OW68436   8.497   9.610   1.092  0.4616  0.5338  0.6218
22040SOL    HW168437   8.410   9.577   1.071  0.3868  0.4432  1.0793
22040SOL    HW268438   8.536   9.628   1.006  0.3578 -0.3602  0.3667
22041SOL     OW68439   5.005   8.919   7.579 -0.4070 -0.0263 -0.4329
22041SOL    HW168440   4.948   8.987   7.614 -0.3066  0.0401 -0.3971
22041SOL    HW268441   4.945   8.857   7.537 -0.6280 -0.5815  0.6386
22042SOL     OW68442   3.516   6.958   6.899  0.1024  0.3052 -0.1363
22042SOL    HW168443   3.553   7.003   6.975  0.5155  3.4535 -2.0089
22042SOL    HW268444   3.421   6.958   6.916 -0.0317  2.9433 -0.4600
22043SOL     OW68445   0.767   4.052   0.304 -0.4443  0.6146  0.0145
22043SOL    HW168446   0.808   3.977   0.349  0.6778  0.4999 -1.1622
22043SOL    HW268447   0.724   4.013   0.229 -2.4758  0.7869  1.0266
22044SOL     OW68448   1.906   6.843   7.919  0.1264 -0.1125 -0.6268
22044SOL    HW168449   1.929   6.823   8.010 -0.3452  0.2897 -0.4179
22044SOL    HW268450   1.863   6.764   7.888 -0.5490  0.0807 -0.2073
22045SOL     OW68451   5.665   3.502   9.062 -0.1719  0.3400  0.3548
22045SOL    HW168452   5.623   3.422   9.095  0.0322 -0.2529 -0.7892
22045SOL    HW268453   5.593   3.559   9.038 -0.3248 -0.0014 -0.0047
22046SOL     OW68454   9.816   3.488   5.844 -0.0573  0.5192  0.0048
22046SOL    HW168455   9.780   3.549   5.908 -0.7509  1.2619 -1.0538
22046SOL    HW268456   9.777   3.515   5.760  1.2819 -0.0334 -0.8339
22047SOL     OW68457   0.280   5.590   4.098  0.2747 -0.1519 -0.5282
22047SOL    HW168458   0.195   5.623   4.125  0.4741 -0.4628  0.5002
22047SOL    HW268459   0.314   5.543   4.174  0.7078 -1.3289 -1.4029
22048SOL     OW68460   2.977   8.693   8.039  0.4314 -0.0038  0.2809
22048SOL    HW168461   3.030   8.745   7.979  1.2441 -1.6977 -0.5252
22048SOL    HW268462   2.928   8.633   7.983 -0.1238 -0.4488  1.2109
22049SOL     OW68463   4.772   7.661   8.929  0.1104 -0.6023  0.2596
22049SOL    HW168464   4.746   7.708   8.851 -0.2968 -0.9680  0.1726
22049SOL    HW268465   4.693   7.656   8.983  0.4230 -0.2151  0.7701
22050SOL     OW68466   4.868   8.962   3.363 -0.3783  0.4385  0.6128
22050SOL    HW168467   4.812   8.947   3.439 -0.1914 -1.9075  0.3550
22050SOL    HW268468   4.955   8.933   3.391  0.1832  1.6265  0.1785
22051SOL     OW68469   9.152   4.446  10.261 -0.4234 -0.2652  0.1849
22051SOL    HW168470   9.111   4.359  10.259  0.5961 -0.7687 -1.3513
22051SOL    HW268471   9.114   4.491  10.186  0.5486 -0.1387 -0.2487
22052SOL     OW68472   7.320   1.806  10.231 -0.1346 -0.1664  0.0551
22052SOL    HW168473   7.225   1.794  10.226 -0.2133 -0.1246  1.2367
22052SOL    HW268474   7.353   1.765  10.151 -1.0019 -1.7012  0.4414
22053SOL     OW68475   5.151   5.694   5.584 -0.5553  0.6826 -0.0171
22053SOL    HW168476   5.069   5.660   5.548 -0.1881  0.9913 -1.2045
22053SOL    HW268477   5.219   5.645   5.537 -0.0356  2.0178 -0.6986
22054SOL     OW68478   1.430   7.531   3.013 -0.2189  0.2562  0.4309
22054SOL    HW168479   1.474   7.614   3.034 -0.0129  0.2914 -0.1327
22054SOL    HW268480   1.384   7.508   3.094 -0.6450  1.1489  0.4695
22055SOL     OW68481   3.921   7.790   8.028 -0.1549  0.4540  0.0349
22055SOL    HW168482   3.902   7.697   8.018 -1.4239  0.5012  1.6320
22055SOL    HW268483   3.988   7.794   8.096 -0.2729  0.7165  0.1364
22056SOL     OW68484   7.719   8.751   1.990 -0.6889  0.3337  0.1994
22056SOL    HW168485   7.802   8.706   1.980  0.7282  2.8881 -0.4549
22056SOL    HW268486   7.656   8.682   2.012  1.0726 -2.0361 -1.7064
22057SOL     OW68487   3.196   7.346   4.094  0.0972 -0.0409 -1.0928
22057SOL    HW168488   3.253   7.298   4.154 -0.2526  0.7555 -0.1091
22057SOL    HW268489   3.255   7.375   4.024  1.0318  1.1611  0.1385
22058SOL     OW68490   8.017   1.454   7.727  0.3767 -0.2922  0.2964
22058SOL    HW168491   8.013   1.417   7.638  1.8661 -1.1482  0.5650
22058SOL    HW268492   8.109   1.448   7.752 -0.2337 -1.4601  2.4949
22059SOL     OW68493   7.826   8.876   5.313 -0.1401  0.3443  0.0474
22059SOL    HW168494   7.908   8.827   5.309  0.2924  1.1439 -1.6865
22059SOL    HW268495   7.853   8.967   5.324 -0.5942  0.9804 -3.2405
22060SOL     OW68496   8.571   1.080   5.546 -0.3215  0.0143  0.2527
22060SOL    HW168497   8.553   1.143   5.476 -1.0045 -0.7067 -0.2281
22060SOL    HW268498   8.522   1.113   5.622 -1.7378 -0.5984 -0.3559
22061SOL     OW68499   4.001  10.200   8.757 -0.1664  0.0277 -0.4941
22061SOL    HW168500   4.029  10.169   8.843 -2.0447 -1.9076 -0.4919
22061SOL    HW268501   3.906  10.197   8.760 -0.3143  1.3027 -2.1927
22062SOL     OW68502   6.817   5.928   4.739  0.7399  0.2955 -0.1807
22062SOL    HW168503   6.855   5.879   4.666  1.5264  0.7724 -0.0963
22062SOL    HW268504   6.779   5.860   4.796  1.5188 -0.1911 -0.2365
22063SOL     OW68505   3.749   6.089   4.457 -0.4923  0.2314 -0.0742
22063SOL    HW168506   3.766   6.176   4.493 -0.7670  0.8824 -1.4388
22063SOL    HW268507   3.819   6.034   4.492 -0.0672  1.1017  0.4738
22064SOL     OW68508   2.839   9.070   5.332 -0.5666 -0.1140 -0.4565
22064SOL    HW168509   2.852   8.975   5.335  0.3558  0.0304  1.5378
22064SOL    HW268510   2.747   9.082   5.353 -0.6160 -0.5410 -0.4126
22065SOL     OW68511   3.156   7.931   8.184  0.0303 -0.7635 -0.2517
22065SOL    HW168512   3.129   7.872   8.115  0.6166 -1.1119 -0.1927
22065SOL    HW268513   3.154   7.878   8.264 -3.0957  0.2494  0.4976
22066SOL     OW68514   2.985  10.549   4.239  0.2468  0.0525 -0.2518
22066SOL    HW168515   2.995  10.536   4.333 -1.1795 -0.3744 -0.1341
22066SOL    HW268516   2.957  10.640   4.230  1.9998  0.5940 -0.4081
22067SOL     OW68517  10.160  10.171   8.252 -0.2609  0.6418  0.4602
22067SOL    HW168518  10.123  10.082   8.249 -1.4165  1.0617  1.3810
22067SOL    HW268519  10.143  10.200   8.341 -0.0674  1.8723  0.1043
22068SOL     OW68520   9.962   5.918   1.575  0.2439  0.3616 -0.0597
22068SOL    HW168521  10.011   5.866   1.638 -0.5413 -0.6856 -0.2760
22068SOL    HW268522   9.998   6.006   1.583  2.3800 -0.4093 -0.4497
22069SOL     OW68523   7.267   2.358   9.621 -0.3065 -0.3216 -0.0605
22069SOL    HW168524   7.217   2.302   9.561 -1.0194  1.0156 -0.7592
22069SOL    HW268525   7.353   2.366   9.580 -0.9336  0.9671 -1.1932
22070SOL     OW68526   7.503   5.604   3.456  0.2064 -0.3260  0.2595
22070SOL    HW168527   7.515   5.692   3.421  0.3520 -0.8332 -1.0347
22070SOL    HW268528   7.592   5.569   3.461  0.5403  0.6853  3.9100
22071SOL     OW68529   4.948   6.645   4.260  0.0755 -0.3859 -0.1058
22071SOL    HW168530   4.863   6.615   4.226  0.0846  0.8823 -1.3614
22071SOL    HW268531   4.948   6.740   4.246  1.0645 -0.1277  1.3776
22072SOL     OW68532   8.914   2.894   7.826  0.0108  0.2057  0.3179
22072SOL    HW168533   8.907   2.989   7.814  0.3372  0.0039 -1.8533
22072SOL    HW268534   8.846   2.858   7.770  0.4931 -0.8643  0.3992
22073SOL     OW68535   5.110   5.048   5.662  0.1894  0.3022 -0.4507
22073SOL    HW168536   5.070   5.018   5.744  0.5123  0.1054 -0.3633
22073SOL    HW268537   5.088   5.141   5.657  0.5726  0.4288  0.1006
22074SOL     OW68538   9.232   3.376   9.142 -0.5530 -0.3233 -0.8697
22074SOL    HW168539   9.213   3.285   9.119  2.2490 -0.7167 -2.0499
22074SOL    HW268540   9.204   3.426   9.065  1.2910 -0.6809 -1.8217
22075SOL     OW68541   2.588   2.737   3.398  0.3801  0.2915 -0.0175
22075SOL    HW168542   2.517   2.689   3.355  1.1632 -0.3798 -0.6021
22075SOL    HW268543   2.550   2.822   3.420 -0.8625 -0.3669  0.4857
22076SOL     OW68544   6.118   7.135   6.049  0.0166 -0.0335 -0.1956
22076SOL    HW168545   6.194   7.158   6.103 -0.5865 -0.6773  0.9812
22076SOL    HW268546   6.102   7.212   5.995  2.0427 -0.2194 -1.1341
22077SOL     OW68547   2.510   9.100   6.300  0.8797 -0.3525 -0.0308
22077SOL    HW168548   2.415   9.101   6.294  0.7877  1.2323  0.8373
22077SOL    HW268549   2.536   9.011   6.278 -0.6142 -0.2497 -2.5741
22078SOL     OW68550   4.843   5.639   9.070  0.5178  0.3651 -0.1353
22078SOL    HW168551   4.786   5.572   9.108  0.2255  0.6235 -0.1115
22078SOL    HW268552   4.814   5.647   8.979 -0.8246  1.8947  0.3827
22079SOL     OW68553   3.634   8.598   0.439 -0.4143 -0.0813 -0.2871
22079SOL    HW168554   3.593   8.513   0.424 -1.0615  0.1124  0.3205
22079SOL    HW268555   3.596   8.655   0.372 -0.1798 -0.2055 -0.5272
22080SOL     OW68556   9.955   7.758   7.067  0.0315  0.1646 -0.1389
22080SOL    HW168557   9.934   7.717   6.983 -0.0751 -0.7568  0.3291
22080SOL    HW268558   9.980   7.848   7.044 -2.3492  0.7036 -0.9453
22081SOL     OW68559   8.534  10.143   9.540 -0.7890 -0.4373 -0.4581
22081SOL    HW168560   8.594  10.139   9.465 -0.5280 -0.3498 -0.2516
22081SOL    HW268561   8.463  10.200   9.510 -0.5072 -0.1114 -0.5113
22082SOL     OW68562   6.582   6.092   2.562 -0.2373 -0.2025 -0.2625
22082SOL    HW168563   6.580   6.008   2.608 -1.1318 -0.2406 -0.3459
22082SOL    HW268564   6.496   6.130   2.579 -0.2382  0.2011 -1.1447
22083SOL     OW68565   1.565   2.319   6.531 -0.0055  0.7400 -0.3188
22083SOL    HW168566   1.624   2.379   6.576 -1.0194  0.6894  1.1300
22083SOL    HW268567   1.477   2.349   6.554 -0.5363 -1.1068  0.2069
22084SOL     OW68568   3.411   4.437   0.908  0.4756 -0.2496 -1.2481
22084SOL    HW168569   3.417   4.503   0.839 -1.1266 -0.5072 -1.6759
22084SOL    HW268570   3.331   4.388   0.887  1.4520 -2.1180 -0.7563
22085SOL     OW68571   3.253   7.373   4.809  0.1350  0.1466  0.1605
22085SOL    HW168572   3.206   7.297   4.775  0.5202 -0.0084 -0.0391
22085SOL    HW268573   3.319   7.336   4.868  1.3700  0.1950 -1.1439
22086SOL     OW68574   1.796   0.016   4.395 -0.4600  1.0169 -0.6490
22086SOL    HW168575   1.756   0.082   4.338 -1.3184  0.9072 -0.1972
22086SOL    HW268576   1.726  -0.006   4.457  0.1378  0.3983 -0.1928
22087SOL     OW68577   4.401   4.440   5.269  0.4076 -0.0335 -0.1539
22087SOL    HW168578   4.398   4.345   5.275  1.3754 -0.0647 -0.0761
22087SOL    HW268579   4.410   4.470   5.360 -0.9332  0.1879 -0.0769
22088SOL     OW68580   9.768   3.225   0.605  0.1160 -0.1652 -0.2178
22088SOL    HW168581   9.813   3.308   0.620 -0.7456  0.4526 -0.9515
22088SOL    HW268582   9.704   3.219   0.676  1.6704 -1.3244  1.1718
22089SOL     OW68583   5.306   8.503   6.919  0.1809  0.3565  0.4208
22089SOL    HW168584   5.244   8.513   6.991  1.9784 -0.8643  2.2614
22089SOL    HW268585   5.366   8.577   6.928 -0.6646  1.2634 -1.0461
22090SOL     OW68586   5.385   4.242   9.229 -0.1209  0.3546  0.0025
22090SOL    HW168587   5.359   4.262   9.139 -2.8514 -1.0373  0.3770
22090SOL    HW268588   5.472   4.203   9.221 -1.1281 -1.7010 -2.3477
22091SOL     OW68589   7.785   4.030   4.039  0.7157  0.0767  0.4390
22091SOL    HW168590   7.818   4.102   4.091  2.1053 -0.3147  0.1386
22091SOL    HW268591   7.805   4.054   3.948  2.5910 -1.3019  0.4184
22092SOL     OW68592   2.592  10.397   9.834  0.3712 -0.9336 -0.0232
22092SOL    HW168593   2.629  10.443   9.909  1.7284  0.8231 -1.6646
22092SOL    HW268594   2.499  10.421   9.834  0.6465  0.1880  0.3119
22093SOL     OW68595  10.215   9.141   9.374 -0.1622  0.0999 -0.1877
22093SOL    HW168596  10.123   9.154   9.396 -0.2243 -0.5524 -0.0232
22093SOL    HW268597  10.241   9.063   9.425  0.5795  0.4988  0.0614
22094SOL     OW68598   7.058   2.785   8.373  0.0879  0.1196 -0.2215
22094SOL    HW168599   7.084   2.877   8.360 -0.8469  0.5889  1.0691
22094SOL    HW268600   7.077   2.768   8.465  0.3868 -1.0515 -0.4855
22095SOL     OW68601   8.284  10.085   0.377  0.3062 -0.3394  0.4884
22095SOL    HW168602   8.333  10.053   0.453 -1.2016 -0.2639  1.5228
22095SOL    HW268603   8.352  10.099   0.310  1.3767 -2.8430  0.9331
22096SOL     OW68604   1.905   4.494   2.068  0.3430  0.0885 -0.0547
22096SOL    HW168605   1.935   4.454   1.986 -0.6355 -0.6685 -0.0701
22096SOL    HW268606   1.812   4.471   2.073  0.5763 -0.6970  1.7163
22097SOL     OW68607   0.312   7.714   1.865 -0.3943  0.1000 -0.1841
22097SOL    HW168608   0.373   7.648   1.833 -0.6115  0.6183 -1.7169
22097SOL    HW268609   0.354   7.750   1.943  1.4495  0.7071 -1.4073
22098SOL     OW68610   2.949  10.083   8.145 -0.3509 -0.3085 -0.2518
22098SOL    HW168611   2.919  10.092   8.235 -1.0970 -1.2966 -0.3814
22098SOL    HW268612   2.878  10.119   8.092 -0.2439 -0.4108 -0.4699
22099SOL     OW68613   7.089   1.680   8.306 -0.6554 -1.0961  0.3848
22099SOL    HW168614   7.037   1.624   8.249 -0.8732 -1.0430  0.5262
22099SOL    HW268615   7.175   1.684   8.265 -1.2312  0.2097 -0.8180
22100SOL     OW68616   7.114   9.828   2.422  0.1901 -0.8780 -0.3091
22100SOL    HW168617   7.025   9.791   2.416 -0.9120  0.8501  2.9697
22100SOL    HW268618   7.129   9.869   2.337 -2.4916 -0.5148 -0.6855
22101SOL     OW68619   4.834  10.198   7.855  0.1299  0.3594  0.2756
22101SOL    HW168620   4.924  10.220   7.877  0.1651  0.3676  0.1250
22101SOL    HW268621   4.796  10.167   7.937  0.2026  0.5732  0.3915
22102SOL     OW68622   8.023   4.801   7.613  0.6983  0.2673 -0.6756
22102SOL    HW168623   8.051   4.719   7.655  1.6813  0.3037 -1.2371
22102SOL    HW268624   8.066   4.870   7.663 -0.8835  0.5401  0.4043
22103SOL     OW68625   5.546   0.891   5.831  0.1462 -0.1491  0.2302
22103SOL    HW168626   5.523   0.980   5.855  1.1574 -0.2745  1.8171
22103SOL    HW268627   5.611   0.901   5.761  1.0515  0.4023  1.1296
22104SOL     OW68628  10.189   1.855  10.326 -0.2726  0.1600  0.2852
22104SOL    HW168629  10.148   1.901  10.399  0.0762 -0.6450  1.0155
22104SOL    HW268630  10.206   1.767  10.360 -0.5925 -0.4002 -0.9481
22105SOL     OW68631   5.643   8.726   9.723 -0.0870 -0.0706  0.0553
22105SOL    HW168632   5.663   8.729   9.629  1.6959 -1.7017  0.3107
22105SOL    HW268633   5.645   8.817   9.751  1.5638  0.3197 -1.1202
22106SOL     OW68634  10.337   9.896  10.153 -0.3063 -0.2723 -0.1787
22106SOL    HW168635  10.380   9.810  10.152 -3.4682 -2.0189  0.5552
22106SOL    HW268636  10.397   9.952  10.201  1.1915 -2.4998  0.7347
22107SOL     OW68637   5.413   5.196   6.151  0.0698 -0.2113 -0.1833
22107SOL    HW168638   5.473   5.265   6.180  1.9538 -0.8039 -2.3530
22107SOL    HW268639   5.352   5.240   6.091  1.0418 -0.3044 -1.2779
22108SOL     OW68640   9.702   5.388   8.768  0.1685 -0.1069  0.0856
22108SOL    HW168641   9.668   5.463   8.718 -1.8668  0.7563  2.5462
22108SOL    HW268642   9.684   5.312   8.712  0.7686  1.0329 -1.7622
22109SOL     OW68643   3.569   5.741   1.840  0.3176  0.2959 -0.2363
22109SOL    HW168644   3.551   5.677   1.908 -1.9758  0.5852 -0.4941
22109SOL    HW268645   3.611   5.814   1.886 -0.2921  0.0782  0.6867
22110SOL     OW68646   6.739   8.434   3.391  0.2091 -0.5909 -0.4443
22110SOL    HW168647   6.652   8.399   3.409  0.6389 -1.4967 -0.0045
22110SOL    HW268648   6.775   8.376   3.324 -0.5214  1.4124 -2.7226
22111SOL     OW68649   5.887   3.822   2.695 -0.3516  0.1236  0.0258
22111SOL    HW168650   5.793   3.808   2.680 -0.3432 -0.5054  0.5033
22111SOL    HW268651   5.901   3.794   2.785 -0.1646  2.5851  0.8139
22112SOL     OW68652   0.039   7.528   5.990  0.1576 -0.3179  0.0860
22112SOL    HW168653  -0.048   7.544   5.955 -0.8735 -1.2099  2.0770
22112SOL    HW268654   0.060   7.438   5.963 -0.1930 -0.6273  0.8016
22113SOL     OW68655   8.147   3.341   2.435 -0.0176  0.3316 -0.3779
22113SOL    HW168656   8.218   3.292   2.476  0.7568  0.7433 -1.1572
22113SOL    HW268657   8.169   3.433   2.452 -0.0427  0.4818 -1.0855
22114SOL     OW68658   0.137   3.534   7.379 -0.1885  0.1266  0.2780
22114SOL    HW168659   0.230   3.514   7.371 -0.2129  0.1353 -0.0271
22114SOL    HW268660   0.101   3.520   7.291 -0.1895  1.6003  0.0218
22115SOL     OW68661   9.325   2.246   2.742  0.1292  0.3135 -0.0898
22115SOL    HW168662   9.306   2.198   2.822 -0.2844  1.3064  0.4318
22115SOL    HW268663   9.249   2.302   2.729  1.6310  2.7029  0.7527
22116SOL     OW68664   8.839   4.414   6.363 -0.2051  0.1353  0.0116
22116SOL    HW168665   8.853   4.320   6.374  1.6259  0.1347 -1.6249
22116SOL    HW268666   8.923   4.446   6.330 -1.4608  1.9623 -1.5977
22117SOL     OW68667   8.205   6.486   8.315  0.3899 -0.1169 -0.4267
22117SOL    HW168668   8.270   6.449   8.256  0.7251 -0.4103  0.1162
22117SOL    HW268669   8.254   6.547   8.371  0.0881  0.1251 -0.4212
22118SOL     OW68670   7.648   0.533   1.352  0.6545  0.1071 -0.0582
22118SOL    HW168671   7.621   0.617   1.388  0.6779 -0.0609  0.3494
22118SOL    HW268672   7.737   0.520   1.384  0.7350  0.0310 -0.3074
22119SOL     OW68673  10.257   5.206   4.300 -0.6950 -0.3956  0.2813
22119SOL    HW168674  10.289   5.132   4.352 -1.2599 -0.5001  0.4860
22119SOL    HW268675  10.278   5.283   4.352 -0.0999 -0.4021  0.0661
22120SOL     OW68676   8.314   1.107   6.624  0.5248 -0.5296  0.5634
22120SOL    HW168677   8.363   1.142   6.549  1.1607 -0.0418  1.1852
22120SOL    HW268678   8.362   1.140   6.700 -1.7382  1.3896  1.2562
22121SOL     OW68679   3.536   0.988   4.665 -0.2223  0.2128 -0.3609
22121SOL    HW168680   3.556   1.055   4.731 -1.0258  0.4436 -0.3317
22121SOL    HW268681   3.573   1.023   4.584  1.1542 -0.2755  0.0305
22122SOL     OW68682   9.572   9.468   2.507 -0.6721 -0.0356 -0.5705
22122SOL    HW168683   9.610   9.407   2.571 -1.5971 -0.0120  0.0335
22122SOL    HW268684   9.570   9.419   2.425  0.3356 -0.1451 -0.5474
22123SOL     OW68685   6.328   0.851   3.296 -0.1871  0.4548  0.1569
22123SOL    HW168686   6.233   0.854   3.283 -0.6806  0.2393  2.9783
22123SOL    HW268687   6.361   0.799   3.223 -2.1028  1.3306 -1.4073
22124SOL     OW68688   3.473   1.520   5.094 -0.0921  0.5282  0.5239
22124SOL    HW168689   3.453   1.575   5.019  1.2802 -0.1029 -0.3383
22124SOL    HW268690   3.466   1.578   5.170 -0.5449  1.4026 -0.1802
22125SOL     OW68691   2.803   1.242   9.209  0.0305  0.1581 -0.8364
22125SOL    HW168692   2.868   1.306   9.179  1.9208  0.3974  3.1381
22125SOL    HW268693   2.743   1.293   9.264  0.9830 -1.2024  1.5816
22126SOL     OW68694   2.234   6.127   5.307 -0.1378 -0.4671  0.1015
22126SOL    HW168695   2.159   6.089   5.261  0.9828 -2.2938 -0.2843
22126SOL    HW268696   2.195   6.169   5.384 -1.6467 -0.6065 -0.5509
22127SOL     OW68697  10.039   6.915   9.145 -0.1129  0.5542 -0.0653
22127SOL    HW168698  10.095   6.861   9.199  0.9687 -1.2938 -2.8085
22127SOL    HW268699  10.087   6.997   9.134 -0.3012  0.9178  1.5638
22128SOL     OW68700   9.983   2.469   0.280  0.1285  0.4412 -0.1408
22128SOL    HW168701  10.069   2.493   0.314  0.3535 -0.3288 -0.1735
22128SOL    HW268702   9.936   2.436   0.357  0.6330 -1.2891 -0.5451
22129SOL     OW68703   5.941   7.356   3.566 -0.2543  0.2314  0.6021
22129SOL    HW168704   5.866   7.349   3.625  0.2278 -1.0448  1.1181
22129SOL    HW268705   5.931   7.283   3.506  0.8481 -0.3219  1.0431
22130SOL     OW68706   4.235   4.216   7.900 -0.0945  0.4268  0.3379
22130SOL    HW168707   4.187   4.294   7.927 -1.0442 -0.2685  0.7352
22130SOL    HW268708   4.228   4.156   7.975 -0.6609 -0.5935 -0.4917
22131SOL     OW68709   0.013   2.984   0.041  0.3107  0.2684  0.0762
22131SOL    HW168710   0.056   3.017   0.120 -2.5482  2.3170  0.9782
22131SOL    HW268711  -0.044   2.914   0.073 -0.1046  0.4194 -0.3247
22132SOL     OW68712   0.960   5.490   5.870 -0.8293  0.5210 -0.1993
22132SOL    HW168713   1.010   5.571   5.881 -0.1486  0.3131 -1.5361
22132SOL    HW268714   0.915   5.502   5.786 -0.4145 -0.6450 -0.5950
22133SOL     OW68715   0.028   7.492   4.783  0.2356 -0.2003 -0.2074
22133SOL    HW168716  -0.011   7.489   4.870 -0.2776 -0.4244 -0.4382
22133SOL    HW268717  -0.032   7.547   4.732  2.2019  2.6983  0.3716
22134SOL     OW68718   7.668   0.219  10.581 -0.8555 -0.0424 -0.3232
22134SOL    HW168719   7.752   0.207  10.626 -0.7060  1.2478 -0.2262
22134SOL    HW268720   7.613   0.265  10.645 -1.7858 -1.2074 -0.2469
22135SOL     OW68721   0.412   8.516   2.324 -0.0085 -0.0526 -0.0130
22135SOL    HW168722   0.392   8.565   2.244 -3.1867 -0.7823  0.1786
22135SOL    HW268723   0.444   8.431   2.293  1.6583  0.6724 -0.3933
22136SOL     OW68724   9.617   7.789   6.919 -0.2268  0.1988 -0.5126
22136SOL    HW168725   9.684   7.724   6.896 -1.7855 -2.2342  1.3261
22136SOL    HW268726   9.667   7.862   6.955  1.5022 -1.1813  0.0352
22137SOL     OW68727   3.126   4.060   1.794  0.0848 -0.5455  0.4236
22137SOL    HW168728   3.090   4.114   1.864  0.1448  0.7911 -0.5187
22137SOL    HW268729   3.057   3.998   1.773 -1.7290  1.8262 -1.2165
22138SOL     OW68730   1.122   8.611   0.094 -0.4286  0.4957  0.4193
22138SOL    HW168731   1.099   8.621   0.186  0.7245  0.7784  0.6822
22138SOL    HW268732   1.052   8.657   0.047 -1.5598 -0.4812  1.0823
22139SOL     OW68733   2.353   3.919   8.601 -0.5003 -0.2684  0.4184
22139SOL    HW168734   2.348   3.908   8.696 -1.2656  0.3303  0.4474
22139SOL    HW268735   2.335   4.011   8.586  0.3844 -0.1906 -0.2632
22140SOL     OW68736   3.944   2.972   7.835  0.0396 -0.7564  0.1478
22140SOL    HW168737   4.019   2.973   7.775 -0.5473 -1.1400 -0.5995
22140SOL    HW268738   3.910   2.883   7.830 -0.3417 -0.6410  0.6395
22141SOL     OW68739   4.594   0.548   2.794 -0.1205 -0.1655 -0.4128
22141SOL    HW168740   4.526   0.613   2.814  0.0683  0.8957 -2.8371
22141SOL    HW268741   4.551   0.488   2.732  0.6759 -0.3757 -0.7709
22142SOL     OW68742   5.077   8.834   9.120  0.2273 -0.6569  0.2312
22142SOL    HW168743   5.037   8.915   9.090  1.4678 -0.2916 -0.5239
22142SOL    HW268744   5.067   8.773   9.047  1.7015 -0.3081 -0.3110
22143SOL     OW68745   8.255   7.260   7.970  0.0042 -0.0602  0.5777
22143SOL    HW168746   8.229   7.349   7.950  1.7170  0.4146  0.2751
22143SOL    HW268747   8.248   7.253   8.065  0.4306  0.5957  0.6580
22144SOL     OW68748   3.945   8.861   0.659  0.3060 -0.0923 -0.3702
22144SOL    HW168749   4.002   8.927   0.618 -0.5510  1.5000  0.8978
22144SOL    HW268750   3.857   8.895   0.645 -0.1912 -1.2883 -0.1935
22145SOL     OW68751   1.588   0.858   5.772  0.3847  0.3106 -1.2250
22145SOL    HW168752   1.625   0.837   5.858 -0.6971  1.8522 -0.3256
22145SOL    HW268753   1.567   0.773   5.734  0.1904 -0.3932  0.3569
22146SOL     OW68754   1.416   2.791   1.585 -0.8610 -0.4895 -0.3002
22146SOL    HW168755   1.480   2.838   1.639 -2.0499  2.2935 -1.1196
22146SOL    HW268756   1.393   2.714   1.636  0.6748  0.1731  1.5118
22147SOL     OW68757   4.900   2.578   9.000  0.1198 -0.3590 -0.4234
22147SOL    HW168758   4.956   2.563   9.076  0.0639  0.4513 -0.2097
22147SOL    HW268759   4.846   2.499   8.993 -0.5005 -0.0769  0.9265
22148SOL     OW68760   9.758   3.657   5.171  0.3846  0.2820 -0.3339
22148SOL    HW168761   9.783   3.565   5.165 -0.8740 -0.0041 -1.9037
22148SOL    HW268762   9.801   3.700   5.097  0.5255  0.8558  0.0696
22149SOL     OW68763   0.806   6.644   9.147  0.2258 -0.2816 -0.5819
22149SOL    HW168764   0.720   6.641   9.104 -0.4525 -1.8442  0.7775
22149SOL    HW268765   0.819   6.556   9.183  1.4701  0.4747  0.9858
22150SOL     OW68766   8.042   1.978   5.347 -0.5813  0.1762  0.1007
22150SOL    HW168767   8.096   1.930   5.284 -2.5394  0.5599 -2.0173
22150SOL    HW268768   7.954   1.944   5.333 -1.3212  1.3673  1.5915
22151SOL     OW68769  10.148  10.506   7.311 -0.4338 -0.4412 -0.0578
22151SOL    HW168770  10.177  10.517   7.401 -1.5715  1.1186  0.1582
22151SOL    HW268771  10.226  10.525   7.258 -0.1023 -0.0208  0.5694
22152SOL     OW68772   0.729   7.534   6.203 -0.2635  0.5218  0.1531
22152SOL    HW168773   0.730   7.472   6.275  3.7503  0.9074  0.6645
22152SOL    HW268774   0.738   7.620   6.245 -1.5021  1.1174 -0.7223
22153SOL     OW68775   9.488   0.657  10.144 -0.1430 -0.4710 -0.3489
22153SOL    HW168776   9.516   0.635  10.055 -0.2378 -0.5332 -0.3634
22153SOL    HW268777   9.467   0.751  10.140 -0.8747 -0.6388 -0.5813
22154SOL     OW68778   0.314   1.347   4.254  0.6022 -0.0225  0.2446
22154SOL    HW168779   0.246   1.355   4.187  1.2628 -1.2494 -0.5989
22154SOL    HW268780   0.356   1.263   4.236  0.5818 -0.5502  2.4119
22155SOL     OW68781   0.956   3.296   5.601  0.0050  0.2543 -0.1490
22155SOL    HW168782   0.936   3.307   5.509 -1.0198 -0.2257  0.0062
22155SOL    HW268783   0.890   3.234   5.633  3.3803 -3.8630 -0.2545
22156SOL     OW68784   8.869   6.238   1.191 -0.0235 -0.2725  0.0731
22156SOL    HW168785   8.879   6.275   1.279 -1.6006 -1.4235  0.7712
22156SOL    HW268786   8.887   6.145   1.201 -0.8842 -0.5341 -0.6846
22157SOL     OW68787   9.731   0.564   7.618 -0.4701 -0.1656 -0.0956
22157SOL    HW168788   9.817   0.528   7.642 -0.7460  0.4225  1.9576
22157SOL    HW268789   9.693   0.592   7.701 -2.6403 -0.3333 -0.9816
22158SOL     OW68790   2.463   7.456   4.285  0.4675 -0.3154 -0.3444
22158SOL    HW168791   2.479   7.474   4.378 -0.1462 -1.9345  0.1184
22158SOL    HW268792   2.369   7.469   4.273  0.0288 -2.7097 -0.0321
22159SOL     OW68793   6.066  10.488   2.427 -0.4037  0.1628 -0.4780
22159SOL    HW168794   6.127  10.467   2.498  0.8141  2.2146 -0.8366
22159SOL    HW268795   6.019  10.406   2.411 -0.3384 -0.5159  2.3061
22160SOL     OW68796   9.477   1.855   9.573 -0.0087  0.3122  0.1085
22160SOL    HW168797   9.440   1.771   9.546  1.4005  0.2709 -1.9508
22160SOL    HW268798   9.416   1.920   9.537 -0.5159  0.2168  0.7668
22161SOL     OW68799   0.039   0.690   9.792 -0.2121  0.7446  0.1436
22161SOL    HW168800  -0.019   0.737   9.852 -1.7119 -1.5774  0.6835
22161SOL    HW268801  -0.018   0.660   9.721  0.2575 -1.4950  0.6114
22162SOL     OW68802  10.149   1.360   9.855 -0.2678  0.1461 -0.5849
22162SOL    HW168803  10.053   1.363   9.853 -0.2523  0.3272 -1.8405
22162SOL    HW268804  10.174   1.335   9.766  0.8362 -0.5614 -0.1023
22163SOL     OW68805   2.572   2.688   2.031  0.1049  0.5939 -0.4573
22163SOL    HW168806   2.573   2.680   1.935 -0.3117  1.3999 -0.5410
22163SOL    HW268807   2.649   2.641   2.060 -0.6047 -1.0054 -1.0741
22164SOL     OW68808   6.362   1.135   0.775 -0.0290 -0.1132  0.2788
22164SOL    HW168809   6.443   1.089   0.752  0.8561  1.6942 -0.4232
22164SOL    HW268810   6.306   1.068   0.813  1.9229 -1.3738  1.0779
22165SOL     OW68811   4.409  10.233   4.807 -0.9346  0.1482 -0.3263
22165SOL    HW168812   4.473  10.214   4.738 -0.7928 -0.8095  0.0472
22165SOL    HW268813   4.398  10.150   4.853 -1.8484  0.5016  0.1243
22166SOL     OW68814   9.505   9.278   0.964  0.6765 -0.6959  0.1197
22166SOL    HW168815   9.545   9.275   0.877 -0.7936  0.3082 -0.6510
22166SOL    HW268816   9.578   9.277   1.025  1.8204  0.1650 -1.1897
22167SOL     OW68817   9.810   2.964   1.280  0.3826 -0.3075  0.1755
22167SOL    HW168818   9.819   2.912   1.360 -0.0685  1.2873  1.3127
22167SOL    HW268819   9.804   3.054   1.310  1.0990  0.4458 -1.7234
22168SOL     OW68820   9.360   3.925   1.600 -0.8573 -0.1609  0.0558
22168SOL    HW168821   9.446   3.883   1.601 -0.7753 -0.0751 -1.5170
22168SOL    HW268822   9.339   3.935   1.508 -1.8387  1.3260  0.4025
22169SOL     OW68823   0.926   0.885   5.667 -0.1629  0.3730  0.3377
22169SOL    HW168824   0.839   0.855   5.694  0.5946 -1.5486  0.8677
22169SOL    HW268825   0.946   0.958   5.726 -1.0366  0.2258  0.8271
22170SOL     OW68826  10.417   7.046   0.394  0.2187  0.3407 -0.1360
22170SOL    HW168827  10.330   7.088   0.396 -0.2208 -0.5522  0.1152
22170SOL    HW268828  10.422   6.999   0.477  0.5744 -0.3376 -0.5373
22171SOL     OW68829   1.575   7.846   3.470  0.4582 -0.3041  0.3838
22171SOL    HW168830   1.505   7.910   3.473  0.1610 -0.6327  3.3744
22171SOL    HW268831   1.569   7.807   3.382  0.1163  3.0532 -1.2290
22172SOL     OW68832   2.547   6.064   7.074 -0.6287 -0.7243 -0.0300
22172SOL    HW168833   2.637   6.086   7.096 -0.5353 -0.3149 -0.7821
22172SOL    HW268834   2.536   5.974   7.105 -1.4364  0.6454  4.3576
22173SOL     OW68835   8.036   2.574   8.449 -0.5788  0.3446 -0.2886
22173SOL    HW168836   7.955   2.541   8.412 -0.9147  1.4221 -0.5534
22173SOL    HW268837   8.080   2.618   8.377  0.6656 -0.9497 -0.3580
22174SOL     OW68838   4.762   4.265   3.110 -0.1494 -0.5404  0.0527
22174SOL    HW168839   4.736   4.331   3.174 -1.6156  1.3367 -2.3092
22174SOL    HW268840   4.690   4.202   3.109  0.1477 -0.8981  0.6228
22175SOL     OW68841   0.919   1.426   5.653 -0.8616 -0.4947  0.1478
22175SOL    HW168842   0.888   1.453   5.740 -0.9104  2.3026 -0.6412
22175SOL    HW268843   1.012   1.410   5.664 -0.8102  0.1251  0.6834
22176SOL     OW68844   1.345   2.917   4.895  0.9302 -0.2251 -0.1735
22176SOL    HW168845   1.436   2.900   4.919  1.3286 -0.2677 -1.5918
22176SOL    HW268846   1.332   2.865   4.815 -0.3088 -0.1334 -0.0428
22177SOL     OW68847   1.093   3.481   4.521 -0.6001  0.2726 -0.4593
22177SOL    HW168848   1.069   3.525   4.440  0.6397  0.1114 -0.9440
22177SOL    HW268849   1.030   3.511   4.586 -1.0296  1.1319 -1.2685
22178SOL     OW68850   0.951   4.259   3.547  0.4251  0.3082 -0.1232
22178SOL    HW168851   1.036   4.220   3.527 -0.3322 -0.2447 -2.5320
22178SOL    HW268852   0.923   4.216   3.628  0.1258 -3.4527 -2.0251
22179SOL     OW68853   3.177  10.334   2.467 -0.8285 -0.1372  0.6337
22179SOL    HW168854   3.145  10.348   2.556 -3.4624  1.5493 -0.4415
22179SOL    HW268855   3.262  10.377   2.465 -2.8049  4.3453  1.1827
22180SOL     OW68856   0.752   0.709   0.653  0.4173  0.2017 -0.1948
22180SOL    HW168857   0.684   0.644   0.671  1.9842 -1.2053  0.9406
22180SOL    HW268858   0.777   0.693   0.562  0.1893 -0.1801 -0.1929
22181SOL     OW68859   1.712   8.190   2.018 -0.6260  0.3146  0.2993
22181SOL    HW168860   1.720   8.153   2.106 -0.9940 -0.1154  0.1570
22181SOL    HW268861   1.763   8.130   1.963 -1.9495 -0.5003 -0.0713
22182SOL     OW68862   1.824   3.151   0.251 -0.2161 -0.3352  0.2830
22182SOL    HW168863   1.750   3.122   0.304  0.8706 -0.8563  1.5838
22182SOL    HW268864   1.847   3.237   0.286  0.0152 -0.3274  0.1164
22183SOL     OW68865   7.622   0.761   1.475 -0.2074  0.3976 -0.5790
22183SOL    HW168866   7.649   0.843   1.434 -0.1562  0.5244 -0.2907
22183SOL    HW268867   7.663   0.762   1.561  0.3325 -0.2360 -0.8234
22184SOL     OW68868   5.716   3.700   0.315  0.0604  0.5025 -0.1968
22184SOL    HW168869   5.630   3.661   0.297  0.1346  0.8625 -1.4022
22184SOL    HW268870   5.747   3.730   0.230  0.2263  2.7966  0.6184
22185SOL     OW68871   8.470   1.612   1.456 -0.1138 -0.2498  0.0124
22185SOL    HW168872   8.452   1.687   1.512  1.3450 -0.0029  0.1995
22185SOL    HW268873   8.384   1.580   1.430 -0.7773  1.7118 -0.3876
22186SOL     OW68874   6.108   4.677   3.358 -0.1766 -0.1860 -0.4439
22186SOL    HW168875   6.017   4.663   3.384 -0.3094 -0.7833 -1.1982
22186SOL    HW268876   6.108   4.667   3.263  0.8939 -1.4385 -0.3326
22187SOL     OW68877   9.971   9.480   3.415  0.1954  0.4346 -0.1656
22187SOL    HW168878   9.910   9.552   3.433  0.4935  0.9246 -1.0718
22187SOL    HW268879  10.055   9.523   3.398  0.4485 -0.1457 -0.3961
22188SOL     OW68880   4.385   8.287   6.701 -0.5998  0.5802  0.5017
22188SOL    HW168881   4.332   8.352   6.747 -1.4645  1.1096 -1.1490
22188SOL    HW268882   4.370   8.306   6.608  2.2840  0.5925 -0.0660
22189SOL     OW68883   5.097   8.082   1.224  0.1596 -0.0633  0.3023
22189SOL    HW168884   5.089   8.016   1.155  0.8709 -1.3828  1.4266
22189SOL    HW268885   5.010   8.122   1.230  0.0538 -0.0015 -1.2535
22190SOL     OW68886   3.659   8.091   0.044 -0.1596 -0.2622  0.5646
22190SOL    HW168887   3.577   8.133   0.021 -0.6985 -0.7874  1.4746
22190SOL    HW268888   3.708   8.158   0.092 -0.1934 -0.0618  0.3212
22191SOL     OW68889   8.250   6.809   8.060 -0.0890  0.4505  0.1765
22191SOL    HW168890   8.216   6.898   8.066  1.0147  1.0757 -1.8918
22191SOL    HW268891   8.340   6.815   8.093 -0.1865 -0.0170  0.5325
22192SOL     OW68892   5.286   5.772   3.080  0.7288 -0.2454 -0.6294
22192SOL    HW168893   5.261   5.680   3.093 -0.6158  0.0082 -1.2369
22192SOL    HW268894   5.313   5.801   3.166  3.4600 -1.8253 -0.8353
22193SOL     OW68895   3.820   8.539   9.388  0.3418 -0.0216  0.1971
22193SOL    HW168896   3.845   8.608   9.327  2.7664 -0.0476  1.0657
22193SOL    HW268897   3.725   8.531   9.377  0.4336  1.2142 -2.2119
22194SOL     OW68898   3.561   9.327   6.270  0.1118 -0.4789  0.1442
22194SOL    HW168899   3.646   9.309   6.311 -0.5572 -2.0076  0.9583
22194SOL    HW268900   3.541   9.248   6.220  0.1129  0.6910 -1.8077
22195SOL     OW68901   2.475   3.088   8.407  0.6195 -0.3180 -0.0062
22195SOL    HW168902   2.546   3.086   8.343  0.2216 -0.8353 -0.4403
22195SOL    HW268903   2.399   3.054   8.360  0.4615 -1.2837  0.9071
22196SOL     OW68904   0.039   5.047   7.907 -0.4339 -0.3476 -0.2992
22196SOL    HW168905  -0.010   5.058   7.988  0.2050 -0.3012  0.0890
22196SOL    HW268906   0.127   5.079   7.928 -0.4544  0.3531 -1.2236
22197SOL     OW68907   8.888   0.555   0.348  0.3278  0.2651 -0.0989
22197SOL    HW168908   8.846   0.619   0.291  0.2559 -0.5065 -0.9403
22197SOL    HW268909   8.823   0.538   0.416 -0.8227 -0.9681 -1.4244
22198SOL     OW68910   6.120   9.484   7.361 -0.4307  0.0570  0.0609
22198SOL    HW168911   6.060   9.471   7.288  1.1757 -1.4215 -1.0713
22198SOL    HW268912   6.154   9.572   7.349 -1.2683  0.3632 -0.1152
22199SOL     OW68913   3.068   8.194   4.769  0.3712 -0.0096 -0.9657
22199SOL    HW168914   3.067   8.105   4.806  1.7385  0.9325  1.6392
22199SOL    HW268915   2.977   8.224   4.778  0.6771  0.3534  2.5186
22200SOL     OW68916   5.332   8.950   5.399  0.0635  0.7952 -0.1554
22200SOL    HW168917   5.255   9.003   5.381  0.8245  2.1026  0.3175
22200SOL    HW268918   5.396   8.975   5.332  1.7367  3.2852  2.1513
22201SOL     OW68919   6.902   0.687   0.680 -0.2073  0.0326  0.0665
22201SOL    HW168920   6.880   0.715   0.591 -3.5180 -1.0398  0.4009
22201SOL    HW268921   6.891   0.765   0.733 -0.3229  0.1991 -0.2011
22202SOL     OW68922  10.113   7.370   2.823  0.4698  0.4869  0.1163
22202SOL    HW168923  10.059   7.439   2.785  0.5424  0.3226 -0.2815
22202SOL    HW268924  10.199   7.411   2.833  0.8366  0.0963 -1.2381
22203SOL     OW68925   0.942  10.344   9.694  0.5919  0.0783  0.3171
22203SOL    HW168926   1.026  10.388   9.705 -0.5530  1.9955  2.2842
22203SOL    HW268927   0.961  10.268   9.639  3.5688  0.4659  0.6616
22204SOL     OW68928   0.430   5.100   3.243 -0.6518  0.0538 -0.6958
22204SOL    HW168929   0.458   5.127   3.156 -0.9396  0.4366 -0.6735
22204SOL    HW268930   0.334   5.111   3.242 -0.7242 -0.5206 -0.5313
22205SOL     OW68931   3.514   1.220   9.295 -1.0026  0.1756  0.5437
22205SOL    HW168932   3.557   1.199   9.212 -0.0576 -1.8992  1.4717
22205SOL    HW268933   3.585   1.234   9.356 -1.6318 -0.6311  1.5056
22206SOL     OW68934   7.000   4.638   4.515  0.1693 -0.1102 -0.1977
22206SOL    HW168935   6.962   4.696   4.449 -0.6130 -0.5989 -0.1946
22206SOL    HW268936   6.985   4.550   4.481 -1.8022 -0.4667  1.3884
22207SOL     OW68937   7.527   0.470   2.804 -0.1563 -0.4075  0.3618
22207SOL    HW168938   7.570   0.384   2.810  0.0613 -0.2371  1.6556
22207SOL    HW268939   7.435   0.452   2.821 -0.4009 -0.5954 -1.0751
22208SOL     OW68940   0.291   4.319   9.846 -0.0078 -0.1433 -0.2753
22208SOL    HW168941   0.303   4.409   9.813  1.0534 -0.7358 -1.6127
22208SOL    HW268942   0.378   4.280   9.841 -0.1526 -0.8109  1.7429
22209SOL     OW68943   8.901   7.080   5.702  0.1614  0.1971  0.3523
22209SOL    HW168944   8.988   7.047   5.681  0.0028  0.7555 -1.3287
22209SOL    HW268945   8.892   7.161   5.651 -0.6706  1.1378  1.8865
22210SOL     OW68946   2.410   5.800   2.890 -0.3818 -0.2455 -0.3294
22210SOL    HW168947   2.372   5.809   2.803  2.9417  0.2792 -1.8718
22210SOL    HW268948   2.408   5.889   2.927 -0.8943 -0.2838 -0.2580
22211SOL     OW68949   3.842   4.529   7.522  0.2096 -0.3381 -0.2389
22211SOL    HW168950   3.858   4.622   7.504 -1.3896  0.1178  0.4485
22211SOL    HW268951   3.784   4.530   7.598  0.6919 -1.9419  0.1816
22212SOL     OW68952   9.152   4.928   0.014  0.2924 -0.3679  0.3005
22212SOL    HW168953   9.059   4.942  -0.004  0.4192  0.1608 -0.0072
22212SOL    HW268954   9.163   4.833   0.015 -0.0236 -0.4438 -0.9593
22213SOL     OW68955   7.054   3.923   6.218 -0.4260 -0.3730  0.7743
22213SOL    HW168956   7.002   3.868   6.276  0.7388 -1.4969  0.7911
22213SOL    HW268957   7.116   3.863   6.177 -0.4570  0.5910 -0.7629
22214SOL     OW68958   5.528   8.313   2.705  0.4569  0.4120  0.0259
22214SOL    HW168959   5.515   8.406   2.723  0.3052  0.3465  0.2626
22214SOL    HW268960   5.540   8.308   2.610 -0.7612  0.5411 -0.1498
22215SOL     OW68961   7.383   0.880   4.261 -0.1524 -0.5294 -0.2029
22215SOL    HW168962   7.297   0.842   4.277 -0.3954 -0.2850 -0.8781
22215SOL    HW268963   7.421   0.826   4.192  0.5258 -1.0568  0.5632
22216SOL     OW68964   3.197   0.369   3.935  0.8940  0.5700 -0.0410
22216SOL    HW168965   3.264   0.339   3.995  0.5855 -0.9022 -0.3969
22216SOL    HW268966   3.114   0.349   3.979  0.6092 -2.2720 -1.6501
22217SOL     OW68967   5.347  10.326  10.053 -0.1884  0.2366  0.5395
22217SOL    HW168968   5.262  10.289  10.077  1.6709 -3.9320  1.5362
22217SOL    HW268969   5.331  10.421  10.051 -4.8133 -0.2733  0.5667
22218SOL     OW68970   2.597   4.245   4.714 -0.2584 -0.0622 -0.3137
22218SOL    HW168971   2.583   4.338   4.732 -1.4703 -0.4607  1.0495
22218SOL    HW268972   2.680   4.224   4.756 -1.5691 -0.2758  2.4126
22219SOL     OW68973   2.063   8.515   1.628  0.1521 -0.3254  0.0285
22219SOL    HW168974   2.150   8.475   1.624  0.5634  0.6043 -0.8829
22219SOL    HW268975   2.012   8.457   1.684  1.5773 -0.4797  1.2271
22220SOL     OW68976   5.454   4.967   3.540  0.5008 -0.3496  0.0142
22220SOL    HW168977   5.466   5.061   3.530 -0.8948 -0.0836  0.6317
22220SOL    HW268978   5.377   4.958   3.595  1.7578 -1.8480  1.6636
22221SOL     OW68979   7.928   2.615  10.471  0.7842 -0.2759  0.1744
22221SOL    HW168980   7.919   2.692  10.415 -0.0143 -0.8973 -0.5750
22221SOL    HW268981   7.985   2.644  10.543  4.4352 -0.2817 -2.4386
22222SOL     OW68982   8.281   3.392   4.704 -0.2190 -0.0842  0.8542
22222SOL    HW168983   8.372   3.390   4.734  0.1604  0.6717 -0.1659
22222SOL    HW268984   8.288   3.390   4.608 -1.2541  0.6066  0.7519
22223SOL     OW68985   9.766   4.901   0.664 -0.0042  0.2702  0.0146
22223SOL    HW168986   9.700   4.929   0.727  0.6369 -0.1509  0.9043
22223SOL    HW268987   9.757   4.805   0.662  1.1950  0.1151  0.8881
22224SOL     OW68988   0.341   5.165   4.891 -0.3878  0.0690 -0.9667
22224SOL    HW168989   0.252   5.166   4.926 -0.8025  1.5864 -1.9192
22224SOL    HW268990   0.398   5.171   4.967 -0.9349 -3.3466 -0.1405
22225SOL     OW68991   1.958   0.606   3.248  0.0500 -0.0408  0.1855
22225SOL    HW168992   2.048   0.575   3.244  0.2397  0.3587  1.0934
22225SOL    HW268993   1.926   0.576   3.333 -0.9450 -0.8713 -0.4534
22226SOL     OW68994   1.853   9.794   4.078 -0.6035 -0.0497 -0.4542
22226SOL    HW168995   1.912   9.848   4.130 -0.5079 -1.2191  0.7043
22226SOL    HW268996   1.910   9.735   4.030 -0.7727 -0.1208 -0.5685
22227SOL     OW68997   1.552   4.170   2.180 -0.2882 -0.0563 -0.2784
22227SOL    HW168998   1.490   4.147   2.249 -0.4988  0.8253 -0.1542
22227SOL    HW268999   1.602   4.090   2.164 -0.9218 -0.5533  0.1821
22228SOL     OW69000   5.904   0.640   1.854  0.4216  0.1304 -0.3890
22228SOL    HW169001   5.826   0.629   1.799 -1.3227 -1.3091  2.1574
22228SOL    HW269002   5.976   0.611   1.799 -1.0526 -0.1042 -2.3044
22229SOL     OW69003   8.625   7.030   2.204 -0.0739 -0.5033 -0.4092
22229SOL    HW169004   8.635   7.124   2.219  2.4397 -0.6324 -0.8894
22229SOL    HW269005   8.677   6.988   2.272 -0.4544 -1.5228 -0.7225
22230SOL     OW69006   5.653   0.189   5.902 -0.2588 -0.2967 -1.1851
22230SOL    HW169007   5.652   0.111   5.847 -0.0158 -1.4879  0.4479
22230SOL    HW269008   5.615   0.161   5.985 -1.8496  1.7862 -1.1261
22231SOL     OW69009   8.706   1.458   1.418  0.5039  0.2308 -0.6337
22231SOL    HW169010   8.627   1.512   1.428  0.5903  0.1505  0.5622
22231SOL    HW269011   8.768   1.515   1.372  0.5811  1.1535  0.5770
22232SOL     OW69012   1.110   5.476   9.017  0.2537 -0.2019 -0.4660
22232SOL    HW169013   1.179   5.416   8.989  0.9039 -0.4333  1.5106
22232SOL    HW269014   1.109   5.544   8.950  1.9756 -0.5162 -0.8544
22233SOL     OW69015   1.324   0.197   1.467  0.0097 -1.2856  0.3636
22233SOL    HW169016   1.250   0.142   1.493  0.2424 -1.4609  0.6586
22233SOL    HW269017   1.337   0.177   1.374 -2.6105  1.3769 -0.7513
22234SOL     OW69018   8.868   8.043   0.402  0.1078  0.3709 -0.1644
22234SOL    HW169019   8.860   8.045   0.307 -0.2606 -0.3727 -0.1467
22234SOL    HW269020   8.809   7.974   0.431  0.4760  0.3567  0.5817
22235SOL     OW69021   7.737   5.219   9.946 -0.5417  0.0525  0.5284
22235SOL    HW169022   7.773   5.248  10.029 -2.4477  0.4948  1.2625
22235SOL    HW269023   7.806   5.165   9.907  0.6803  0.4568  2.0219
22236SOL     OW69024   9.170   1.614   2.478 -0.0706 -0.3712  0.2840
22236SOL    HW169025   9.191   1.564   2.558  1.5775 -1.5467 -0.8242
22236SOL    HW269026   9.092   1.572   2.444 -0.6111 -0.0567  1.1061
22237SOL     OW69027   9.730   3.620   9.823 -0.2885  0.0353 -0.3460
22237SOL    HW169028   9.772   3.622   9.737 -3.4501  0.3030 -2.0455
22237SOL    HW269029   9.640   3.650   9.806 -1.8204 -2.3733  2.5514
22238SOL     OW69030   8.918   6.843   7.873  0.4933  0.2647 -0.1591
22238SOL    HW169031   9.000   6.891   7.856  0.4863  0.5247  0.4819
22238SOL    HW269032   8.919   6.770   7.811  2.6932 -1.5027  1.7776
22239SOL     OW69033  10.387   1.059   5.058 -0.1641 -0.3781 -0.4427
22239SOL    HW169034  10.345   1.132   5.013 -0.4319 -0.1872  0.1127
22239SOL    HW269035  10.479   1.066   5.034 -0.2589 -0.1016 -0.7236
22240SOL     OW69036   9.643   8.234   8.709  0.5184 -0.8752 -0.3332
22240SOL    HW169037   9.556   8.269   8.729 -0.2683 -2.5152 -0.7334
22240SOL    HW269038   9.685   8.303   8.658 -1.2054 -0.6857 -1.6192
22241SOL     OW69039   2.278   5.126   5.339 -0.1085  0.1069  0.8507
22241SOL    HW169040   2.311   5.214   5.360 -0.9527  0.5261  0.4514
22241SOL    HW269041   2.210   5.141   5.273 -0.2519 -0.8490  0.7760
22242SOL     OW69042   1.397   7.214   9.725  0.0092  0.0249  0.4600
22242SOL    HW169043   1.458   7.285   9.745 -1.2604  1.3511 -0.1831
22242SOL    HW269044   1.393   7.212   9.630 -1.5685  0.5330  0.4981
22243SOL     OW69045   8.698   0.420  10.483  0.1542  0.1471  0.3684
22243SOL    HW169046   8.728   0.403  10.572  0.6735 -1.0268 -0.0024
22243SOL    HW269047   8.604   0.404  10.486 -0.0237  1.2160  0.9440
22244SOL     OW69048  10.094   0.976   9.266  0.2478  0.3329  0.2878
22244SOL    HW169049  10.064   1.015   9.184 -1.4758 -0.2497  0.5981
22244SOL    HW269050  10.162   1.035   9.298 -0.1900  1.4334 -0.7651
22245SOL     OW69051   9.286   3.228   0.027 -0.0247  0.2098  0.0288
22245SOL    HW169052   9.293   3.313  -0.017  0.2087 -0.7817 -1.9513
22245SOL    HW269053   9.309   3.247   0.119 -1.8430  2.6107  0.0981
22246SOL     OW69054   0.960   5.514   6.506  0.0010 -0.5525 -0.3457
22246SOL    HW169055   0.997   5.598   6.534  0.7849 -1.1350  0.3881
22246SOL    HW269056   0.986   5.506   6.414 -0.0638 -0.0031 -0.4148
22247SOL     OW69057   9.750   0.956   3.955 -0.4371 -0.1097  0.3609
22247SOL    HW169058   9.662   0.918   3.962 -0.9400  0.9686  0.1516
22247SOL    HW269059   9.796   0.926   4.033 -0.9577 -0.7482  0.4342
22248SOL     OW69060   6.707   2.119   4.275  0.4074 -0.0543  0.1164
22248SOL    HW169061   6.655   2.114   4.195 -0.9294 -0.8989  0.9928
22248SOL    HW269062   6.669   2.193   4.323  2.4013  1.6557 -0.7819
22249SOL     OW69063   2.888   5.233   3.589 -0.1433  0.4372  0.1799
22249SOL    HW169064   2.810   5.231   3.645 -0.3139  0.0112 -0.0691
22249SOL    HW269065   2.908   5.326   3.581 -0.2466  0.5137  0.7664
22250SOL     OW69066   5.227   0.928   5.821  0.0703  0.4641 -0.7877
22250SOL    HW169067   5.255   0.850   5.773 -2.0568 -0.9702  0.1426
22250SOL    HW269068   5.238   0.904   5.913  2.6515  2.6125 -0.4154
22251SOL     OW69069   9.614   7.953   0.031  0.5646 -0.2725 -0.5248
22251SOL    HW169070   9.519   7.943   0.030  0.5722 -0.4576  0.4550
22251SOL    HW269071   9.645   7.884   0.089  1.0562  1.6113  1.5615
22252SOL     OW69072   1.953   7.837   6.016  0.1781 -0.0287  0.5669
22252SOL    HW169073   1.862   7.808   6.018  0.1922 -0.0667  0.6564
22252SOL    HW269074   1.948   7.930   5.995  0.1628 -0.2592 -0.5287
22253SOL     OW69075   4.047   9.526  10.019 -0.3629 -0.6739 -0.3638
22253SOL    HW169076   4.106   9.584  10.066  0.5831 -0.6702 -1.5057
22253SOL    HW269077   3.962   9.569  10.023  0.4389  1.1763 -1.7585
22254SOL     OW69078   7.164   1.402   4.782  0.2659 -0.6510 -0.1429
22254SOL    HW169079   7.085   1.349   4.776  0.9036 -1.4746 -1.7768
22254SOL    HW269080   7.183   1.405   4.876 -1.6469 -0.4672  0.2782
22255SOL     OW69081   3.000   1.905   6.815  0.0004  0.0957 -0.5141
22255SOL    HW169082   3.050   1.987   6.817  1.2721 -0.6526  0.7344
22255SOL    HW269083   2.910   1.932   6.801  0.4750  1.6632 -0.7409
22256SOL     OW69084   9.753   9.109   9.142 -0.0206  0.3102 -0.5731
22256SOL    HW169085   9.767   9.095   9.048  0.5935  0.3163 -0.4817
22256SOL    HW269086   9.839   9.133   9.176 -0.1664 -0.0526  0.0580
22257SOL     OW69087   1.676   2.399   7.037 -0.0215 -0.2303 -0.0838
22257SOL    HW169088   1.684   2.402   7.132 -1.0176 -1.8338  0.0839
22257SOL    HW269089   1.632   2.316   7.019  0.3841 -0.0834 -1.9658
22258SOL     OW69090   9.846  10.007   8.487 -0.4418 -0.1426  0.1762
22258SOL    HW169091   9.839   9.914   8.467 -1.2515 -0.3529  1.3464
22258SOL    HW269092   9.887  10.010   8.574  3.4623  0.7529 -1.4846
22259SOL     OW69093   4.153   8.491   0.404 -0.6079 -0.1117 -0.2441
22259SOL    HW169094   4.081   8.550   0.427 -1.1411 -0.6451 -0.5241
22259SOL    HW269095   4.149   8.421   0.469 -0.2423 -0.0721 -0.1729
22260SOL     OW69096   2.464   1.509   7.430  0.8788 -0.0678 -0.4574
22260SOL    HW169097   2.532   1.555   7.380  1.5269 -0.4734  0.0400
22260SOL    HW269098   2.510   1.436   7.471 -0.3210 -1.8399 -2.1043
22261SOL     OW69099   7.217   0.624   9.317 -0.5749  0.0433 -0.1143
22261SOL    HW169100   7.130   0.592   9.294 -0.6645  0.6471 -0.6337
22261SOL    HW269101   7.208   0.719   9.323  0.3721  0.2667 -1.6948
22262SOL     OW69102   1.989  10.326   9.972 -0.0149 -0.0958  0.7324
22262SOL    HW169103   1.936  10.402   9.950 -2.7527 -1.5150  1.9989
22262SOL    HW269104   2.011  10.286   9.888  0.4961  1.4218  0.1146
22263SOL     OW69105   3.309   2.124   6.004 -0.1989  0.2813 -0.1319
22263SOL    HW169106   3.369   2.137   6.077 -0.7069 -0.0362  0.3577
22263SOL    HW269107   3.333   2.040   5.967 -0.9358 -0.2953  0.6623
22264SOL     OW69108   6.297   4.052   6.503 -0.0790 -0.3886  0.4272
22264SOL    HW169109   6.360   4.077   6.571  0.4181 -1.2616  0.3048
22264SOL    HW269110   6.305   3.957   6.497  0.1290 -0.2962 -1.0729
22265SOL     OW69111   6.888   7.376   3.731 -0.1520  0.4219  0.2668
22265SOL    HW169112   6.967   7.377   3.784  0.0159  1.5581  0.0205
22265SOL    HW269113   6.894   7.455   3.678 -0.9579 -0.0138 -0.4919
22266SOL     OW69114   4.536   2.022   9.025  0.1000  0.3250  0.0268
22266SOL    HW169115   4.578   2.009   9.110  1.4736 -1.2626 -0.8174
22266SOL    HW269116   4.517   1.934   8.994 -5.0758  0.8558  0.7739
22267SOL     OW69117  10.538   7.526   6.847  0.0447 -0.2402  0.1625
22267SOL    HW169118  10.581   7.593   6.793 -2.0095 -0.6231 -2.1494
22267SOL    HW269119  10.489   7.576   6.911 -0.6459  0.4707 -0.8830
22268SOL     OW69120   8.095   5.868   3.750  0.8010 -0.0290 -0.0001
22268SOL    HW169121   8.120   5.815   3.826 -0.5731  0.2075  0.6506
22268SOL    HW269122   8.161   5.938   3.748  1.2478 -0.4158  0.5657
22269SOL     OW69123   1.973   5.710   1.136  0.5316  0.1015  0.1575
22269SOL    HW169124   2.040   5.714   1.067 -0.6342  1.7835 -0.9546
22269SOL    HW269125   1.964   5.801   1.165 -0.1160 -0.3578  1.4341
22270SOL     OW69126   2.093   4.747   1.339  0.3842 -0.0143  0.4422
22270SOL    HW169127   2.041   4.718   1.264  0.7364  1.2025 -0.3008
22270SOL    HW269128   2.179   4.707   1.326  0.1416 -0.6555  0.7702
22271SOL     OW69129   1.790   0.625   4.274 -0.3907 -0.1140 -0.7897
22271SOL    HW169130   1.864   0.686   4.280  0.2149 -0.9065  0.1535
22271SOL    HW269131   1.713   0.681   4.281  0.1549  0.5735 -0.0167
22272SOL     OW69132  10.115   5.737   9.621 -0.3801 -0.2806  0.3347
22272SOL    HW169133  10.171   5.803   9.578 -0.0583 -0.5298  0.3690
22272SOL    HW269134  10.080   5.782   9.697  0.7010 -0.4678  0.9666
22273SOL     OW69135   0.571   4.599   2.892  0.1614 -0.4760  0.0720
22273SOL    HW169136   0.479   4.609   2.869  0.5283 -0.4176 -1.5178
22273SOL    HW269137   0.585   4.659   2.965 -0.4980  1.4888 -1.3213
22274SOL     OW69138   8.579   5.279   3.436 -0.2086  0.6215 -0.6235
22274SOL    HW169139   8.492   5.314   3.455 -1.0539 -1.0490 -1.2061
22274SOL    HW269140   8.588   5.286   3.341  0.1469  0.4958 -0.6026
22275SOL     OW69141   9.309   0.697   0.500  0.0747 -0.0886  0.2560
22275SOL    HW169142   9.368   0.769   0.477 -0.2938  0.8432  2.0803
22275SOL    HW269143   9.231   0.712   0.447  0.0072  0.8462  0.6102
22276SOL     OW69144   3.005   0.361   8.947  0.4734 -0.4335 -0.3769
22276SOL    HW169145   2.968   0.322   9.025 -2.5119  1.0800 -0.9085
22276SOL    HW269146   3.029   0.450   8.973 -0.6180  0.1111 -1.1673
22277SOL     OW69147   9.871   9.502   9.948 -0.7896 -0.0669  0.1954
22277SOL    HW169148   9.937   9.548  10.000 -0.5913  0.5102 -0.5534
22277SOL    HW269149   9.790   9.509   9.999 -0.1584 -1.3611  1.4544
22278SOL     OW69150   9.154   6.611   5.453  0.2238  0.1659 -0.0439
22278SOL    HW169151   9.076   6.600   5.399  0.2341 -0.3687  0.0385
22278SOL    HW269152   9.159   6.705   5.471 -1.3018  0.0440  1.2634
22279SOL     OW69153   3.239   3.449   5.218  0.6227  0.6989  0.5562
22279SOL    HW169154   3.306   3.517   5.223 -0.5941  2.0788 -0.7957
22279SOL    HW269155   3.202   3.444   5.306 -0.2590  2.8943  0.3707
22280SOL     OW69156   5.433   4.410  10.023  0.2909 -0.3181 -0.1626
22280SOL    HW169157   5.347   4.375  10.044  0.3405 -0.9469 -0.9531
22280SOL    HW269158   5.452   4.472  10.094 -1.7403  1.5234 -1.0891
22281SOL     OW69159   9.641   8.574   0.593 -0.2440  0.0112 -0.1488
22281SOL    HW169160   9.677   8.588   0.681 -1.2684 -0.3827  0.3402
22281SOL    HW269161   9.715   8.592   0.535  1.2596 -2.3759  0.8854
22282SOL     OW69162   7.413   9.674   8.431 -0.0809  0.5523 -0.1981
22282SOL    HW169163   7.381   9.763   8.417 -1.8127  0.1184  0.6520
22282SOL    HW269164   7.446   9.646   8.346 -1.2721  1.3578 -0.9592
22283SOL     OW69165   0.836  10.016   0.841  0.0643  0.0621  0.1989
22283SOL    HW169166   0.818  10.021   0.747 -0.9056  0.8210  0.4101
22283SOL    HW269167   0.753   9.987   0.880 -0.0519  1.3921  0.9781
22284SOL     OW69168   7.719   8.561   2.356  0.1262 -0.3454  0.1342
22284SOL    HW169169   7.783   8.540   2.424 -0.4142 -0.8252  0.5029
22284SOL    HW269170   7.698   8.653   2.370  0.5220 -0.2580  0.1826
22285SOL     OW69171  10.305   6.500   0.026  0.1229 -0.2707  0.3270
22285SOL    HW169172  10.245   6.544   0.087  1.2570  0.2502  1.1128
22285SOL    HW269173  10.369   6.457   0.083  0.3929 -0.9678 -0.4906
22286SOL     OW69174   1.147   1.610   5.388  0.2632 -0.3238  0.5148
22286SOL    HW169175   1.122   1.528   5.430 -3.1485  0.5532  0.4977
22286SOL    HW269176   1.126   1.597   5.295 -1.7729  0.9612  0.7346
22287SOL     OW69177   0.451   0.686   9.475 -1.1289  0.2981  0.1185
22287SOL    HW169178   0.407   0.636   9.406 -1.2286 -0.3187  0.6158
22287SOL    HW269179   0.464   0.623   9.546  1.0486  0.2995 -0.1957
22288SOL     OW69180   7.940   3.947   9.246 -0.0645 -0.0893  0.1541
22288SOL    HW169181   8.025   3.992   9.247 -0.4801  0.7225  1.5551
22288SOL    HW269182   7.948   3.883   9.317 -0.0760 -1.1191 -0.7497
22289SOL     OW69183   3.760   2.361   0.697 -0.2359 -0.6379  0.3413
22289SOL    HW169184   3.674   2.327   0.672 -0.3446 -0.5915  0.6563
22289SOL    HW269185   3.818   2.333   0.626 -0.5572 -0.4586  0.0061
22290SOL     OW69186   4.528   7.874   6.028 -0.1979  0.7688 -0.1769
22290SOL    HW169187   4.571   7.873   5.942  1.8941 -0.9090  0.8084
22290SOL    HW269188   4.435   7.885   6.007  0.0201 -1.2174 -2.8076
22291SOL     OW69189   1.377   6.983   0.464  0.7824  0.5810  0.1671
22291SOL    HW169190   1.382   7.078   0.450 -0.2419  0.6479  0.2385
22291SOL    HW269191   1.285   6.962   0.454  1.0947 -0.5207 -0.5179
22292SOL     OW69192   2.510   4.281   3.885 -0.3873  0.4760  0.2460
22292SOL    HW169193   2.600   4.312   3.872 -0.1013 -0.0897  0.8365
22292SOL    HW269194   2.495   4.287   3.979 -0.2384 -1.3584  0.4285
22293SOL     OW69195   9.551   0.044   2.875  0.0799 -0.7665 -0.3084
22293SOL    HW169196   9.573   0.137   2.873 -1.2200 -0.4314  0.2885
22293SOL    HW269197   9.458   0.040   2.855 -0.1527 -1.8397  0.8425
22294SOL     OW69198   1.094   7.098   4.249 -0.1172  0.2558 -0.1032
22294SOL    HW169199   1.057   7.015   4.217  1.4263 -1.0497  1.3042
22294SOL    HW269200   1.019   7.158   4.249 -1.7633 -1.6542  0.5925
22295SOL     OW69201   5.995   4.364   0.616 -0.2805 -0.0677 -0.0904
22295SOL    HW169202   6.043   4.397   0.540  0.0970 -1.7118 -0.6151
22295SOL    HW269203   5.921   4.424   0.626 -1.4871 -0.8773 -2.9974
22296SOL     OW69204   0.729   3.940   4.239  0.0190 -0.6596  0.0102
22296SOL    HW169205   0.761   4.028   4.258  0.7673 -0.7755 -0.6244
22296SOL    HW269206   0.766   3.919   4.153 -1.4295 -0.9953 -0.5577
22297SOL     OW69207   3.654   5.096   2.883  0.4846 -0.1666 -0.0687
22297SOL    HW169208   3.690   5.122   2.797  0.5929  1.3177  0.4019
22297SOL    HW269209   3.560   5.107   2.874  0.2399 -2.2486 -0.6962
22298SOL     OW69210   5.012   0.400   6.128 -0.1521  0.1664  0.4940
22298SOL    HW169211   4.982   0.310   6.144 -1.5598  0.6006  0.3730
22298SOL    HW269212   4.940   0.455   6.157 -0.7587  1.1522 -2.5506
22299SOL     OW69213   0.958  10.016   4.550  0.0783 -0.0985  0.0285
22299SOL    HW169214   0.964  10.062   4.634  0.5322 -2.6379  1.4850
22299SOL    HW269215   0.867  10.025   4.524  0.0328  1.1171  0.5115
22300SOL     OW69216   9.203  10.024   0.974  0.3389  0.2650 -0.1551
22300SOL    HW169217   9.280   9.987   0.931 -1.3100 -1.5004 -1.7797
22300SOL    HW269218   9.190   9.970   1.051  1.7071  1.7155  1.1627
22301SOL     OW69219   9.270   7.761   8.915  0.0388  0.3860  0.1252
22301SOL    HW169220   9.354   7.716   8.907  0.2478  0.6350  0.8692
22301SOL    HW269221   9.227   7.719   8.990  1.2024  2.8917  2.3374
22302SOL     OW69222   5.312   8.160   2.561 -0.0428 -0.1959  0.1256
22302SOL    HW169223   5.308   8.167   2.657 -0.0860  1.9622  0.0113
22302SOL    HW269224   5.396   8.200   2.537 -1.3023  2.0653 -0.8721
22303SOL     OW69225   1.331   3.821   3.457  0.0783  0.3738 -0.3383
22303SOL    HW169226   1.277   3.810   3.536 -1.9519  3.3016 -1.1582
22303SOL    HW269227   1.420   3.828   3.489 -0.4411 -0.6664  1.4680
22304SOL     OW69228   2.484  10.153   2.650 -0.4288  0.1943  0.2083
22304SOL    HW169229   2.542  10.081   2.674 -1.2342 -0.2635  0.8927
22304SOL    HW269230   2.422  10.157   2.723 -0.0188  2.0027  0.4881
22305SOL     OW69231   8.964   5.559   5.153  0.1904  0.3335  0.1495
22305SOL    HW169232   8.958   5.535   5.061  0.6053 -0.0447  0.2169
22305SOL    HW269233   8.904   5.632   5.163  1.4475  1.5410 -0.8066
22306SOL     OW69234   5.829   9.051   2.047 -0.3139 -0.0487  0.0877
22306SOL    HW169235   5.786   9.137   2.057  2.2556  1.3130  0.2055
22306SOL    HW269236   5.803   9.022   1.960 -1.1386  0.8832 -0.0072
22307SOL     OW69237   2.158  10.310   3.292  0.0401  0.5933  0.0539
22307SOL    HW169238   2.190  10.265   3.370 -0.7160  0.5514  0.3542
22307SOL    HW269239   2.107  10.244   3.245 -1.8697  1.3351  0.9754
22308SOL     OW69240   2.054   9.508   9.362 -0.6223 -0.6547  0.1359
22308SOL    HW169241   2.031   9.448   9.433 -2.5681  1.4764  1.4636
22308SOL    HW269242   2.071   9.592   9.406  1.9591 -0.1249 -1.6419
22309SOL     OW69243   1.819   6.945   7.124 -0.5210  0.2159 -0.4800
22309SOL    HW169244   1.773   6.911   7.047 -0.9551  0.8775 -0.5282
22309SOL    HW269245   1.899   6.984   7.089 -0.8086  0.6859 -0.6312
22310SOL     OW69246   4.277   0.315   7.448  0.0400 -0.0334  0.2742
22310SOL    HW169247   4.290   0.338   7.356  2.1484  2.2333  1.0214
22310SOL    HW269248   4.203   0.369   7.476  0.4160  0.4845  0.2803
22311SOL     OW69249   7.962   1.354   1.134  0.2203  0.1944  0.1331
22311SOL    HW169250   7.963   1.262   1.159 -2.2999 -0.9253 -3.1923
22311SOL    HW269251   7.890   1.392   1.184  1.1906  0.3924  1.4234
22312SOL     OW69252   2.934   3.001   5.952  0.1810  0.1415 -0.0884
22312SOL    HW169253   2.923   2.928   6.013  0.3125  1.5047  1.6404
22312SOL    HW269254   2.845   3.023   5.924  0.0275  0.1557  0.4110
22313SOL     OW69255   0.248   0.648   2.262 -0.4930 -0.2457 -0.2568
22313SOL    HW169256   0.310   0.718   2.283 -0.6817  0.6238 -2.3295
22313SOL    HW269257   0.302   0.579   2.224 -0.5630 -0.3218 -0.2173
22314SOL     OW69258   3.209   4.336   6.527 -0.0252  0.0414  0.8389
22314SOL    HW169259   3.114   4.336   6.526 -0.0888  1.5362  2.3670
22314SOL    HW269260   3.233   4.287   6.607  0.4749 -0.0352  0.6494
22315SOL     OW69261   3.984   1.886   5.426  0.4284  0.6633 -0.5088
22315SOL    HW169262   3.906   1.830   5.418  0.8346  0.1990 -1.3605
22315SOL    HW269263   4.031   1.873   5.344  2.0099  0.0372  0.4597
22316SOL     OW69264   3.307   5.919   2.138  0.0147 -0.2949 -0.3937
22316SOL    HW169265   3.263   5.848   2.090  1.5936 -0.3322 -1.9075
22316SOL    HW269266   3.349   5.875   2.212  1.3124 -1.0764 -1.5340
22317SOL     OW69267   3.276   3.304   1.645  0.0031 -0.1295  0.5958
22317SOL    HW169268   3.315   3.310   1.733 -1.4179  0.6335  1.2093
22317SOL    HW269269   3.277   3.393   1.612  1.6704 -0.6062 -0.7110
22318SOL     OW69270   1.237   6.984   5.906 -0.0373  0.0223  0.8072
22318SOL    HW169271   1.315   6.963   5.957  0.4206  0.0360  0.1179
22318SOL    HW269272   1.246   6.933   5.826 -0.0326  1.1237  0.0913
22319SOL     OW69273   9.988   8.398   7.337 -0.4229  0.2264 -0.3498
22319SOL    HW169274  10.010   8.312   7.372 -0.0579 -0.2196 -1.6328
22319SOL    HW269275   9.893   8.401   7.337 -0.4313 -0.0632 -0.0242
22320SOL     OW69276   7.881   9.443   8.169  0.4054  0.4543 -0.4577
22320SOL    HW169277   7.817   9.423   8.100  0.6340  0.8409 -0.7882
22320SOL    HW269278   7.827   9.467   8.245  0.1418 -0.6983 -0.2648
22321SOL     OW69279   0.848   1.488   4.420  0.1527 -1.1422 -0.5428
22321SOL    HW169280   0.874   1.505   4.329 -2.1421 -1.5506 -1.3503
22321SOL    HW269281   0.843   1.574   4.460 -1.1683 -0.7166 -1.5475
22322SOL     OW69282   8.046   9.350   1.710  0.3841  0.2280 -0.0933
22322SOL    HW169283   7.999   9.415   1.761  2.0469  2.1864 -0.8992
22322SOL    HW269284   8.136   9.383   1.708  0.6651 -0.4956 -3.0641
22323SOL     OW69285   7.290   4.798   6.346 -0.2750 -0.0016  0.3123
22323SOL    HW169286   7.320   4.759   6.428 -0.1203  0.0039  0.2581
22323SOL    HW269287   7.364   4.788   6.286 -0.2747  0.2741  0.2664
22324SOL     OW69288   0.555   2.312   1.756  0.2886  0.2703  0.0133
22324SOL    HW169289   0.487   2.270   1.808 -1.2226  2.3072 -0.1805
22324SOL    HW269290   0.514   2.325   1.670  0.4451  2.5838  0.2345
22325SOL     OW69291   0.774   8.285   7.856  0.0700  0.1192 -0.4967
22325SOL    HW169292   0.683   8.255   7.858  0.1532 -0.1290  0.7303
22325SOL    HW269293   0.797   8.289   7.763 -1.8022  2.0650 -0.9512
22326SOL     OW69294   3.918   5.595   4.957 -0.7607  0.4801  0.9555
22326SOL    HW169295   3.897   5.587   4.864  0.3269 -0.1295  0.7522
22326SOL    HW269296   3.941   5.687   4.969 -1.9661  0.8163  0.8707
22327SOL     OW69297   8.123   2.223   8.565  0.3131 -0.2302 -0.3710
22327SOL    HW169298   8.151   2.301   8.517 -0.7508  1.3256  1.4004
22327SOL    HW269299   8.036   2.203   8.529 -0.3617  0.7638  0.6531
22328SOL     OW69300   7.494   3.582   0.706 -0.3616  0.2227 -0.2024
22328SOL    HW169301   7.496   3.616   0.617  0.1085  0.7037 -0.0139
22328SOL    HW269302   7.549   3.643   0.756  0.4841 -0.7816  0.1406
22329SOL     OW69303   0.811   3.949   5.459 -0.5889  0.1137  0.2686
22329SOL    HW169304   0.794   4.042   5.474  0.9752  0.9238 -2.3162
22329SOL    HW269305   0.730   3.917   5.419 -0.9876  0.4661  0.7857
22330SOL     OW69306  10.391   1.873   2.440 -0.1514  0.1845 -0.3028
22330SOL    HW169307  10.404   1.876   2.345 -1.4220  1.3483 -0.4777
22330SOL    HW269308  10.295   1.870   2.451 -0.0189 -0.0171  0.9457
22331SOL     OW69309   7.531   8.421   8.238  0.2752 -0.3999 -0.0736
22331SOL    HW169310   7.555   8.433   8.146 -1.8169 -1.3472 -0.8105
22331SOL    HW269311   7.464   8.487   8.255  0.3564 -0.4922  0.6617
22332SOL     OW69312   3.351   5.657   4.383  0.0719  0.8234  0.1259
22332SOL    HW169313   3.426   5.609   4.348  0.2170 -0.6651  2.3148
22332SOL    HW269314   3.314   5.703   4.307  1.6324 -0.4879 -1.4964
22333SOL     OW69315   2.747   3.609   6.288 -0.3770 -0.0573  0.0719
22333SOL    HW169316   2.781   3.555   6.217  0.7758 -0.1224  0.6422
22333SOL    HW269317   2.679   3.662   6.248  0.9410  0.6477 -1.3472
22334SOL     OW69318   5.461   0.685  10.596 -0.2261 -0.0145 -0.4717
22334SOL    HW169319   5.472   0.773  10.632 -0.3161 -0.3983  0.5221
22334SOL    HW269320   5.541   0.639  10.621 -0.3552 -0.3319 -0.6419
22335SOL     OW69321   6.408   0.136   9.324 -0.5071 -0.8903 -0.6156
22335SOL    HW169322   6.455   0.062   9.361 -1.3623 -0.7813  0.7551
22335SOL    HW269323   6.370   0.181   9.399 -1.0058  0.2518 -1.5141
22336SOL     OW69324   2.430   8.639   9.669 -0.0698 -0.4899 -0.2640
22336SOL    HW169325   2.433   8.546   9.647 -1.2423 -0.6239  0.0909
22336SOL    HW269326   2.359   8.674   9.615  1.1027  0.4661 -1.2809
22337SOL     OW69327   0.528   0.009   7.296  0.2992  0.2886  0.0193
22337SOL    HW169328   0.586  -0.046   7.348  1.4414  0.5952 -0.8812
22337SOL    HW269329   0.583   0.084   7.270 -0.8962  1.2871  0.2837
22338SOL     OW69330   4.318   5.172  10.257 -0.2263 -0.1875 -0.3100
22338SOL    HW169331   4.390   5.233  10.244 -0.5160  0.3217  0.4374
22338SOL    HW269332   4.319   5.116  10.179 -0.3073  1.1140 -1.2647
22339SOL     OW69333   2.232   8.690   3.536 -0.3890 -0.1079 -0.0362
22339SOL    HW169334   2.297   8.755   3.507 -0.0878 -0.5844 -0.4522
22339SOL    HW269335   2.283   8.610   3.548 -0.8437 -0.3942 -0.0149
22340SOL     OW69336   4.462   0.763   3.406  0.2937  0.2600 -0.3684
22340SOL    HW169337   4.465   0.848   3.364 -0.3920  0.2645 -0.4188
22340SOL    HW269338   4.510   0.705   3.347 -0.6618  0.2647 -1.1636
22341SOL     OW69339   5.303   7.844   6.756  0.0073  0.5239  0.3201
22341SOL    HW169340   5.321   7.750   6.754 -0.9818  0.2513  2.4568
22341SOL    HW269341   5.387   7.884   6.776  0.6457  0.2325 -1.5191
22342SOL     OW69342   7.950  10.500   4.602  0.4174  0.2557  0.5842
22342SOL    HW169343   8.002  10.578   4.619 -0.7276  0.9512  0.9916
22342SOL    HW269344   7.963  10.481   4.509  0.5818  1.0150  0.4506
22343SOL     OW69345   3.144   7.789   9.619 -0.4374  0.0724  0.1187
22343SOL    HW169346   3.167   7.697   9.604  4.1892  1.4173 -2.9166
22343SOL    HW269347   3.179   7.809   9.705 -0.2035 -0.6779  0.2052
22344SOL     OW69348   6.730   2.359   7.009 -0.0955  0.1587 -0.5080
22344SOL    HW169349   6.774   2.278   7.034  1.1433  0.4159 -1.7335
22344SOL    HW269350   6.663   2.372   7.076 -0.6379 -2.1200 -0.5559
22345SOL     OW69351   3.331   4.528   3.647 -0.7450  0.4497  0.1054
22345SOL    HW169352   3.372   4.589   3.586 -0.8301 -0.8913 -1.3666
22345SOL    HW269353   3.344   4.567   3.733  2.8058  0.5413 -0.3431
22346SOL     OW69354   3.040   3.998   0.174  0.2781  0.0209 -0.4610
22346SOL    HW169355   3.124   3.996   0.220  0.9157  1.3120 -1.4813
22346SOL    HW269356   3.063   3.984   0.082 -0.5723  0.8108 -0.8092
22347SOL     OW69357   6.055   6.548   1.135  0.1273 -0.0669  0.7399
22347SOL    HW169358   5.963   6.570   1.148 -0.0015 -0.6099  0.7647
22347SOL    HW269359   6.058   6.508   1.048  0.6842  1.8387 -0.1828
22348SOL     OW69360  10.319   9.173   8.077 -0.3118  0.3595 -0.2618
22348SOL    HW169361  10.308   9.186   8.172 -1.3402 -1.3537 -0.1217
22348SOL    HW269362  10.414   9.166   8.066 -0.1435  1.0384  0.5573
22349SOL     OW69363   7.528   5.080   1.158  0.5823 -0.0931 -0.2789
22349SOL    HW169364   7.500   5.023   1.229  0.7491 -0.3357 -0.4095
22349SOL    HW269365   7.506   5.032   1.078 -1.2682  0.9316 -0.4392
22350SOL     OW69366   6.383   6.213   7.187  0.0556 -0.2669 -0.3928
22350SOL    HW169367   6.325   6.248   7.119 -0.1061  0.2768  0.0134
22350SOL    HW269368   6.461   6.268   7.183  0.7890 -1.3439 -1.3037
22351SOL     OW69369   6.524   9.441   6.133  0.2499 -0.7472 -0.1396
22351SOL    HW169370   6.434   9.474   6.134 -0.2488 -2.0483 -0.1219
22351SOL    HW269371   6.577   9.516   6.105 -0.7784  0.1612  0.2940
22352SOL     OW69372   1.856   6.560   8.217  0.2058 -0.4574  0.0733
22352SOL    HW169373   1.913   6.634   8.194  0.7894 -0.7597  0.5077
22352SOL    HW269374   1.893   6.486   8.170 -0.4922 -0.4490 -0.5110
22353SOL     OW69375   4.521   8.016   7.653 -0.2525  0.3779  0.1656
22353SOL    HW169376   4.574   8.070   7.595 -0.2084  0.5563  0.3720
22353SOL    HW269377   4.472   7.959   7.594 -0.2899  0.6326 -0.0556
22354SOL     OW69378   2.214   6.724   7.443  0.3199  0.4714 -0.2694
22354SOL    HW169379   2.177   6.777   7.372  2.2995  0.5897 -1.2773
22354SOL    HW269380   2.173   6.758   7.522 -0.9231  1.2515 -1.2035
22355SOL     OW69381   9.947   8.755   2.319  1.0575  0.1341  0.1246
22355SOL    HW169382   9.927   8.844   2.349 -0.3301 -0.8268  2.3151
22355SOL    HW269383  10.039   8.742   2.344  1.3950  1.0683 -0.5758
22356SOL     OW69384   6.560   5.751   2.440 -0.1999  0.7279  0.2990
22356SOL    HW169385   6.606   5.667   2.431 -0.9037  0.4680 -1.2202
22356SOL    HW269386   6.550   5.763   2.534 -0.3046 -1.0165  0.5368
22357SOL     OW69387   4.640   6.432   1.363 -0.1461 -0.1578 -0.0408
22357SOL    HW169388   4.633   6.364   1.296  1.5400 -0.7169  0.2784
22357SOL    HW269389   4.692   6.500   1.322 -0.0401 -0.0126  0.3308
22358SOL     OW69390   4.024   1.814   3.652 -0.7960  0.3341 -0.5016
22358SOL    HW169391   3.953   1.871   3.623  0.6209  1.8186 -1.2344
22358SOL    HW269392   4.081   1.807   3.575 -0.6625 -1.6963 -0.2709
22359SOL     OW69393   3.350   0.195   2.652 -0.0006  0.3030 -0.0146
22359SOL    HW169394   3.422   0.132   2.658  0.6756  1.0833  0.1711
22359SOL    HW269395   3.390   0.280   2.671 -0.9970  0.7337  0.2423
22360SOL     OW69396   3.418   1.759   4.932  0.0474 -0.0420  0.5844
22360SOL    HW169397   3.408   1.739   4.839 -1.1547  2.2805  0.1350
22360SOL    HW269398   3.505   1.799   4.938 -0.0039  0.0993  0.3976
22361SOL     OW69399   6.081   3.221   0.036  0.7669 -0.0406 -0.8609
22361SOL    HW169400   6.019   3.177  -0.021  0.6188 -0.9258 -0.0533
22361SOL    HW269401   6.144   3.153   0.060 -0.3506 -0.3052  1.6827
22362SOL     OW69402   4.518   9.403   2.208  0.0475 -0.1678 -0.5026
22362SOL    HW169403   4.549   9.334   2.150 -0.2408 -1.4773  0.8348
22362SOL    HW269404   4.442   9.365   2.252 -0.5124  1.2445 -0.1958
22363SOL     OW69405   9.497   9.409   8.554 -0.0221 -0.2000 -0.0028
22363SOL    HW169406   9.461   9.322   8.539 -0.2760 -0.0498 -0.2627
22363SOL    HW269407   9.446   9.467   8.498  1.0052 -0.0638 -0.8350
22364SOL     OW69408   9.939   1.123   9.075 -0.3791  0.2927  0.3869
22364SOL    HW169409   9.874   1.109   9.007 -1.4357  0.6340  1.3013
22364SOL    HW269410  10.016   1.156   9.028 -0.5957 -0.7782 -0.7949
22365SOL     OW69411   3.757   5.328   6.616 -0.4895  0.3947  0.0048
22365SOL    HW169412   3.700   5.399   6.589 -0.6745 -0.1794 -1.1448
22365SOL    HW269413   3.844   5.367   6.620 -0.2301  0.2217 -2.7170
22366SOL     OW69414   5.381   1.088   7.417 -0.2278 -0.1202 -0.2705
22366SOL    HW169415   5.416   1.110   7.331 -1.0160  0.6769 -0.4013
22366SOL    HW269416   5.289   1.067   7.400 -1.7686  4.6142  0.9143
22367SOL     OW69417   9.558   0.065   1.693 -0.2682  0.2003 -0.3593
22367SOL    HW169418   9.541   0.106   1.778  0.7007  0.8815 -0.4731
22367SOL    HW269419   9.521  -0.023   1.701 -0.6479  0.4292  0.5835
22368SOL     OW69420   8.207   3.742   2.316  0.3285  0.4724  1.0299
22368SOL    HW169421   8.256   3.688   2.377 -1.1422  0.0164  1.8717
22368SOL    HW269422   8.118   3.706   2.318 -0.1048  1.3805 -0.2684
22369SOL     OW69423   6.126   9.215   2.391  1.0541 -0.2602  0.2139
22369SOL    HW169424   6.197   9.276   2.375  0.3354  1.4358  2.8586
22369SOL    HW269425   6.048   9.259   2.359  0.7120 -0.3636  0.8740
22370SOL     OW69426   7.555   1.170   5.239  0.8311 -0.3012 -0.0435
22370SOL    HW169427   7.507   1.246   5.207 -1.6907 -1.3366  1.0438
22370SOL    HW269428   7.619   1.152   5.170 -0.6022  0.9171 -1.7878
22371SOL     OW69429   7.152   7.555   6.587 -0.2629 -0.7316  0.1447
22371SOL    HW169430   7.239   7.594   6.598  0.3809 -1.4983 -1.7293
22371SOL    HW269431   7.170   7.466   6.558 -1.6923 -1.0211  0.0814
22372SOL     OW69432   9.349   1.153   9.855  0.2301  0.1782  0.4416
22372SOL    HW169433   9.386   1.112   9.777 -0.8671  2.2078 -1.2350
22372SOL    HW269434   9.269   1.103   9.872  0.7269 -0.5828  0.5994
22373SOL     OW69435   8.946   7.708   9.715 -0.3532 -0.1445  0.3767
22373SOL    HW169436   8.915   7.674   9.799 -0.7847  0.5761  0.5122
22373SOL    HW269437   8.965   7.629   9.663 -0.1972 -0.5924  1.0987
22374SOL     OW69438   2.068   1.762   2.797  0.1377  0.4455 -0.4092
22374SOL    HW169439   2.136   1.780   2.862 -0.8622  1.0856  0.4949
22374SOL    HW269440   2.022   1.685   2.831 -0.7744  1.1447 -0.0185
22375SOL     OW69441   5.275  10.093   6.347 -0.2563  0.3493  0.0850
22375SOL    HW169442   5.290  10.146   6.425  0.9297  0.8470 -0.4588
22375SOL    HW269443   5.297  10.004   6.375  0.8383  0.6297  0.1392
22376SOL     OW69444   9.876   8.377   9.743 -0.5596 -0.2844 -0.2492
22376SOL    HW169445   9.782   8.392   9.731 -0.7202 -0.6940  0.4741
22376SOL    HW269446   9.909   8.460   9.778 -0.3666  0.3787 -1.8990
22377SOL     OW69447   3.606   5.842   4.380  0.0559  0.5110  0.2600
22377SOL    HW169448   3.660   5.912   4.415 -0.2627  0.5551  0.6766
22377SOL    HW269449   3.526   5.844   4.433 -0.6500  0.8873 -0.7692
22378SOL     OW69450   3.977   0.551   5.416 -0.1092  0.1234  0.5593
22378SOL    HW169451   3.996   0.641   5.389  0.5043  0.3748  1.7928
22378SOL    HW269452   3.947   0.508   5.335  0.9092  1.0543 -0.3422
22379SOL     OW69453   5.622   9.324   9.922  0.0169  0.4854  0.1170
22379SOL    HW169454   5.578   9.386   9.980 -0.5774 -0.6833  0.9569
22379SOL    HW269455   5.552   9.270   9.887  0.6098 -0.2461  0.0439
22380SOL     OW69456   4.314   3.583   6.870 -0.8837  0.1311  0.3368
22380SOL    HW169457   4.224   3.561   6.895 -0.8622  1.2790  1.5666
22380SOL    HW269458   4.369   3.525   6.922 -0.9051  0.1769  0.4111
22381SOL     OW69459   0.769   0.071  10.517 -0.1341 -0.0859  0.0635
22381SOL    HW169460   0.816   0.044  10.596 -3.4359  0.4497  2.4292
22381SOL    HW269461   0.735   0.158  10.538 -2.6089 -0.6711 -1.1555
22382SOL     OW69462   9.568   4.127   4.984 -0.2296  0.0984 -0.8216
22382SOL    HW169463   9.513   4.110   5.061  1.1655 -2.3277 -0.2467
22382SOL    HW269464   9.616   4.206   5.007  0.1328 -0.5470  0.8529
22383SOL     OW69465   6.127   6.014   1.611 -0.2199 -0.1577  0.0428
22383SOL    HW169466   6.070   6.049   1.679  0.0783 -0.5017  0.4783
22383SOL    HW269467   6.196   6.080   1.601 -1.1710  0.6939 -1.1335
22384SOL     OW69468   9.258   0.598   9.023  0.4143 -0.1034 -0.0151
22384SOL    HW169469   9.271   0.677   9.075 -1.4457  0.2209  0.0421
22384SOL    HW269470   9.301   0.528   9.073 -1.0869  0.2418  1.8853
22385SOL     OW69471   1.369   8.335   9.044 -0.0858 -0.0389 -0.4110
22385SOL    HW169472   1.376   8.277   8.969  2.0665 -0.3078 -0.0742
22385SOL    HW269473   1.433   8.404   9.026  0.5101 -0.1415  1.1821
22386SOL     OW69474   1.355   6.596   1.880 -0.4682  0.4232  0.0876
22386SOL    HW169475   1.348   6.686   1.911  0.4980  0.2033  1.0013
22386SOL    HW269476   1.358   6.604   1.785 -0.8837  1.3192  0.1380
22387SOL     OW69477   7.242   5.184   0.794 -0.3429  0.2763 -0.3695
22387SOL    HW169478   7.299   5.188   0.717  0.4765  0.7551  0.2416
22387SOL    HW269479   7.288   5.236   0.860  0.7963 -2.9845  1.6425
22388SOL     OW69480   0.694   4.797  10.008 -0.2674 -0.0022  0.0900
22388SOL    HW169481   0.673   4.884   9.972 -0.7071 -0.7083 -1.4608
22388SOL    HW269482   0.686   4.738   9.933  2.0770 -1.1081  0.6392
22389SOL     OW69483   0.661   2.388   1.222  0.2273  0.6544 -0.5869
22389SOL    HW169484   0.731   2.326   1.242 -0.7908 -1.0316 -1.9292
22389SOL    HW269485   0.661   2.394   1.126 -0.7154  1.5176 -0.5473
22390SOL     OW69486   9.296   2.386   8.119  0.0331 -0.1265 -0.2022
22390SOL    HW169487   9.241   2.339   8.182 -0.6310  0.8415 -0.0312
22390SOL    HW269488   9.371   2.416   8.170 -0.3720  0.4303  0.0648
22391SOL     OW69489   2.475   6.416   1.780 -0.1888  0.1746 -0.4007
22391SOL    HW169490   2.488   6.380   1.693 -1.7189  0.6495 -0.8540
22391SOL    HW269491   2.547   6.381   1.832  1.6959  1.1821 -2.2251
22392SOL     OW69492   7.380   5.351  10.449 -0.3401  0.1414  0.6774
22392SOL    HW169493   7.366   5.429  10.395  0.3173 -0.4908 -0.4627
22392SOL    HW269494   7.310   5.291  10.423  0.2654 -0.3495  0.1448
22393SOL     OW69495   2.072   5.581   3.964  0.0646 -0.4371 -0.2900
22393SOL    HW169496   2.035   5.627   4.039  0.9155  2.5611 -1.5876
22393SOL    HW269497   1.997   5.551   3.914 -0.5166 -0.1262  0.3794
22394SOL     OW69498   5.927   9.682   0.022 -0.4477  0.2864  0.0737
22394SOL    HW169499   5.838   9.651   0.010 -0.9769  1.9622 -0.6073
22394SOL    HW269500   5.921   9.746   0.093  0.6371 -1.1718  1.5564
22395SOL     OW69501   5.702   3.906   8.719 -0.2295  0.0436  0.2914
22395SOL    HW169502   5.609   3.923   8.704 -0.6064 -1.6150  0.4915
22395SOL    HW269503   5.704   3.817   8.755  1.6258 -0.9635 -2.0762
22396SOL     OW69504   2.771   9.412   3.949 -0.2343 -0.2523 -0.2653
22396SOL    HW169505   2.797   9.445   3.862 -1.7456  2.1796  0.1133
22396SOL    HW269506   2.784   9.486   4.008 -1.1349 -1.2224  1.2287
22397SOL     OW69507   5.141   6.887   5.643  0.3703 -0.4790  0.6265
22397SOL    HW169508   5.197   6.847   5.575 -0.1931 -0.1150 -0.0658
22397SOL    HW269509   5.064   6.831   5.647  1.6585 -2.2741  3.1412
22398SOL     OW69510   4.321   3.386   7.659 -0.0467  0.1568  0.1355
22398SOL    HW169511   4.244   3.421   7.613  0.8607  1.0320 -0.7656
22398SOL    HW269512   4.373   3.463   7.680 -1.0025 -0.0356  3.8893
22399SOL     OW69513   8.637   5.696   3.642  0.1191 -0.0088 -0.0897
22399SOL    HW169514   8.594   5.712   3.726 -0.5171  0.6061 -0.5162
22399SOL    HW269515   8.654   5.602   3.640  1.0840  0.1273  1.1707
22400SOL     OW69516   7.574   4.088   8.657 -0.3536 -0.2074  0.2696
22400SOL    HW169517   7.531   4.007   8.630 -1.2380  0.4947 -0.4504
22400SOL    HW269518   7.529   4.114   8.737 -1.5964  0.7432 -0.6994
22401SOL     OW69519   2.689   7.447   5.118  0.0000 -0.1292 -0.2258
22401SOL    HW169520   2.646   7.418   5.037 -1.6773 -0.0400  0.5901
22401SOL    HW269521   2.697   7.542   5.108 -0.9328 -0.0201  0.0436
22402SOL     OW69522   2.351   9.013   6.811 -0.9940  0.3367  1.1669
22402SOL    HW169523   2.362   8.948   6.880  0.9770 -0.8098 -0.1148
22402SOL    HW269524   2.423   9.075   6.825 -0.0958 -0.3306 -0.2301
22403SOL     OW69525   2.952   2.894   9.955  0.3761 -0.5171 -0.4873
22403SOL    HW169526   2.985   2.849   9.877  1.7317 -0.7062  0.1565
22403SOL    HW269527   2.940   2.824  10.020 -1.0987 -0.4135 -0.6113
22404SOL     OW69528  10.302   3.272   0.595 -0.8074  0.4441 -0.1981
22404SOL    HW169529  10.235   3.207   0.616 -1.3817  0.7938 -0.8989
22404SOL    HW269530  10.310   3.268   0.500 -0.3777  0.9334 -0.1883
22405SOL     OW69531   1.154   3.375   3.061 -0.4912  0.1799  0.2626
22405SOL    HW169532   1.190   3.457   3.026  2.1396 -0.8020  0.5143
22405SOL    HW269533   1.107   3.337   2.988  0.4385  0.6993 -0.6333
22406SOL     OW69534   9.996   8.158   3.584 -0.0671 -0.1245  0.7548
22406SOL    HW169535   9.929   8.224   3.569  0.3224 -0.0875 -1.0611
22406SOL    HW269536  10.076   8.208   3.600  0.0988 -0.1330  0.0026
22407SOL     OW69537   1.838  10.144   2.737  0.1952  0.1239  0.1510
22407SOL    HW169538   1.757  10.177   2.699 -0.2409  0.5514  1.4356
22407SOL    HW269539   1.827  10.049   2.736 -0.9238  0.2139  1.5783
22408SOL     OW69540   6.616   8.365   0.955  0.3350 -0.0801 -0.2075
22408SOL    HW169541   6.669   8.442   0.934  0.6165  0.2685  1.6547
22408SOL    HW269542   6.580   8.383   1.042 -0.8000 -1.4211 -0.3617
22409SOL     OW69543   0.108  10.259   7.387 -0.5198  0.8576  0.4180
22409SOL    HW169544   0.201  10.266   7.368 -0.4519  2.8876  1.2100
22409SOL    HW269545   0.101  10.185   7.447  0.2930 -0.5011 -1.1073
22410SOL     OW69546   4.704   9.688   4.796 -0.4649  0.2155  0.1516
22410SOL    HW169547   4.660   9.675   4.712 -1.2396  0.6824  0.4741
22410SOL    HW269548   4.673   9.773   4.826 -0.9408 -0.3685  1.3531
22411SOL     OW69549   5.958   0.319   6.352  0.1728 -0.0595  0.0839
22411SOL    HW169550   6.002   0.396   6.317 -0.9069  0.2342 -0.6488
22411SOL    HW269551   5.892   0.296   6.287 -1.0120 -0.2769  1.3062
22412SOL     OW69552   9.418   0.881   6.476  0.1437 -0.1723 -0.4287
22412SOL    HW169553   9.437   0.975   6.472 -0.5733 -0.0546 -1.7111
22412SOL    HW269554   9.449   0.854   6.562 -1.9663  1.7902  1.0711
22413SOL     OW69555   0.146   2.332   3.378  0.6922 -0.1336  0.2328
22413SOL    HW169556   0.086   2.278   3.326 -0.2488 -0.2129  1.3732
22413SOL    HW269557   0.100   2.415   3.390  0.9126 -0.1057  0.9078
22414SOL     OW69558   7.226   3.438  10.269 -0.1278  0.3980 -0.4351
22414SOL    HW169559   7.140   3.402  10.291  0.1823  0.7661  1.5330
22414SOL    HW269560   7.207   3.521  10.226 -0.7961 -1.1310 -3.3875
22415SOL     OW69561   1.084   5.352   4.150 -0.1164 -0.3780  0.1090
22415SOL    HW169562   1.120   5.408   4.080  0.7130  0.0042  0.8207
22415SOL    HW269563   1.072   5.412   4.224 -0.8719 -0.8063  0.3374
22416SOL     OW69564  10.263  10.216   9.073 -0.0477 -0.0368  0.0174
22416SOL    HW169565  10.308  10.131   9.068  0.7095  0.0972  2.7899
22416SOL    HW269566  10.184  10.198   9.123 -0.6074  0.6482 -0.6083
22417SOL     OW69567   5.771   5.851   9.110  0.3362  0.0273  0.0215
22417SOL    HW169568   5.773   5.756   9.114  0.1547  0.0443  0.6135
22417SOL    HW269569   5.686   5.875   9.148  0.7039  0.4503  0.5995
22418SOL     OW69570   7.979   1.865  10.567 -0.4621  0.2811  0.2630
22418SOL    HW169571   7.971   1.892  10.476 -0.3513  0.7690  0.3969
22418SOL    HW269572   8.024   1.781  10.564 -0.8934  0.0630 -0.1623
22419SOL     OW69573   1.412   2.631   2.360  0.7762 -0.1671 -0.1824
22419SOL    HW169574   1.421   2.555   2.303 -0.8670  0.7695 -1.7791
22419SOL    HW269575   1.330   2.618   2.406  1.2906 -0.1193  0.7778
22420SOL     OW69576   4.195   7.503   1.736  0.3652 -0.5796  0.1285
22420SOL    HW169577   4.118   7.471   1.689  0.8798 -1.4021 -0.1713
22420SOL    HW269578   4.253   7.428   1.741  0.3872 -0.4734  1.9833
22421SOL     OW69579   3.730   7.928   9.512 -0.1039 -0.0306  0.2395
22421SOL    HW169580   3.815   7.914   9.554  0.2038  0.9316 -0.0359
22421SOL    HW269581   3.710   8.020   9.528 -2.2384 -0.7657  2.3451
22422SOL     OW69582   6.751   6.121   0.913  0.0486  0.1431 -0.3110
22422SOL    HW169583   6.659   6.118   0.886 -0.5266 -1.0370  1.5749
22422SOL    HW269584   6.778   6.030   0.919  0.5784  0.3725  1.4669
22423SOL     OW69585   7.473   9.306   5.806 -0.0269 -0.1390 -0.2226
22423SOL    HW169586   7.416   9.232   5.789 -1.5775  0.9157  0.1861
22423SOL    HW269587   7.421   9.365   5.860  0.9730  1.4828 -0.9339
22424SOL     OW69588   9.140   6.372   2.952  0.3080  0.0547 -0.0423
22424SOL    HW169589   9.195   6.298   2.979  2.0978  0.8907 -1.1644
22424SOL    HW269590   9.104   6.346   2.867  0.1400  0.0679  0.0250
22425SOL     OW69591   2.551   5.187   5.172 -0.0478 -0.0291 -0.7121
22425SOL    HW169592   2.641   5.217   5.162 -0.2422  0.8544  0.0482
22425SOL    HW269593   2.515   5.240   5.243 -0.4564 -2.0101  0.6397
22426SOL     OW69594  10.363   0.809   3.317 -0.1508 -0.3102  0.7250
22426SOL    HW169595  10.366   0.896   3.278 -0.3364 -1.1599 -1.2916
22426SOL    HW269596  10.453   0.777   3.311 -0.0612 -0.2370  1.5607
22427SOL     OW69597   9.848   0.151   1.662 -0.4155  0.1232  0.5694
22427SOL    HW169598   9.861   0.241   1.693 -0.7455  0.0034  1.0769
22427SOL    HW269599   9.767   0.123   1.705  0.3615 -0.8562  1.4177
22428SOL     OW69600   4.153   5.380  10.120 -0.0960  0.2703 -0.3407
22428SOL    HW169601   4.166   5.330  10.200 -1.5601  0.6780  0.1740
22428SOL    HW269602   4.133   5.469  10.149 -0.5007  0.4611 -1.1628
22429SOL     OW69603   0.996   8.842  10.357  0.7580 -0.3263  0.5685
22429SOL    HW169604   0.965   8.777  10.293  1.9739 -1.2316  0.8629
22429SOL    HW269605   1.010   8.921  10.305  0.8580 -0.7951 -0.1398
22430SOL     OW69606   8.328   3.157   6.735 -0.0385 -0.6986  0.3239
22430SOL    HW169607   8.407   3.122   6.777  0.1124  0.8330  1.3870
22430SOL    HW269608   8.327   3.114   6.649  2.7990  0.3104 -0.3447
22431SOL     OW69609   5.007   4.330   9.823 -0.0571 -0.0085  0.2285
22431SOL    HW169610   4.928   4.379   9.802 -0.5534 -0.4881  0.9300
22431SOL    HW269611   5.065   4.394   9.864 -0.6806  0.0190  1.0918
22432SOL     OW69612   9.363   8.350   8.449 -0.0007  0.0921  0.1675
22432SOL    HW169613   9.356   8.359   8.545 -0.3500 -0.1553  0.1633
22432SOL    HW269614   9.437   8.291   8.436  0.2382  0.3636  0.2767
22433SOL     OW69615   6.261   1.295   6.575  1.0199  0.2828  0.1370
22433SOL    HW169616   6.284   1.378   6.616 -1.0924  1.0295 -0.0607
22433SOL    HW269617   6.329   1.234   6.603  2.5121  2.0128  0.4453
22434SOL     OW69618   0.303   0.462   5.608  0.0854 -0.0739  0.1212
22434SOL    HW169619   0.209   0.461   5.588  0.0846 -0.1835  0.1328
22434SOL    HW269620   0.325   0.371   5.624  0.8175 -0.4932 -2.7293
22435SOL     OW69621   5.312   7.829   6.423  0.1282 -0.0423  0.1140
22435SOL    HW169622   5.361   7.898   6.469  0.1234  0.7412 -1.0110
22435SOL    HW269623   5.321   7.752   6.479  0.4001  0.7869  1.2514
22436SOL     OW69624   3.616   3.155   7.389 -0.3595  0.7802 -0.0603
22436SOL    HW169625   3.641   3.120   7.474 -1.6102  0.4506  0.1919
22436SOL    HW269626   3.539   3.104   7.363  0.6422  0.1123 -1.9240
22437SOL     OW69627  10.260   4.660   1.079 -0.7116  0.6623 -0.6012
22437SOL    HW169628  10.310   4.627   1.153 -0.2003  0.0881 -1.1875
22437SOL    HW269629  10.202   4.587   1.055  0.4001  0.1453 -1.8805
22438SOL     OW69630  10.141   1.446   1.344  0.1262 -0.0912  0.0028
22438SOL    HW169631  10.190   1.364   1.332  2.2620  1.3099 -1.6288
22438SOL    HW269632  10.117   1.445   1.437 -0.5234 -2.8377 -0.0973
22439SOL     OW69633   5.954   4.191   7.518 -0.4625 -0.7918  0.1710
22439SOL    HW169634   6.017   4.257   7.548  1.2132 -1.6178 -1.3299
22439SOL    HW269635   5.911   4.160   7.597 -0.5372  1.3311  1.0244
22440SOL     OW69636   9.486   4.027   8.265  0.0424 -0.2968 -0.4633
22440SOL    HW169637   9.544   4.051   8.193  2.0647  2.0211  1.7336
22440SOL    HW269638   9.546   3.999   8.335 -1.5689  0.4654  1.3074
22441SOL     OW69639   6.289   3.065   9.326 -0.2255 -0.1833  0.1019
22441SOL    HW169640   6.290   2.969   9.329 -0.1739 -0.2165 -0.6349
22441SOL    HW269641   6.237   3.085   9.248  1.3652  0.3458 -0.8622
22442SOL     OW69642   4.858   7.236   1.149 -0.4453 -0.2430 -0.0456
22442SOL    HW169643   4.831   7.150   1.181  0.8831 -0.7324 -0.1818
22442SOL    HW269644   4.805   7.298   1.199 -0.7115 -1.1066  0.7725
22443SOL     OW69645   7.088  10.178   1.465 -0.1913  0.6800  0.2176
22443SOL    HW169646   7.102  10.163   1.558  1.4249 -0.9137 -0.2085
22443SOL    HW269647   7.159  10.237   1.439  1.0495 -1.0054 -0.4478
22444SOL     OW69648   3.492   5.742   9.094 -0.4803  0.0206 -0.5010
22444SOL    HW169649   3.476   5.672   9.157 -0.3107 -1.2712 -1.8383
22444SOL    HW269650   3.559   5.797   9.135 -1.2375 -0.0812  0.9400
22445SOL     OW69651  10.072   3.081   4.862 -0.5942  0.9897  0.1615
22445SOL    HW169652  10.054   3.174   4.851 -0.1236  1.0600 -0.0535
22445SOL    HW269653  10.068   3.067   4.956  1.6087  1.7366  0.4441
22446SOL     OW69654  10.155   8.504   8.011 -0.0638 -0.2517 -0.0044
22446SOL    HW169655  10.212   8.454   7.952 -2.5172 -1.7024 -1.2896
22446SOL    HW269656  10.119   8.573   7.956 -0.7942 -0.3519  0.3408
22447SOL     OW69657   0.656   4.000   5.243 -0.0356  0.2772  0.2713
22447SOL    HW169658   0.701   3.923   5.207 -0.0491 -0.0473  0.9341
22447SOL    HW269659   0.568   3.995   5.207  0.0491  0.1403  0.0819
22448SOL     OW69660  10.479   3.750   1.931 -0.1689 -0.0924  0.2243
22448SOL    HW169661  10.402   3.790   1.890 -1.0904 -1.7699  0.2691
22448SOL    HW269662  10.544   3.747   1.860 -0.5193  0.3064 -0.1212
22449SOL     OW69663   3.052   3.650   3.854 -0.3105 -0.3858 -0.4579
22449SOL    HW169664   2.972   3.702   3.844 -0.5434 -1.0004 -2.1160
22449SOL    HW269665   3.123   3.711   3.833 -0.5367 -0.5055 -1.6421
22450SOL     OW69666  10.551   0.457   0.137 -0.4532 -0.2275 -0.2226
22450SOL    HW169667  10.570   0.519   0.067  1.2992 -1.2710 -0.7320
22450SOL    HW269668  10.575   0.503   0.217  1.2456 -0.3514 -0.6286
22451SOL     OW69669   6.668   5.519   1.520 -0.5891  0.5412 -0.3670
22451SOL    HW169670   6.665   5.509   1.425 -0.4764 -0.4769 -0.2706
22451SOL    HW269671   6.760   5.532   1.541  0.3297 -4.5567  0.0407
22452SOL     OW69672   4.984   5.777   0.647  0.3988  0.1936  0.4709
22452SOL    HW169673   5.013   5.866   0.669 -0.8553  1.2261 -1.7143
22452SOL    HW269674   4.940   5.747   0.727  0.5810  1.6610  1.1697
22453SOL     OW69675   1.315   3.248   8.991  0.1942  0.8541  0.0453
22453SOL    HW169676   1.409   3.264   8.988  0.0819  1.3863 -1.3356
22453SOL    HW269677   1.276   3.336   8.995 -0.2609  0.6464  0.3113
22454SOL     OW69678   0.080   8.355  10.085  0.5205 -0.3902  0.2463
22454SOL    HW169679   0.119   8.436  10.116  0.2729 -0.2874  0.2951
22454SOL    HW269680   0.055   8.308  10.164  1.3673 -0.8732  0.2371
22455SOL     OW69681   6.426   3.198   4.613 -0.5191 -0.2463  0.4273
22455SOL    HW169682   6.459   3.256   4.544  0.2599 -1.0269  0.1287
22455SOL    HW269683   6.490   3.206   4.684 -0.3599 -0.8062  0.3491
22456SOL     OW69684   8.096   6.634   3.627  0.4036 -0.7099  0.7344
22456SOL    HW169685   8.157   6.653   3.556 -0.9170 -0.2645 -0.3450
22456SOL    HW269686   8.009   6.642   3.586 -0.4054 -0.2502  2.4429
22457SOL     OW69687   0.899   8.806   3.863  0.5318 -0.0469  0.5107
22457SOL    HW169688   0.907   8.721   3.907 -0.6807 -0.6832 -0.4097
22457SOL    HW269689   0.978   8.854   3.887  1.1683 -1.3823  1.1754
22458SOL     OW69690   8.234  10.591   7.934  0.1298 -0.2163 -0.9812
22458SOL    HW169691   8.310  10.572   7.989 -0.1784  1.0722 -0.0599
22458SOL    HW269692   8.268  10.596   7.845  1.1768  0.5766 -0.5541
22459SOL     OW69693   2.904   7.501   4.683  0.2415 -0.1421 -0.1536
22459SOL    HW169694   2.977   7.510   4.622  0.0138  1.1512 -0.2608
22459SOL    HW269695   2.943   7.514   4.770  0.4391 -1.2647 -0.0604
22460SOL     OW69696   7.060   1.790   3.282  0.0372  0.5826 -0.1705
22460SOL    HW169697   7.155   1.783   3.294  0.2952  1.1428 -1.7068
22460SOL    HW269698   7.046   1.879   3.252 -1.1239  0.8482  1.0659
22461SOL     OW69699   4.687   2.217   6.482 -0.7838 -0.3401 -0.2175
22461SOL    HW169700   4.763   2.177   6.438 -1.5571 -0.6471 -1.3025
22461SOL    HW269701   4.725   2.262   6.558  0.8434  1.6828 -2.0902
22462SOL     OW69702   1.959   5.094   2.007  0.1896 -0.2786  0.7420
22462SOL    HW169703   1.931   5.087   1.916  0.6902  2.4915  0.2863
22462SOL    HW269704   1.877   5.099   2.057 -0.1022  0.2496  0.2218
22463SOL     OW69705   9.912   1.732   3.523 -0.3940 -0.1415  0.8165
22463SOL    HW169706   9.867   1.647   3.524 -1.2199  0.2150 -1.3451
22463SOL    HW269707   9.992   1.716   3.472 -1.3412  0.6853 -1.0130
22464SOL     OW69708   1.907   3.807   5.047 -0.1200 -0.1444  0.1135
22464SOL    HW169709   1.945   3.735   5.098  3.0841  1.3259  0.0346
22464SOL    HW269710   1.874   3.868   5.113  1.2757  0.3578  0.3756
22465SOL     OW69711   4.964   6.041   8.081  0.2703 -0.8160  0.2014
22465SOL    HW169712   4.985   6.070   8.170  3.2139  0.1966 -0.6875
22465SOL    HW269713   5.001   5.952   8.076 -0.7167 -1.2379  0.2404
22466SOL     OW69714   1.425   3.898   8.198  0.1668 -0.2629  0.1305
22466SOL    HW169715   1.380   3.845   8.132 -0.1860  2.2933 -1.8373
22466SOL    HW269716   1.510   3.918   8.159  0.9898 -0.7401  1.5871
22467SOL     OW69717   4.187   0.110   8.500  0.2742  0.5116  0.5602
22467SOL    HW169718   4.234   0.153   8.428  1.1043 -0.5850  0.4107
22467SOL    HW269719   4.170   0.180   8.563  0.2427  1.3358 -0.3523
22468SOL     OW69720   8.469   0.842   5.494 -0.4020  0.2310  0.0766
22468SOL    HW169721   8.456   0.803   5.580  3.1338  1.4482  1.3173
22468SOL    HW269722   8.490   0.934   5.512  0.4361  0.5211 -2.0917
22469SOL     OW69723   9.296   3.610   6.422  0.0684  0.4344  0.0357
22469SOL    HW169724   9.291   3.687   6.479  1.3068 -0.1747  1.0214
22469SOL    HW269725   9.372   3.562   6.454  0.3759 -0.3032 -1.6966
22470SOL     OW69726   3.292   5.566   2.130 -0.0717 -0.3881 -0.5687
22470SOL    HW169727   3.281   5.470   2.134 -0.3544 -0.3298  1.5401
22470SOL    HW269728   3.228   5.599   2.193  0.9770  1.0962 -0.2406
22471SOL     OW69729   2.961   3.915   3.532 -0.5180 -0.3779  0.2687
22471SOL    HW169730   3.031   3.978   3.545 -1.4473  0.6762  0.3665
22471SOL    HW269731   2.929   3.932   3.443 -0.9499 -0.5175  0.3917
22472SOL     OW69732   5.493   6.047   7.536  0.2427 -0.4411  0.0674
22472SOL    HW169733   5.469   6.091   7.454  1.1176 -1.3326 -0.6909
22472SOL    HW269734   5.470   5.956   7.522  1.2475 -0.7647  0.4770
22473SOL     OW69735   2.176   4.710  10.466  0.1799 -0.3450 -0.1357
22473SOL    HW169736   2.203   4.721  10.557  0.2757 -0.7743 -0.1092
22473SOL    HW269737   2.246   4.660  10.425  0.8831  1.1571 -0.8479
22474SOL     OW69738   0.820   2.909   9.519 -0.3219 -0.3871  0.1518
22474SOL    HW169739   0.907   2.938   9.546 -1.0366  3.1719 -0.8763
22474SOL    HW269740   0.767   2.916   9.599 -0.3736  0.8709  0.0300
22475SOL     OW69741   6.462   4.989   2.875  0.1703  1.0853  0.7895
22475SOL    HW169742   6.527   5.021   2.812  0.6027 -0.0041  0.6628
22475SOL    HW269743   6.493   4.901   2.899 -0.1633  1.3506  2.2850
22476SOL     OW69744   4.199   4.396   6.301 -0.4543 -0.0116  0.3943
22476SOL    HW169745   4.286   4.357   6.305 -0.0974  0.8437  1.9879
22476SOL    HW269746   4.177   4.415   6.392 -1.0797  2.4094 -0.1753
22477SOL     OW69747   1.676  10.432   0.571  0.1116 -0.5857  0.5111
22477SOL    HW169748   1.611  10.502   0.567 -0.0122 -0.5404  2.2816
22477SOL    HW269749   1.712  10.439   0.660  0.6743 -2.2496  0.4394
22478SOL     OW69750   9.874   2.663   3.546  0.4659  0.3313 -0.5656
22478SOL    HW169751   9.935   2.659   3.620 -0.8009  1.9948  0.6641
22478SOL    HW269752   9.926   2.636   3.470  2.2053 -0.1015  0.7114
22479SOL     OW69753   4.641   1.974   9.268 -0.4730 -0.0374 -0.0873
22479SOL    HW169754   4.602   1.896   9.307  0.0211 -0.0411  0.4063
22479SOL    HW269755   4.656   2.033   9.341  0.9798 -0.2648 -0.1751
22480SOL     OW69756   4.880   7.591   5.182 -0.4293  0.2494  0.0254
22480SOL    HW169757   4.929   7.590   5.100  0.0631 -0.0063  0.3224
22480SOL    HW269758   4.814   7.522   5.171  1.4654 -1.8221  0.9395
22481SOL     OW69759   3.526   3.857   7.857  0.2935 -0.2228 -0.0573
22481SOL    HW169760   3.469   3.841   7.781 -0.5196  1.4212  0.1663
22481SOL    HW269761   3.615   3.852   7.821 -0.0912  1.6375 -1.4091
22482SOL     OW69762   7.410   1.488   3.441 -0.0570  0.3240 -0.3654
22482SOL    HW169763   7.324   1.470   3.402  0.1071  0.7995 -0.9622
22482SOL    HW269764   7.414   1.583   3.446 -0.3925  0.2736  1.5771
22483SOL     OW69765   9.669   2.063   1.997  0.1068 -0.0163  0.0453
22483SOL    HW169766   9.650   2.153   2.022 -3.9148 -1.0338  1.3719
22483SOL    HW269767   9.741   2.036   2.054  1.1858  2.1727 -0.1831
22484SOL     OW69768   6.667   1.444   7.417  0.2457 -0.1440 -0.5688
22484SOL    HW169769   6.587   1.430   7.469 -0.6512  0.5161 -1.7173
22484SOL    HW269770   6.697   1.531   7.443 -0.5936  0.4806 -1.6141
22485SOL     OW69771   5.854  10.137   5.095  0.9003 -0.0445 -0.1713
22485SOL    HW169772   5.769  10.096   5.111  0.4276  1.6417  2.1777
22485SOL    HW269773   5.838  10.196   5.021  1.2810 -2.9382 -2.7476
22486SOL     OW69774   7.763   1.855   0.913 -0.4637  0.4529  0.1611
22486SOL    HW169775   7.765   1.840   0.818  1.8335 -0.1924  0.2476
22486SOL    HW269776   7.734   1.772   0.949  0.7863 -0.0320  0.0945
22487SOL     OW69777   2.256  10.098  10.026 -0.9667 -0.2392 -0.4470
22487SOL    HW169778   2.254  10.154   9.948 -2.5107 -0.8031 -0.8509
22487SOL    HW269779   2.258  10.009   9.991  0.9962 -0.5054  0.1906
22488SOL     OW69780   1.241   0.845   8.702 -0.0361  0.0404  0.4201
22488SOL    HW169781   1.201   0.760   8.685  0.5856 -0.1192 -0.2836
22488SOL    HW269782   1.174   0.894   8.750 -0.5074 -0.7411  0.5685
22489SOL     OW69783   7.123   3.972   7.917  0.1235 -0.4748 -0.5407
22489SOL    HW169784   7.194   4.006   7.862 -0.1801 -0.9307 -1.2172
22489SOL    HW269785   7.168   3.918   7.982  0.5230  0.4409 -0.0430
22490SOL     OW69786   1.451   9.380   8.788 -0.4368  0.6130 -0.0564
22490SOL    HW169787   1.400   9.454   8.820  1.0677  0.5834  2.7418
22490SOL    HW269788   1.530   9.380   8.842  0.0484 -2.5109 -0.5601
22491SOL     OW69789   7.796   5.231   0.714 -0.1082  0.3074  0.6842
22491SOL    HW169790   7.719   5.273   0.752  1.1176  2.7280  0.7569
22491SOL    HW269791   7.804   5.148   0.761 -4.1269 -1.4059 -1.2341
22492SOL     OW69792   6.544   2.439   7.946  0.3196 -0.6208 -0.4651
22492SOL    HW169793   6.621   2.470   7.897 -0.0405 -0.1160 -0.7197
22492SOL    HW269794   6.489   2.517   7.956  1.5509 -0.0284  3.0466
22493SOL     OW69795   2.639   4.079   5.140 -0.1935 -0.6222 -0.0639
22493SOL    HW169796   2.612   4.014   5.076  1.3763 -1.2053 -0.1788
22493SOL    HW269797   2.658   4.028   5.220  1.5201 -0.4263 -0.2979
22494SOL     OW69798   8.928   3.474   6.792  0.1943 -0.8457  0.4076
22494SOL    HW169799   8.925   3.380   6.812  1.9779 -1.1375 -0.5180
22494SOL    HW269800   9.005   3.484   6.737  0.8529  1.4014  1.6418
22495SOL     OW69801   6.627   0.989  10.375  0.0747 -0.6175 -0.1102
22495SOL    HW169802   6.647   0.950  10.290  0.6829  0.0537 -0.2899
22495SOL    HW269803   6.592   1.076  10.354 -0.1456 -0.6015  0.3133
22496SOL     OW69804   6.055   0.073   9.970 -0.3342  0.6432  0.2418
22496SOL    HW169805   6.032  -0.013   9.933  1.4316  0.1613  0.1644
22496SOL    HW269806   5.993   0.133   9.931 -3.5663 -0.9319  2.4708
22497SOL     OW69807   4.675   4.371   7.608 -0.4145 -0.0881 -0.1972
22497SOL    HW169808   4.700   4.337   7.522  1.8873 -1.5806  0.9681
22497SOL    HW269809   4.631   4.298   7.651  0.4451 -0.1188  0.6705
22498SOL     OW69810   3.092  10.048  10.200 -0.7523 -0.0385  0.0919
22498SOL    HW169811   3.174  10.092  10.224  0.4426 -2.9125  1.7120
22498SOL    HW269812   3.080  10.069  10.107  1.9623  0.2964 -0.2566
22499SOL     OW69813   1.826  10.469   5.687  0.6537 -0.3738  0.8090
22499SOL    HW169814   1.900  10.448   5.743  2.0061  0.3180 -0.6327
22499SOL    HW269815   1.752  10.422   5.725  1.4500  0.2239  3.2378
22500SOL     OW69816   7.995   8.559   6.757 -0.1620 -0.0435 -0.3173
22500SOL    HW169817   7.999   8.592   6.667  0.2596  0.7517 -0.0217
22500SOL    HW269818   8.085   8.537   6.779 -0.1672  0.3302  0.1046
22501SOL     OW69819   6.974   4.317   0.008 -0.2104 -0.3065  0.0728
22501SOL    HW169820   7.023   4.334   0.089 -2.2488 -0.3239  1.3589
22501SOL    HW269821   6.938   4.229   0.020  0.3973 -0.7928 -1.3927
22502SOL     OW69822   8.082   2.619   5.733 -0.3546  0.4585  0.7073
22502SOL    HW169823   8.157   2.679   5.726 -1.3462  1.8915  1.8097
22502SOL    HW269824   8.120   2.532   5.722  1.2363  1.2249 -0.3055
22503SOL     OW69825   3.964   0.111   4.135  0.4285 -0.3404 -0.6314
22503SOL    HW169826   4.029   0.060   4.184 -0.0465  0.7951  1.3160
22503SOL    HW269827   4.016   0.164   4.075  1.2529 -0.2047  0.1697
22504SOL     OW69828   8.984   5.540   7.897 -0.6539  0.2444  0.3333
22504SOL    HW169829   8.964   5.497   7.813  3.7976 -1.3834 -0.1608
22504SOL    HW269830   8.967   5.472   7.962  2.0620 -0.9411 -0.0363
22505SOL     OW69831   6.085   2.928   8.905 -0.1720  0.3261 -0.4208
22505SOL    HW169832   6.009   2.942   8.849  0.6864  0.2205 -1.6413
22505SOL    HW269833   6.078   2.836   8.933 -0.2380  0.1760 -0.9238
22506SOL     OW69834   5.781   3.439   3.738 -0.0256 -0.5742  0.1550
22506SOL    HW169835   5.772   3.534   3.743 -0.0012 -0.6031  0.8557
22506SOL    HW269836   5.698   3.409   3.702  0.8433 -0.1151 -2.4652
22507SOL     OW69837   7.670  10.210   7.111  0.0857 -0.1777  0.0494
22507SOL    HW169838   7.686  10.303   7.129 -0.9003  0.0715 -0.2703
22507SOL    HW269839   7.701  10.164   7.189 -1.3295  0.6119  1.1356
22508SOL     OW69840   0.579   9.103   3.321 -0.1275 -0.2865  0.2788
22508SOL    HW169841   0.533   9.187   3.330 -0.8917 -0.5421 -0.9360
22508SOL    HW269842   0.509   9.037   3.322  0.3546 -0.8117  0.0015
22509SOL     OW69843   2.745   3.278   3.672 -0.0238 -0.2200 -0.0049
22509SOL    HW169844   2.660   3.265   3.629 -0.6706  1.9282  0.5063
22509SOL    HW269845   2.806   3.294   3.599 -0.3026 -0.5055 -0.3074
22510SOL     OW69846   2.220   6.897   3.651 -0.0053  0.4122  0.0934
22510SOL    HW169847   2.264   6.971   3.693  0.3674  0.6932 -0.7752
22510SOL    HW269848   2.181   6.933   3.572  2.2280 -0.7269 -1.6737
22511SOL     OW69849   3.515   6.056   5.206  0.1196 -0.5660  0.4830
22511SOL    HW169850   3.600   6.022   5.232 -0.1993 -0.9808  0.9989
22511SOL    HW269851   3.525   6.077   5.113  0.5838 -1.2632  0.3694
22512SOL     OW69852   1.421   6.844   4.587  0.0767 -0.0479  0.1583
22512SOL    HW169853   1.476   6.768   4.568  1.2196  0.5302  1.0637
22512SOL    HW269854   1.396   6.833   4.678  0.6995  0.9281  0.4587
22513SOL     OW69855   5.433   4.870   1.556 -0.0351  0.3283  0.4902
22513SOL    HW169856   5.435   4.860   1.461  0.3768 -0.0016  0.5314
22513SOL    HW269857   5.504   4.930   1.576  0.1165  0.1036  0.6258
22514SOL     OW69858   4.629   8.391   2.359  0.5986 -0.0698  0.4019
22514SOL    HW169859   4.687   8.319   2.384  1.4102  0.3371 -0.2518
22514SOL    HW269860   4.555   8.384   2.418  0.7141 -1.3825  0.4230
22515SOL     OW69861   9.894   6.445   8.786  0.4285  0.4539 -0.3302
22515SOL    HW169862   9.914   6.456   8.879  0.2382 -0.8486 -0.1201
22515SOL    HW269863   9.945   6.514   8.743 -0.5338  1.9583  0.8310
22516SOL     OW69864   3.151   7.931   1.135  0.6291 -0.3304 -0.1473
22516SOL    HW169865   3.192   7.873   1.199  0.8840 -0.3393 -0.3191
22516SOL    HW269866   3.125   8.008   1.186  0.0874 -0.6862  0.1252
22517SOL     OW69867   1.422   0.019   3.433 -0.3259  0.0919 -0.1664
22517SOL    HW169868   1.507   0.045   3.467 -0.0054 -0.8393 -0.2124
22517SOL    HW269869   1.391  -0.047   3.496 -0.0474 -1.1209 -1.2599
22518SOL     OW69870   9.402   6.615   7.240 -0.2523  0.0213 -0.7118
22518SOL    HW169871   9.460   6.684   7.272 -0.6715  0.1177 -0.1431
22518SOL    HW269872   9.314   6.647   7.260 -0.5674  0.3140 -2.4157
22519SOL     OW69873   9.776   7.642   6.287  0.3424 -0.6994 -0.0190
22519SOL    HW169874   9.831   7.720   6.278 -0.5015  0.4345  3.1274
22519SOL    HW269875   9.823   7.586   6.349 -1.4576 -0.1327  1.9851
22520SOL     OW69876   7.460   3.903   4.625 -0.4106  0.5033 -0.0595
22520SOL    HW169877   7.420   3.825   4.663 -0.4571  1.0649  1.0997
22520SOL    HW269878   7.427   3.906   4.535  2.4121 -2.8099 -1.4347
22521SOL     OW69879   5.933   0.545   9.743 -0.2861  0.0166 -0.2683
22521SOL    HW169880   5.996   0.577   9.807 -0.0345 -1.9334  0.5302
22521SOL    HW269881   5.861   0.609   9.747  0.4903  0.8713  0.6888
22522SOL     OW69882   5.364   4.065   3.768 -0.8386 -0.3231  0.1988
22522SOL    HW169883   5.363   4.012   3.848 -0.2948 -1.4749 -0.5250
22522SOL    HW269884   5.271   4.084   3.752 -0.9940 -0.4958  0.8328
22523SOL     OW69885   5.508   8.887   3.391 -0.0345 -0.1487 -0.2159
22523SOL    HW169886   5.457   8.947   3.335  1.4308 -0.1148 -1.6027
22523SOL    HW269887   5.587   8.937   3.413  0.3501 -0.9182  0.1682
22524SOL     OW69888   0.532   2.290   0.669  0.5598  0.4291 -0.1424
22524SOL    HW169889   0.523   2.248   0.584  1.6408 -2.0316  0.8683
22524SOL    HW269890   0.453   2.265   0.717  0.1262  1.5070 -0.2646
22525SOL     OW69891   2.115   0.295   0.896 -0.1286 -0.1200  0.1897
22525SOL    HW169892   2.090   0.382   0.863  0.4284 -0.3151 -0.8046
22525SOL    HW269893   2.191   0.271   0.842  1.7622  0.1400  2.5866
22526SOL     OW69894   7.819   6.101   1.993 -0.3880  0.0447  0.2081
22526SOL    HW169895   7.738   6.064   1.957 -0.1786 -0.8711  0.6500
22526SOL    HW269896   7.810   6.195   1.979 -0.5122 -0.2217 -1.8259
22527SOL     OW69897   4.366   8.306   3.218 -0.5694 -0.6473  0.4108
22527SOL    HW169898   4.419   8.371   3.263 -0.2658 -1.7393  1.7081
22527SOL    HW269899   4.430   8.240   3.190 -0.7057  0.1405 -1.9565
22528SOL     OW69900   1.241   2.501   9.869  0.4263  0.3662  0.3646
22528SOL    HW169901   1.293   2.504   9.949  2.4104  1.1973 -0.8820
22528SOL    HW269902   1.266   2.418   9.828  1.1142  0.9426 -0.4219
22529SOL     OW69903   2.018  10.494   8.313  0.0674  0.5388  0.4585
22529SOL    HW169904   1.956  10.501   8.386  0.0932 -0.7258  0.6377
22529SOL    HW269905   2.017  10.400   8.291 -0.2889  0.9491 -1.4737
22530SOL     OW69906   2.370   7.068   5.724  0.4995  0.4853 -0.1382
22530SOL    HW169907   2.446   7.032   5.678  2.0190  0.7499  2.0132
22530SOL    HW269908   2.349   7.148   5.677  2.4789  1.1388  0.0282
22531SOL     OW69909   3.837   5.733   5.683  0.3215  0.7152 -0.5090
22531SOL    HW169910   3.880   5.801   5.734  1.7613 -1.0165  0.6820
22531SOL    HW269911   3.898   5.715   5.611 -0.2706  0.9972 -1.0889
22532SOL     OW69912   5.434  10.120   6.109  0.6409 -0.0697  0.5386
22532SOL    HW169913   5.361  10.123   6.171  0.5069 -0.0299  0.3760
22532SOL    HW269914   5.395  10.091   6.027  1.2307 -2.8661  1.1182
22533SOL     OW69915   6.687   8.170   8.882  0.1333 -0.1811  0.1515
22533SOL    HW169916   6.726   8.104   8.825  0.7637  1.1162 -0.9531
22533SOL    HW269917   6.636   8.119   8.946  1.5292 -1.7792  0.0504
22534SOL     OW69918   2.919   6.721   3.508 -0.3480 -0.2487 -0.8019
22534SOL    HW169919   2.981   6.699   3.578  0.8465  1.9110 -1.0985
22534SOL    HW269920   2.874   6.800   3.539 -1.5579 -0.6348 -1.4662
22535SOL     OW69921   7.415   8.327   5.683 -0.5502  0.6166  0.1689
22535SOL    HW169922   7.376   8.411   5.710 -0.7468  0.5896 -0.0312
22535SOL    HW269923   7.502   8.327   5.723 -0.6084  0.8492  0.2968
22536SOL     OW69924   3.330   5.398  10.166 -0.0374 -0.1494 -0.3257
22536SOL    HW169925   3.277   5.441  10.233 -0.2753 -0.9264 -0.0145
22536SOL    HW269926   3.421   5.412  10.194 -0.0232  1.5171 -1.0565
22537SOL     OW69927   3.930   4.490   2.615  0.4217 -0.4786  0.1311
22537SOL    HW169928   3.896   4.404   2.588 -0.2284 -0.2441  0.2001
22537SOL    HW269929   3.954   4.478   2.707 -2.0328  0.0825  0.9127
22538SOL     OW69930   8.580   2.280   5.890 -0.1424 -0.4009  0.2077
22538SOL    HW169931   8.493   2.316   5.909  0.0683  0.7058 -0.8677
22538SOL    HW269932   8.563   2.202   5.837 -0.5330 -1.1425  1.3823
22539SOL     OW69933   3.421   9.521   2.441 -0.2200 -0.2703  0.2595
22539SOL    HW169934   3.329   9.497   2.451 -0.2110  0.2946  2.0294
22539SOL    HW269935   3.467   9.465   2.504  0.4951  0.3118  0.2622
22540SOL     OW69936   0.821   5.079   6.202 -0.1912 -0.2356  0.0740
22540SOL    HW169937   0.901   5.062   6.252 -0.4790  0.5757  0.8268
22540SOL    HW269938   0.786   4.992   6.183  0.3591 -0.5709  0.5788
22541SOL     OW69939   9.061   6.686   3.495  0.2851  0.3010 -0.0719
22541SOL    HW169940   9.084   6.746   3.565 -0.2048  0.3589  0.0431
22541SOL    HW269941   9.055   6.600   3.538 -0.5433  0.4230  0.0635
22542SOL     OW69942   5.713   9.305   2.011  0.1927 -0.5755  0.3906
22542SOL    HW169943   5.630   9.292   1.965  0.8380 -1.3322 -0.6192
22542SOL    HW269944   5.710   9.395   2.042 -0.2193  0.0053 -1.2692
22543SOL     OW69945   4.443   5.859   8.363 -0.0249 -0.6319 -0.6954
22543SOL    HW169946   4.495   5.927   8.320  0.3500  0.5766  1.5291
22543SOL    HW269947   4.357   5.865   8.322 -0.0310  1.3017 -0.4530
22544SOL     OW69948   4.385   7.441   8.391  0.8516  0.1411 -0.0001
22544SOL    HW169949   4.324   7.400   8.451 -1.4411  1.5349 -1.2397
22544SOL    HW269950   4.423   7.514   8.440 -1.5653  1.7331 -0.3451
22545SOL     OW69951   2.740   3.064  10.087 -0.0057 -0.0948  0.5055
22545SOL    HW169952   2.647   3.044  10.098 -1.0744  2.2402 -2.7345
22545SOL    HW269953   2.773   2.992  10.033 -0.0363 -0.6639  1.2303
22546SOL     OW69954   0.264   6.765   2.503 -0.2115 -0.2335 -1.0229
22546SOL    HW169955   0.296   6.680   2.474 -0.8954 -0.5816 -0.7687
22546SOL    HW269956   0.303   6.776   2.590  1.5657  0.6626 -1.8643
22547SOL     OW69957   1.358   9.985   8.874  0.3028  0.4192  0.5481
22547SOL    HW169958   1.269   9.955   8.856  0.3045  0.9590 -0.3830
22547SOL    HW269959   1.354  10.080   8.864  0.9635  0.4593  0.6082
22548SOL     OW69960   6.491   2.924   5.611 -0.5234  0.6058 -0.1114
22548SOL    HW169961   6.502   2.926   5.706 -0.3748  0.5388 -0.1281
22548SOL    HW269962   6.397   2.908   5.599 -0.6121  1.0163  0.0245
22549SOL     OW69963   0.584   0.121   9.600 -0.2207  0.5234  0.3605
22549SOL    HW169964   0.490   0.139   9.601 -0.4097 -0.3217 -0.1948
22549SOL    HW269965   0.589   0.025   9.609  0.6570  0.7042  2.1339
22550SOL     OW69966   9.463   8.314   7.410  0.3853  0.4755  0.3294
22550SOL    HW169967   9.472   8.218   7.406  0.5254  0.5152 -0.6756
22550SOL    HW269968   9.534   8.346   7.355  1.5604  1.2471  2.1893
22551SOL     OW69969   0.811   9.018   0.342  0.2442 -0.4169  0.0893
22551SOL    HW169970   0.755   8.941   0.350  0.3461 -0.3369  2.1698
22551SOL    HW269971   0.750   9.091   0.332  0.1435 -0.7069 -1.7349
22552SOL     OW69972  10.066   0.622   7.449 -0.1103 -0.3105 -0.1848
22552SOL    HW169973  10.129   0.666   7.392 -0.3931 -0.2301 -0.4405
22552SOL    HW269974   9.985   0.618   7.397 -0.2738 -0.5444  0.0819
22553SOL     OW69975   8.234   1.083   5.341  0.4029 -0.1197  0.3418
22553SOL    HW169976   8.170   1.151   5.363 -0.0871 -0.3827 -0.2401
22553SOL    HW269977   8.206   1.006   5.391 -0.1176 -0.4191 -0.3855
22554SOL     OW69978  10.254   2.110   6.378  0.4640  0.0127 -0.4808
22554SOL    HW169979  10.269   2.154   6.294 -0.3219  0.7609 -0.2434
22554SOL    HW269980  10.274   2.018   6.361 -1.6155 -0.2179 -2.0579
22555SOL     OW69981   9.936   6.064   3.027 -0.3914  0.1019  0.5617
22555SOL    HW169982   9.938   6.052   3.122 -0.8631 -0.4719  0.5037
22555SOL    HW269983   9.853   6.108   3.010  0.5871  2.0712  0.6036
22556SOL     OW69984   6.130   2.432   6.505 -0.0212 -0.0076 -0.3459
22556SOL    HW169985   6.188   2.395   6.572  0.8976 -0.2289 -1.2442
22556SOL    HW269986   6.183   2.499   6.462 -1.0586  1.0965  0.0350
22557SOL     OW69987   4.450   4.462  10.100  0.3189 -0.6335 -0.5123
22557SOL    HW169988   4.406   4.407  10.036  0.6675 -0.8877 -0.5375
22557SOL    HW269989   4.387   4.470  10.172  0.0845 -0.6754 -0.7116
22558SOL     OW69990   9.913   7.985   8.484  0.0099  0.0930 -0.1327
22558SOL    HW169991   9.950   7.899   8.466  0.1683 -0.0612  0.8734
22558SOL    HW269992   9.968   8.021   8.553 -0.0203  1.0335 -0.5761
22559SOL     OW69993   0.020   4.749   1.445  0.0490  0.6368  0.2063
22559SOL    HW169994   0.091   4.690   1.422  0.0740  0.5887  0.4028
22559SOL    HW269995   0.011   4.740   1.540  0.0719  0.9706  0.2413
22560SOL     OW69996   2.564   2.545   2.710 -0.4461  0.4107 -0.0780
22560SOL    HW169997   2.488   2.539   2.769  0.3381  0.0049  0.9254
22560SOL    HW269998   2.594   2.636   2.721  0.8075 -0.1561  1.6254
22561SOL     OW69999   0.660   5.104   4.175 -0.2118  0.3553 -0.5010
22561SOL    HW170000   0.580   5.154   4.190  0.8427  2.3110 -1.0231
22561SOL    HW270001   0.672   5.105   4.080  0.1106 -0.4782 -0.4811
22562SOL     OW70002   3.504   7.423   8.635 -0.1020  0.4328  0.2817
22562SOL    HW170003   3.582   7.409   8.689  0.6081 -0.7805 -0.9884
22562SOL    HW270004   3.438   7.365   8.672 -0.3779  1.3408  1.2615
22563SOL     OW70005   9.124   1.137   9.292 -0.4644  0.0924 -0.1016
22563SOL    HW170006   9.182   1.123   9.217  1.7155  1.9059  1.1157
22563SOL    HW270007   9.062   1.204   9.263  0.1878  0.5815 -0.3847
22564SOL     OW70008   1.027   9.655   2.763 -0.2878  0.2171  0.1614
22564SOL    HW170009   1.083   9.622   2.833 -0.7015  0.2537  0.5127
22564SOL    HW270010   0.952   9.692   2.808 -0.2238  0.8825 -0.2715
22565SOL     OW70011   1.886   8.060   3.777  0.1889 -0.1636  0.1645
22565SOL    HW170012   1.907   8.145   3.738 -1.4703 -0.4812 -1.6077
22565SOL    HW270013   1.963   8.006   3.759  0.7222  0.5792  0.1391
22566SOL     OW70014   4.084   2.304   8.100  0.0013  0.5417 -0.1570
22566SOL    HW170015   4.031   2.337   8.173  0.5685 -0.5351  0.7898
22566SOL    HW270016   4.168   2.281   8.141  0.5573  0.5026 -1.2829
22567SOL     OW70017   3.612   4.247   1.845 -0.1792 -0.2078  0.2227
22567SOL    HW170018   3.546   4.237   1.913  0.6139 -1.1468  0.8816
22567SOL    HW270019   3.562   4.252   1.764 -1.1202  0.5379  0.8304
22568SOL     OW70020   2.944   4.182   6.040 -0.8829 -0.0054  0.4344
22568SOL    HW170021   2.865   4.201   5.991 -1.1906 -1.9479  0.0997
22568SOL    HW270022   2.915   4.127   6.113  0.0063  0.1204  0.9070
22569SOL     OW70023   3.916   7.359   9.408 -0.1431 -0.2290  0.0312
22569SOL    HW170024   3.987   7.299   9.386  0.3558  0.4495 -0.2490
22569SOL    HW270025   3.871   7.317   9.482  0.6652 -0.5742  0.3370
22570SOL     OW70026   3.747   3.634   8.861 -0.0722 -0.8915 -0.3438
22570SOL    HW170027   3.734   3.707   8.801 -1.5976  0.1618  1.1869
22570SOL    HW270028   3.827   3.657   8.909 -0.2082 -0.5251 -0.2886
22571SOL     OW70029  10.029   0.643   9.624 -0.3028 -0.0685  0.2596
22571SOL    HW170030  10.092   0.584   9.665 -0.6151  0.0985  1.0129
22571SOL    HW270031   9.950   0.590   9.613 -0.6619  0.2564  1.1588
22572SOL     OW70032   2.422   2.925   9.600 -0.5501 -0.1058 -0.0487
22572SOL    HW170033   2.368   2.860   9.645  0.1771 -0.1115  0.8524
22572SOL    HW270034   2.361   2.997   9.580 -0.9403 -0.2039  0.7499
22573SOL     OW70035   9.719   1.285   6.241 -0.5220 -0.3777 -0.5200
22573SOL    HW170036   9.721   1.259   6.333 -0.9559  0.2584 -0.3263
22573SOL    HW270037   9.746   1.377   6.241  0.6636 -0.6996 -1.1584
22574SOL     OW70038   6.875   1.663   4.513 -0.2795  0.5195 -0.6938
22574SOL    HW170039   6.966   1.634   4.516 -0.3632  0.0010 -2.3173
22574SOL    HW270040   6.872   1.725   4.441 -1.3520 -0.0022 -1.1232
22575SOL     OW70041   7.964   0.538   8.986  0.4206  0.5029  0.5439
22575SOL    HW170042   7.884   0.488   8.968  1.6189 -1.0994 -0.6542
22575SOL    HW270043   7.981   0.587   8.906  1.8829 -1.0328 -0.1445
22576SOL     OW70044   7.404   4.159   1.109  0.3060 -0.9101  0.1505
22576SOL    HW170045   7.359   4.156   1.194  0.8270 -1.5739  0.4112
22576SOL    HW270046   7.393   4.249   1.080 -1.1361 -1.0365  0.2357
22577SOL     OW70047   6.438   7.658   5.714 -0.1296 -0.5450  0.2870
22577SOL    HW170048   6.503   7.693   5.775 -1.1284  0.6681  0.6913
22577SOL    HW270049   6.414   7.733   5.659 -0.6964 -1.1390 -0.2920
22578SOL     OW70050   9.854   7.302   0.322  0.2889  0.1868  0.5705
22578SOL    HW170051   9.880   7.250   0.246 -3.8012 -1.3324 -0.0631
22578SOL    HW270052   9.857   7.240   0.395 -1.0064  0.0417  0.5267
22579SOL     OW70053   6.367   3.513   5.295 -0.1653 -0.3787  0.3789
22579SOL    HW170054   6.290   3.564   5.320  0.7430  1.0864  0.3404
22579SOL    HW270055   6.415   3.571   5.235  0.3521 -1.7398 -0.5589
22580SOL     OW70056   6.917   4.752   7.279 -0.2888  0.0284  0.2047
22580SOL    HW170057   6.913   4.827   7.219 -1.1797 -0.4804 -0.3905
22580SOL    HW270058   6.917   4.792   7.366  1.3203  0.7885 -0.0978
22581SOL     OW70059   8.464   3.137   3.471 -0.0731  0.1012 -0.1569
22581SOL    HW170060   8.524   3.192   3.420  0.8244  0.1235  0.8733
22581SOL    HW270061   8.468   3.051   3.429 -0.8347  0.5870 -1.2644
22582SOL     OW70062   8.072   3.056   4.949  0.2573 -0.8007  0.0322
22582SOL    HW170063   8.060   3.081   4.857  2.4637 -0.9913 -0.3700
22582SOL    HW270064   8.156   3.096   4.973  0.9736 -2.8885  1.1647
22583SOL     OW70065   7.557   0.746   2.852  0.3964  0.2017 -0.0716
22583SOL    HW170066   7.567   0.746   2.947  1.4121 -0.1115 -0.1722
22583SOL    HW270067   7.541   0.655   2.829 -1.4526  0.4814 -0.0658
22584SOL     OW70068   8.806   1.561   3.464  0.5436 -0.3402 -0.4328
22584SOL    HW170069   8.781   1.489   3.522 -0.0316  0.5532  0.4370
22584SOL    HW270070   8.881   1.602   3.508  0.7398 -0.2710 -0.8268
22585SOL     OW70071   9.982   6.755  10.243 -0.0432  0.1144  0.5262
22585SOL    HW170072   9.963   6.678  10.189  1.1952 -1.1277  1.7832
22585SOL    HW270073  10.071   6.741  10.274  0.1700  2.0243  0.8835
22586SOL     OW70074   4.096   6.939   2.225  0.2361 -0.1691 -0.3387
22586SOL    HW170075   4.154   6.895   2.288 -2.0435 -0.8725  1.3911
22586SOL    HW270076   4.125   7.030   2.226  2.2880 -0.7648 -0.7215
22587SOL     OW70077   0.290   4.409   7.394 -0.3821 -0.1192 -0.1707
22587SOL    HW170078   0.231   4.347   7.436 -0.4625  0.0482 -0.0335
22587SOL    HW270079   0.347   4.440   7.465  0.1925 -0.6461 -0.3958
22588SOL     OW70080   3.980   6.967   0.712  0.2639 -0.2475  0.7521
22588SOL    HW170081   3.885   6.977   0.707  0.4255  1.6639  0.9291
22588SOL    HW270082   3.999   6.894   0.652 -1.1820  0.1552 -0.2647
22589SOL     OW70083  10.064   3.618   5.020  0.2973 -0.2679  0.0512
22589SOL    HW170084  10.091   3.534   5.056  0.3323 -0.2433  0.0832
22589SOL    HW270085  10.062   3.677   5.096  2.6196  0.3716 -0.2777
22590SOL     OW70086   1.577   2.338   5.179  0.1264  0.3163 -0.0764
22590SOL    HW170087   1.496   2.323   5.227  0.5739 -0.2963  0.5001
22590SOL    HW270088   1.564   2.295   5.094 -0.3220  0.6151 -0.1577
22591SOL     OW70089   9.413   1.960   2.230 -0.3282 -0.0216 -0.1481
22591SOL    HW170090   9.465   1.918   2.162 -0.3639 -0.8852  0.3511
22591SOL    HW270091   9.332   1.910   2.233  0.0484 -0.5904  1.1671
22592SOL     OW70092   6.334   2.335   8.151  0.0258 -0.2752  0.2796
22592SOL    HW170093   6.309   2.269   8.215  0.9847 -1.7757 -0.8204
22592SOL    HW270094   6.411   2.298   8.107  1.1578  1.9747  0.2188
22593SOL     OW70095   7.156   8.699   3.469 -0.1520 -0.0014 -0.4123
22593SOL    HW170096   7.250   8.685   3.465 -0.0708 -0.1709  1.2511
22593SOL    HW270097   7.144   8.790   3.441  0.5743  0.2049 -0.0675
22594SOL     OW70098   4.994   2.233  10.333  0.5324 -0.3049 -0.0334
22594SOL    HW170099   5.060   2.164  10.331  0.7435 -0.1138 -2.2803
22594SOL    HW270100   4.965   2.242  10.242 -1.6400  0.5417  0.6636
22595SOL     OW70101   4.862   6.959   9.089 -0.2621 -0.3356  0.3800
22595SOL    HW170102   4.929   6.920   9.034  0.6256  1.4797  0.1455
22595SOL    HW270103   4.881   7.052   9.090 -3.9052  0.6082 -1.3035
22596SOL     OW70104   5.556   6.158   7.235 -0.3121  0.2052 -0.2307
22596SOL    HW170105   5.468   6.129   7.259 -1.2258  1.8458 -1.3867
22596SOL    HW270106   5.589   6.089   7.177  0.1040 -1.5068  1.9164
22597SOL     OW70107   7.941   1.266   9.852 -0.3310 -0.3986  0.0199
22597SOL    HW170108   7.978   1.352   9.832 -1.1740 -0.4648 -2.1540
22597SOL    HW270109   7.898   1.277   9.937  1.7425  0.5759  1.0144
22598SOL     OW70110   1.887  10.587   5.410  0.0129 -0.4261  0.3540
22598SOL    HW170111   1.820  10.538   5.361 -1.1864  1.1271  0.3534
22598SOL    HW270112   1.874  10.560   5.501 -0.3856 -0.3907  0.3112
22599SOL     OW70113   8.600   3.005   2.603 -0.5538  0.1482  0.0409
22599SOL    HW170114   8.555   2.929   2.567 -0.9153  0.6675 -0.6475
22599SOL    HW270115   8.647   2.972   2.679 -0.8155 -0.7291 -0.1662
22600SOL     OW70116   8.257   4.213   1.924 -0.0032  0.0822 -0.4251
22600SOL    HW170117   8.212   4.294   1.901  0.0575  0.6763  1.3602
22600SOL    HW270118   8.188   4.159   1.963  0.6239  0.7908  1.8388
22601SOL     OW70119   1.265   0.506   0.353  0.1218  0.1848  0.2050
22601SOL    HW170120   1.197   0.547   0.298 -0.8240  1.1492  2.0074
22601SOL    HW270121   1.319   0.578   0.383 -0.7717  0.0097  2.3744
22602SOL     OW70122   5.990   1.595   2.813  0.4256 -0.2744 -0.3227
22602SOL    HW170123   5.948   1.511   2.795  0.2285 -0.7021  1.8891
22602SOL    HW270124   5.988   1.641   2.729 -2.7419 -1.0269 -0.7866
22603SOL     OW70125   8.408   9.798   5.313  0.3562 -0.5202  0.4274
22603SOL    HW170126   8.347   9.861   5.273 -0.4567 -1.1881  0.5868
22603SOL    HW270127   8.480   9.852   5.345 -0.9011  0.5139  1.6684
22604SOL     OW70128   9.964   9.356   9.111  0.3186  0.3080 -0.3590
22604SOL    HW170129  10.031   9.318   9.055  1.6171  2.6943 -0.5858
22604SOL    HW270130   9.985   9.326   9.199 -0.0782 -1.2571 -0.7795
22605SOL     OW70131   1.458   5.235   4.076  0.0100 -0.2170 -0.7991
22605SOL    HW170132   1.437   5.244   4.169  0.5017 -0.2937 -0.6768
22605SOL    HW270133   1.517   5.160   4.073  0.3618  0.0720 -1.1160
22606SOL     OW70134   6.603   9.404   7.374 -0.6506  0.4494  0.0432
22606SOL    HW170135   6.522   9.424   7.421 -0.6286  0.4013  0.1015
22606SOL    HW270136   6.575   9.346   7.302 -0.9209  1.7315 -0.9230
22607SOL     OW70137   3.469   5.382   0.457  0.0104  0.7091 -0.1529
22607SOL    HW170138   3.553   5.387   0.412  0.0838  0.4514 -0.0447
22607SOL    HW270139   3.404   5.377   0.387  0.1724 -0.5762 -0.2414
22608SOL     OW70140   9.043  10.104   2.353  0.3564 -0.3556  0.0477
22608SOL    HW170141   9.034  10.127   2.261 -0.1655 -2.0144 -0.3338
22608SOL    HW270142   9.124  10.053   2.358 -0.1615 -1.1679  0.3112
22609SOL     OW70143   8.503   1.095  10.284 -0.1230  0.1052 -0.3256
22609SOL    HW170144   8.421   1.142  10.300 -0.4491  0.0092 -1.6461
22609SOL    HW270145   8.496   1.016  10.338  0.5819  1.6313  2.2099
22610SOL     OW70146  10.430   2.096   4.522  0.2812  0.5646  0.5033
22610SOL    HW170147  10.343   2.060   4.540 -0.4991  2.2127  0.2353
22610SOL    HW270148  10.415   2.160   4.452  1.1962  2.7912  2.2097
22611SOL     OW70149   8.322   2.712   5.479  0.4307  0.0339 -0.0608
22611SOL    HW170150   8.289   2.634   5.434  0.7225 -0.7039  0.9634
22611SOL    HW270151   8.329   2.686   5.570 -0.6052  1.6490  0.5198
22612SOL     OW70152   2.956   2.411   3.969 -1.1148 -0.0701 -0.4618
22612SOL    HW170153   2.968   2.472   4.043  0.2404 -0.6903 -0.1274
22612SOL    HW270154   2.957   2.324   4.009 -2.8276 -0.3447 -0.9625
22613SOL     OW70155   1.438   0.354   2.894  0.1945 -0.1048 -0.3965
22613SOL    HW170156   1.414   0.437   2.936  0.9181  0.1782 -0.5356
22613SOL    HW270157   1.532   0.345   2.911  0.1106 -0.9248 -0.3426
22614SOL     OW70158   6.364   6.279   5.710 -0.1696  0.2744  0.0114
22614SOL    HW170159   6.441   6.266   5.655 -1.2097  0.6383 -1.6006
22614SOL    HW270160   6.394   6.335   5.782  1.5630 -1.4042  0.6712
22615SOL     OW70161   3.356   2.285   4.500 -0.1324  0.5322  0.0245
22615SOL    HW170162   3.414   2.299   4.575 -1.0788 -1.3804  1.1953
22615SOL    HW270163   3.268   2.298   4.535 -0.7021 -1.9660 -0.2551
22616SOL     OW70164   6.393   6.227   6.118 -0.0921  0.3162  0.3186
22616SOL    HW170165   6.339   6.174   6.059 -0.6021 -1.0415  1.9011
22616SOL    HW270166   6.335   6.296   6.148 -0.6122 -0.4390  1.0945
22617SOL     OW70167   3.284   4.744   7.460  0.9631  0.4458 -0.2446
22617SOL    HW170168   3.229   4.757   7.537  1.1862 -2.0648  0.4318
22617SOL    HW270169   3.370   4.722   7.495  0.5626 -2.9179 -1.0098
22618SOL     OW70170   1.439   2.725   4.718 -0.2291 -0.2024  0.0835
22618SOL    HW170171   1.407   2.635   4.719 -1.0839  0.0366 -1.7638
22618SOL    HW270172   1.509   2.725   4.653  0.7034  0.2161  1.0411
22619SOL     OW70173   2.318   0.889   8.672 -0.6064  0.1555 -0.4049
22619SOL    HW170174   2.364   0.918   8.593 -0.0406  1.1331  0.2799
22619SOL    HW270175   2.278   0.969   8.707  2.6868  0.6543  2.6695
22620SOL     OW70176   3.311   5.427   8.297 -0.3611  0.3187 -0.0357
22620SOL    HW170177   3.357   5.475   8.228 -0.7540  0.0983 -0.4470
22620SOL    HW270178   3.335   5.335   8.283  0.3976  0.3736  0.7545
22621SOL     OW70179   4.516   6.445   8.875 -0.3673  0.0182  0.3344
22621SOL    HW170180   4.434   6.456   8.827  0.6275 -1.0768 -1.7509
22621SOL    HW270181   4.579   6.500   8.827  0.3968 -0.1232  1.1475
22622SOL     OW70182  10.164   2.481   2.688  0.0114  0.8364  0.1269
22622SOL    HW170183  10.143   2.407   2.631 -0.2231  1.7466 -1.0026
22622SOL    HW270184  10.117   2.461   2.769 -0.5688  0.0457 -0.3771
22623SOL     OW70185   2.460   3.554   4.457 -0.4140  0.2831  0.8244
22623SOL    HW170186   2.479   3.647   4.449 -2.2058  0.8683  2.7589
22623SOL    HW270187   2.534   3.511   4.412  0.3594  2.5865 -0.2562
22624SOL     OW70188   3.705   2.200   2.332  0.3626  0.0755 -0.8588
22624SOL    HW170189   3.687   2.114   2.371  1.5356  0.2948  0.2463
22624SOL    HW270190   3.761   2.181   2.256  0.3252 -0.1663 -0.8253
22625SOL     OW70191   9.182   7.124   5.079  0.5166 -0.0356  0.2644
22625SOL    HW170192   9.259   7.173   5.051  1.3934 -0.7991  1.2272
22625SOL    HW270193   9.191   7.117   5.174  0.2192 -1.6930  0.1990
22626SOL     OW70194   4.784  10.142   1.221 -0.2240 -0.2620  0.0361
22626SOL    HW170195   4.830  10.074   1.270 -2.8039  0.4955  3.8912
22626SOL    HW270196   4.837  10.221   1.232  1.0230 -0.8034 -1.5982
22627SOL     OW70197   1.701  10.111   2.070  0.3207  0.0235 -0.2097
22627SOL    HW170198   1.710  10.206   2.078 -0.7468  0.3416 -2.1123
22627SOL    HW270199   1.642  10.087   2.142  0.9674  0.7048  0.5733
22628SOL     OW70200   3.866   1.024   1.330 -0.3092  0.0214 -0.1210
22628SOL    HW170201   3.814   0.962   1.280  1.3259  0.8689 -3.1125
22628SOL    HW270202   3.946   0.976   1.351 -0.3743  0.1309  0.3844
22629SOL     OW70203   0.527   3.080   6.197 -0.0869  0.5179 -0.7423
22629SOL    HW170204   0.488   2.997   6.171 -0.5976  0.7938 -0.8722
22629SOL    HW270205   0.616   3.077   6.161  0.1901 -0.3113 -0.0409
22630SOL     OW70206   4.331   9.981   9.005  0.8901 -0.4318 -0.1733
22630SOL    HW170207   4.377   9.897   9.006  3.5628  0.8919  2.1096
22630SOL    HW270208   4.335  10.011   9.096 -0.9500  1.6928 -0.7227
22631SOL     OW70209   9.012   4.055   9.233  0.1798  0.5662 -0.1090
22631SOL    HW170210   9.007   3.987   9.301  1.1296 -1.8782 -2.2982
22631SOL    HW270211   9.105   4.065   9.216 -0.0411 -1.3253 -3.1821
22632SOL     OW70212   0.388   7.257   8.202  0.4002 -0.0981  0.3323
22632SOL    HW170213   0.364   7.334   8.255  0.3770  1.1808 -1.4397
22632SOL    HW270214   0.451   7.209   8.256 -1.2463 -0.0519  2.3979
22633SOL     OW70215   3.735   5.822   0.791  0.1514 -0.2392  0.4665
22633SOL    HW170216   3.653   5.833   0.838 -0.2059  1.0110 -0.3902
22633SOL    HW270217   3.719   5.748   0.732 -0.1987 -0.2830  0.6141
22634SOL     OW70218   0.192   8.406   9.810  0.1200 -0.3499 -0.2135
22634SOL    HW170219   0.124   8.395   9.876 -0.7980  1.0951 -0.8550
22634SOL    HW270220   0.272   8.422   9.860  0.0382 -2.1101  0.5533
22635SOL     OW70221   3.807   6.231   3.862 -0.3166 -0.5441 -0.1557
22635SOL    HW170222   3.815   6.158   3.923  2.0817  0.0033  0.2895
22635SOL    HW270223   3.789   6.190   3.778  2.0155 -1.8315 -0.1179
22636SOL     OW70224   2.644   2.468   3.063 -0.6059  0.0197  0.5302
22636SOL    HW170225   2.728   2.512   3.054 -1.2292  1.1658  0.1559
22636SOL    HW270226   2.579   2.535   3.040 -1.6184 -0.8421  0.8142
22637SOL     OW70227   3.298   9.720   9.334  0.0813 -0.7988 -0.3491
22637SOL    HW170228   3.256   9.805   9.347 -0.3486 -1.2006  1.0486
22637SOL    HW270229   3.272   9.694   9.246 -1.3955 -0.3568 -0.0737
22638SOL     OW70230   0.866   0.476   4.435  0.0838  0.4994  0.3066
22638SOL    HW170231   0.841   0.556   4.390 -1.6906  0.4033  1.0346
22638SOL    HW270232   0.905   0.506   4.517  0.8623  0.6184 -0.0931
22639SOL     OW70233   7.975   0.811   7.983 -0.2895  0.2774 -0.0712
22639SOL    HW170234   8.065   0.840   7.996  0.1566  0.2140 -2.5659
22639SOL    HW270235   7.923   0.891   7.994 -0.1534  0.0890  2.6700
22640SOL     OW70236   3.938   2.264   3.278  0.0586 -0.7679  0.0520
22640SOL    HW170237   3.971   2.248   3.189 -1.2322 -1.5724 -0.3224
22640SOL    HW270238   3.847   2.235   3.275 -1.1526  2.5252  0.6630
22641SOL     OW70239   5.741   2.015   5.243 -0.1010 -0.5920 -0.1253
22641SOL    HW170240   5.679   1.944   5.261 -2.2916  0.8208 -1.5707
22641SOL    HW270241   5.687   2.094   5.241  2.2973  1.3086  1.9512
22642SOL     OW70242   7.748   7.315   8.317 -0.8138  0.1793  0.1049
22642SOL    HW170243   7.758   7.355   8.403 -2.6934 -0.5287  0.7072
22642SOL    HW270244   7.676   7.362   8.276  1.6434  2.2351 -2.2253
22643SOL     OW70245   7.184   6.895   8.476 -0.1387  0.2043 -0.1915
22643SOL    HW170246   7.137   6.889   8.393 -0.6689 -1.5973  0.2013
22643SOL    HW270247   7.178   6.807   8.514  2.3855  0.2836  0.5356
22644SOL     OW70248   3.048   7.872   0.569  0.6157  0.4001 -0.2286
22644SOL    HW170249   3.099   7.792   0.556 -0.3845 -0.4040  0.6057
22644SOL    HW270250   2.957   7.843   0.563  0.2265  1.2935  1.0671
22645SOL     OW70251   2.806   2.450   4.564  0.8617 -0.1280  0.4998
22645SOL    HW170252   2.759   2.375   4.600  0.2869  0.0830  0.2097
22645SOL    HW270253   2.826   2.426   4.474  1.5572 -0.3230  0.7022
22646SOL     OW70254   6.731   2.158   3.549 -1.0075  0.3211  0.2618
22646SOL    HW170255   6.675   2.085   3.575 -1.5097  0.1395 -1.2416
22646SOL    HW270256   6.819   2.119   3.543 -1.4957 -0.6018 -2.0036
22647SOL     OW70257   0.063   9.394   2.691 -0.1827 -0.4408 -0.0811
22647SOL    HW170258  -0.025   9.395   2.730 -0.5161 -0.4261 -0.8206
22647SOL    HW270259   0.051   9.353   2.606  0.9707 -2.6992  0.7827
22648SOL     OW70260   8.571   8.892   0.879 -0.4474 -0.3001 -0.1929
22648SOL    HW170261   8.516   8.863   0.806  0.0242  0.1004 -0.7185
22648SOL    HW270262   8.635   8.951   0.839 -0.1216 -0.1481  0.5331
22649SOL     OW70263   5.510   7.590   6.334  0.3612 -0.0374  0.4195
22649SOL    HW170264   5.550   7.535   6.402  1.4831  0.2610  0.0094
22649SOL    HW270265   5.418   7.563   6.333  0.5536 -0.7677  1.3445
22650SOL     OW70266   4.796   8.867   1.924  0.3526  0.4999 -0.0469
22650SOL    HW170267   4.807   8.934   1.857  1.3714  1.8155  1.3709
22650SOL    HW270268   4.727   8.900   1.981  1.3014  0.7139  1.0277
22651SOL     OW70269   9.648   7.068   1.873 -0.0986  0.3417 -0.3804
22651SOL    HW170270   9.707   7.137   1.905 -1.1132  1.2524 -0.3829
22651SOL    HW270271   9.682   6.987   1.911  1.0628  0.8651 -0.2782
22652SOL     OW70272   9.730  10.233   8.413 -0.1069  0.6150  0.0657
22652SOL    HW170273   9.783  10.155   8.430  1.7803  1.7991 -0.1275
22652SOL    HW270274   9.667  10.205   8.346  1.1623 -0.4889 -0.7138
22653SOL     OW70275   7.354   8.261   2.730 -0.1591 -0.3930 -0.2641
22653SOL    HW170276   7.395   8.328   2.784  0.7675  0.9101 -2.4384
22653SOL    HW270277   7.386   8.178   2.766  1.9189  0.4756  0.0414
22654SOL     OW70278   9.304   4.318   5.707 -0.3966 -0.1747 -0.0113
22654SOL    HW170279   9.322   4.406   5.740  0.6501 -1.0596  1.9611
22654SOL    HW270280   9.230   4.288   5.758  0.3769 -1.0776  0.6065
22655SOL     OW70281   6.423   3.662   3.305  0.0631 -1.0422 -0.3000
22655SOL    HW170282   6.432   3.745   3.353  3.4701 -2.1893  1.3629
22655SOL    HW270283   6.425   3.688   3.213 -0.4421  0.8324  0.1728
22656SOL     OW70284   8.350   5.227   4.441 -0.2244 -0.4409  0.5670
22656SOL    HW170285   8.385   5.308   4.405 -0.9089 -0.3478  0.1092
22656SOL    HW270286   8.406   5.158   4.405 -1.1572 -0.3920 -1.0557
22657SOL     OW70287   3.836   1.000   6.765 -0.1169 -0.2730  0.0902
22657SOL    HW170288   3.837   0.904   6.763 -0.4797 -0.2962 -2.4200
22657SOL    HW270289   3.767   1.022   6.827 -0.8377 -1.6614 -0.1821
22658SOL     OW70290   4.410  10.466   1.788 -0.5449 -0.5233 -0.1124
22658SOL    HW170291   4.503  10.488   1.786 -0.5180 -0.5765  0.5063
22658SOL    HW270292   4.369  10.528   1.728  0.2115 -2.0788 -2.3901
22659SOL     OW70293  10.377   7.697   0.086 -0.2889  0.2164  0.3313
22659SOL    HW170294  10.314   7.625   0.087 -0.3350  0.2579  1.3762
22659SOL    HW270295  10.453   7.663   0.134  0.0464  0.5487  0.0367
22660SOL     OW70296   0.994   8.434   5.453  0.0854 -0.1294  0.1690
22660SOL    HW170297   0.979   8.488   5.376  0.3763  0.9481  0.8460
22660SOL    HW270298   0.943   8.355   5.437 -0.8763  0.6125 -0.5605
22661SOL     OW70299  10.301   1.244   0.638 -0.1023 -0.4758 -0.1117
22661SOL    HW170300  10.320   1.334   0.664 -1.2681 -0.8269  2.2622
22661SOL    HW270301  10.250   1.252   0.557 -0.6606  1.0468  0.3601
22662SOL     OW70302   2.731   3.365   6.872  0.2074  0.7198 -0.1642
22662SOL    HW170303   2.644   3.365   6.832 -0.3151 -0.1510  0.9265
22662SOL    HW270304   2.787   3.411   6.808 -0.7259 -0.0513 -1.5914
22663SOL     OW70305   1.006   1.027   8.670  0.1564 -0.5763 -0.7315
22663SOL    HW170306   0.923   1.060   8.636 -0.5904 -0.8109  0.7555
22663SOL    HW270307   1.040   1.098   8.725  1.1643 -0.3293 -1.6350
22664SOL     OW70308   0.847   7.699   5.935 -0.1367 -0.2607 -0.9312
22664SOL    HW170309   0.770   7.748   5.908  0.2049  0.9729  0.2231
22664SOL    HW270310   0.823   7.659   6.019  0.0610 -0.9275 -1.1835
22665SOL     OW70311   7.441   6.310   8.564 -0.0937 -0.4439 -0.2240
22665SOL    HW170312   7.382   6.296   8.638  0.2584 -0.8980 -0.0225
22665SOL    HW270313   7.527   6.323   8.603 -0.1650  1.0068 -0.4738
22666SOL     OW70314   4.205   1.437   8.332 -0.5066 -0.2616  0.5369
22666SOL    HW170315   4.205   1.432   8.237  0.0211  1.0600  0.4402
22666SOL    HW270316   4.119   1.403   8.358 -0.6841 -0.5565 -0.4140
22667SOL     OW70317   1.732  10.574   1.993 -0.2074 -0.3921 -0.0622
22667SOL    HW170318   1.739  10.519   2.071  1.1915  0.6711  0.6067
22667SOL    HW270319   1.654  10.541   1.947  1.4906 -4.0757 -0.6525
22668SOL     OW70320   1.807   9.336   5.848  0.5634  0.4666  0.3846
22668SOL    HW170321   1.770   9.407   5.796 -3.6538 -0.3449  1.9111
22668SOL    HW270322   1.807   9.369   5.937  2.0488 -0.2467  0.6859
22669SOL     OW70323   2.702   6.709   0.516  0.1356  0.5898  0.2883
22669SOL    HW170324   2.704   6.797   0.476 -1.0621  0.2889 -0.4884
22669SOL    HW270325   2.624   6.668   0.479  1.3228 -1.2503 -0.2936
22670SOL     OW70326   1.297   0.127   3.723 -0.0274 -0.3452  0.0467
22670SOL    HW170327   1.282   0.034   3.707  4.8487 -1.5123  0.7344
22670SOL    HW270328   1.306   0.134   3.818 -2.8785  1.5117  0.3247
22671SOL     OW70329   4.613   0.469   4.133  0.4307 -0.2141 -0.1440
22671SOL    HW170330   4.625   0.441   4.042  0.1185  0.1222 -0.2922
22671SOL    HW270331   4.655   0.555   4.137 -1.1333  0.6110 -0.4603
22672SOL     OW70332   8.139   3.536   5.380 -0.8624  0.1558 -0.0345
22672SOL    HW170333   8.118   3.443   5.369 -1.6928  0.3064  0.2089
22672SOL    HW270334   8.063   3.582   5.345  0.2809  0.8018 -1.7951
22673SOL     OW70335   6.445   5.219   1.897  0.0017  0.2125  0.1272
22673SOL    HW170336   6.503   5.211   1.973 -0.1871  1.3439  0.4059
22673SOL    HW270337   6.472   5.301   1.855 -0.4855  0.0405 -0.5317
22674SOL     OW70338   5.739   6.184   9.695  0.7074  0.0409 -0.6945
22674SOL    HW170339   5.804   6.243   9.733  0.0642 -0.0424  0.5815
22674SOL    HW270340   5.763   6.179   9.602  1.2560  1.6600 -0.6750
22675SOL     OW70341   3.153   6.340  10.404 -0.1391  0.1215  0.1314
22675SOL    HW170342   3.059   6.349  10.422 -0.2518  0.0133 -0.3851
22675SOL    HW270343   3.170   6.405  10.336  0.1456  0.0761  0.1606
22676SOL     OW70344   4.908   1.895   9.283 -0.2199 -0.0709 -0.1744
22676SOL    HW170345   4.934   1.939   9.364  0.4100 -1.9757  0.7334
22676SOL    HW270346   4.832   1.944   9.252  0.4213  1.5942  0.7561
22677SOL     OW70347   8.196   9.516   3.288  0.1738  0.0189 -0.2041
22677SOL    HW170348   8.142   9.575   3.340 -0.9953 -0.7164 -0.5392
22677SOL    HW270349   8.143   9.438   3.277  1.3743 -0.7984 -0.4384
22678SOL     OW70350   4.374   3.349   8.953  0.1686  0.4390  0.2233
22678SOL    HW170351   4.400   3.265   8.915  3.2610  0.8927  1.1228
22678SOL    HW270352   4.345   3.327   9.042  0.8623  0.3075  0.4185
22679SOL     OW70353   6.069   3.622   6.562 -0.0073 -0.2225 -0.2197
22679SOL    HW170354   6.149   3.573   6.581 -0.2643 -0.5840 -0.0695
22679SOL    HW270355   6.010   3.557   6.524 -0.1799  0.0752 -0.4645
22680SOL     OW70356   5.145   9.787   0.614 -0.1032 -0.2477  0.5697
22680SOL    HW170357   5.103   9.702   0.624  0.3741 -0.9597 -2.3873
22680SOL    HW270358   5.215   9.772   0.550  0.8276  2.1155  0.9017
22681SOL     OW70359   1.840   2.405   0.217  0.2547  0.3013  0.0555
22681SOL    HW170360   1.825   2.440   0.129  0.6777  1.0676  0.2754
22681SOL    HW270361   1.834   2.482   0.274  1.1271  0.0054  0.5579
22682SOL     OW70362   3.214   8.008   6.955 -0.2653 -0.6965 -0.5785
22682SOL    HW170363   3.274   7.961   7.013 -1.2940 -1.5174 -0.1396
22682SOL    HW270364   3.259   8.089   6.933 -0.3667  0.2666  2.4183
22683SOL     OW70365  10.034   5.106   4.925 -0.3083 -0.2173 -0.0193
22683SOL    HW170366  10.119   5.063   4.931  0.5661  1.4415  0.0208
22683SOL    HW270367  10.011   5.101   4.832 -0.0790 -0.5223 -0.0595
22684SOL     OW70368   7.476   4.664   5.348  0.1661  0.3773 -0.6970
22684SOL    HW170369   7.524   4.616   5.416 -0.8283  1.1770  0.6130
22684SOL    HW270370   7.384   4.652   5.371 -0.3447 -0.8854 -2.9857
22685SOL     OW70371   1.272   3.548   1.749 -0.6866 -0.0587 -0.0192
22685SOL    HW170372   1.322   3.547   1.667 -1.3781  2.2285 -0.5265
22685SOL    HW270373   1.221   3.467   1.746  0.0558 -0.5093 -1.3593
22686SOL     OW70374   6.488   6.087   6.767  0.1394 -0.3874  0.4462
22686SOL    HW170375   6.414   6.120   6.718 -0.3719  0.0298  1.4660
22686SOL    HW270376   6.527   6.020   6.711 -0.6616 -0.2034 -0.3365
22687SOL     OW70377   1.805   9.508   9.072 -0.7567 -0.0420  0.3432
22687SOL    HW170378   1.868   9.569   9.110  0.0132  0.0684 -1.0424
22687SOL    HW270379   1.721   9.554   9.076 -0.3171  0.8117  0.0086
22688SOL     OW70380   8.391   1.316   5.389 -0.4018  0.3483 -0.2891
22688SOL    HW170381   8.359   1.268   5.314  0.2109  0.9265 -0.9402
22688SOL    HW270382   8.422   1.399   5.353 -1.1049  1.0880  0.7494
22689SOL     OW70383   2.734   7.709   1.832 -0.0497 -0.6078  0.1518
22689SOL    HW170384   2.705   7.786   1.881  0.2034 -0.3354 -0.1263
22689SOL    HW270385   2.816   7.683   1.874  0.4805 -0.0195 -0.4852
22690SOL     OW70386   9.569   0.327   5.798  0.3432  0.1945  0.3755
22690SOL    HW170387   9.636   0.259   5.794  1.2568  1.0168  1.1084
22690SOL    HW270388   9.519   0.308   5.877 -1.2571 -1.2514 -0.9201
22691SOL     OW70389   4.785   6.379   0.659 -0.3244  0.1784 -0.1200
22691SOL    HW170390   4.732   6.303   0.685 -2.6785  2.3526  2.0690
22691SOL    HW270391   4.793   6.371   0.564 -0.6440 -2.6717  0.0070
22692SOL     OW70392   5.856   1.729   0.976 -0.9801  0.1300  0.4338
22692SOL    HW170393   5.936   1.751   1.022  0.6292 -0.4422 -1.9415
22692SOL    HW270394   5.855   1.633   0.975 -1.7878  0.1286  0.5634
22693SOL     OW70395   7.559   1.257   9.565  0.2729 -0.0693 -0.0773
22693SOL    HW170396   7.638   1.285   9.518  0.1653 -1.3068 -1.0271
22693SOL    HW270397   7.586   1.179   9.613  0.2186  0.8341  1.4810
22694SOL     OW70398   1.283  10.193   1.746 -0.1494  0.1321  0.0132
22694SOL    HW170399   1.300  10.200   1.840 -0.4069 -2.5815  0.3565
22694SOL    HW270400   1.190  10.210   1.737 -0.0606  0.7202  0.2056
22695SOL     OW70401   0.055   4.832   3.231 -0.2057 -0.2862  0.0744
22695SOL    HW170402   0.113   4.760   3.208  1.4423  0.2346  2.2857
22695SOL    HW270403  -0.029   4.790   3.252  0.3694 -1.4207  0.1734
22696SOL     OW70404   6.696   5.719  10.453 -0.1043 -0.6115  0.2737
22696SOL    HW170405   6.673   5.673  10.534  1.7622  0.0521  1.2241
22696SOL    HW270406   6.677   5.811  10.472  2.0244 -0.2018  0.6678
22697SOL     OW70407   6.908   5.466   4.425 -0.2930 -0.5393  0.0042
22697SOL    HW170408   6.960   5.427   4.495 -1.4113  0.2675  1.3453
22697SOL    HW270409   6.857   5.393   4.388 -1.1917 -0.6608  1.4154
22698SOL     OW70410   9.411   6.413   0.970  0.1289 -0.4178 -0.8800
22698SOL    HW170411   9.443   6.358   0.898  0.8417 -1.2594  0.0665
22698SOL    HW270412   9.377   6.352   1.034 -2.4400  0.4043 -1.3392
22699SOL     OW70413   6.884   3.221   1.229  0.6704 -0.0538  0.4854
22699SOL    HW170414   6.979   3.208   1.231  0.6971  0.0332 -0.0598
22699SOL    HW270415   6.869   3.278   1.154  0.2368  0.4025  0.9143
22700SOL     OW70416   4.585   3.769   3.932 -0.0959 -0.1074 -0.4291
22700SOL    HW170417   4.669   3.784   3.888 -0.7169  3.4063 -0.6666
22700SOL    HW270418   4.520   3.766   3.862 -0.4849  0.0076 -0.0798
22701SOL     OW70419   9.000  10.385   4.326  0.0026  0.2872  0.0857
22701SOL    HW170420   9.095  10.386   4.323  0.0728  0.8674  1.6569
22701SOL    HW270421   8.976  10.301   4.286  1.2646 -0.6640  1.2017
22702SOL     OW70422   8.745   8.002   9.213 -0.1422  0.5617 -0.7733
22702SOL    HW170423   8.834   8.031   9.232 -0.5678  0.7444  1.1103
22702SOL    HW270424   8.756   7.916   9.172  0.8579 -0.2470  1.1147
22703SOL     OW70425   1.933   9.347   8.078 -0.1671 -0.4267  0.1330
22703SOL    HW170426   1.904   9.258   8.099  0.4386 -0.6098  0.2152
22703SOL    HW270427   1.869   9.379   8.015 -0.1903 -1.0546 -0.1663
22704SOL     OW70428   7.308   8.905  10.224  0.3131 -0.4012  0.0832
22704SOL    HW170429   7.276   8.995  10.231 -0.0855 -0.4590 -0.9236
22704SOL    HW270430   7.401   8.911  10.244  0.0099  0.0009  1.5239
22705SOL     OW70431   5.911   1.271   8.880  0.7394 -0.3938 -0.0005
22705SOL    HW170432   5.965   1.322   8.820  0.3853 -0.0390 -0.0269
22705SOL    HW270433   5.883   1.195   8.829 -2.0411  1.3519 -1.3711
22706SOL     OW70434   8.871   4.601  10.448 -0.1245 -0.3272  0.0333
22706SOL    HW170435   8.821   4.631  10.524  2.1062 -1.5380  2.1294
22706SOL    HW270436   8.882   4.679  10.394 -0.2705  1.0342  1.8675
22707SOL     OW70437   2.942   8.120   9.933  0.3999 -0.6629  0.6449
22707SOL    HW170438   2.976   8.209   9.948  0.7643 -0.7033  0.1069
22707SOL    HW270439   3.006   8.081   9.873 -0.0235 -1.1207  0.4912
22708SOL     OW70440   4.059   8.624   4.271 -0.5593 -0.2843  0.6626
22708SOL    HW170441   3.993   8.668   4.219 -0.1960 -0.4953  0.0069
22708SOL    HW270442   4.037   8.644   4.362 -2.6722 -1.9155  0.5907
22709SOL     OW70443   6.296   9.724   9.340 -0.4101  0.3231  0.4512
22709SOL    HW170444   6.280   9.685   9.426  0.0820 -0.9942 -0.0271
22709SOL    HW270445   6.210   9.729   9.300 -0.3857 -1.2767  0.1330
22710SOL     OW70446   7.984  10.239   0.760  0.4993  0.4733  0.1118
22710SOL    HW170447   7.977  10.153   0.801  0.2766  0.6491  0.4428
22710SOL    HW270448   8.049  10.285   0.812  0.4493  0.5867  0.0732
22711SOL     OW70449   1.595   8.765   9.391  0.1143 -0.1306 -0.0555
22711SOL    HW170450   1.565   8.810   9.311  2.5956  0.2683 -0.8631
22711SOL    HW270451   1.651   8.830   9.435 -0.0783 -0.8471  1.2892
22712SOL     OW70452   6.559   8.843   2.412  0.2486 -0.1598  0.0170
22712SOL    HW170453   6.613   8.919   2.436  0.5308 -0.3929  0.1189
22712SOL    HW270454   6.470   8.878   2.406 -0.3296 -0.5581  3.9201
22713SOL     OW70455   1.050   6.047   0.648 -0.3490  0.3832  0.3923
22713SOL    HW170456   1.120   6.057   0.713 -0.7822 -0.8357  1.0738
22713SOL    HW270457   0.972   6.077   0.694 -0.5776 -0.0464  0.2883
22714SOL     OW70458   3.694   8.164   6.357  0.3620  0.7288  0.4406
22714SOL    HW170459   3.775   8.185   6.403  0.7506  0.6856 -0.2152
22714SOL    HW270460   3.719   8.098   6.292 -0.4277 -0.2188  1.0482
22715SOL     OW70461   5.371   1.455   2.624 -0.3459 -0.5583 -0.1016
22715SOL    HW170462   5.446   1.506   2.654 -0.8039 -0.0404  0.1686
22715SOL    HW270463   5.334   1.417   2.703 -0.6502 -0.4287 -0.1801
22716SOL     OW70464   2.789   1.229   8.074 -0.2820 -0.6135 -0.1888
22716SOL    HW170465   2.832   1.158   8.122  1.3782 -0.7799 -1.8337
22716SOL    HW270466   2.837   1.308   8.099 -1.7746 -0.0709  1.2006
22717SOL     OW70467   9.064   1.916   5.144  0.2368  0.4625  0.1239
22717SOL    HW170468   9.114   1.986   5.187 -0.3714  0.5543  0.7033
22717SOL    HW270469   8.978   1.920   5.186  0.2866 -0.8318  0.3644
22718SOL     OW70470   9.042   9.170   0.762 -0.1420  0.4560  0.7101
22718SOL    HW170471   9.000   9.166   0.848 -0.9963 -1.4572  0.2713
22718SOL    HW270472   9.099   9.093   0.760  0.7346  1.1057 -0.0284
22719SOL     OW70473   2.776   3.487   4.772 -0.2793  0.1558  0.2943
22719SOL    HW170474   2.772   3.421   4.841 -0.3528  0.3311  0.4594
22719SOL    HW270475   2.858   3.533   4.788 -0.7328  0.7999  0.8250
22720SOL     OW70476   2.305   9.646   3.048  0.0137  0.0978 -0.1956
22720SOL    HW170477   2.385   9.594   3.063 -0.1231 -0.2207 -0.5434
22720SOL    HW270478   2.241   9.609   3.109 -0.2408 -0.5078 -0.8195
22721SOL     OW70479   3.081   8.791   3.522  0.2860  0.1500 -0.1644
22721SOL    HW170480   3.005   8.784   3.465 -0.6018  0.6509  0.9273
22721SOL    HW270481   3.143   8.847   3.475 -0.1837  0.0644 -0.8841
22722SOL     OW70482   8.203   3.954   9.996  0.3916  0.3832  0.2445
22722SOL    HW170483   8.184   3.883   9.935 -1.6016  1.8529 -0.9943
22722SOL    HW270484   8.296   3.974   9.981 -0.0652  0.8375 -2.5948
22723SOL     OW70485   9.826   5.489  10.266  0.5288  0.4645  0.5563
22723SOL    HW170486   9.847   5.398  10.245  4.0001  1.3488 -0.3878
22723SOL    HW270487   9.860   5.502  10.355  0.0986  0.8924  0.6644
22724SOL     OW70488   8.316   3.430   6.671  0.2073 -1.0772 -1.5531
22724SOL    HW170489   8.351   3.487   6.739 -4.3871  2.3974 -1.6163
22724SOL    HW270490   8.308   3.344   6.712 -1.2554  0.5933  2.0570
22725SOL     OW70491   4.399   4.192   6.411 -0.5220 -0.1727  0.2760
22725SOL    HW170492   4.492   4.171   6.420 -0.1056  1.4735  0.1659
22725SOL    HW270493   4.365   4.125   6.352  0.8524 -0.1205 -0.6282
22726SOL     OW70494   6.924   6.047   9.696  0.0294 -0.6113  0.3962
22726SOL    HW170495   6.958   6.115   9.754 -1.2795  0.8166 -0.4495
22726SOL    HW270496   6.990   5.978   9.699  2.2404  1.3860 -0.0456
22727SOL     OW70497   5.114   4.115   4.590  0.1936  0.8288 -0.0498
22727SOL    HW170498   5.025   4.144   4.570 -0.2592 -1.5160 -1.8314
22727SOL    HW270499   5.140   4.062   4.514  3.1463  1.4254  0.3935
22728SOL     OW70500   8.285   4.546   5.797  0.4718 -0.0826 -0.1655
22728SOL    HW170501   8.284   4.463   5.844 -0.6323  0.3203  0.5572
22728SOL    HW270502   8.352   4.598   5.842  0.0391 -0.0153  0.4135
22729SOL     OW70503   8.842   6.427   5.924 -0.0411  0.1462  0.2699
22729SOL    HW170504   8.758   6.473   5.915 -0.2993 -0.6166 -1.6099
22729SOL    HW270505   8.869   6.446   6.014 -1.0850  2.3066  0.2091
22730SOL     OW70506   7.978   6.939   4.510 -0.3336  0.7741 -0.7918
22730SOL    HW170507   7.997   6.947   4.603  0.9876  1.5259 -1.0947
22730SOL    HW270508   7.884   6.954   4.503 -0.2169  2.1628  0.2797
22731SOL     OW70509   6.782   8.886   5.893 -0.2197  0.4007 -0.7367
22731SOL    HW170510   6.878   8.886   5.897 -0.1214  1.9457 -2.0965
22731SOL    HW270511   6.757   8.967   5.937 -0.9290 -0.1261 -0.1546
22732SOL     OW70512   5.607   3.746   7.204 -0.3364  0.4377  0.0847
22732SOL    HW170513   5.625   3.684   7.133  0.9530  0.1970  0.5943
22732SOL    HW270514   5.668   3.720   7.273 -0.3923  1.7431  0.6340
22733SOL     OW70515   7.211   1.819   4.324  0.4834 -0.3246 -0.1384
22733SOL    HW170516   7.186   1.861   4.242 -1.2525 -1.1123 -0.0602
22733SOL    HW270517   7.197   1.886   4.391  0.5940 -0.1107 -0.3290
22734SOL     OW70518   3.004   3.902   6.827 -0.1472 -0.3262 -0.4592
22734SOL    HW170519   2.922   3.893   6.874 -0.0456 -1.2245 -0.4364
22734SOL    HW270520   3.036   3.989   6.851  0.4549 -1.1535  2.0371
22735SOL     OW70521   3.515   2.293   3.481  0.1092  0.1380  0.2601
22735SOL    HW170522   3.514   2.366   3.542  1.3393 -0.3254  0.8657
22735SOL    HW270523   3.464   2.324   3.406  3.2268  2.9014 -0.9595
22736SOL     OW70524   2.542   0.492   5.522 -0.1472 -0.6997  0.0989
22736SOL    HW170525   2.479   0.540   5.468  0.6793  0.1681 -0.1021
22736SOL    HW270526   2.551   0.407   5.478 -1.6741 -1.1174  0.5010
22737SOL     OW70527   7.909   3.197   3.927 -0.0527  0.6257 -0.1611
22737SOL    HW170528   7.913   3.260   3.999  2.0402  0.5557 -0.1439
22737SOL    HW270529   7.817   3.174   3.920 -0.8556  3.3106  0.1719
22738SOL     OW70530   5.046   4.755   8.175 -0.0402  0.3676 -0.2275
22738SOL    HW170531   4.962   4.709   8.176  0.5354 -0.6980  0.5500
22738SOL    HW270532   5.031   4.833   8.228 -0.9426  0.9653 -1.3182
22739SOL     OW70533   3.642   6.856   2.389  0.0454  0.2234 -0.5226
22739SOL    HW170534   3.641   6.939   2.435 -0.2611 -0.1698  0.1924
22739SOL    HW270535   3.735   6.833   2.382  0.1140  0.4868 -0.4784
22740SOL     OW70536   4.826   5.329   5.251 -0.0993  0.0490 -0.0509
22740SOL    HW170537   4.803   5.261   5.188  0.8148 -0.1788 -0.1653
22740SOL    HW270538   4.921   5.321   5.261 -0.0603  0.9049  0.4048
22741SOL     OW70539   3.256   5.162   4.790 -0.0924 -0.0597 -0.4038
22741SOL    HW170540   3.294   5.248   4.769  0.1096 -0.0590 -0.0401
22741SOL    HW270541   3.329   5.111   4.825 -0.3125 -0.2283 -0.1856
22742SOL     OW70542   8.473   2.960   0.806 -0.5833  0.3732  0.3548
22742SOL    HW170543   8.515   2.909   0.737 -0.5450  1.8539 -0.7557
22742SOL    HW270544   8.427   3.030   0.760 -2.1204  0.3149  1.7243
22743SOL     OW70545   8.881   1.849   2.754 -0.5203 -0.4250 -0.2527
22743SOL    HW170546   8.899   1.930   2.802 -0.4760  0.2329 -1.3458
22743SOL    HW270547   8.788   1.833   2.769 -0.5540 -0.1122 -0.1106
22744SOL     OW70548   5.936   0.372   8.704  0.1899 -0.4186  0.5230
22744SOL    HW170549   5.878   0.301   8.676  0.7836  0.0151 -2.0514
22744SOL    HW270550   5.879   0.449   8.706  0.0409 -0.5345  1.0908
22745SOL     OW70551   3.263   9.965   1.355  0.7888 -0.2743  0.6197
22745SOL    HW170552   3.288  10.056   1.340 -0.0314 -0.2817 -0.8908
22745SOL    HW270553   3.325   9.914   1.303 -1.3512 -0.3472 -2.0533
22746SOL     OW70554   3.380   9.277   7.916  0.1820 -0.2678  0.8008
22746SOL    HW170555   3.408   9.203   7.863 -2.8451 -1.1974  0.3352
22746SOL    HW270556   3.433   9.270   7.996  1.6256 -1.4922 -0.2077
22747SOL     OW70557   2.729   6.628   4.842 -0.1013 -0.2088 -0.7683
22747SOL    HW170558   2.654   6.674   4.805  0.4014  0.2058 -1.2937
22747SOL    HW270559   2.746   6.557   4.780 -0.7230 -0.9753 -0.0877
22748SOL     OW70560  10.028   5.124   3.607 -0.4090 -0.3190  0.0951
22748SOL    HW170561  10.124   5.132   3.611 -0.4482  0.1085  0.2848
22748SOL    HW270562  10.012   5.030   3.595 -0.0103 -0.8045  2.6574
22749SOL     OW70563  10.030   0.836   1.497  0.2984  0.8685 -0.3090
22749SOL    HW170564   9.977   0.856   1.421 -0.2873  0.9452  0.1106
22749SOL    HW270565  10.059   0.746   1.483 -0.7989  0.4610 -0.0630
22750SOL     OW70566   4.113   6.072   5.510  0.1750  0.3220 -0.5685
22750SOL    HW170567   4.161   6.128   5.449 -0.0544  2.4256  1.0894
22750SOL    HW270568   4.177   6.005   5.536  0.3564 -0.4802 -2.8134
22751SOL     OW70569   6.365   4.797   5.687 -0.0040 -0.1062 -0.0038
22751SOL    HW170570   6.382   4.729   5.753  0.5363  0.6012  0.5997
22751SOL    HW270571   6.363   4.749   5.604 -0.7973 -1.0308  0.5198
22752SOL     OW70572   5.152   2.955   4.266  0.3325 -0.6206  0.2873
22752SOL    HW170573   5.222   2.925   4.324  0.4090 -0.3915  0.3157
22752SOL    HW270574   5.097   3.011   4.322 -0.2840 -1.3697  0.4553
22753SOL     OW70575   1.044  10.005   1.129 -0.1019  0.0909 -0.7064
22753SOL    HW170576   0.951  10.028   1.136 -0.5432 -2.0192  2.9316
22753SOL    HW270577   1.045   9.910   1.119  1.5371 -0.3018  2.1269
22754SOL     OW70578   2.217   4.747   9.826 -0.1478  0.5042 -0.1087
22754SOL    HW170579   2.175   4.702   9.752 -0.2944 -0.7180  0.7031
22754SOL    HW270580   2.298   4.781   9.789 -0.5775  0.5922 -1.0252
22755SOL     OW70581   1.983  10.028   2.040 -0.2734  0.4272 -0.3851
22755SOL    HW170582   2.052  10.084   2.004  0.3139 -0.8279 -1.2649
22755SOL    HW270583   1.903  10.081   2.033  0.2302  1.0775 -1.3825
22756SOL     OW70584   6.326   4.185   0.209  0.4315  0.2156  0.5132
22756SOL    HW170585   6.405   4.208   0.160 -0.3153 -0.0184 -0.8557
22756SOL    HW270586   6.325   4.089   0.209 -0.1575  0.2187  0.0065
22757SOL     OW70587   9.151   0.277   9.957 -0.1383 -0.1335 -0.0014
22757SOL    HW170588   9.055   0.275   9.954 -0.1930  0.9392  0.6457
22757SOL    HW270589   9.176   0.352   9.903  0.3642 -0.5052 -0.3081
22758SOL     OW70590   4.208   4.456  10.283  0.5032  0.2202 -0.0405
22758SOL    HW170591   4.182   4.548  10.279 -0.3119  0.0721  1.3292
22758SOL    HW270592   4.276   4.454  10.350  2.2298  0.1595 -1.6999
22759SOL     OW70593   9.274   7.620   2.832 -0.1100 -0.5698 -0.4332
22759SOL    HW170594   9.368   7.637   2.837 -0.1600 -0.3563 -0.1614
22759SOL    HW270595   9.244   7.670   2.756 -0.5291  1.9336  1.2394
22760SOL     OW70596  10.321   3.667   7.077 -0.4876  0.8933  0.7278
22760SOL    HW170597  10.382   3.700   7.011 -0.2756  1.2492  1.0930
22760SOL    HW270598  10.251   3.732   7.080 -0.6834  0.6884  0.5902
22761SOL     OW70599   3.212   3.568   1.291  0.0116 -0.7264  0.4633
22761SOL    HW170600   3.177   3.587   1.204  1.8605 -0.4225 -0.2581
22761SOL    HW270601   3.216   3.654   1.334  1.6588 -0.4523 -0.1813
22762SOL     OW70602   2.644   1.831   6.136 -0.8215  0.9390  0.6701
22762SOL    HW170603   2.583   1.905   6.144 -0.1280  1.5799  0.1424
22762SOL    HW270604   2.671   1.833   6.044 -2.3285 -1.2103  0.0851
22763SOL     OW70605   8.339   4.045   1.396  0.2200  0.0411  0.0484
22763SOL    HW170606   8.423   4.085   1.371  0.9638  1.1581  3.8043
22763SOL    HW270607   8.273   4.103   1.357  1.2750  1.8778  0.8736
22764SOL     OW70608   1.272   2.301   7.327  0.4224  0.3310  0.3921
22764SOL    HW170609   1.330   2.243   7.376 -0.0845 -0.4985  0.0421
22764SOL    HW270610   1.213   2.337   7.392  0.3000 -0.0904  0.5153
22765SOL     OW70611   5.793   9.015   2.778 -0.4381  0.1676  0.9055
22765SOL    HW170612   5.852   9.028   2.704  0.5017 -0.0526  1.5951
22765SOL    HW270613   5.771   8.922   2.775 -0.6500  0.2228  0.7231
22766SOL     OW70614   4.493   5.120   0.788  0.7931 -0.2463  0.0858
22766SOL    HW170615   4.562   5.095   0.849  0.4776  0.3478  0.7044
22766SOL    HW270616   4.485   5.046   0.728  0.8056 -1.0381  1.0311
22767SOL     OW70617   6.893   5.097   1.346  0.1091 -0.0239  0.2934
22767SOL    HW170618   6.821   5.144   1.388  0.3797  1.1063 -0.4905
22767SOL    HW270619   6.868   5.091   1.254 -0.5261 -2.5743  0.5471
22768SOL     OW70620   9.637   0.858   0.901 -0.5496 -0.2460 -0.4505
22768SOL    HW170621   9.717   0.908   0.883  0.4063 -1.3103  0.6329
22768SOL    HW270622   9.597   0.844   0.816  0.4112  0.3216 -1.0148
22769SOL     OW70623   6.151   2.227   3.872 -0.1599 -0.4967 -0.3355
22769SOL    HW170624   6.167   2.313   3.832  0.6809 -0.5438 -0.1295
22769SOL    HW270625   6.082   2.243   3.936 -0.1418 -0.0127 -0.4317
22770SOL     OW70626   6.884   1.369   9.484  0.7351 -0.2052  0.1022
22770SOL    HW170627   6.865   1.278   9.506 -0.9443  0.2253  0.6105
22770SOL    HW270628   6.879   1.372   9.389  0.3968 -0.5694  0.1038
22771SOL     OW70629   8.623   8.057   6.257  0.8483 -0.2969 -0.4379
22771SOL    HW170630   8.697   8.033   6.201  1.6262  1.4423 -0.2245
22771SOL    HW270631   8.663   8.087   6.339 -0.1694 -0.6743  0.2186
22772SOL     OW70632   1.007   8.942   8.145  0.3697 -0.0184 -0.1194
22772SOL    HW170633   1.034   8.852   8.130  0.6710  0.0450  0.0384
22772SOL    HW270634   0.993   8.978   8.057  1.3904  0.1263 -0.2301
22773SOL     OW70635  10.106   9.897   4.458 -0.1799 -0.5886  0.4861
22773SOL    HW170636  10.141   9.979   4.493  1.0845 -0.2697 -1.3724
22773SOL    HW270637  10.028   9.880   4.510 -1.0876  2.3694  0.2792
22774SOL     OW70638   0.612   8.766   7.532  0.4461 -0.3108 -0.1734
22774SOL    HW170639   0.617   8.819   7.452 -1.8860 -0.5479 -0.5457
22774SOL    HW270640   0.555   8.693   7.509 -0.2770 -0.3873  1.7108
22775SOL     OW70641   6.083   4.854   5.621 -0.1862 -0.1163 -0.9507
22775SOL    HW170642   6.176   4.876   5.622 -0.6326  1.9707 -0.9964
22775SOL    HW270643   6.048   4.902   5.546 -1.5843  0.4737  0.0407
22776SOL     OW70644   1.649   5.718   8.016 -0.0508  0.6225  0.3936
22776SOL    HW170645   1.706   5.680   7.949 -2.1331  0.4655 -1.3915
22776SOL    HW270646   1.592   5.778   7.969 -2.6910 -0.6943  1.7063
22777SOL     OW70647   2.630   0.569   3.758 -0.5195  0.0780  0.1723
22777SOL    HW170648   2.700   0.626   3.726 -0.4858 -1.1624 -2.1667
22777SOL    HW270649   2.647   0.484   3.717 -2.1293 -0.8904  1.3689
22778SOL     OW70650   9.228  10.456   9.436  0.8507  0.1143 -0.2368
22778SOL    HW170651   9.275  10.514   9.376  1.5458 -0.5908 -0.3868
22778SOL    HW270652   9.280  10.376   9.439  0.2537 -0.2677  0.4765
22779SOL     OW70653   3.933   6.421   9.727 -0.2079 -0.0872 -0.0544
22779SOL    HW170654   3.911   6.377   9.810  0.4545 -0.6770 -0.1759
22779SOL    HW270655   3.955   6.510   9.752  0.3815 -0.3704  0.4687
22780SOL     OW70656   1.698   6.816   8.408 -0.0572 -0.3835 -0.1754
22780SOL    HW170657   1.776   6.775   8.444  0.9300  0.9207 -0.7822
22780SOL    HW270658   1.730   6.885   8.351 -1.6520  0.7669  0.2275
22781SOL     OW70659   1.261   0.065   5.491  0.0179  0.2919 -0.5343
22781SOL    HW170660   1.217   0.136   5.537 -0.8084 -1.3338  1.3382
22781SOL    HW270661   1.200   0.040   5.421 -0.9102 -0.2641  0.4432
22782SOL     OW70662   3.050   0.036   6.698 -0.0550  0.5855 -0.2440
22782SOL    HW170663   3.081   0.072   6.781  0.2799  1.0580 -0.5717
22782SOL    HW270664   3.091   0.090   6.631 -1.3090  1.0136 -0.6961
22783SOL     OW70665   8.783   8.773   8.098  0.4819  0.1183  0.6496
22783SOL    HW170666   8.876   8.785   8.118  1.1338  2.2274 -2.7978
22783SOL    HW270667   8.739   8.845   8.144  1.3315  2.1401 -1.4792
22784SOL     OW70668   7.522   8.407   4.352 -0.6823 -0.3273 -0.4063
22784SOL    HW170669   7.442   8.394   4.403 -1.1830 -0.3970 -1.1953
22784SOL    HW270670   7.504   8.484   4.298 -0.0549 -0.0895 -0.2968
22785SOL     OW70671   9.625   7.951   5.147 -0.1032 -0.3626 -0.5230
22785SOL    HW170672   9.690   7.942   5.078  0.5192  0.5849 -0.0821
22785SOL    HW270673   9.546   7.909   5.112  0.0663  0.4877 -1.9757
22786SOL     OW70674   3.499   8.785   7.588 -0.4944  0.2481 -0.1172
22786SOL    HW170675   3.519   8.879   7.584  2.2082 -0.1817  1.2033
22786SOL    HW270676   3.470   8.772   7.678 -0.4173 -0.2740 -0.1699
22787SOL     OW70677   3.254   0.734   6.632  0.0713  0.5505  0.2427
22787SOL    HW170678   3.233   0.816   6.677 -0.8299  0.8209 -0.6478
22787SOL    HW270679   3.209   0.740   6.548 -0.7479 -1.2258  0.5084
22788SOL     OW70680   9.484   4.707   9.333 -0.3441  0.5453  0.7240
22788SOL    HW170681   9.517   4.777   9.278 -0.9173  0.3756  0.1559
22788SOL    HW270682   9.494   4.740   9.423  1.1369  0.5759  0.5611
22789SOL     OW70683   0.025   2.425   7.376  0.3781  0.3412 -0.4019
22789SOL    HW170684   0.007   2.508   7.421  2.0156  0.6146 -0.2220
22789SOL    HW270685   0.031   2.360   7.446  0.4082  0.3091 -0.4342
22790SOL     OW70686  10.182  10.194   5.580  0.4591  0.2972 -0.4414
22790SOL    HW170687  10.201  10.272   5.529 -1.3850  0.7373 -0.5490
22790SOL    HW270688  10.091  10.173   5.559 -0.0792 -0.0502  1.9322
22791SOL     OW70689   5.584   5.674   1.561 -0.1309 -0.2802 -0.0398
22791SOL    HW170690   5.543   5.734   1.498  0.7280  0.2248 -0.1315
22791SOL    HW270691   5.588   5.590   1.515  0.5207  0.0904 -0.6893
22792SOL     OW70692   2.129   4.795   2.524  0.4744 -0.2317 -0.2772
22792SOL    HW170693   2.097   4.839   2.602  0.9139 -0.4221  0.0174
22792SOL    HW270694   2.210   4.751   2.553  0.4132 -0.6515 -0.7308
22793SOL     OW70695   2.415   9.035   1.722 -0.0172 -0.1247 -0.2592
22793SOL    HW170696   2.425   9.070   1.634 -1.3843  0.8702 -0.0514
22793SOL    HW270697   2.323   9.053   1.745  0.4985  0.3435  1.6524
22794SOL     OW70698   1.408   8.947   0.483  0.3768 -0.2342  1.1051
22794SOL    HW170699   1.364   8.867   0.510 -2.1996  0.9194  0.6382
22794SOL    HW270700   1.473   8.964   0.551  1.8842 -3.2837  0.5898
22795SOL     OW70701   1.730   4.544   6.668 -0.1268  0.4200  0.0591
22795SOL    HW170702   1.706   4.633   6.693 -0.6668  0.2633  0.1086
22795SOL    HW270703   1.824   4.548   6.650 -0.4388  1.3649 -1.5401
22796SOL     OW70704   2.602   0.970   4.100 -0.1345  0.0424 -0.7152
22796SOL    HW170705   2.544   0.940   4.170 -1.9324  0.0502 -2.1591
22796SOL    HW270706   2.573   1.059   4.081  1.1560  0.4995 -0.6705
22797SOL     OW70707   2.582   1.138   7.001  0.0180 -0.3708 -0.3700
22797SOL    HW170708   2.545   1.203   6.941 -1.8278 -1.3554 -0.3693
22797SOL    HW270709   2.600   1.188   7.081  1.0406  0.6284 -1.1886
22798SOL     OW70710   1.357   0.460   8.989 -0.2083  0.6717 -0.2081
22798SOL    HW170711   1.397   0.418   9.065 -0.5470  1.4417  0.4007
22798SOL    HW270712   1.419   0.528   8.964 -0.9762  1.6661  0.5502
22799SOL     OW70713  10.511   2.417   5.896  0.8018  0.1500 -0.1515
22799SOL    HW170714  10.513   2.483   5.826  1.2464 -0.5982 -0.8568
22799SOL    HW270715  10.602   2.393   5.909  0.7340  0.3581  0.7726
22800SOL     OW70716   4.528   8.597   1.347 -0.9027  0.2468  0.2599
22800SOL    HW170717   4.497   8.645   1.270 -0.2479 -3.5359 -2.6810
22800SOL    HW270718   4.452   8.547   1.376 -1.1016  1.5331  2.1444
22801SOL     OW70719   9.776   1.559   6.330 -0.1434 -0.1441  0.5068
22801SOL    HW170720   9.866   1.589   6.314 -0.4653  0.7061  0.2200
22801SOL    HW270721   9.742   1.621   6.394 -1.2943  1.0215 -1.1530
22802SOL     OW70722   3.430   8.473   1.253  0.0470 -0.6817  0.2630
22802SOL    HW170723   3.433   8.556   1.207 -0.2798 -0.3357  0.8517
22802SOL    HW270724   3.340   8.443   1.243 -0.6017  0.3899  2.3587
22803SOL     OW70725   9.190   7.990   7.837  0.3758 -0.5372 -0.0087
22803SOL    HW170726   9.228   7.926   7.776  2.6179  0.6432  0.0337
22803SOL    HW270727   9.233   8.072   7.814 -0.5082  0.4174  1.6355
22804SOL     OW70728   7.806   9.133   4.477 -0.0321  0.2055  0.5121
22804SOL    HW170729   7.791   9.041   4.457 -1.3520  0.0351  1.9929
22804SOL    HW270730   7.791   9.139   4.572 -1.5609  2.2030  0.2109
22805SOL     OW70731   4.569   1.980   2.890 -0.1805  0.0746 -0.2968
22805SOL    HW170732   4.537   2.047   2.950 -0.1367  0.3600 -0.5851
22805SOL    HW270733   4.621   2.029   2.826  0.4859 -0.3317 -0.0754
22806SOL     OW70734   2.835   9.181   9.347  0.2352  0.1095 -0.4590
22806SOL    HW170735   2.836   9.117   9.276 -1.8316  1.5973 -1.9673
22806SOL    HW270736   2.851   9.265   9.304 -0.3210  0.9699  0.9448
22807SOL     OW70737   8.311   0.737   3.420  0.4268 -0.2520  0.1427
22807SOL    HW170738   8.402   0.724   3.394  0.8544  0.5345  1.1552
22807SOL    HW270739   8.262   0.673   3.370  1.4400 -0.1529 -1.0218
22808SOL     OW70740   7.697   2.214   4.786 -0.0701 -0.6267 -0.1697
22808SOL    HW170741   7.783   2.182   4.814 -0.5098 -2.8080 -1.0750
22808SOL    HW270742   7.713   2.252   4.699 -0.0742 -1.4044 -0.5161
22809SOL     OW70743   7.477   6.013   3.119 -0.2449 -0.3962 -0.2096
22809SOL    HW170744   7.501   6.105   3.117  0.2801 -0.4831 -3.7692
22809SOL    HW270745   7.382   6.013   3.135 -0.0069  0.5951  1.4282
22810SOL     OW70746   2.569   5.380   6.100  0.0474  0.0165  0.1241
22810SOL    HW170747   2.518   5.338   6.031 -0.0672 -0.4767  0.5053
22810SOL    HW270748   2.649   5.408   6.057 -1.0060  1.8544 -0.7753
22811SOL     OW70749   1.618   8.411   3.927  0.3579  0.2058 -0.1050
22811SOL    HW170750   1.556   8.464   3.878 -1.2164 -1.4872 -0.0109
22811SOL    HW270751   1.624   8.455   4.012  0.5128  1.2310 -0.6178
22812SOL     OW70752  10.366  10.142  10.354 -0.4798  0.3569  0.3609
22812SOL    HW170753  10.395  10.175  10.439 -0.3547  0.9204  0.1020
22812SOL    HW270754  10.440  10.158  10.295 -0.5843  0.0204  0.1348
22813SOL     OW70755   5.314   0.747   5.142  0.4390  0.3900  0.0682
22813SOL    HW170756   5.299   0.662   5.101  1.0145  0.1233  0.3927
22813SOL    HW270757   5.362   0.797   5.076  1.9473 -0.2610  0.6074
22814SOL     OW70758   4.605   3.141   0.356  0.3261 -0.3891  0.3938
22814SOL    HW170759   4.633   3.185   0.276  1.5448 -1.2959  0.2810
22814SOL    HW270760   4.681   3.148   0.415 -0.0429 -0.9411  0.9503
22815SOL     OW70761   8.014   9.678   5.860  0.5139 -0.3931 -0.0429
22815SOL    HW170762   8.024   9.601   5.803  1.7925  0.1762 -0.6171
22815SOL    HW270763   8.040   9.648   5.946  0.6236 -0.7051 -0.1838
22816SOL     OW70764   9.085   1.051   3.546 -0.7892 -0.1770 -0.3374
22816SOL    HW170765   9.031   1.072   3.623  0.2811  1.5691 -0.0081
22816SOL    HW270766   9.172   1.035   3.583 -0.2600  0.7019 -1.1815
22817SOL     OW70767   4.997   1.537   6.705 -0.6590 -0.1437  0.1835
22817SOL    HW170768   4.999   1.452   6.661 -1.2380 -0.4355  0.7096
22817SOL    HW270769   5.003   1.601   6.634  1.9663 -0.6033 -0.1157
22818SOL     OW70770   4.857   4.327   0.801  0.1889 -0.1630 -0.0467
22818SOL    HW170771   4.801   4.403   0.785 -2.4842 -2.1662 -0.8642
22818SOL    HW270772   4.946   4.364   0.806 -1.1054  3.2120  1.5020
22819SOL     OW70773   2.677   5.667   7.826  0.6426  0.2259 -0.7083
22819SOL    HW170774   2.594   5.683   7.781  0.8652 -0.5835 -1.4376
22819SOL    HW270775   2.652   5.634   7.912  0.2137  1.6542 -0.2567
22820SOL     OW70776   7.393   7.865   7.233  0.5272  0.5280  0.1520
22820SOL    HW170777   7.475   7.823   7.206 -0.0814 -1.5122  1.3266
22820SOL    HW270778   7.422   7.944   7.279  1.8536 -0.2055  0.6360
22821SOL     OW70779   4.643   2.511   9.884 -0.4444 -0.5940 -0.2136
22821SOL    HW170780   4.672   2.559   9.962 -0.3139 -1.0725  0.0398
22821SOL    HW270781   4.682   2.558   9.811  0.6252 -0.9614  0.0944
22822SOL     OW70782   1.538   4.078   6.945 -0.2264 -0.0680 -0.2915
22822SOL    HW170783   1.517   4.169   6.927 -0.0247  0.3411  1.3913
22822SOL    HW270784   1.460   4.043   6.989  0.0298 -0.4511 -0.1332
22823SOL     OW70785   5.305   2.275   5.579 -0.0616 -0.0246 -0.0729
22823SOL    HW170786   5.376   2.340   5.581 -1.9182  2.2600 -2.2852
22823SOL    HW270787   5.225   2.325   5.591 -1.5297 -2.1531 -0.2842
22824SOL     OW70788   2.697   7.658   0.365 -0.0657  0.5484 -0.5942
22824SOL    HW170789   2.702   7.684   0.273  2.0882  0.6310 -0.5103
22824SOL    HW270790   2.745   7.575   0.369  1.1832  1.2746  0.6533
22825SOL     OW70791   6.034   1.893   1.148 -0.5123  0.1003  0.3031
22825SOL    HW170792   6.062   1.941   1.070  0.1272 -1.2383 -0.3262
22825SOL    HW270793   5.960   1.944   1.182 -0.9614  0.5964 -1.3120
22826SOL     OW70794   9.926   9.415   1.267  0.1059  0.2253  0.4118
22826SOL    HW170795   9.930   9.510   1.276  0.6961  0.1385  1.1466
22826SOL    HW270796  10.013   9.389   1.235 -0.1556 -0.0434 -0.1069
22827SOL     OW70797   5.390   3.621   1.210 -0.0454 -0.1322 -0.3708
22827SOL    HW170798   5.484   3.606   1.210 -0.1102 -0.6855  0.7070
22827SOL    HW270799   5.380   3.714   1.187  0.7601 -0.0701 -0.4936
22828SOL     OW70800   9.967   4.380   6.301  0.5679  0.1891 -0.2507
22828SOL    HW170801   9.952   4.326   6.378  0.6823 -0.1152 -0.4403
22828SOL    HW270802   9.886   4.375   6.252  0.9302 -0.6695 -0.7914
22829SOL     OW70803   6.682   3.856   3.195 -0.1385  0.5475  0.4932
22829SOL    HW170804   6.761   3.826   3.151 -0.6893 -1.0542  0.5335
22829SOL    HW270805   6.657   3.936   3.148  0.4149 -0.0120 -0.7891
22830SOL     OW70806   8.673   7.444   1.297 -0.0242  0.1619  0.2778
22830SOL    HW170807   8.744   7.450   1.233 -0.5898 -1.2115 -0.5226
22830SOL    HW270808   8.615   7.517   1.275  0.2520  0.2482 -0.1889
22831SOL     OW70809   1.859   2.833   2.439 -0.6165  1.2202  0.1907
22831SOL    HW170810   1.818   2.795   2.361 -0.0313  1.8984 -0.4749
22831SOL    HW270811   1.891   2.758   2.489 -0.6193  0.7919 -0.4394
22832SOL     OW70812   2.699   5.578   6.922 -0.2740  0.3676  0.2000
22832SOL    HW170813   2.748   5.552   7.000 -0.8130 -0.0091  0.4241
22832SOL    HW270814   2.625   5.518   6.920 -0.3975  0.5391 -0.4673
22833SOL     OW70815   1.930   5.825   9.488  0.3735  0.1794  0.0604
22833SOL    HW170816   1.926   5.886   9.561  0.9450  0.2725  0.0186
22833SOL    HW270817   1.840   5.793   9.478 -0.4060  2.5189 -1.1977
22834SOL     OW70818   6.515   1.824   5.604  0.2523 -0.3222  0.4881
22834SOL    HW170819   6.549   1.742   5.568  1.4580  0.1065  0.5790
22834SOL    HW270820   6.487   1.874   5.528 -1.5676 -1.2544  0.5108
22835SOL     OW70821   6.819   1.803   6.678  0.0030  0.6834  0.1226
22835SOL    HW170822   6.798   1.850   6.758  0.4283  0.1863  0.5344
22835SOL    HW270823   6.856   1.869   6.619  0.6029  0.8624  0.6957
22836SOL     OW70824   2.241   0.152   0.133 -0.2572 -0.1445  0.7482
22836SOL    HW170825   2.295   0.122   0.060  0.4429  0.5864  0.9481
22836SOL    HW270826   2.269   0.099   0.207  1.1984  1.1220  1.1750
22837SOL     OW70827   2.897   4.219   7.026  0.0976  0.4682 -0.0508
22837SOL    HW170828   2.812   4.213   7.069 -0.3588  3.2707 -0.3505
22837SOL    HW270829   2.956   4.170   7.082 -1.3409  0.2001  1.2966
22838SOL     OW70830   0.763   2.406   3.305 -0.0029 -0.2524 -0.2773
22838SOL    HW170831   0.786   2.427   3.214  0.3691 -0.4759 -0.2364
22838SOL    HW270832   0.676   2.367   3.299 -0.8691  1.5848 -0.3224
22839SOL     OW70833   0.397   3.522   3.593  0.6510  0.4325 -0.7358
22839SOL    HW170834   0.373   3.445   3.542  1.2886  0.0295 -0.4431
22839SOL    HW270835   0.314   3.568   3.609  0.1196 -0.7338 -0.0430
22840SOL     OW70836   5.938   0.885   0.888 -0.0849 -0.0853 -0.1566
22840SOL    HW170837   5.867   0.831   0.851  1.5209 -1.4168 -1.4481
22840SOL    HW270838   6.005   0.885   0.820  0.6856  2.1750  0.5394
22841SOL     OW70839   6.195   0.053   4.820 -0.0277  0.2842  0.1937
22841SOL    HW170840   6.196  -0.023   4.878 -1.1683  0.6969  0.7813
22841SOL    HW270841   6.158   0.124   4.873 -0.4731  0.8422 -0.8169
22842SOL     OW70842   9.348   5.903   1.548  0.5438 -0.5155 -0.5553
22842SOL    HW170843   9.399   5.951   1.612  0.3096 -0.4044 -0.4502
22842SOL    HW270844   9.335   5.816   1.587  1.6689 -0.9533 -1.1002
22843SOL     OW70845   3.476   0.717   4.688 -0.3650  0.0483  0.1729
22843SOL    HW170846   3.501   0.806   4.713  0.0403 -0.1804  0.5932
22843SOL    HW270847   3.401   0.696   4.744 -1.4741  0.6914 -1.0083
22844SOL     OW70848   9.977   7.031   3.592 -0.6404  0.0473  0.2970
22844SOL    HW170849   9.989   6.948   3.545 -2.9960  0.5780 -1.4242
22844SOL    HW270850  10.064   7.070   3.592  0.2354 -1.7764 -0.1238
22845SOL     OW70851   7.382   6.588   0.852  0.5930 -0.2289  0.1875
22845SOL    HW170852   7.390   6.534   0.931  0.7817 -0.3912  0.0585
22845SOL    HW270853   7.408   6.529   0.781 -0.7710 -0.4705 -0.1407
22846SOL     OW70854   6.526   3.350   5.436  0.1489 -0.3336  0.1211
22846SOL    HW170855   6.478   3.408   5.376  1.6788  1.3659  0.4268
22846SOL    HW270856   6.548   3.273   5.383 -0.6556  0.0303 -0.7671
22847SOL     OW70857   8.294   2.824   1.013  0.2479  0.4221 -1.0303
22847SOL    HW170858   8.307   2.904   0.961 -2.3504  0.2217 -2.1372
22847SOL    HW270859   8.280   2.755   0.948 -1.7201 -0.0996 -0.1298
22848SOL     OW70860   4.944   9.181   3.148 -0.2752 -0.2374 -0.8308
22848SOL    HW170861   4.930   9.130   3.069 -1.9793  0.2880 -0.9091
22848SOL    HW270862   4.856   9.194   3.184  0.4683 -0.6947  1.2982
22849SOL     OW70863   6.446   7.954   3.206  0.4914  0.0641 -0.0086
22849SOL    HW170864   6.431   8.047   3.221 -0.5917 -0.3327  1.7669
22849SOL    HW270865   6.537   7.939   3.232  0.8914  0.7246 -0.9745
22850SOL     OW70866   2.147   5.578   2.625  0.8293 -0.1676  0.1462
22850SOL    HW170867   2.141   5.483   2.620  0.9174 -0.1247 -1.0304
22850SOL    HW270868   2.235   5.599   2.594  0.0025  0.4240 -1.9135
22851SOL     OW70869   9.538   7.711   2.866  0.4341 -0.0477  0.7072
22851SOL    HW170870   9.590   7.636   2.895 -0.4717  0.0792  2.7883
22851SOL    HW270871   9.593   7.787   2.885  1.6297 -0.0934 -1.9891
22852SOL     OW70872   0.094   5.257   5.572 -0.0018  0.0089 -0.2038
22852SOL    HW170873   0.163   5.291   5.515 -1.4648  0.0853 -1.9829
22852SOL    HW270874   0.027   5.224   5.513 -1.0934 -0.9612  1.4825
22853SOL     OW70875  10.121  10.223   3.516  0.1067  0.0017 -0.1402
22853SOL    HW170876  10.163  10.139   3.497 -0.9181  0.1070 -3.3494
22853SOL    HW270877  10.047  10.201   3.572  1.5599 -0.7428  1.6267
22854SOL     OW70878  10.328   9.584   8.768 -0.2859 -0.0675  0.1571
22854SOL    HW170879  10.302   9.641   8.696  0.5324  1.0197  0.6866
22854SOL    HW270880  10.255   9.587   8.829 -1.2004 -1.3944 -0.8272
22855SOL     OW70881   3.279   2.860   8.375 -0.1813  0.4664  0.1375
22855SOL    HW170882   3.260   2.860   8.281 -0.6105  0.1463  0.2198
22855SOL    HW270883   3.288   2.953   8.398 -2.0060  0.6782  0.1445
22856SOL     OW70884   7.047   0.400   1.060 -0.3113 -0.3514 -0.0551
22856SOL    HW170885   7.116   0.339   1.033  0.6452  0.7557 -0.2300
22856SOL    HW270886   7.009   0.430   0.977 -0.4991 -0.3997  0.0138
22857SOL     OW70887   4.549  10.170   2.139  0.0139 -0.4925 -0.0873
22857SOL    HW170888   4.549  10.262   2.112  0.3446 -1.1759 -2.5964
22857SOL    HW270889   4.637  10.156   2.175  0.6579 -0.2651 -1.4918
22858SOL     OW70890   3.186   2.950   8.755  0.4969 -0.0282  0.1666
22858SOL    HW170891   3.151   2.885   8.693  2.9261 -0.8420 -0.4781
22858SOL    HW270892   3.118   3.017   8.761 -1.3960 -1.7881 -0.4596
22859SOL     OW70893   7.175   3.768   6.768  0.0471  0.2449 -0.0873
22859SOL    HW170894   7.116   3.696   6.792 -2.1066  2.0415  0.3753
22859SOL    HW270895   7.222   3.789   6.849  0.6866 -0.6116 -0.2251
22860SOL     OW70896   4.624   2.387   1.553  0.2462  0.2401  0.3369
22860SOL    HW170897   4.542   2.436   1.561  1.2653  2.0385  0.2189
22860SOL    HW270898   4.678   2.419   1.625 -0.1204 -3.0613  2.2652
22861SOL     OW70899   2.117   8.168   7.126  0.3092 -0.6849 -0.1200
22861SOL    HW170900   2.135   8.076   7.147 -0.6516 -0.9533 -0.4095
22861SOL    HW270901   2.184   8.192   7.063  0.4771 -1.2450 -0.1599
22862SOL     OW70902   8.526   9.530   8.706  0.5557 -0.5261  0.4977
22862SOL    HW170903   8.523   9.614   8.660 -0.5559  0.1180  1.6730
22862SOL    HW270904   8.448   9.530   8.760  0.3602 -2.4959  0.2709
22863SOL     OW70905   0.008   1.954   6.508 -0.9232  0.0670  0.0060
22863SOL    HW170906   0.090   1.911   6.486 -1.1593  0.6678 -2.2377
22863SOL    HW270907   0.031   2.047   6.517 -1.0332 -0.0189  1.3464
22864SOL     OW70908   0.411   2.125  10.387  0.0306  0.3549  0.1577
22864SOL    HW170909   0.495   2.170  10.400  0.7271 -0.6424 -0.6739
22864SOL    HW270910   0.350   2.195  10.362 -0.3032  1.6430  3.9533
22865SOL     OW70911   1.578   4.625   4.876 -0.8495 -0.1075  0.7503
22865SOL    HW170912   1.663   4.669   4.881 -0.8592  0.0858 -0.4823
22865SOL    HW270913   1.520   4.681   4.928 -0.7617  1.1537 -0.4283
22866SOL     OW70914   5.657   2.692   1.037  0.6601  0.4109 -0.4211
22866SOL    HW170915   5.643   2.651   0.952  2.8346  0.4007 -0.8233
22866SOL    HW270916   5.702   2.774   1.016  0.3911  0.8472  0.6681
22867SOL     OW70917   8.911   9.057   5.205 -0.0936 -0.2100 -0.2101
22867SOL    HW170918   8.965   9.061   5.284 -1.0307  0.3065  0.4280
22867SOL    HW270919   8.964   9.009   5.142  1.4851  1.0190  0.0999
22868SOL     OW70920   0.088   1.088   4.307 -0.1103  0.0473 -0.1197
22868SOL    HW170921   0.009   1.093   4.361 -0.4412 -0.6029 -0.5250
22868SOL    HW270922   0.084   1.166   4.252 -0.8347 -0.3219 -0.6090
22869SOL     OW70923   7.366   5.518   5.591  0.0040 -0.2821 -0.2339
22869SOL    HW170924   7.441   5.466   5.561  0.4600  0.0459  0.3063
22869SOL    HW270925   7.303   5.453   5.624 -0.7983 -0.6979 -2.4703
22870SOL     OW70926   3.018   0.394   0.154  0.1710 -0.3360 -0.4555
22870SOL    HW170927   3.088   0.335   0.182  1.1167  0.0568 -1.8916
22870SOL    HW270928   2.963   0.405   0.232  0.7432 -2.0020  0.2242
22871SOL     OW70929   9.024   2.465   9.362 -0.0173 -0.3235 -0.0726
22871SOL    HW170930   9.099   2.472   9.421  0.8295  0.5594 -1.2272
22871SOL    HW270931   8.981   2.550   9.366  0.4135 -0.0326 -1.1791
22872SOL     OW70932   3.591   0.131   5.996 -0.6265  0.1916 -0.6849
22872SOL    HW170933   3.572   0.177   6.078 -1.9224  1.9313 -1.8919
22872SOL    HW270934   3.525   0.061   5.991  0.5919 -1.1283  0.5655
22873SOL     OW70935   0.548   4.079   4.458 -0.3896  0.0039  0.5699
22873SOL    HW170936   0.605   4.015   4.500  1.2964 -0.3668 -2.0279
22873SOL    HW270937   0.462   4.038   4.456  0.2553 -1.3827  0.5952
22874SOL     OW70938   0.602   5.359   5.015  0.3806  0.0366  0.6655
22874SOL    HW170939   0.572   5.362   4.924 -0.7031 -1.3199  0.9423
22874SOL    HW270940   0.558   5.282   5.052  1.4170  0.1138  2.1245
22875SOL     OW70941   5.935   1.509   6.587  0.3125 -0.3498 -0.0992
22875SOL    HW170942   5.923   1.500   6.492 -0.0629 -1.8252  0.0684
22875SOL    HW270943   5.981   1.429   6.613  0.9638  0.3183  0.8895
22876SOL     OW70944   3.456   7.324   5.916 -0.6157 -0.2296 -0.0338
22876SOL    HW170945   3.446   7.419   5.918  1.2295 -0.0096  1.9778
22876SOL    HW270946   3.453   7.297   6.008  3.5446 -1.4582 -0.0429
22877SOL     OW70947   2.191   4.884   4.823  0.3238 -0.1595  0.2098
22877SOL    HW170948   2.120   4.943   4.852  1.8306  0.2158  3.6734
22877SOL    HW270949   2.216   4.836   4.902  1.0168 -3.5941 -1.8736
22878SOL     OW70950   9.109   0.431   0.423 -0.2721 -0.0664 -0.0917
22878SOL    HW170951   9.049   0.487   0.374 -0.5429 -0.3224 -0.0521
22878SOL    HW270952   9.059   0.403   0.499 -0.0431 -0.1358  0.0341
22879SOL     OW70953   4.614  10.015   8.732 -0.4433  0.1604 -0.1910
22879SOL    HW170954   4.686   9.998   8.793  1.6525 -0.2946 -2.6154
22879SOL    HW270955   4.584  10.103   8.753 -0.8577 -0.5229  2.4226
22880SOL     OW70956   8.294   1.099   0.697 -0.2269  0.3466 -0.1642
22880SOL    HW170957   8.354   1.097   0.772 -0.4576 -0.5268  0.0113
22880SOL    HW270958   8.247   1.182   0.705 -1.1881 -0.3143  1.4244
22881SOL     OW70959   7.930  10.365   4.126 -0.2985  0.1479  0.5021
22881SOL    HW170960   7.884  10.283   4.107  1.2910 -1.1640  1.9276
22881SOL    HW270961   8.000  10.339   4.186  0.3369  2.5627  0.8908
22882SOL     OW70962   2.472   4.416   5.972  0.5680  0.5084 -0.5353
22882SOL    HW170963   2.478   4.459   5.886 -0.5299  2.1880  0.1925
22882SOL    HW270964   2.490   4.486   6.035  1.0494 -0.6375  0.6366
22883SOL     OW70965  10.078   6.892  10.536  0.0314  0.9257 -0.1119
22883SOL    HW170966  10.007   6.886  10.600 -0.3679 -0.2733 -0.6379
22883SOL    HW270967  10.055   6.968  10.483 -0.1443  1.3491  0.5558
22884SOL     OW70968   4.286   3.036   7.792  0.4143 -0.4089  0.3048
22884SOL    HW170969   4.306   3.079   7.876  1.4494 -0.0513 -0.1086
22884SOL    HW270970   4.250   2.951   7.817  0.7832 -0.3370  1.1216
22885SOL     OW70971   2.382   7.896   2.346  0.8811  0.3379  0.2596
22885SOL    HW170972   2.302   7.895   2.398 -0.4525  3.0980 -1.4945
22885SOL    HW270973   2.451   7.919   2.408 -0.5610  2.9336  1.0819
22886SOL     OW70974   3.560   1.638  10.301 -0.6748  0.1947 -0.0518
22886SOL    HW170975   3.613   1.711  10.334  0.1533 -0.6445  0.5540
22886SOL    HW270976   3.499   1.678  10.240 -0.5482  1.4553  0.6157
22887SOL     OW70977   8.172   6.415   2.343  0.4259  0.1413 -0.6026
22887SOL    HW170978   8.183   6.404   2.248  0.1823 -1.6565 -0.4432
22887SOL    HW270979   8.078   6.431   2.354  0.6872  2.0751 -0.7737
22888SOL     OW70980   3.920   5.853   1.136 -0.6296 -0.1564  0.1863
22888SOL    HW170981   3.943   5.777   1.084  0.5716  0.6706 -0.5308
22888SOL    HW270982   3.838   5.828   1.180 -0.0830 -1.9585  0.2434
22889SOL     OW70983   1.315   4.883  10.021  0.3489  0.2271  0.0464
22889SOL    HW170984   1.286   4.941  10.091  0.1570 -1.6466  1.6223
22889SOL    HW270985   1.252   4.896   9.950 -0.9048  0.4529  1.1626
22890SOL     OW70986   3.264   4.859   0.163  0.4505 -0.1697  0.4001
22890SOL    HW170987   3.336   4.921   0.171 -0.2148  0.4947  1.5993
22890SOL    HW270988   3.305   4.777   0.134  1.4002  0.6919 -0.7765
22891SOL     OW70989   6.055   3.850  10.001 -0.0307 -0.8409 -0.2643
22891SOL    HW170990   6.032   3.869   9.910  1.6842  0.0604 -0.5449
22891SOL    HW270991   6.145   3.817   9.996  0.8089  1.0503  1.2655
22892SOL     OW70992  10.076   2.205   1.834  0.0562 -0.3333  0.2137
22892SOL    HW170993  10.100   2.293   1.862 -0.0586 -0.2097 -0.0696
22892SOL    HW270994  10.129   2.146   1.889 -1.3962 -0.1462  1.8796
22893SOL     OW70995   6.411   3.474  10.433 -0.1309  0.5181  0.5281
22893SOL    HW170996   6.418   3.497  10.526 -1.7704  1.1722  0.5205
22893SOL    HW270997   6.499   3.444  10.409  0.7935  2.0122  1.8467
22894SOL     OW70998   4.095   5.315   8.352  0.2573  0.0946 -0.2050
22894SOL    HW170999   4.031   5.365   8.402  0.8508 -0.4036  1.1201
22894SOL    HW271000   4.048   5.286   8.274 -0.5972  1.2068 -0.1223
22895SOL     OW71001   3.801   4.141   5.802 -0.1234  0.3212  0.0182
22895SOL    HW171002   3.758   4.114   5.721  1.1808 -1.6900 -0.0836
22895SOL    HW271003   3.893   4.152   5.777  0.2269  0.0386  1.1196
22896SOL     OW71004   8.814   5.958   1.332  0.0289  0.1379  0.5804
22896SOL    HW171005   8.853   5.924   1.413 -0.7988 -1.0260  0.5077
22896SOL    HW271006   8.722   5.933   1.338 -0.0800  0.2159 -0.6330
22897SOL     OW71007   7.071   5.453   2.342 -0.1986  0.2453  0.6091
22897SOL    HW171008   7.014   5.408   2.280  1.3902 -1.3883  0.2543
22897SOL    HW271009   7.155   5.460   2.297  0.8340 -0.4611  2.3230
22898SOL     OW71010   7.495   6.895   3.778  0.0343  0.5474 -0.3637
22898SOL    HW171011   7.453   6.857   3.856 -1.0587  1.0697 -0.6721
22898SOL    HW271012   7.544   6.970   3.811 -1.0678  1.2474 -0.2504
22899SOL     OW71013   2.019   1.879   9.082  0.1795  0.3391 -0.3352
22899SOL    HW171014   2.033   1.872   9.177  1.2829  2.5589 -0.2838
22899SOL    HW271015   1.969   1.959   9.071 -0.5987 -0.2958 -1.6104
22900SOL     OW71016   0.158   7.769   0.950 -0.5040 -0.3377  0.2101
22900SOL    HW171017   0.181   7.862   0.940 -0.4685 -0.4909 -1.3176
22900SOL    HW271018   0.236   7.729   0.989  1.1165 -0.4504 -2.8838
22901SOL     OW71019   7.117   5.125   6.822  0.5000 -0.2401  0.0097
22901SOL    HW171020   7.082   5.209   6.852  1.2814 -0.5699  1.9965
22901SOL    HW271021   7.198   5.147   6.777 -0.1424  0.1757 -0.9925
22902SOL     OW71022   2.416   1.285   6.828  0.6946 -0.5522 -0.0482
22902SOL    HW171023   2.439   1.295   6.735 -0.7575  3.5145 -0.1703
22902SOL    HW271024   2.442   1.368   6.868 -1.2372 -1.1013  2.5833
22903SOL     OW71025   7.244   2.346   6.219  0.2235  0.3034  0.2380
22903SOL    HW171026   7.220   2.385   6.135  0.9441  0.3609  0.0506
22903SOL    HW271027   7.170   2.291   6.242 -0.5028  1.2193  0.1483
22904SOL     OW71028  10.504   6.450   3.703 -0.5214 -0.4128  0.2485
22904SOL    HW171029  10.439   6.448   3.633 -0.1889  1.7921 -0.1966
22904SOL    HW271030  10.469   6.513   3.766  0.8932  0.3731  0.2793
22905SOL     OW71031   8.697   5.341  10.414  0.2273 -0.5335  0.1960
22905SOL    HW171032   8.763   5.325  10.482  1.5217 -1.2268 -1.1455
22905SOL    HW271033   8.730   5.292  10.338  0.6080  2.8283 -1.9972
22906SOL     OW71034   3.831   9.629   8.395 -0.2853 -0.2671 -0.0626
22906SOL    HW171035   3.825   9.533   8.387 -2.1171 -0.2596  0.6861
22906SOL    HW271036   3.915   9.645   8.437  0.2843 -1.5115 -0.6824
22907SOL     OW71037   6.140   1.870   7.900 -0.1322 -0.1061 -0.2851
22907SOL    HW171038   6.137   1.938   7.967  0.3522  0.1322 -0.5047
22907SOL    HW271039   6.158   1.917   7.818  0.5090 -0.5265 -0.3918
22908SOL     OW71040   8.272   4.769   8.187  0.4193  0.3953  0.5047
22908SOL    HW171041   8.179   4.746   8.183  0.0610  1.5760  1.3317
22908SOL    HW271042   8.309   4.706   8.249 -0.1009  0.6568  1.1050
22909SOL     OW71043   0.068   0.819   1.235 -0.0452 -0.5980  0.0478
22909SOL    HW171044   0.101   0.825   1.145 -1.6229 -0.7452 -0.5782
22909SOL    HW271045  -0.008   0.876   1.236  0.7112  0.4636  1.7028
22910SOL     OW71046   5.573   4.241   9.858 -0.7299 -0.0568 -1.1849
22910SOL    HW171047   5.533   4.306   9.915  0.9422 -0.2075  0.2661
22910SOL    HW271048   5.502   4.211   9.802 -2.0687  1.3210 -0.3116
22911SOL     OW71049  10.541   5.036   8.153  0.2707 -0.4858  0.2064
22911SOL    HW171050  10.521   4.942   8.150 -0.8803 -0.2683  0.5871
22911SOL    HW271051  10.468   5.074   8.201  1.3099  0.4688  1.0593
22912SOL     OW71052   7.475  10.302   3.196  0.5426 -0.2357  0.3200
22912SOL    HW171053   7.420  10.325   3.121  0.0565 -0.4643  0.6011
22912SOL    HW271054   7.412  10.279   3.265  0.9864  0.0592  0.8228
22913SOL     OW71055   0.069   3.066   9.070 -0.4793 -0.1491 -0.2666
22913SOL    HW171056   0.067   3.160   9.089 -2.3929  0.0883 -1.3831
22913SOL    HW271057   0.022   3.057   8.987  0.8231 -1.9641 -0.8686
22914SOL     OW71058   1.960   6.281   0.809 -0.2094  0.3347  0.3107
22914SOL    HW171059   1.937   6.351   0.748  0.3499  1.3141  1.1897
22914SOL    HW271060   1.964   6.202   0.755 -0.4203  1.0563 -0.7852
22915SOL     OW71061   7.082   3.285   8.894 -0.4036  0.2695 -0.0475
22915SOL    HW171062   7.020   3.239   8.950 -0.6594 -2.3909 -2.2822
22915SOL    HW271063   7.142   3.216   8.863  0.8669  1.9365 -1.5150
22916SOL     OW71064   3.266   8.758   9.826 -0.2497 -0.1747  0.1050
22916SOL    HW171065   3.337   8.717   9.777  1.3234  1.9649  0.4335
22916SOL    HW271066   3.207   8.791   9.759  1.0005  1.2117 -0.3751
22917SOL     OW71067   0.939  10.171   0.278  0.1711  0.2973 -0.0823
22917SOL    HW171068   0.980  10.222   0.348  0.7345 -0.3172  0.0424
22917SOL    HW271069   0.847  10.167   0.302  0.5501 -0.8951  1.2535
22918SOL     OW71070   0.417  10.170   9.123  1.0843  0.3212 -0.3454
22918SOL    HW171071   0.510  10.189   9.110  1.5730 -0.8170  1.1257
22918SOL    HW271072   0.377  10.255   9.141  1.6186  0.9663 -2.0067
22919SOL     OW71073   4.181   9.046  10.229 -0.4636 -0.0447 -0.2636
22919SOL    HW171074   4.217   9.040  10.318 -0.4220  1.2545 -0.1696
22919SOL    HW271075   4.255   9.076  10.175 -0.1980 -1.8684 -0.9634
22920SOL     OW71076   0.462   6.899   3.166 -0.1993  0.1059  0.1304
22920SOL    HW171077   0.370   6.902   3.195  0.4230 -0.7101  2.3973
22920SOL    HW271078   0.499   6.980   3.199  0.3898 -0.5739  1.1968
22921SOL     OW71079   1.770   0.760   1.428  0.2390 -0.6161  0.5953
22921SOL    HW171080   1.755   0.730   1.338 -0.7850  0.7539  0.2699
22921SOL    HW271081   1.852   0.809   1.423  0.3395 -0.7966  0.4648
22922SOL     OW71082  10.077   5.372   7.221  0.4497  0.6687  0.1738
22922SOL    HW171083  10.039   5.400   7.304  2.1462  1.5072  0.7235
22922SOL    HW271084  10.120   5.289   7.240  0.3832  0.5937 -0.0001
22923SOL     OW71085   6.323   4.636   4.851  0.1871 -0.0084  1.1485
22923SOL    HW171086   6.300   4.543   4.847  0.2822 -0.0026 -1.2649
22923SOL    HW271087   6.252   4.676   4.900 -0.6150 -1.1575  0.9800
22924SOL     OW71088   6.643   2.321   3.332 -0.3016 -0.1994  0.2322
22924SOL    HW171089   6.709   2.386   3.306 -0.8826 -0.0281 -0.9104
22924SOL    HW271090   6.683   2.275   3.405  0.2312  1.2880  0.9357
22925SOL     OW71091   0.611   8.920  10.293  0.0638  0.2524 -0.2618
22925SOL    HW171092   0.663   8.989  10.334  0.3316 -0.8262  1.2670
22925SOL    HW271093   0.664   8.891  10.219  0.6817  0.5726  0.0470
22926SOL     OW71094   6.853   9.475   0.887  0.0272  0.2373  0.2368
22926SOL    HW171095   6.870   9.567   0.868 -1.8947  0.5731 -0.0550
22926SOL    HW271096   6.792   9.477   0.961  1.8588 -0.8948  1.8771
22927SOL     OW71097   7.897   8.548   2.572 -0.3593  0.0798 -0.6387
22927SOL    HW171098   7.893   8.497   2.652  0.4240 -0.6700 -1.0601
22927SOL    HW271099   7.956   8.621   2.592  0.5050 -0.5727 -0.7732
22928SOL     OW71100   7.318   3.668   5.353  0.0127  0.6525  0.5107
22928SOL    HW171101   7.292   3.743   5.407  0.2939  0.0198  1.5496
22928SOL    HW271102   7.245   3.608   5.359 -0.8561  1.4070 -1.5045
22929SOL     OW71103   9.103   1.971   4.239 -0.7311  0.0896 -0.4113
22929SOL    HW171104   9.184   2.003   4.202 -1.2495  1.4181 -0.4487
22929SOL    HW271105   9.114   1.980   4.334  0.2166 -2.3850 -0.2248
22930SOL     OW71106   0.676   2.940   7.291  0.5506  0.1594 -0.1392
22930SOL    HW171107   0.636   2.923   7.376 -0.4910  0.5051 -0.5385
22930SOL    HW271108   0.769   2.922   7.304  0.0668 -2.3848  0.3598
22931SOL     OW71109   8.321   1.655   7.210  0.4399 -0.1396 -0.3205
22931SOL    HW171110   8.343   1.746   7.230 -1.1866  0.3178 -0.4337
22931SOL    HW271111   8.366   1.637   7.127  1.8333  0.1102  0.3513
22932SOL     OW71112   7.287   6.757   3.980 -0.7457  0.0754  0.1420
22932SOL    HW171113   7.230   6.830   3.956 -1.0666  0.0324  0.7485
22932SOL    HW271114   7.228   6.693   4.019 -0.0191  1.0208  3.0382
22933SOL     OW71115   6.990   9.518   1.163 -0.3940 -0.0666 -0.6615
22933SOL    HW171116   6.919   9.582   1.160 -1.1392 -0.7882  0.8037
22933SOL    HW271117   6.947   9.436   1.184  0.8587 -0.5671  0.0242
22934SOL     OW71118   2.865   1.054  10.530  0.1997 -0.2427  0.0441
22934SOL    HW171119   2.838   0.996  10.459 -0.8585  0.0221  0.2261
22934SOL    HW271120   2.864   1.141  10.492 -0.5678 -0.0756  0.4309
22935SOL     OW71121   7.006   2.120   3.439 -0.3340 -0.6292  0.3220
22935SOL    HW171122   7.017   2.214   3.427  0.5723 -0.3874  2.5849
22935SOL    HW271123   6.986   2.087   3.352 -0.4351  1.6160 -0.5688
22936SOL     OW71124   5.086   9.116   6.364  0.7837  0.2129 -0.2989
22936SOL    HW171125   5.017   9.050   6.352  0.3773  0.8667 -1.7393
22936SOL    HW271126   5.047   9.180   6.424  0.7727 -0.2914  0.2361
22937SOL     OW71127   6.023   8.415   0.945  0.6003  0.1996 -0.5398
22937SOL    HW171128   6.018   8.320   0.954 -1.6249  0.0601 -2.4401
22937SOL    HW271129   5.984   8.448   1.026 -1.8040 -0.6385 -1.2540
22938SOL     OW71130   5.188   2.034   7.534  0.7205  0.4981 -0.0810
22938SOL    HW171131   5.163   2.109   7.588 -0.0948  1.2424 -1.4405
22938SOL    HW271132   5.141   1.960   7.572 -0.4020  1.1392 -0.1702
22939SOL     OW71133   7.683   4.279   3.406  0.0525  0.4174  0.1309
22939SOL    HW171134   7.773   4.283   3.374  0.0735  2.1923  0.2908
22939SOL    HW271135   7.691   4.300   3.500 -0.5580  1.0505  0.0468
22940SOL     OW71136  10.365   0.646   4.550 -0.2698  0.0579  0.5152
22940SOL    HW171137  10.455   0.615   4.556 -0.9869 -2.1086  1.0905
22940SOL    HW271138  10.359   0.716   4.615  1.3313  1.2237 -0.5328
22941SOL     OW71139  10.498   8.612   7.128 -0.1110 -0.3194 -0.1015
22941SOL    HW171140  10.568   8.642   7.186 -1.6533  2.1837  0.6373
22941SOL    HW271141  10.509   8.517   7.123  2.4910 -0.1528  1.0438
22942SOL     OW71142   1.246   5.184   4.580 -0.4098 -0.2107  0.1646
22942SOL    HW171143   1.287   5.117   4.634 -0.1456  1.3243  1.9453
22942SOL    HW271144   1.164   5.144   4.551  1.6069 -2.9040 -2.5011
22943SOL     OW71145   0.019   1.889   0.759 -0.5458  0.2862  0.3605
22943SOL    HW171146   0.072   1.870   0.837  0.0630  3.0318  0.7263
22943SOL    HW271147   0.083   1.913   0.692 -1.0593 -2.0882 -1.1090
22944SOL     OW71148   3.784   1.682   7.175  0.1048  0.6726  0.6289
22944SOL    HW171149   3.840   1.664   7.099  0.2399  1.4245  0.5449
22944SOL    HW271150   3.734   1.760   7.150  1.1929  1.8166  1.8455
22945SOL     OW71151   8.965   7.308   4.252 -0.2568  0.4396  0.1736
22945SOL    HW171152   9.004   7.387   4.289 -1.3637  1.1487 -0.1146
22945SOL    HW271153   9.040   7.256   4.222  0.4743  1.7304 -0.3279
22946SOL     OW71154   3.315   6.537   6.862  0.0963  0.2199  0.7056
22946SOL    HW171155   3.220   6.529   6.854  0.2591 -1.5642  0.0320
22946SOL    HW271156   3.328   6.599   6.934 -1.5776 -1.1766  2.2949
22947SOL     OW71157   8.907   7.990   0.107 -0.2389 -0.3595 -0.2432
22947SOL    HW171158   8.838   7.929   0.081  0.8671 -0.6870 -2.6496
22947SOL    HW271159   8.912   8.054   0.036  2.3794 -0.7635 -0.5327
22948SOL     OW71160   0.814   5.380   8.893  0.6165 -0.1224  0.5164
22948SOL    HW171161   0.835   5.288   8.883  0.9334 -0.0357  0.3623
22948SOL    HW271162   0.874   5.411   8.961 -0.2192 -0.2728  1.3314
22949SOL     OW71163   2.869   7.241   9.188 -0.0880 -0.6112 -0.0547
22949SOL    HW171164   2.927   7.309   9.221 -0.0233 -0.8093  0.2395
22949SOL    HW271165   2.922   7.162   9.187 -0.7857 -1.1513  1.7368
22950SOL     OW71166   8.214  10.362   5.381 -0.2835 -0.5052  0.2355
22950SOL    HW171167   8.227  10.406   5.297 -1.7488 -0.8805 -0.2271
22950SOL    HW271168   8.127  10.321   5.373  0.1095 -1.6483  1.4479
22951SOL     OW71169   0.737   5.160   3.898 -0.2147  0.7065 -0.1530
22951SOL    HW171170   0.739   5.115   3.813  0.8253 -1.8367  1.1205
22951SOL    HW271171   0.823   5.201   3.905  0.4439 -0.6977  0.4191
22952SOL     OW71172   1.133   7.879   4.514 -0.3069  0.9085  0.8667
22952SOL    HW171173   1.126   7.942   4.586 -1.0307  0.6992  0.9814
22952SOL    HW271174   1.111   7.795   4.553 -3.9898  1.1995 -0.2254
22953SOL     OW71175   4.577   9.482  10.447  0.7855  0.1875  0.0112
22953SOL    HW171176   4.594   9.500  10.540 -0.2679 -0.6780  0.3916
22953SOL    HW271177   4.650   9.523  10.401  1.2558  0.7459  1.2146
22954SOL     OW71178   6.434   3.743   3.586 -0.3791 -0.1381 -0.5046
22954SOL    HW171179   6.452   3.814   3.647 -1.0508  1.2756 -1.8926
22954SOL    HW271180   6.358   3.697   3.624  1.3009 -1.4765  1.4602
22955SOL     OW71181   5.490   4.935   6.117  0.1097  0.3966  0.1399
22955SOL    HW171182   5.494   4.899   6.029  0.6016 -1.0142  0.6991
22955SOL    HW271183   5.474   5.029   6.105 -0.9193  0.0441 -1.3921
22956SOL     OW71184   7.643   2.608   8.487  0.2260 -0.3735  0.2605
22956SOL    HW171185   7.589   2.685   8.471  1.3416  0.4260  0.2320
22956SOL    HW271186   7.683   2.624   8.572  0.6096 -0.8322  0.1710
22957SOL     OW71187   9.561   2.345   3.340  0.4018 -0.0334  0.1054
22957SOL    HW171188   9.645   2.377   3.309  1.5747 -2.0327  1.0057
22957SOL    HW271189   9.566   2.352   3.436  0.4204 -2.0262  0.3055
22958SOL     OW71190   4.370   6.268   1.045  0.5825 -0.2329  0.2935
22958SOL    HW171191   4.278   6.291   1.034  0.8464  0.5711 -0.3447
22958SOL    HW271192   4.400   6.246   0.956  0.8790 -0.9939  0.5744
22959SOL     OW71193   9.072   6.296   0.961  0.1191 -0.2037  0.6868
22959SOL    HW171194   8.991   6.253   0.986 -0.9352  0.0657 -1.9664
22959SOL    HW271195   9.135   6.224   0.950 -0.6094 -0.7358 -0.1277
22960SOL     OW71196   6.476   0.559   1.709  0.4827  0.1425 -0.1845
22960SOL    HW171197   6.491   0.558   1.614  0.5204  2.2926 -0.2449
22960SOL    HW271198   6.563   0.566   1.747  0.3669  1.0674 -0.0752
22961SOL     OW71199   7.114   4.021   2.080  0.1736  0.1911 -0.1128
22961SOL    HW171200   7.072   4.017   1.994  0.3818 -1.5579 -0.1591
22961SOL    HW271201   7.066   3.958   2.133  1.2393 -0.1251  0.5047
22962SOL     OW71202   2.984   9.959   6.996  0.2047 -0.1384 -0.5358
22962SOL    HW171203   2.967   9.994   6.909  1.9843 -0.3935 -1.0273
22962SOL    HW271204   3.029   9.876   6.980  0.1471 -0.4174  0.6358
22963SOL     OW71205   1.004   8.587   4.014  0.0630 -0.6436  0.2618
22963SOL    HW171206   0.995   8.497   3.982 -2.1267  0.2909 -2.1033
22963SOL    HW271207   0.925   8.602   4.066  0.7561 -0.2942  1.2303
22964SOL     OW71208   5.256   5.027   1.090 -1.1209 -0.2658  0.3480
22964SOL    HW171209   5.279   5.054   1.179  1.4718  0.5928 -0.4993
22964SOL    HW271210   5.264   4.932   1.092 -0.7556 -0.2326  0.9740
22965SOL     OW71211   2.683   1.959   7.664 -0.2944 -0.4011  0.1928
22965SOL    HW171212   2.632   1.881   7.644  0.4366 -0.2935 -2.4228
22965SOL    HW271213   2.755   1.927   7.719 -1.1738 -1.1622  0.9336
22966SOL     OW71214   9.612   9.133   6.550 -0.0794  0.7688 -0.6529
22966SOL    HW171215   9.588   9.132   6.643 -1.9117 -0.2272 -1.0923
22966SOL    HW271216   9.637   9.224   6.533 -0.6895  1.1910  0.5762
22967SOL     OW71217   4.217   1.816   4.977  0.4203  0.5171  0.6665
22967SOL    HW171218   4.241   1.750   4.912 -1.1321  1.6714 -1.1836
22967SOL    HW271219   4.279   1.888   4.962  0.9069  0.2545  1.3904
22968SOL     OW71220  10.072   7.737   4.202  0.1895 -0.2979  0.1509
22968SOL    HW171221  10.091   7.798   4.131  0.6752 -0.9770 -0.3168
22968SOL    HW271222   9.978   7.721   4.196  0.0408  0.4744  0.3428
22969SOL     OW71223   0.717   7.223   0.493  0.1759  0.3364 -0.4066
22969SOL    HW171224   0.803   7.238   0.454 -0.1709  2.4101 -0.4929
22969SOL    HW271225   0.734   7.170   0.571  1.6625  1.4524  0.0585
22970SOL     OW71226   0.718  10.012   8.145 -0.4942 -0.4057 -1.0735
22970SOL    HW171227   0.786   9.946   8.130 -0.1525 -0.1766 -0.5585
22970SOL    HW271228   0.706  10.013   8.240  1.0457  1.7752 -0.8349
22971SOL     OW71229   8.902   1.962   4.619 -0.2956 -0.2895  0.0695
22971SOL    HW171230   8.936   1.971   4.708 -0.2320  0.5155 -0.0243
22971SOL    HW271231   8.975   1.989   4.563 -0.5364 -0.1856 -0.1958
22972SOL     OW71232   1.747   0.264   6.146  0.8880 -0.2496  0.7279
22972SOL    HW171233   1.697   0.337   6.109  0.2658 -0.7937  0.4625
22972SOL    HW271234   1.838   0.293   6.143  0.8000 -0.0665 -0.7498
22973SOL     OW71235   1.091   8.897   3.525  0.3004 -0.3891 -0.4882
22973SOL    HW171236   1.071   8.804   3.531  0.6952 -0.4554 -0.1871
22973SOL    HW271237   1.014   8.935   3.482 -0.4622 -0.6519  0.6016
22974SOL     OW71238   2.119   8.917   7.834 -0.7940 -0.5897 -0.3477
22974SOL    HW171239   2.214   8.922   7.842 -0.8674  0.8168 -0.0729
22974SOL    HW271240   2.104   8.875   7.749  0.0395 -2.5191  0.4156
22975SOL     OW71241   3.836   6.166   2.134 -0.1507 -0.5709  0.4583
22975SOL    HW171242   3.863   6.192   2.046  0.0749 -1.3272  0.2924
22975SOL    HW271243   3.816   6.248   2.179  0.4011 -0.1313 -0.0828
22976SOL     OW71244   2.745   1.467   9.681  0.3223 -0.2500 -0.0466
22976SOL    HW171245   2.773   1.527   9.750  1.7812  0.6623 -1.3724
22976SOL    HW271246   2.824   1.450   9.631 -0.4856 -1.7438 -0.8808
22977SOL     OW71247   9.000   3.543   4.685  0.2543  0.6995 -0.1998
22977SOL    HW171248   9.028   3.461   4.646  0.0683  1.4045 -1.8977
22977SOL    HW271249   9.081   3.580   4.723  0.6651  0.4586 -0.8200
22978SOL     OW71250   2.829   6.811   5.487 -0.4396  0.1553  0.0844
22978SOL    HW171251   2.777   6.886   5.517  0.2571  0.8550 -0.4156
22978SOL    HW271252   2.793   6.736   5.534 -2.5668  0.4464 -0.9808
22979SOL     OW71253   2.242   9.339   3.448 -0.1508  0.7013  0.2012
22979SOL    HW171254   2.162   9.385   3.474  0.3532  1.0226  1.2434
22979SOL    HW271255   2.281   9.311   3.531 -0.9390 -2.5251 -0.3791
22980SOL     OW71256   4.508   4.016   5.752  0.4104  0.4408  0.4415
22980SOL    HW171257   4.599   4.018   5.780  0.9413 -0.5838 -1.0845
22980SOL    HW271258   4.462   3.967   5.820  1.5211 -1.3666 -0.0392
22981SOL     OW71259   1.680   3.836   2.496  0.2485  0.1807 -0.1727
22981SOL    HW171260   1.656   3.928   2.492 -0.1007  0.2079  1.6935
22981SOL    HW271261   1.633   3.795   2.424  0.0252  1.3722 -0.7202
22982SOL     OW71262   6.276   5.700   2.610  0.1702  0.9240  0.3209
22982SOL    HW171263   6.267   5.649   2.529  2.4821  1.6153 -0.4386
22982SOL    HW271264   6.221   5.777   2.596 -2.9341 -0.9536  1.2596
22983SOL     OW71265   4.612   8.357   6.359  0.4058 -0.0917  0.1008
22983SOL    HW171266   4.684   8.383   6.417  2.1438 -0.2561 -1.8525
22983SOL    HW271267   4.631   8.266   6.336 -0.8882 -0.3965  0.1746
22984SOL     OW71268   5.898   3.790   7.350 -0.4319  0.0338  0.3705
22984SOL    HW171269   5.876   3.845   7.275 -2.2763 -0.0467  0.8039
22984SOL    HW271270   5.875   3.843   7.426 -0.0341 -0.4727  0.8529
22985SOL     OW71271   8.102   6.452   9.635 -0.0747  0.4468 -0.0171
22985SOL    HW171272   8.107   6.367   9.679  0.1514  0.5348  0.1313
22985SOL    HW271273   8.176   6.501   9.671 -0.0143  0.5918 -0.3420
22986SOL     OW71274   1.527   3.878   3.128 -0.0889  0.1606 -0.1785
22986SOL    HW171275   1.583   3.953   3.111  1.4884 -1.3443 -2.2615
22986SOL    HW271276   1.444   3.899   3.084  0.2138  0.8258 -0.4384
22987SOL     OW71277   2.929   9.147   4.627 -0.0283 -0.1864  0.7281
22987SOL    HW171278   2.881   9.141   4.545 -1.1349 -1.1989  1.4170
22987SOL    HW271279   2.981   9.067   4.631  0.6208  0.2276  0.6554
22988SOL     OW71280   1.856   9.606   1.180 -0.2012  0.1344 -0.0640
22988SOL    HW171281   1.761   9.604   1.192 -0.2237  0.8432 -0.0887
22988SOL    HW271282   1.868   9.621   1.086 -0.0714  0.6463  0.0319
22989SOL     OW71283   9.147   5.627   6.679 -0.1046 -0.4783  0.0773
22989SOL    HW171284   9.102   5.610   6.761 -1.2882  0.0144 -0.4500
22989SOL    HW271285   9.201   5.704   6.697 -0.6502 -0.1399  0.2905
22990SOL     OW71286   4.003   3.647   0.896  0.2803  0.5052  0.1823
22990SOL    HW171287   3.969   3.707   0.830 -1.9446 -0.2496  0.5563
22990SOL    HW271288   3.988   3.692   0.979 -0.2466 -0.0338  0.3841
22991SOL     OW71289   8.308   9.067   0.650 -0.3708  0.2119  0.0475
22991SOL    HW171290   8.372   9.055   0.581 -0.2813 -0.9334  0.3068
22991SOL    HW271291   8.307   9.161   0.667 -0.2249  0.4796 -1.3376
22992SOL     OW71292   8.663   2.143   8.229  0.3447  0.2113 -0.0948
22992SOL    HW171293   8.707   2.223   8.259 -0.6039  0.6958  0.0252
22992SOL    HW271294   8.669   2.146   8.134 -1.0119  1.2078 -0.1692
22993SOL     OW71295   5.564   3.892   3.659 -0.2021  0.0679 -0.5977
22993SOL    HW171296   5.552   3.889   3.565 -0.6876 -1.3054 -0.5080
22993SOL    HW271297   5.490   3.945   3.691  0.2573  0.9819 -1.0084
22994SOL     OW71298   9.977   4.604   0.620 -0.0869 -0.1153  0.1899
22994SOL    HW171299   9.971   4.681   0.563  0.3937  0.5417  1.0121
22994SOL    HW271300   9.971   4.530   0.560 -0.3248  0.5587 -0.6398
22995SOL     OW71301   0.720   9.543   2.439 -0.0456  0.1602  0.6205
22995SOL    HW171302   0.702   9.510   2.527 -0.0100 -0.7944  0.2893
22995SOL    HW271303   0.693   9.471   2.381  1.1803  0.2360 -0.0739
22996SOL     OW71304   4.568   7.814   6.304  0.6501  0.5630  0.2631
22996SOL    HW171305   4.549   7.843   6.214 -0.1261  0.5849  0.4307
22996SOL    HW271306   4.509   7.740   6.318  0.7712  0.5593  0.7624
22997SOL     OW71307   2.209   9.836   8.483 -0.0285 -0.1494 -0.0496
22997SOL    HW171308   2.242   9.772   8.546  1.0038 -1.7516 -2.1029
22997SOL    HW271309   2.149   9.786   8.427  1.2594  0.4812 -2.0863
22998SOL     OW71310   3.237   3.593   7.227 -0.0397  0.0873 -0.1193
22998SOL    HW171311   3.247   3.532   7.154 -2.2029  1.3304 -1.5878
22998SOL    HW271312   3.247   3.539   7.305 -1.7751 -2.1602 -1.3347
22999SOL     OW71313   3.809   7.008   5.215 -0.1903  0.0359  0.4284
22999SOL    HW171314   3.827   6.940   5.280  1.9782 -0.6661 -0.8045
22999SOL    HW271315   3.867   7.080   5.239  2.7785 -1.2553 -2.1109
23000SOL     OW71316   2.092   0.764   0.859  0.4071  0.2869  0.1112
23000SOL    HW171317   2.096   0.685   0.804 -0.6097  0.5436 -0.3670
23000SOL    HW271318   2.124   0.834   0.803  1.1447  0.2546  0.4795
23001SOL     OW71319   6.433   9.242   2.532  0.0565 -0.6468 -0.3254
23001SOL    HW171320   6.518   9.264   2.494  0.1903  0.0501  0.3511
23001SOL    HW271321   6.376   9.316   2.507  0.4223  0.3793  1.6946
23002SOL     OW71322   6.587   8.545   2.398 -0.6908 -0.4443 -0.0062
23002SOL    HW171323   6.582   8.640   2.407 -0.5570 -0.5414  1.3337
23002SOL    HW271324   6.498   8.518   2.380 -0.4973  0.0397 -1.9671
23003SOL     OW71325   9.184   4.531   3.462 -0.0116  0.7940  0.4229
23003SOL    HW171326   9.197   4.497   3.373 -0.0949 -0.9135  1.0271
23003SOL    HW271327   9.229   4.468   3.518  0.1496  1.9300  1.5898
23004SOL     OW71328   2.659   0.438   8.887  0.0989 -0.1017  0.4344
23004SOL    HW171329   2.628   0.504   8.825  0.1535 -1.6674 -1.3468
23004SOL    HW271330   2.721   0.385   8.837  0.7496 -0.9682  2.0725
23005SOL     OW71331   7.910   6.022   4.882  0.4367 -0.1299 -0.1622
23005SOL    HW171332   7.980   5.965   4.913  0.4016  0.7583  1.6783
23005SOL    HW271333   7.956   6.093   4.836  0.6670 -0.1759 -0.0038
23006SOL     OW71334   2.505   2.024   8.900 -0.1899 -0.1103 -0.1529
23006SOL    HW171335   2.526   2.103   8.951  0.5334 -0.7253  0.5323
23006SOL    HW271336   2.431   1.985   8.946 -0.8536  0.4009 -0.7631
23007SOL     OW71337   3.368   9.596   0.581  0.7004  0.3417 -0.2151
23007SOL    HW171338   3.326   9.658   0.521 -0.3475 -1.2044 -1.1348
23007SOL    HW271339   3.296   9.544   0.616  1.5624 -0.3882  0.5153
23008SOL     OW71340   2.546   6.906   7.297 -0.7127  0.6903 -0.0945
23008SOL    HW171341   2.456   6.887   7.323 -0.7366 -0.3045 -0.8463
23008SOL    HW271342   2.541   6.990   7.253 -1.1467  0.9817  0.4880
23009SOL     OW71343   8.640   3.730   1.241 -0.3005  0.5405 -0.0741
23009SOL    HW171344   8.679   3.659   1.190 -0.1433  1.4622 -1.2771
23009SOL    HW271345   8.558   3.749   1.197 -1.8072 -0.8132  1.9523
23010SOL     OW71346   5.463   5.642   2.885  0.0232 -0.3150 -0.1729
23010SOL    HW171347   5.547   5.620   2.924  0.4136  0.4047 -0.5923
23010SOL    HW271348   5.415   5.686   2.955  0.5362  0.5339 -0.3460
23011SOL     OW71349   7.367   9.326   4.125  0.2186 -0.8552  0.3748
23011SOL    HW171350   7.300   9.319   4.192 -0.2853 -0.3277 -0.0670
23011SOL    HW271351   7.437   9.267   4.155 -0.4102 -1.3721  0.8644
23012SOL     OW71352   7.706   0.414   5.798 -0.0693 -0.5814  0.5177
23012SOL    HW171353   7.698   0.506   5.773 -0.5788 -1.1930 -1.8841
23012SOL    HW271354   7.784   0.383   5.751 -0.4867 -1.5943  0.4569
23013SOL     OW71355   8.648   5.997   2.241  0.0489  0.8948  0.3095
23013SOL    HW171356   8.644   6.092   2.232 -0.5686  0.8056 -0.6528
23013SOL    HW271357   8.635   5.964   2.151 -1.6286 -0.1121  0.8578
23014SOL     OW71358  10.501   4.034   1.735  0.0153 -0.5368  0.6295
23014SOL    HW171359  10.480   4.117   1.692  2.1131 -0.3118 -0.1018
23014SOL    HW271360  10.559   3.990   1.674  0.4201 -1.7201  1.8179
23015SOL     OW71361   9.826   8.158   3.188 -0.3777  0.1083 -0.0151
23015SOL    HW171362   9.862   8.081   3.232 -0.4186 -2.1094 -3.4705
23015SOL    HW271363   9.902   8.211   3.167  0.0951 -0.8047 -0.6950
23016SOL     OW71364   4.346   0.250   8.333 -0.2490  0.0158 -0.0843
23016SOL    HW171365   4.399   0.274   8.409  0.7947  1.3063 -1.1862
23016SOL    HW271366   4.314   0.333   8.298  0.1293 -0.4660 -1.6392
23017SOL     OW71367   3.127   5.562   0.798  0.0567  0.4620  0.0161
23017SOL    HW171368   3.143   5.620   0.872 -1.1444  2.6477 -1.3305
23017SOL    HW271369   3.086   5.484   0.836  0.1016  1.2334  1.7056
23018SOL     OW71370   2.872   3.233   2.011 -0.1832  1.1313  0.1221
23018SOL    HW171371   2.849   3.190   2.093  0.7867  1.2418  0.4659
23018SOL    HW271372   2.814   3.194   1.946 -0.0952  0.1177  0.6343
23019SOL     OW71373   1.161   8.910   3.957 -0.1205 -0.4427  0.2334
23019SOL    HW171374   1.136   8.874   4.042  1.0789 -0.8692  0.4333
23019SOL    HW271375   1.244   8.956   3.975 -0.5844  0.6825 -0.4279
23020SOL     OW71376   6.828   5.422  10.509  0.1659  0.0500 -0.1591
23020SOL    HW171377   6.846   5.432  10.602 -0.8705 -1.1291  0.1902
23020SOL    HW271378   6.911   5.444  10.466  0.7081  0.4170  1.0407
23021SOL     OW71379   7.590   9.343   4.775 -0.1733  0.0938  0.4866
23021SOL    HW171380   7.612   9.421   4.827 -0.0420 -0.4346  1.2496
23021SOL    HW271381   7.499   9.355   4.751 -0.3917  0.1114  1.2862
23022SOL     OW71382   8.671   2.502   6.416  0.2133  0.2828  0.2044
23022SOL    HW171383   8.610   2.574   6.400 -0.2693 -0.0494  0.5157
23022SOL    HW271384   8.722   2.529   6.492  0.4018  0.5254 -0.0056
23023SOL     OW71385   2.118   1.547   6.061  0.6848  0.2182 -0.1044
23023SOL    HW171386   2.088   1.459   6.039 -1.4748  0.7822  0.3757
23023SOL    HW271387   2.171   1.535   6.140  0.0985 -0.6211  0.1710
23024SOL     OW71388   2.385   0.612   7.526 -0.2096  0.0978 -0.0815
23024SOL    HW171389   2.450   0.542   7.522  0.1739  0.4671 -0.5917
23024SOL    HW271390   2.304   0.573   7.492  0.1687  0.0688 -0.9896
23025SOL     OW71391   5.901   0.595  10.207  0.2137 -0.7286 -0.0809
23025SOL    HW171392   5.969   0.661  10.220 -0.9624  0.8506 -1.4772
23025SOL    HW271393   5.835   0.639  10.154 -2.5758 -1.7349  2.2882
23026SOL     OW71394   2.611   4.072   3.708 -0.1564 -0.0403 -0.3574
23026SOL    HW171395   2.656   4.143   3.662  1.4091 -1.6033 -1.3742
23026SOL    HW271396   2.547   4.116   3.763  1.0160  2.1839 -0.6441
23027SOL     OW71397   2.607   8.548   5.161  0.2043 -0.1756  0.0713
23027SOL    HW171398   2.571   8.553   5.073  0.4948  0.4442 -0.0189
23027SOL    HW271399   2.540   8.502   5.212  0.2549 -0.9965 -0.5765
23028SOL     OW71400   1.364   1.919   1.732 -0.2213 -0.1846  0.1206
23028SOL    HW171401   1.309   1.983   1.688 -0.2341  0.5831  1.2216
23028SOL    HW271402   1.433   1.971   1.773 -0.0628 -0.8958  0.7737
23029SOL     OW71403   2.166   9.118   2.742 -0.4822  0.9057 -0.2407
23029SOL    HW171404   2.153   9.027   2.718  0.6941  0.2393  1.5162
23029SOL    HW271405   2.221   9.154   2.672  2.7139 -0.9278  1.1320
23030SOL     OW71406   3.060   1.355   1.194  0.4805 -0.2568 -0.1734
23030SOL    HW171407   3.140   1.302   1.201 -1.2456 -3.0868 -0.5118
23030SOL    HW271408   3.035   1.371   1.285  1.6435  1.0791 -0.0573
23031SOL     OW71409   2.710   9.280   5.030  0.1247  0.3150  0.0503
23031SOL    HW171410   2.651   9.355   5.023 -0.4011 -0.1299 -0.4304
23031SOL    HW271411   2.678   9.231   5.106 -0.4176 -0.1671 -0.4809
23032SOL     OW71412   6.981   4.431   7.851  0.3741  0.0013 -0.2874
23032SOL    HW171413   6.978   4.356   7.791  1.8729  0.8135 -1.4373
23032SOL    HW271414   6.999   4.393   7.936 -1.1848 -1.1269 -0.4023
23033SOL     OW71415   6.736   1.514   5.880  0.1968 -0.2129  0.5470
23033SOL    HW171416   6.773   1.439   5.928  2.7454  0.1216 -0.7145
23033SOL    HW271417   6.749   1.492   5.788  0.1329  1.3645  0.1383
23034SOL     OW71418  10.321   8.143   7.700 -0.3300 -0.1188 -0.6769
23034SOL    HW171419  10.415   8.125   7.702 -0.1948  0.5102  1.7899
23034SOL    HW271420  10.280   8.062   7.729 -0.2337  0.6456  1.9152
23035SOL     OW71421   5.824   0.131   2.728  0.2045 -0.3100 -0.8237
23035SOL    HW171422   5.912   0.153   2.758 -0.2254  0.8716 -0.3680
23035SOL    HW271423   5.768   0.197   2.769 -0.8953 -1.0502 -1.1014
23036SOL     OW71424   2.889   2.340   1.049  0.7783 -0.4928  0.0073
23036SOL    HW171425   2.879   2.424   1.004 -1.9541 -1.7444 -1.9777
23036SOL    HW271426   2.983   2.333   1.065  1.2050  2.5199 -0.5026
23037SOL     OW71427   3.628   2.207   9.375  0.2794  0.0222 -0.3200
23037SOL    HW171428   3.626   2.125   9.426  0.9625  1.1915  1.7331
23037SOL    HW271429   3.559   2.260   9.414  0.3574  0.7028 -1.0993
23038SOL     OW71430   5.752   3.136   7.886 -0.5309 -0.3390  0.0720
23038SOL    HW171431   5.765   3.167   7.796  0.9739  1.8573  0.9647
23038SOL    HW271432   5.664   3.164   7.909 -0.8380 -0.7119 -0.6397
23039SOL     OW71433  10.465   1.119   5.930 -0.1029  0.0044 -0.0856
23039SOL    HW171434  10.498   1.103   6.019 -1.8356  1.8123  0.9649
23039SOL    HW271435  10.416   1.039   5.908  1.7240 -1.1484 -0.1514
23040SOL     OW71436   3.443   7.172   4.692  0.7948  0.0093 -0.2411
23040SOL    HW171437   3.406   7.084   4.688  1.6941 -0.3536 -0.9926
23040SOL    HW271438   3.435   7.197   4.783 -1.3074 -0.0292 -0.3729
23041SOL     OW71439   3.386   8.059   9.499  0.4469  0.7211 -0.3528
23041SOL    HW171440   3.359   7.992   9.435  2.9349 -0.3419 -0.4114
23041SOL    HW271441   3.305   8.100   9.526 -1.0496 -1.2624 -1.5268
23042SOL     OW71442   3.768   8.921   3.227 -0.8203 -0.2780  0.0396
23042SOL    HW171443   3.771   8.858   3.155 -1.0379  0.9124 -1.0700
23042SOL    HW271444   3.778   9.006   3.184 -1.2373  0.4918  1.3960
23043SOL     OW71445   2.190   9.273   9.584  0.3625 -0.0805 -0.4251
23043SOL    HW171446   2.272   9.322   9.593 -0.6643  1.5671  0.3882
23043SOL    HW271447   2.196   9.203   9.649  0.8967  0.3494 -0.0038
23044SOL     OW71448   4.241   6.228   8.542 -0.3816 -0.2794  0.8915
23044SOL    HW171449   4.275   6.217   8.453 -0.3330  0.5429  0.7969
23044SOL    HW271450   4.248   6.141   8.582  1.3599 -0.2565  0.7126
23045SOL     OW71451   1.804   5.966   6.310  0.5484  0.1706  0.1442
23045SOL    HW171452   1.763   6.008   6.386  0.0774  1.0764 -0.5958
23045SOL    HW271453   1.830   6.038   6.253  0.8763 -0.4988 -0.5745
23046SOL     OW71454   1.578   7.235   0.270  0.3386 -0.2901 -0.2784
23046SOL    HW171455   1.671   7.253   0.278  0.5983 -0.7234 -2.0296
23046SOL    HW271456   1.572   7.142   0.249 -0.5497 -0.4401  0.5204
23047SOL     OW71457   2.159   8.637   0.684  0.4445  0.3214 -0.1239
23047SOL    HW171458   2.208   8.574   0.631  0.6953  1.0732 -0.8056
23047SOL    HW271459   2.187   8.619   0.774  1.7555  0.5299 -0.4704
23048SOL     OW71460   9.153   4.730   3.051  0.1317 -0.1281 -0.3023
23048SOL    HW171461   9.199   4.654   3.016 -0.1538  0.2183 -1.5055
23048SOL    HW271462   9.067   4.697   3.075  0.8594 -0.7047  1.6272
23049SOL     OW71463   4.525   5.922  10.293 -1.0053  0.2907  0.0173
23049SOL    HW171464   4.494   5.861  10.225 -1.2122  0.5827 -0.1513
23049SOL    HW271465   4.453   5.984  10.304 -1.9337 -1.0255  2.1096
23050SOL     OW71466  10.002   0.841   4.846  0.8987  0.7853 -0.2818
23050SOL    HW171467  10.072   0.837   4.912  0.0334 -0.5186  0.6063
23050SOL    HW271468   9.930   0.792   4.885 -0.8783  2.8812 -0.7892
23051SOL     OW71469   4.428   3.689   0.711 -0.4635  0.4062 -0.1120
23051SOL    HW171470   4.364   3.618   0.702  1.3609 -1.5263  1.1342
23051SOL    HW271471   4.403   3.733   0.792 -1.2507  0.8344 -0.5735
23052SOL     OW71472   4.948   5.517   4.624 -0.1346  0.4603  0.1857
23052SOL    HW171473   4.855   5.502   4.606  0.3974 -0.0475 -2.5797
23052SOL    HW271474   4.990   5.435   4.600  0.9817  0.4199  2.1550
23053SOL     OW71475   3.312   0.226   9.070  0.4878 -0.3875 -0.3846
23053SOL    HW171476   3.291   0.279   8.993  2.9142  0.8306 -0.3265
23053SOL    HW271477   3.406   0.239   9.082 -0.0293  0.8911  3.7795
23054SOL     OW71478   3.723   2.196   1.576 -0.4150 -0.4016 -0.1607
23054SOL    HW171479   3.747   2.277   1.621  0.0697  0.3678 -1.7214
23054SOL    HW271480   3.652   2.222   1.517 -0.9700 -1.3487  0.0798
23055SOL     OW71481   2.819   4.422   1.128 -0.7226 -0.1818 -0.1401
23055SOL    HW171482   2.745   4.463   1.084 -0.7534  0.8999  0.8518
23055SOL    HW271483   2.877   4.494   1.151  0.8964 -1.0529 -1.3009
23056SOL     OW71484   5.275   8.608   8.417  0.1201  0.3209  0.1214
23056SOL    HW171485   5.331   8.677   8.451 -1.2664  1.6826 -0.2455
23056SOL    HW271486   5.332   8.557   8.359  0.8658  2.0030 -0.6990
23057SOL     OW71487   8.926   9.585   5.347  0.1443  0.0960 -0.0814
23057SOL    HW171488   8.889   9.518   5.290 -0.2127  0.3709 -0.1800
23057SOL    HW271489   8.881   9.574   5.431  1.1778 -0.7752  0.3941
23058SOL     OW71490   0.672   4.738   0.371  0.3556 -0.0603  0.7392
23058SOL    HW171491   0.725   4.732   0.291  0.1296 -3.4269  0.6762
23058SOL    HW271492   0.583   4.716   0.342  0.1422 -0.6307  1.7911
23059SOL     OW71493   7.293   6.213  10.513  0.2507  0.4152  0.2897
23059SOL    HW171494   7.248   6.162  10.580 -1.1696  0.8978 -0.2555
23059SOL    HW271495   7.359   6.264  10.560  1.6804 -1.8345  0.8593
23060SOL     OW71496   1.228   4.742   0.729  0.1955  0.4058 -0.6981
23060SOL    HW171497   1.311   4.747   0.776  0.4130  0.6641 -1.1082
23060SOL    HW271498   1.172   4.690   0.787 -0.1048  2.1770  0.7000
23061SOL     OW71499   1.804   4.068   9.254 -0.2765 -0.1857 -0.2252
23061SOL    HW171500   1.898   4.072   9.273  0.7087  0.1426 -4.3349
23061SOL    HW271501   1.779   4.160   9.239 -0.7862 -0.4459 -1.0114
23062SOL     OW71502   0.517  10.247   4.910 -0.5990 -1.0488  0.2605
23062SOL    HW171503   0.487  10.308   4.977 -2.7468 -0.9795 -0.6633
23062SOL    HW271504   0.551  10.173   4.958  0.9852  0.3591  1.4077
23063SOL     OW71505   1.841   5.210   2.903  0.0892  0.2299 -0.0558
23063SOL    HW171506   1.780   5.248   2.839  0.8574 -1.4461 -1.8887
23063SOL    HW271507   1.911   5.173   2.850  0.0425 -2.5523  1.6547
23064SOL     OW71508   8.078   9.167   6.498 -0.3512 -0.1262  0.0775
23064SOL    HW171509   8.055   9.154   6.590  0.1363  0.1149  0.2399
23064SOL    HW271510   8.057   9.259   6.481 -1.6052 -0.4828 -0.4092
23065SOL     OW71511   7.840   0.912   0.589 -0.3326  0.1785 -0.4723
23065SOL    HW171512   7.819   0.820   0.570  1.2954 -0.1286 -0.8833
23065SOL    HW271513   7.866   0.912   0.681 -1.6877  0.4985 -0.0661
23066SOL     OW71514   6.168   3.686   9.100  0.3532 -0.1155 -0.1405
23066SOL    HW171515   6.159   3.750   9.029  0.8497  0.2772  0.1523
23066SOL    HW271516   6.241   3.718   9.153  0.4209 -0.7682  0.1714
23067SOL     OW71517   0.367   0.090   5.380  0.9097 -0.0709 -0.4998
23067SOL    HW171518   0.413   0.113   5.299 -1.1358  0.2312 -1.6613
23067SOL    HW271519   0.311   0.165   5.398  0.0828 -0.8337  0.2315
23068SOL     OW71520  10.332  10.282   3.082  0.0866 -0.2241  0.0545
23068SOL    HW171521  10.334  10.328   2.998  0.1966  0.0557  0.2106
23068SOL    HW271522  10.292  10.344   3.143  1.1219  0.0373  0.4878
23069SOL     OW71523   6.225   9.800   4.949 -0.1485 -0.1257 -0.2115
23069SOL    HW171524   6.266   9.848   4.877 -0.0089 -1.8240 -1.3178
23069SOL    HW271525   6.143   9.847   4.965  0.3880  0.9965 -0.6367
23070SOL     OW71526   8.201   0.411   2.568 -0.1765 -0.1193 -0.5006
23070SOL    HW171527   8.203   0.428   2.662  1.7332 -0.3115 -0.4663
23070SOL    HW271528   8.111   0.430   2.542 -0.8970 -0.6195  1.4555
23071SOL     OW71529   2.846   7.020   1.138  0.4763 -0.0363 -0.3460
23071SOL    HW171530   2.856   7.108   1.100  0.2986  0.0397 -0.2145
23071SOL    HW271531   2.832   6.963   1.062  0.2427  0.0989 -0.4059
23072SOL     OW71532   3.400   2.167   9.809 -0.1354  0.1460 -0.2317
23072SOL    HW171533   3.365   2.222   9.739 -0.6025 -1.8934 -1.7113
23072SOL    HW271534   3.323   2.133   9.854  0.1589  1.1419  1.0707
23073SOL     OW71535   6.783   2.879   8.743 -0.2103 -0.0350  0.3590
23073SOL    HW171536   6.869   2.883   8.701 -0.4506 -0.6130 -0.1981
23073SOL    HW271537   6.760   2.970   8.759  0.7023  0.1138  0.9286
23074SOL     OW71538   5.284   1.301   0.349 -0.7826  0.2447 -0.0108
23074SOL    HW171539   5.227   1.234   0.312 -0.7948  0.4205 -0.3119
23074SOL    HW271540   5.233   1.338   0.421 -1.0539  0.4056 -0.2834
23075SOL     OW71541   9.570   8.009   1.624  0.4516  0.3982  0.8629
23075SOL    HW171542   9.549   8.102   1.625 -1.7109 -0.0545  1.0566
23075SOL    HW271543   9.528   7.975   1.546  0.4066 -0.5858  1.3026
23076SOL     OW71544   7.578   2.317   3.151  0.7874  0.6787  0.0836
23076SOL    HW171545   7.661   2.343   3.110  0.7524  0.4142 -0.1495
23076SOL    HW271546   7.548   2.397   3.195 -0.3836  1.6946 -2.3629
23077SOL     OW71547   8.667   0.380   6.958 -0.1888 -0.2349 -0.5829
23077SOL    HW171548   8.733   0.388   7.027 -0.9729  0.4630  0.1321
23077SOL    HW271549   8.646   0.287   6.955  0.0282 -0.3087 -0.0225
23078SOL     OW71550   0.842   6.586  10.211 -0.7124 -0.2309  0.3125
23078SOL    HW171551   0.874   6.577  10.301  1.0932 -0.1654 -0.2932
23078SOL    HW271552   0.796   6.504  10.194 -1.2834 -0.1516  1.3501
23079SOL     OW71553   6.595   2.590   8.468 -0.1514  0.1176  0.5493
23079SOL    HW171554   6.509   2.589   8.426 -0.1193 -0.1754  0.4860
23079SOL    HW271555   6.652   2.544   8.406 -0.0546 -0.1244  0.8168
23080SOL     OW71556   0.407   0.496   8.721 -0.1825  0.4484 -0.1871
23080SOL    HW171557   0.476   0.519   8.783 -1.7873 -0.1384  1.9512
23080SOL    HW271558   0.427   0.406   8.696  1.1740  1.1000 -1.5845
23081SOL     OW71559   8.300   4.535   4.615 -0.0169  0.3130 -0.4825
23081SOL    HW171560   8.312   4.543   4.709 -0.4170  0.2692 -0.4264
23081SOL    HW271561   8.261   4.619   4.589  0.6358  0.5558 -0.7001
23082SOL     OW71562   3.683   6.377   8.703 -0.4127 -0.4189 -0.6625
23082SOL    HW171563   3.601   6.360   8.748  0.6062 -1.4041  0.9336
23082SOL    HW271564   3.749   6.332   8.755  0.9856 -0.8593 -2.6892
23083SOL     OW71565   6.227   5.562   9.224 -0.0224  0.0942 -0.1685
23083SOL    HW171566   6.186   5.500   9.164  1.0941 -1.7927  0.9352
23083SOL    HW271567   6.175   5.557   9.304  1.0968 -0.7646  0.5248
23084SOL     OW71568   9.229   1.233   0.860  0.5827  0.0640 -0.1219
23084SOL    HW171569   9.321   1.253   0.871  0.5599 -0.0707  0.2999
23084SOL    HW271570   9.195   1.306   0.808  0.8138  0.3703  0.1584
23085SOL     OW71571   9.283   1.230   2.075 -0.5269  0.4291 -0.2526
23085SOL    HW171572   9.268   1.320   2.047  1.0448  0.6784 -0.3518
23085SOL    HW271573   9.247   1.226   2.164 -1.3300  0.9053 -0.5444
23086SOL     OW71574   2.612   1.685   7.271  1.1691  0.1985  0.7698
23086SOL    HW171575   2.536   1.741   7.258  0.4086 -0.8511  0.5012
23086SOL    HW271576   2.670   1.706   7.197  0.6770  0.2958  0.4048
23087SOL     OW71577   8.618   3.597   0.718 -0.0762 -0.5322  0.1451
23087SOL    HW171578   8.585   3.533   0.782 -1.6244 -0.1700 -0.2353
23087SOL    HW271579   8.688   3.551   0.671  0.4888 -1.0916  1.5023
23088SOL     OW71580   8.524   3.951   3.187 -0.1949 -0.6317 -0.4075
23088SOL    HW171581   8.517   3.883   3.254 -0.7068 -0.2949 -0.1107
23088SOL    HW271582   8.613   3.986   3.196  0.0838 -1.2798 -0.5865
23089SOL     OW71583   6.063   0.120   5.338 -0.1900 -0.4759 -0.0605
23089SOL    HW171584   6.120   0.171   5.280 -1.3395 -1.0721 -1.7840
23089SOL    HW271585   5.999   0.184   5.371  0.2296 -0.2144  0.2575
23090SOL     OW71586   8.869   3.279   9.696 -0.3587 -0.5991 -0.3422
23090SOL    HW171587   8.872   3.256   9.789  1.3536 -1.6315 -0.5988
23090SOL    HW271588   8.777   3.292   9.677 -0.6534  1.1878  1.8454
23091SOL     OW71589   4.248   6.929   4.377 -0.3726  0.2876 -0.4887
23091SOL    HW171590   4.288   6.847   4.347  0.3838  1.2458 -2.2362
23091SOL    HW271591   4.280   6.940   4.467  0.9931 -0.4204 -0.8666
23092SOL     OW71592   0.649   3.098   0.384  0.3082  0.5530  0.2095
23092SOL    HW171593   0.738   3.109   0.350  0.3503  1.9545  0.6933
23092SOL    HW271594   0.592   3.119   0.311  0.3662 -0.2289 -0.0677
23093SOL     OW71595   0.436   3.554   2.334  0.6513  0.1592  0.2044
23093SOL    HW171596   0.463   3.463   2.320  0.6644  0.4724 -2.4116
23093SOL    HW271597   0.348   3.548   2.369  1.2558 -0.8407  1.6290
23094SOL     OW71598   2.717   4.551   8.298 -0.4896  0.5560 -0.0219
23094SOL    HW171599   2.667   4.558   8.380 -0.8461 -0.0409 -0.1849
23094SOL    HW271600   2.809   4.561   8.326 -0.4507 -1.4787  0.7269
23095SOL     OW71601   4.111   6.733  10.144 -0.2350 -0.0242  0.5249
23095SOL    HW171602   4.015   6.738  10.141 -0.2278  0.1024  0.4978
23095SOL    HW271603   4.140   6.792  10.074 -0.1428 -0.3231  0.3049
23096SOL     OW71604   1.401   2.532  10.140 -0.1327 -0.0337 -0.0881
23096SOL    HW171605   1.366   2.612  10.180  1.9500 -0.2492  2.4420
23096SOL    HW271606   1.486   2.558  10.105  0.3396 -0.9891  0.3072
23097SOL     OW71607   9.642   4.865   4.817 -0.4275  0.0100  0.8364
23097SOL    HW171608   9.679   4.823   4.895  0.0490  0.8512  1.0731
23097SOL    HW271609   9.686   4.822   4.744  1.0273  0.9609  1.1125
23098SOL     OW71610   2.145   4.192   6.208  0.3471  0.0030  0.2438
23098SOL    HW171611   2.106   4.157   6.288 -0.9407 -1.5304 -0.9820
23098SOL    HW271612   2.213   4.252   6.239 -2.1616  1.9303  2.5034
23099SOL     OW71613   2.035   7.842   0.710  0.4658 -0.1311  0.3633
23099SOL    HW171614   2.082   7.760   0.694 -1.9981 -1.5951  0.0989
23099SOL    HW271615   2.050   7.895   0.632 -0.1355 -1.5184 -0.7459
23100SOL     OW71616   6.354   0.192   1.988  0.4842  0.0459 -0.3961
23100SOL    HW171617   6.342   0.279   2.027 -0.2839  0.5123 -1.6379
23100SOL    HW271618   6.323   0.201   1.898  0.7602 -1.4222 -0.6622
23101SOL     OW71619   9.549   6.254  10.130  0.1136 -0.2338  0.3549
23101SOL    HW171620   9.590   6.244  10.044  2.2382  1.4923  1.0655
23101SOL    HW271621   9.618   6.232  10.192 -0.9679 -0.1461  1.6277
23102SOL     OW71622   1.562   0.367   0.091 -0.2317 -0.1144  0.0257
23102SOL    HW171623   1.533   0.457   0.082 -0.8772 -0.5502 -3.7127
23102SOL    HW271624   1.651   0.365   0.056 -0.4666 -1.0035 -0.5784
23103SOL     OW71625   7.250   5.644   1.198  0.2610  0.0836 -0.1866
23103SOL    HW171626   7.192   5.580   1.156 -1.0205  1.3585 -0.4151
23103SOL    HW271627   7.311   5.670   1.128 -0.2583  0.3244 -0.5527
23104SOL     OW71628   4.060   9.954   2.080  0.1295  0.2463 -0.4813
23104SOL    HW171629   4.156   9.958   2.080  0.1116  1.5985 -2.0024
23104SOL    HW271630   4.037   9.942   1.988 -1.1431 -2.5710  0.1083
23105SOL     OW71631   2.474   9.378   8.946 -0.0859  0.4264 -0.1751
23105SOL    HW171632   2.473   9.432   9.025  1.0962  0.3175 -0.0708
23105SOL    HW271633   2.480   9.441   8.874  1.2968  0.4654 -0.0537
23106SOL     OW71634   7.008   4.456   0.925  0.5399 -0.5457 -0.4325
23106SOL    HW171635   6.916   4.470   0.901  0.4648  1.5248  0.8493
23106SOL    HW271636   7.040   4.392   0.861 -1.2516  0.1526 -2.1181
23107SOL     OW71637   4.763   9.684   9.300 -0.3331 -0.4535  0.2033
23107SOL    HW171638   4.763   9.738   9.379  3.5610 -0.2736  0.2572
23107SOL    HW271639   4.752   9.595   9.331  0.5071 -0.3205  0.9188
23108SOL     OW71640   8.105   0.680   7.795  0.3280  0.1831 -0.3871
23108SOL    HW171641   8.143   0.759   7.755 -0.2978  0.2562 -0.8499
23108SOL    HW271642   8.045   0.714   7.862  1.0343  0.0695  0.3108
23109SOL     OW71643   8.214   3.786   5.860  0.2689 -0.1111  0.5635
23109SOL    HW171644   8.125   3.792   5.895 -0.1308 -0.4968 -0.3650
23109SOL    HW271645   8.206   3.812   5.769  0.8497 -1.4517  0.1034
23110SOL     OW71646   8.224   1.094   9.570  0.0724 -0.0781  0.2669
23110SOL    HW171647   8.211   1.075   9.477  1.0611 -0.0642  0.1115
23110SOL    HW271648   8.315   1.070   9.587 -0.5478 -1.6408  1.6344
23111SOL     OW71649   8.888   2.681   9.237 -0.6565  0.4887  0.2502
23111SOL    HW171650   8.800   2.691   9.272 -0.5829 -0.5699  0.7651
23111SOL    HW271651   8.883   2.607   9.177 -0.1580  0.5232  0.1557
23112SOL     OW71652   8.917   5.707   2.717  0.2688  0.7301 -0.6012
23112SOL    HW171653   8.904   5.669   2.804  0.5556  0.0855 -0.8341
23112SOL    HW271654   8.839   5.759   2.701 -0.4782 -0.3546 -0.5789
23113SOL     OW71655   3.483   6.592   8.109 -0.3215 -0.2995  0.1430
23113SOL    HW171656   3.459   6.552   8.193  1.6688 -0.8031  0.5256
23113SOL    HW271657   3.404   6.586   8.056 -1.4669 -0.4479  1.8018
23114SOL     OW71658   8.053   0.500   8.571  0.0734 -0.1518  0.2476
23114SOL    HW171659   8.022   0.420   8.615  1.3760 -1.4895 -1.1428
23114SOL    HW271660   8.134   0.523   8.617 -0.5438  0.6956  0.9547
23115SOL     OW71661   0.865  10.518   5.977  0.7167  0.0466 -0.1982
23115SOL    HW171662   0.774  10.513   6.004  1.0443  0.1728  0.9555
23115SOL    HW271663   0.904  10.585   6.033  1.8210 -0.9140  0.2341
23116SOL     OW71664   5.912   5.111   4.174 -0.0052 -0.1831 -0.3618
23116SOL    HW171665   5.981   5.161   4.219  0.4568 -0.1464 -1.0918
23116SOL    HW271666   5.936   5.019   4.187 -0.4617 -0.1997  0.3740
23117SOL     OW71667   2.762   8.868   8.103 -0.0603 -0.2755  0.5658
23117SOL    HW171668   2.795   8.925   8.171 -0.8775 -1.5011  2.0663
23117SOL    HW271669   2.825   8.796   8.098 -1.5620 -1.8529  2.3967
23118SOL     OW71670  10.488   1.383   9.543  0.1246  0.0434 -0.2957
23118SOL    HW171671  10.487   1.457   9.482 -1.8302 -0.6187 -1.1290
23118SOL    HW271672  10.463   1.422   9.627  0.9728  0.6330 -0.3006
23119SOL     OW71673   4.965   6.693   6.273 -0.3234  0.1509  0.7865
23119SOL    HW171674   5.033   6.626   6.271 -0.9652 -0.5114 -0.9149
23119SOL    HW271675   5.000   6.761   6.330  1.8439 -0.1002 -0.1188
23120SOL     OW71676   6.460   4.261  10.552  0.4528 -0.0102  0.2914
23120SOL    HW171677   6.486   4.342  10.508  0.6949 -0.5162 -0.5065
23120SOL    HW271678   6.410   4.212  10.487  1.4033 -1.0762  0.3253
23121SOL     OW71679  10.033   4.488   1.059  0.0911 -0.4407  0.2708
23121SOL    HW171680   9.944   4.519   1.043  0.5907  0.8780 -0.1806
23121SOL    HW271681  10.034   4.462   1.151 -0.2764  1.3493  0.8154
23122SOL     OW71682   8.195   8.973   0.347 -1.2228  0.1965  0.1465
23122SOL    HW171683   8.222   9.018   0.428 -2.8252 -1.2145  1.5334
23122SOL    HW271684   8.166   9.044   0.290  1.1208  1.3594  0.2442
23123SOL     OW71685   3.804   9.166   5.669  0.2957  0.1070 -0.9364
23123SOL    HW171686   3.715   9.167   5.634 -1.1795  1.4598  2.3553
23123SOL    HW271687   3.797   9.116   5.750  1.9062  2.2573  0.6529
23124SOL     OW71688   0.150   4.182   1.416 -0.0548  0.2033  0.1259
23124SOL    HW171689   0.183   4.225   1.337 -1.3663  1.7923  0.3887
23124SOL    HW271690   0.205   4.217   1.487 -1.7206  2.3450  0.4740
23125SOL     OW71691   2.702   9.753   9.213 -0.2286 -0.4885  0.3269
23125SOL    HW171692   2.782   9.704   9.193  0.8805  1.3151  0.1625
23125SOL    HW271693   2.708   9.831   9.158 -1.0930  0.6662  1.8195
23126SOL     OW71694   3.374   0.059   7.729  0.2665 -0.1539 -0.1667
23126SOL    HW171695   3.350   0.010   7.808 -1.4322  0.5209 -0.2057
23126SOL    HW271696   3.381  -0.007   7.661 -0.3238 -0.5374  0.1336
23127SOL     OW71697  10.126   9.909   0.179  0.6394 -0.1375  0.0995
23127SOL    HW171698  10.127   9.958   0.097 -2.3866  1.1441  0.6772
23127SOL    HW271699  10.153   9.821   0.155 -1.1510 -0.0720 -2.5430
23128SOL     OW71700   0.148   2.206   5.830 -0.4589  0.0703 -0.5651
23128SOL    HW171701   0.159   2.167   5.917  1.1659 -0.8611 -1.1553
23128SOL    HW271702   0.174   2.137   5.769 -0.5214  1.0658 -1.7669
23129SOL     OW71703   6.888   3.234   5.409 -0.5529  0.2017  0.8188
23129SOL    HW171704   6.846   3.297   5.351  0.6390  0.0488 -0.2737
23129SOL    HW271705   6.844   3.151   5.391  0.3733 -0.0288 -0.5678
23130SOL     OW71706   7.501   7.173   4.895  1.1371 -0.0424 -0.0537
23130SOL    HW171707   7.494   7.246   4.833 -0.4046  2.0343  2.3286
23130SOL    HW271708   7.585   7.186   4.939  1.0100  0.1094  0.1458
23131SOL     OW71709   2.502   9.560   8.250 -0.4969  0.2497 -0.1586
23131SOL    HW171710   2.512   9.485   8.192 -1.8395 -0.3320  0.3239
23131SOL    HW271711   2.445   9.620   8.202 -3.4406 -1.1587  1.2807
23132SOL     OW71712   5.201   4.475   0.071  0.3157  0.1250  0.6842
23132SOL    HW171713   5.263   4.408   0.042 -0.4603  0.3138 -1.6348
23132SOL    HW271714   5.209   4.545   0.006 -2.2312  0.1847  0.3227
23133SOL     OW71715   3.417   6.143   2.392 -0.2354  0.3773 -0.2559
23133SOL    HW171716   3.404   6.105   2.305 -0.2544  1.2909 -0.6611
23133SOL    HW271717   3.449   6.231   2.375 -2.7551  1.5558  0.5910
23134SOL     OW71718  10.514   9.137   0.226  0.0664 -0.4314 -0.0520
23134SOL    HW171719  10.516   9.206   0.159 -0.0177 -1.4185 -1.1006
23134SOL    HW271720  10.602   9.138   0.263  0.1364  0.0788 -0.2200
23135SOL     OW71721   1.568   3.005  10.064  0.1745 -0.2791  0.4355
23135SOL    HW171722   1.541   2.946   9.994  1.1884 -1.1621  0.7471
23135SOL    HW271723   1.488   3.027  10.111 -0.4548  0.0066 -0.7509
23136SOL     OW71724  10.431   8.209   6.064 -0.2088 -0.0786  0.6337
23136SOL    HW171725  10.396   8.223   6.152 -1.3730  2.5182 -0.1391
23136SOL    HW271726  10.354   8.185   6.012  0.2694 -0.4871  0.1149
23137SOL     OW71727   0.350   0.454   7.257  0.4433  0.0578  0.1328
23137SOL    HW171728   0.351   0.359   7.268  1.9689  0.2256  1.9090
23137SOL    HW271729   0.439   0.476   7.230 -0.0245  0.9566 -0.7245
23138SOL     OW71730   3.455   2.674   9.147 -0.4027 -0.2887 -0.2889
23138SOL    HW171731   3.520   2.664   9.078 -2.2418 -0.2863 -2.1262
23138SOL    HW271732   3.393   2.602   9.131 -0.8029 -0.3628  1.4558
23139SOL     OW71733   8.689   5.035   3.920 -0.0712  0.5542  0.1210
23139SOL    HW171734   8.680   5.126   3.893  0.2532  0.3610 -0.6861
23139SOL    HW271735   8.641   4.985   3.854 -1.6129  0.2332  1.4337
23140SOL     OW71736   1.958   9.929   8.259 -0.9894  0.0457  0.8171
23140SOL    HW171737   1.887   9.900   8.202  1.0281 -2.4971 -0.6237
23140SOL    HW271738   1.965   9.861   8.326  0.5173 -0.1908  0.4665
23141SOL     OW71739   2.574   8.397   2.678  0.2034 -0.0315  0.2048
23141SOL    HW171740   2.593   8.319   2.730  0.5790  0.5592  0.9739
23141SOL    HW271741   2.587   8.370   2.588 -1.3221 -1.3368  0.3223
23142SOL     OW71742   1.605   1.247   9.370  0.3269  0.7403  0.2154
23142SOL    HW171743   1.513   1.275   9.373 -0.3345 -0.9668 -1.5595
23142SOL    HW271744   1.607   1.168   9.423  0.6744  0.5743 -0.0403
23143SOL     OW71745   1.103   4.615   2.313  0.2737  0.1625 -0.0157
23143SOL    HW171746   1.162   4.579   2.246  0.5623  1.6859 -0.6185
23143SOL    HW271747   1.161   4.664   2.371  0.0053 -1.0342  1.3207
23144SOL     OW71748   8.160   3.445   2.147 -0.1925  0.5449 -0.2649
23144SOL    HW171749   8.206   3.517   2.103 -1.0616  0.3477 -1.5448
23144SOL    HW271750   8.223   3.414   2.212  0.9975  1.1182 -1.0891
23145SOL     OW71751   0.856   9.159   5.229  0.1037  0.8991 -0.2431
23145SOL    HW171752   0.923   9.203   5.281 -1.3885  0.5957  2.1139
23145SOL    HW271753   0.880   9.066   5.233  0.9235  1.0347 -1.6046
23146SOL     OW71754   6.969   4.677   1.382 -0.1764 -0.1018  0.4230
23146SOL    HW171755   6.911   4.699   1.309 -0.6699 -0.2704  0.7553
23146SOL    HW271756   7.035   4.618   1.344  1.6425  2.4789 -0.6687
23147SOL     OW71757   7.226  10.381   6.426 -0.1015  1.1650 -0.1953
23147SOL    HW171758   7.174  10.373   6.506 -0.6762 -0.6272 -0.7040
23147SOL    HW271759   7.202  10.466   6.390 -2.6223  0.4709 -0.3389
23148SOL     OW71760   0.405   4.981  10.374 -0.0350 -0.1767 -0.6428
23148SOL    HW171761   0.471   4.965  10.307 -0.0256 -1.9269 -0.2720
23148SOL    HW271762   0.324   4.944  10.338 -0.4095  0.3222 -0.3406
23149SOL     OW71763   9.189   5.500   4.610 -0.0804 -0.4568 -0.2043
23149SOL    HW171764   9.168   5.593   4.615  0.4943 -0.2797 -0.9481
23149SOL    HW271765   9.280   5.494   4.641 -0.7309 -1.0385  1.7269
23150SOL     OW71766   1.660   2.496   4.821  0.4851 -0.0150 -0.4992
23150SOL    HW171767   1.728   2.518   4.757  0.0607 -0.0537 -0.9718
23150SOL    HW271768   1.696   2.524   4.905  0.8191  0.5550 -0.8247
23151SOL     OW71769   5.193   8.583   6.130  0.3117  0.0903  0.0686
23151SOL    HW171770   5.193   8.675   6.104 -0.6559 -0.6664 -3.2043
23151SOL    HW271771   5.263   8.543   6.078 -1.6472 -1.5750 -1.4700
23152SOL     OW71772   7.434   1.167   1.954 -0.2973  0.0870 -0.2423
23152SOL    HW171773   7.409   1.120   2.033  1.0810 -0.0808  0.1133
23152SOL    HW271774   7.506   1.224   1.981  1.1436 -0.9694 -1.6436
23153SOL     OW71775   7.954   7.624   3.722 -0.1426 -0.2924 -0.3118
23153SOL    HW171776   8.045   7.595   3.726 -0.3583 -1.4755 -2.4382
23153SOL    HW271777   7.908   7.568   3.785  0.8387  1.6820  2.3137
23154SOL     OW71778   3.698   2.436  10.575  0.2460  0.0899  0.3719
23154SOL    HW171779   3.679   2.529  10.569 -0.7151 -0.2093 -2.9312
23154SOL    HW271780   3.794   2.430  10.575  0.3166  1.0361 -0.9244
23155SOL     OW71781   9.882   6.857   0.136  0.0699 -0.1065  0.2540
23155SOL    HW171782   9.878   6.825   0.227 -1.3154  0.1688  0.3082
23155SOL    HW271783   9.823   6.799   0.088  1.6246 -0.9446 -0.7174
23156SOL     OW71784   9.461   2.371   9.722 -0.3747  0.1430 -0.0443
23156SOL    HW171785   9.407   2.392   9.798  0.2270 -0.6706  0.6281
23156SOL    HW271786   9.543   2.417   9.737  0.0605 -0.7058  0.2346
23157SOL     OW71787   8.268   9.445   7.158  0.7545 -0.1126 -0.4312
23157SOL    HW171788   8.281   9.505   7.085  0.4405  0.7380  0.1963
23157SOL    HW271789   8.247   9.361   7.117  1.0918  0.2262 -1.3214
23158SOL     OW71790   5.452   4.050   3.240 -0.6312 -0.0743  0.1831
23158SOL    HW171791   5.452   4.087   3.151 -1.3489 -0.0751  0.1761
23158SOL    HW271792   5.394   4.108   3.289  0.2509  0.2863  0.8125
23159SOL     OW71793   4.373   8.682   9.276 -0.1130 -0.9255  0.0192
23159SOL    HW171794   4.400   8.652   9.189  0.4380 -2.3079  0.6265
23159SOL    HW271795   4.442   8.744   9.302 -1.0313  0.6391 -1.0720
23160SOL     OW71796   0.629   9.644   5.298 -0.2225 -0.7438 -0.2196
23160SOL    HW171797   0.592   9.732   5.294  0.3928 -0.4939 -0.6143
23160SOL    HW271798   0.588   9.597   5.225  1.3304 -0.0188 -1.6206
23161SOL     OW71799   1.115   5.532   3.928  0.2423  0.1386 -0.5063
23161SOL    HW171800   1.026   5.560   3.947  0.7926  1.7875 -0.1738
23161SOL    HW271801   1.168   5.611   3.942  1.6317 -0.5678 -1.5776
23162SOL     OW71802   0.117   3.093   4.932  0.4117 -0.0146  0.7299
23162SOL    HW171803   0.040   3.107   4.876  0.4146 -2.4706 -0.0059
23162SOL    HW271804   0.180   3.050   4.875  2.9355  3.0656  0.9557
23163SOL     OW71805   2.869   1.710   0.018 -0.7783  0.0696  0.4642
23163SOL    HW171806   2.854   1.752   0.102  1.0062 -0.4640  1.0945
23163SOL    HW271807   2.906   1.624   0.041  0.0811  0.0639 -0.8607
23164SOL     OW71808   5.849   2.178  10.577 -0.5206 -0.6043  0.5426
23164SOL    HW171809   5.763   2.138  10.586 -0.2719 -1.4870 -0.6969
23164SOL    HW271810   5.853   2.208  10.487 -0.4689  1.7890  1.2648
23165SOL     OW71811   7.423   0.348   8.171  0.1282  0.6874  0.1938
23165SOL    HW171812   7.408   0.434   8.133  1.0990  0.1715 -1.4854
23165SOL    HW271813   7.390   0.287   8.105  2.5807 -0.2681 -0.2346
23166SOL     OW71814   2.042   7.253   9.176  0.3165 -0.0761  0.2646
23166SOL    HW171815   1.972   7.300   9.130 -0.2871 -1.2618 -0.0926
23166SOL    HW271816   2.118   7.263   9.119 -0.4837 -1.7398 -1.2187
23167SOL     OW71817  10.305   8.323   4.255  0.3536  0.8081  0.3666
23167SOL    HW171818  10.357   8.249   4.286 -0.7123  0.0689  0.4352
23167SOL    HW271819  10.246   8.343   4.328 -1.8200 -0.6083 -0.9036
23168SOL     OW71820   0.240   6.055   1.794 -0.2415  0.2040 -0.1551
23168SOL    HW171821   0.170   5.997   1.762 -0.1177  0.2330 -0.4787
23168SOL    HW271822   0.320   6.020   1.756 -0.2160  0.8363 -0.6891
23169SOL     OW71823   6.764   1.534   1.557  1.0096 -0.3161 -0.4785
23169SOL    HW171824   6.804   1.615   1.589  0.1771 -0.1733  0.2549
23169SOL    HW271825   6.800   1.522   1.469  4.2850 -1.3219  0.8483
23170SOL     OW71826   4.736  10.434   8.980 -0.0423 -0.8910 -0.0450
23170SOL    HW171827   4.831  10.429   8.968  0.4699  3.3698  0.5995
23170SOL    HW271828   4.704  10.470   8.897 -0.5848  0.7128  0.8222
23171SOL     OW71829   5.270   7.197   3.682 -0.7848  0.8680  0.2236
23171SOL    HW171830   5.340   7.221   3.742 -1.7813  1.1814  1.3072
23171SOL    HW271831   5.259   7.103   3.695  0.6447  0.4493 -1.3116
23172SOL     OW71832   5.262   3.640   0.964  0.4355 -0.3839 -0.5612
23172SOL    HW171833   5.295   3.607   1.047 -1.2414  0.7684  0.6221
23172SOL    HW271834   5.171   3.665   0.982 -0.2919 -0.9657 -2.9752
23173SOL     OW71835   1.525   1.974   1.308 -0.4743 -0.2068 -0.6368
23173SOL    HW171836   1.541   2.034   1.381  2.0371 -1.0444 -0.3985
23173SOL    HW271837   1.471   1.905   1.346 -3.4074  1.7486 -0.9180
23174SOL     OW71838   0.779   1.883   6.349  0.4402  0.2313 -0.1784
23174SOL    HW171839   0.811   1.910   6.263  1.9956  3.5558  1.2511
23174SOL    HW271840   0.698   1.933   6.362 -0.0339 -0.5866  0.1564
23175SOL     OW71841   8.529   1.388  10.529 -0.3507  0.0027  0.7914
23175SOL    HW171842   8.584   1.406  10.605 -0.2006 -0.5818  0.8196
23175SOL    HW271843   8.520   1.293  10.527  0.9255 -0.1143 -0.8349
23176SOL     OW71844   6.973   0.694   2.972  0.7705 -0.2490  0.0368
23176SOL    HW171845   6.915   0.699   3.049 -0.4965 -0.3167 -0.8834
23176SOL    HW271846   6.928   0.634   2.913  1.8190 -0.3227 -0.6932
23177SOL     OW71847   2.234   4.627   3.883  0.4103  0.4979  0.5969
23177SOL    HW171848   2.164   4.655   3.824  0.9760  0.1814 -0.2420
23177SOL    HW271849   2.215   4.672   3.965  0.0772  1.5986 -0.0593
23178SOL     OW71850  10.247   0.575   2.625 -0.3039  0.3005 -0.3430
23178SOL    HW171851  10.166   0.619   2.600 -0.4418  0.6284  0.6142
23178SOL    HW271852  10.295   0.564   2.543 -1.9259 -1.1981 -1.1353
23179SOL     OW71853   6.960   0.646   8.386  0.1062 -0.1286  0.6072
23179SOL    HW171854   6.994   0.667   8.299  0.8635 -1.9715  0.4142
23179SOL    HW271855   6.871   0.682   8.386  0.0895 -0.1003 -0.9297
23180SOL     OW71856   8.836   3.441   7.901 -0.0759  0.1219 -0.3952
23180SOL    HW171857   8.782   3.438   7.980 -0.5280 -0.7526 -0.7207
23180SOL    HW271858   8.781   3.483   7.835  0.0717  0.2801 -0.4198
23181SOL     OW71859   1.783   6.739   7.388 -0.0117  0.5984  0.0576
23181SOL    HW171860   1.812   6.746   7.479  0.9846 -1.4131 -0.0452
23181SOL    HW271861   1.764   6.646   7.376  2.7048  0.2046 -2.5139
23182SOL     OW71862   6.156   8.020   1.851  0.1427 -0.5044  0.0033
23182SOL    HW171863   6.151   7.930   1.819  0.2565 -0.7446  0.6476
23182SOL    HW271864   6.100   8.069   1.792 -1.0596 -1.2450  0.4906
23183SOL     OW71865   0.261   7.250   7.236  0.3595 -0.3459 -0.0571
23183SOL    HW171866   0.343   7.263   7.187  0.5749  0.5728  0.5253
23183SOL    HW271867   0.218   7.178   7.191  1.0175 -0.1725 -1.0042
23184SOL     OW71868   7.654   4.292   2.617  0.2947 -0.0695 -0.5326
23184SOL    HW171869   7.659   4.351   2.691 -2.2495  0.6745 -0.8375
23184SOL    HW271870   7.619   4.210   2.653  3.0775 -1.2170 -0.2453
23185SOL     OW71871   1.413  10.036   8.193  0.3458 -0.4969 -0.1559
23185SOL    HW171872   1.361   9.968   8.237  0.9483  0.4123  2.1094
23185SOL    HW271873   1.349  10.090   8.148 -0.5539 -0.2916  1.3185
23186SOL     OW71874   4.449   3.805   3.593 -0.6837 -0.4443  0.2203
23186SOL    HW171875   4.371   3.861   3.601 -0.4450  0.3587 -2.1046
23186SOL    HW271876   4.421   3.735   3.533  0.2937 -0.2492 -0.4892
23187SOL     OW71877  10.425   5.581   3.465  0.3154 -0.3819 -0.3373
23187SOL    HW171878  10.390   5.614   3.547 -0.1310  1.9310 -1.3801
23187SOL    HW271879  10.506   5.536   3.490 -0.2893 -0.5747  1.4363
23188SOL     OW71880   1.054   4.624   4.335  0.4552  0.4100  0.3439
23188SOL    HW171881   1.009   4.545   4.365 -0.8321  0.8352 -0.3660
23188SOL    HW271882   1.044   4.687   4.407  1.1820  0.0429  0.7707
23189SOL     OW71883   0.579   4.281   7.126 -0.2894  0.3120 -0.5203
23189SOL    HW171884   0.508   4.339   7.098 -2.2027 -1.4437  0.4765
23189SOL    HW271885   0.578   4.285   7.221 -0.0282 -0.8862 -0.4607
23190SOL     OW71886   6.750   0.304   1.505  0.0836  0.1646 -0.1209
23190SOL    HW171887   6.681   0.242   1.530  0.7208 -1.7261 -2.6735
23190SOL    HW271888   6.822   0.249   1.473  1.5118  2.1823 -0.6134
23191SOL     OW71889   5.932   2.139   1.876  0.5785  0.2552  0.6825
23191SOL    HW171890   5.967   2.056   1.844  0.4000  0.4038  0.0712
23191SOL    HW271891   6.001   2.203   1.859 -0.3248  0.7460 -1.5089
23192SOL     OW71892   3.681   6.585   6.180  0.4069  0.4203  0.5425
23192SOL    HW171893   3.658   6.656   6.122  0.4076 -1.5502 -2.0481
23192SOL    HW271894   3.599   6.562   6.224 -0.6785 -0.7081 -1.8779
23193SOL     OW71895   4.370   2.501   4.483 -0.3446  0.3321  0.2240
23193SOL    HW171896   4.294   2.451   4.453  0.2038 -1.3817  1.5261
23193SOL    HW271897   4.336   2.556   4.554 -0.2572 -0.9796  1.3080
23194SOL     OW71898   0.481   8.435   3.134  0.4175  0.4191  0.6035
23194SOL    HW171899   0.483   8.513   3.188  0.4497 -0.0235  1.2496
23194SOL    HW271900   0.502   8.466   3.046 -0.9668  1.3490  0.5711
23195SOL     OW71901   9.727   5.959   7.586 -0.5824  0.6754 -0.3694
23195SOL    HW171902   9.654   5.919   7.633  1.1263 -0.1977  1.7123
23195SOL    HW271903   9.719   6.053   7.605 -1.6379  0.7147 -0.9283
23196SOL     OW71904   2.662   4.798   5.699  0.1035 -0.9648 -0.3759
23196SOL    HW171905   2.713   4.767   5.773 -0.1634  0.2336  0.3314
23196SOL    HW271906   2.706   4.762   5.622  0.0792 -2.6625  0.3715
23197SOL     OW71907   9.946   7.515   4.343  0.1897 -0.0899 -0.4453
23197SOL    HW171908   9.881   7.580   4.315  0.3737 -0.2238 -1.1751
23197SOL    HW271909   9.902   7.469   4.415  1.2153  3.0133  2.4813
23198SOL     OW71910   6.438   2.750  10.307  0.0305  0.1755 -0.2380
23198SOL    HW171911   6.423   2.665  10.349 -0.1802 -0.9108 -2.3576
23198SOL    HW271912   6.363   2.803  10.334  0.4349 -0.0796  1.5536
23199SOL     OW71913   5.620   2.066   7.128  0.7249 -0.1406  0.0723
23199SOL    HW171914   5.670   2.038   7.052  0.2590 -0.8043 -0.0005
23199SOL    HW271915   5.598   1.985   7.174  1.6065  0.2930  1.3153
23200SOL     OW71916   5.660   4.031   0.191 -0.1236 -0.1005 -0.4420
23200SOL    HW171917   5.721   3.958   0.199  0.0223  0.0643 -0.0158
23200SOL    HW271918   5.713   4.108   0.211 -0.5734  0.0050  0.3749
23201SOL     OW71919   2.938   2.687   8.383  0.7796  0.4313  0.4725
23201SOL    HW171920   2.892   2.609   8.412  0.4158  0.5473  0.2148
23201SOL    HW271921   2.870   2.753   8.374  0.8136  0.2728 -1.0887
23202SOL     OW71922   0.999  10.485   0.599  0.0677  0.6643  0.4458
23202SOL    HW171923   0.910  10.483   0.564  0.3724 -1.1580 -0.2962
23202SOL    HW271924   0.988  10.481   0.694 -0.6341  1.0207  0.3859
23203SOL     OW71925   3.126   7.959   3.576 -0.2058  0.1956  0.5758
23203SOL    HW171926   3.073   7.879   3.573  0.2310 -0.1665  1.9844
23203SOL    HW271927   3.089   8.011   3.647  0.8852  0.2250  1.1575
23204SOL     OW71928   0.439   5.425   1.467 -0.2013  0.9869  0.0806
23204SOL    HW171929   0.430   5.361   1.397  2.3765  0.4612  0.1229
23204SOL    HW271930   0.383   5.391   1.537 -2.2233  1.1231 -1.3806
23205SOL     OW71931   0.141   3.680   8.901 -0.2296  0.0854  0.3562
23205SOL    HW171932   0.127   3.603   8.846 -0.7517  0.4246  0.0004
23205SOL    HW271933   0.126   3.650   8.990  0.6266 -0.4740  0.3207
23206SOL     OW71934   8.393  10.117   5.762 -0.2621 -0.1191  0.4706
23206SOL    HW171935   8.447  10.041   5.784 -1.2150 -0.1318  3.0375
23206SOL    HW271936   8.338  10.086   5.690  2.7420 -0.2198 -2.0158
23207SOL     OW71937   4.988  10.137   4.907 -0.1529 -0.0875 -0.1370
23207SOL    HW171938   4.937  10.147   4.827 -2.2225 -1.2074  0.9777
23207SOL    HW271939   4.975  10.219   4.955  0.0661  0.0841 -0.3684
23208SOL     OW71940   9.353   7.546  10.025 -0.0119 -0.2807 -0.2873
23208SOL    HW171941   9.356   7.452  10.038  1.5415 -0.4628 -1.6344
23208SOL    HW271942   9.298   7.558   9.947 -1.4505  0.0697  0.7452
23209SOL     OW71943   6.952   9.709   5.066  0.4356 -0.6661  0.3276
23209SOL    HW171944   6.920   9.664   4.988  0.2468 -1.4672  0.8500
23209SOL    HW271945   6.951   9.802   5.043 -0.5590 -0.8116 -0.2801
23210SOL     OW71946   1.531   5.579   5.960 -0.5831 -0.0683 -0.1037
23210SOL    HW171947   1.523   5.627   5.878  0.1672 -0.2435 -0.2790
23210SOL    HW271948   1.570   5.642   6.021 -0.7597 -0.0662  0.0080
23211SOL     OW71949   7.329   7.767   4.599  0.3117 -0.1779  0.4634
23211SOL    HW171950   7.421   7.788   4.610  0.3718  0.5334 -1.1661
23211SOL    HW271951   7.299   7.825   4.529 -1.1366 -1.0589  0.3127
23212SOL     OW71952   7.922   7.739   7.719 -0.1389 -0.3346 -0.0036
23212SOL    HW171953   7.874   7.772   7.795 -1.2793  0.2724 -0.9514
23212SOL    HW271954   8.014   7.737   7.747 -0.1784  2.3323  0.5794
23213SOL     OW71955   3.270   3.013   5.163  0.5835 -0.0898 -0.2831
23213SOL    HW171956   3.261   2.918   5.175  1.6883 -0.2217 -0.4374
23213SOL    HW271957   3.201   3.036   5.101  0.5181 -0.8516 -0.5047
23214SOL     OW71958   7.701   7.636  10.402  0.2187  0.3470 -0.0668
23214SOL    HW171959   7.695   7.651  10.497  0.9667  0.3319 -0.0100
23214SOL    HW271960   7.781   7.586  10.391  1.0658  1.7990 -0.8584
23215SOL     OW71961   0.449   1.352   5.135 -0.4120 -0.4809 -0.2014
23215SOL    HW171962   0.525   1.402   5.105 -0.6576  0.5006  0.7645
23215SOL    HW271963   0.374   1.401   5.101 -0.6411 -0.5769  0.1659
23216SOL     OW71964   1.469   7.234   8.180  0.6809  0.5304  0.2917
23216SOL    HW171965   1.415   7.174   8.232  0.2782  0.9358  0.3465
23216SOL    HW271966   1.498   7.182   8.105 -1.5908  0.8764 -0.9336
23217SOL     OW71967   0.966   1.205   6.235 -1.1828 -0.3314 -0.0139
23217SOL    HW171968   0.945   1.294   6.265 -1.7330 -0.3711 -0.2708
23217SOL    HW271969   0.884   1.158   6.244 -1.3205 -0.3848 -1.4563
23218SOL     OW71970   7.739   9.584   8.367  0.1857  0.0471 -0.2963
23218SOL    HW171971   7.826   9.589   8.407  0.0746  0.8743 -0.1291
23218SOL    HW271972   7.679   9.610   8.437  0.0116  1.7968 -1.0358
23219SOL     OW71973   3.010   1.898   4.225 -0.4214 -0.7589  0.0337
23219SOL    HW171974   3.051   1.942   4.299 -1.0289  0.2478 -0.2125
23219SOL    HW271975   2.945   1.841   4.264 -1.2041  0.2605  0.2665
23220SOL     OW71976   5.525   6.693   1.662  0.0127  0.0239  0.1762
23220SOL    HW171977   5.581   6.672   1.737  0.1074  2.1360  0.7630
23220SOL    HW271978   5.443   6.723   1.701 -0.5268 -0.3899 -0.6170
23221SOL     OW71979   3.891   2.040   9.730  0.4555 -0.4607  0.2269
23221SOL    HW171980   3.814   2.097   9.734 -0.1323 -1.2996  1.5368
23221SOL    HW271981   3.904   2.010   9.820  1.4287 -1.5101 -0.2295
23222SOL     OW71982   5.511   4.606   1.681  0.4737  0.1598  0.8453
23222SOL    HW171983   5.478   4.665   1.613  0.7407 -1.4839 -0.7913
23222SOL    HW271984   5.503   4.657   1.762  0.9415  2.5149 -0.4844
23223SOL     OW71985   9.600  10.209   1.069 -0.4022  0.2769 -0.2017
23223SOL    HW171986   9.568  10.120   1.052  0.4635 -0.8257  3.1122
23223SOL    HW271987   9.694  10.198   1.086 -0.1041  1.9821 -0.5450
23224SOL     OW71988   4.945   2.032   7.319 -0.0903 -0.2797 -0.1620
23224SOL    HW171989   4.892   2.054   7.395  0.8623 -2.0986  1.1125
23224SOL    HW271990   5.035   2.038   7.351  0.4114  0.6568 -1.6740
23225SOL     OW71991   5.206   0.472   3.918  0.5239 -0.6244 -0.1062
23225SOL    HW171992   5.118   0.464   3.881 -0.1849 -1.3886  1.6305
23225SOL    HW271993   5.220   0.390   3.964  1.5801  0.0339  0.7953
23226SOL     OW71994   9.918   7.022   7.735  0.6510 -0.0258 -0.4000
23226SOL    HW171995  10.001   6.974   7.732  0.5434 -0.3446  0.9681
23226SOL    HW271996   9.941   7.111   7.710  1.6269  0.1283  0.8940
23227SOL     OW71997   3.527   9.591   6.246  0.9811 -0.4700 -0.7068
23227SOL    HW171998   3.534   9.496   6.253 -0.4983 -0.6642 -1.5728
23227SOL    HW271999   3.448   9.606   6.195  2.2914  1.1883 -2.3812
23228SOL     OW72000   9.019   9.320   1.059  0.3164 -0.5425  0.2757
23228SOL    HW172001   9.040   9.348   1.148  0.2988 -3.6018  1.3744
23228SOL    HW272002   9.086   9.255   1.038  0.0408 -0.2245 -1.7975
23229SOL     OW72003   0.248   8.610   4.253  0.0228  0.1291 -0.2220
23229SOL    HW172004   0.178   8.675   4.248  0.4044  0.4787 -1.1793
23229SOL    HW272005   0.235   8.567   4.337  0.0686  1.7880  0.6760
23230SOL     OW72006   9.715   4.036   4.103  0.0780  0.2685 -0.0647
23230SOL    HW172007   9.653   3.964   4.116  1.3773 -0.6792  1.1444
23230SOL    HW272008   9.795   4.007   4.146 -0.1175  3.5739  2.9910
23231SOL     OW72009  10.541   0.096   1.512  0.1052 -0.2431 -0.1738
23231SOL    HW172010  10.591   0.024   1.551  0.0035  0.1482  0.6804
23231SOL    HW272011  10.575   0.175   1.554  1.1596  0.3854 -2.0602
23232SOL     OW72012   2.977   8.385  10.011 -0.1716  0.0599  0.0523
23232SOL    HW172013   3.015   8.451  10.069  1.9584 -0.1841 -0.9699
23232SOL    HW272014   2.899   8.427   9.975  1.0198  1.9990 -0.4337
23233SOL     OW72015  10.283   3.457   0.839  0.5505  0.0325 -0.0900
23233SOL    HW172016  10.291   3.393   0.768  1.1033 -0.0591  0.0442
23233SOL    HW272017  10.333   3.419   0.911 -2.0566 -1.0629  1.2384
23234SOL     OW72018   9.308   9.729   3.459 -0.1864 -0.4844  0.0199
23234SOL    HW172019   9.306   9.649   3.406 -0.0155  0.0820 -0.8636
23234SOL    HW272020   9.254   9.791   3.411  1.2756  0.5583 -0.3620
23235SOL     OW72021   2.661  10.135   4.137  0.3538 -0.1023 -0.3579
23235SOL    HW172022   2.735  10.193   4.126  0.5764 -0.4017 -0.4511
23235SOL    HW272023   2.684  10.056   4.088  0.8095 -0.9537  1.1553
23236SOL     OW72024   6.598   3.852   1.145 -0.0386  0.4036  0.0342
23236SOL    HW172025   6.539   3.841   1.071 -0.2883  2.0681 -0.0607
23236SOL    HW272026   6.680   3.813   1.117 -0.6436 -0.5735 -0.4224
23237SOL     OW72027   2.716   9.887   4.342  0.2620  0.1120 -0.2651
23237SOL    HW172028   2.761   9.930   4.268  0.2487 -1.7295 -1.3944
23237SOL    HW272029   2.778   9.820   4.371  0.3224  0.9034  1.5320
23238SOL     OW72030   2.822   4.220   2.273  0.5855 -0.2469  0.1881
23238SOL    HW172031   2.864   4.230   2.188 -0.3597 -0.1816 -0.2831
23238SOL    HW272032   2.739   4.268   2.266  0.1092 -0.9297  0.8598
23239SOL     OW72033   5.254   8.916   7.005  0.1060  0.1178  0.6433
23239SOL    HW172034   5.220   8.896   6.917  0.5386  2.4937 -0.1225
23239SOL    HW272035   5.327   8.854   7.017 -0.5409 -0.8660 -0.2507
23240SOL     OW72036   1.590   6.406   9.619 -0.1428  0.1111  0.1377
23240SOL    HW172037   1.574   6.427   9.711  0.2420 -2.1421  0.7816
23240SOL    HW272038   1.672   6.356   9.619 -0.7137 -0.9066 -1.2561
23241SOL     OW72039   4.747   4.267   8.087  0.1854 -0.0932 -0.3138
23241SOL    HW172040   4.712   4.218   8.162 -0.1966 -0.6474 -0.8419
23241SOL    HW272041   4.670   4.285   8.033  0.4898  0.1264 -0.6787
23242SOL     OW72042   3.342   8.585   3.125 -0.5980  0.2964  0.4319
23242SOL    HW172043   3.417   8.630   3.163  1.4289 -1.6084 -1.0512
23242SOL    HW272044   3.338   8.502   3.173 -1.5318  0.2029  0.2109
23243SOL     OW72045   0.470   2.781   8.779 -0.6904 -0.6581 -0.3631
23243SOL    HW172046   0.439   2.853   8.724  0.3408 -0.5171 -0.7860
23243SOL    HW272047   0.403   2.714   8.771 -2.4215  0.7717  1.1691
23244SOL     OW72048   8.024   3.771   7.725 -0.7188 -0.7976  0.0420
23244SOL    HW172049   8.094   3.739   7.781 -1.0916 -0.8157  0.5006
23244SOL    HW272050   7.959   3.700   7.725 -0.4362 -1.0742 -0.9331
23245SOL     OW72051   8.449   1.963   0.490 -0.2796  0.1045 -0.0877
23245SOL    HW172052   8.451   1.938   0.398 -2.0967  1.2269 -0.4858
23245SOL    HW272053   8.437   1.880   0.537  0.3140 -0.4368 -0.8794
23246SOL     OW72054   3.972   2.465  10.529 -0.5922  0.3381  0.0275
23246SOL    HW172055   3.961   2.545  10.580 -0.3599  0.0558  0.5302
23246SOL    HW272056   4.004   2.495  10.444  0.0855  0.7372  0.4135
23247SOL     OW72057  10.200   6.792   9.321 -0.3098 -0.4050  0.0085
23247SOL    HW172058  10.271   6.745   9.278 -1.3664  0.5156 -3.0446
23247SOL    HW272059  10.193   6.753   9.408  2.8067 -1.6107 -0.1769
23248SOL     OW72060   3.854   9.647   5.303 -0.1190 -0.4942 -0.1487
23248SOL    HW172061   3.943   9.627   5.273  0.1420 -0.2319  0.4285
23248SOL    HW272062   3.829   9.724   5.252  0.4288  0.1200  0.4779
23249SOL     OW72063   6.934   6.019   4.958  0.7996  0.1810 -0.3636
23249SOL    HW172064   6.997   6.090   4.944 -0.5023  1.7016  1.1140
23249SOL    HW272065   6.903   5.997   4.870  0.8551  1.8077 -0.8232
23250SOL     OW72066   2.528   1.995   5.326 -0.6784 -0.4081 -0.0221
23250SOL    HW172067   2.543   1.980   5.419  2.3358  0.3873 -0.2827
23250SOL    HW272068   2.553   2.086   5.312  0.6491 -1.0116 -1.8968
23251SOL     OW72069   9.534   8.147   9.690 -1.0063 -0.0784  0.3267
23251SOL    HW172070   9.610   8.120   9.741 -0.8921 -2.0831 -0.7955
23251SOL    HW272071   9.463   8.154   9.755  0.0429  1.6601  1.3527
23252SOL     OW72072   0.017   1.627   6.898  0.2079  0.1155  0.1183
23252SOL    HW172073  -0.002   1.536   6.922 -0.2838  0.2620  0.2919
23252SOL    HW272074  -0.057   1.677   6.932  1.3667  0.8349  1.7236
23253SOL     OW72075   1.546   2.010   7.210  0.3322 -0.1071 -0.0446
23253SOL    HW172076   1.475   2.028   7.150  0.3844  0.9735  0.2000
23253SOL    HW272077   1.605   1.952   7.162 -0.6747 -0.9666 -0.2590
23254SOL     OW72078   9.148   0.225   3.261  0.1125  0.0563 -0.1570
23254SOL    HW172079   9.205   0.284   3.311  0.4206 -1.4457  1.3736
23254SOL    HW272080   9.062   0.235   3.302  0.3815 -1.2379  0.7798
23255SOL     OW72081   6.442   3.303   7.418 -0.1911 -0.1411  0.0750
23255SOL    HW172082   6.395   3.227   7.453 -0.1768 -0.4570 -0.5763
23255SOL    HW272083   6.466   3.354   7.495  0.1352 -0.9962  0.5513
23256SOL     OW72084   1.073   5.809   7.975  0.6710 -0.4616 -0.1433
23256SOL    HW172085   1.118   5.873   7.921  0.0326 -0.5661 -0.8083
23256SOL    HW272086   1.085   5.841   8.065 -0.3386  1.0469 -0.5065
23257SOL     OW72087   1.763   4.727   7.093  0.6648  0.1542 -0.2596
23257SOL    HW172088   1.720   4.776   7.023 -0.3404  0.2147  0.3796
23257SOL    HW272089   1.780   4.641   7.055 -0.9678 -0.2216 -0.2403
23258SOL     OW72090   1.181   4.150   3.530  0.1468  0.0855 -0.3035
23258SOL    HW172091   1.245   4.129   3.598  2.1365  1.5565 -1.5737
23258SOL    HW272092   1.235   4.166   3.452 -1.8676  0.6261 -1.6511
23259SOL     OW72093   5.638   5.676   3.336  0.2502 -0.1281 -0.0675
23259SOL    HW172094   5.703   5.676   3.407  0.4738 -1.5079 -0.2392
23259SOL    HW272095   5.564   5.626   3.372  0.3661 -0.8358 -0.7843
23260SOL     OW72096   7.115   5.744   6.269 -0.1985  0.1858  0.4985
23260SOL    HW172097   7.159   5.686   6.332 -1.0213 -2.4050 -1.1793
23260SOL    HW272098   7.076   5.813   6.323  1.4046 -0.3897  2.5170
23261SOL     OW72099   6.474   5.304   5.595  0.4561 -0.2288  0.3909
23261SOL    HW172100   6.544   5.287   5.532 -1.1581 -0.7417 -1.3634
23261SOL    HW272101   6.485   5.237   5.662  1.0160 -0.9806 -0.4307
23262SOL     OW72102   2.365   7.802   6.471  0.5107  0.3527  0.2053
23262SOL    HW172103   2.328   7.850   6.396 -0.7018 -1.4451 -0.4313
23262SOL    HW272104   2.336   7.851   6.548 -1.4481  0.1779 -0.3779
23263SOL     OW72105   5.703   0.374   0.595  0.1928 -0.0190  0.1559
23263SOL    HW172106   5.662   0.287   0.588 -0.5420  0.3570 -0.3468
23263SOL    HW272107   5.747   0.372   0.680  1.5286 -1.4303 -0.5220
23264SOL     OW72108   2.256  10.009   8.759  0.3769  0.4542 -0.0832
23264SOL    HW172109   2.242   9.969   8.673  1.6803  0.5009 -0.3466
23264SOL    HW272110   2.300   9.940   8.810  1.0431  0.9435  0.0209
23265SOL     OW72111   9.387   9.307   4.476  0.1638  0.2657 -0.4049
23265SOL    HW172112   9.312   9.303   4.535  0.5132 -0.7573 -0.0107
23265SOL    HW272113   9.348   9.317   4.389 -0.4573 -0.6475 -0.2439
23266SOL     OW72114   6.270   6.604   0.530  0.3276 -0.0476 -0.4816
23266SOL    HW172115   6.299   6.616   0.440  1.6549 -1.6944 -0.3121
23266SOL    HW272116   6.331   6.658   0.582  0.1839  0.1206 -0.4865
23267SOL     OW72117   5.627   0.206   6.426 -0.7798  0.0290 -0.0143
23267SOL    HW172118   5.660   0.120   6.452  1.3400  0.6701 -0.3735
23267SOL    HW272119   5.689   0.236   6.359 -0.5969  2.4285  1.1120
23268SOL     OW72120   4.563   9.907   5.694  0.3311  0.4263 -0.2111
23268SOL    HW172121   4.599   9.848   5.760  0.2175  0.5072 -0.0756
23268SOL    HW272122   4.473   9.878   5.682 -0.3541  1.7832  1.3029
23269SOL     OW72123   4.216   2.336   9.066  0.1053  0.1158 -0.1024
23269SOL    HW172124   4.254   2.292   8.991 -1.2912 -0.0680 -0.7226
23269SOL    HW272125   4.180   2.418   9.030 -2.2921 -0.8332 -0.0842
23270SOL     OW72126  10.486   8.381   5.615 -0.0185 -0.4808 -0.1868
23270SOL    HW172127  10.507   8.312   5.552 -1.2046  0.0269 -1.1642
23270SOL    HW272128  10.404   8.419   5.584  0.0689  0.6878  0.9116
23271SOL     OW72129   2.068   3.913   3.496  0.0514 -0.0399  0.0181
23271SOL    HW172130   2.001   3.889   3.560 -0.7447  0.0849 -0.7417
23271SOL    HW272131   2.051   4.005   3.476 -1.1677 -0.6465 -2.0179
23272SOL     OW72132   1.205   3.548   0.723 -0.3442 -0.3243 -0.2851
23272SOL    HW172133   1.275   3.541   0.658 -1.1795  1.5751 -1.4883
23272SOL    HW272134   1.229   3.622   0.777  0.0840 -1.5874  1.3450
23273SOL     OW72135  10.576   6.878   6.026  0.0416  0.0544 -0.1773
23273SOL    HW172136  10.561   6.810   5.961 -0.6004  0.7334 -0.7555
23273SOL    HW272137  10.493   6.887   6.072  0.5198 -0.4964  0.8326
23274SOL     OW72138   3.609   2.580   3.010 -0.0938  0.1680  0.2925
23274SOL    HW172139   3.555   2.651   3.043  0.7613  0.2032  1.6849
23274SOL    HW272140   3.699   2.609   3.024  0.2742 -0.8429  0.1431
23275SOL     OW72141  10.367   8.275   2.637  0.2083 -0.4436  0.1003
23275SOL    HW172142  10.357   8.284   2.732 -0.1414  0.2754  0.0007
23275SOL    HW272143  10.356   8.181   2.621 -0.9465 -0.4132  0.6332
23276SOL     OW72144   9.419   7.136   4.234 -0.4112  0.3282  0.0074
23276SOL    HW172145   9.452   7.118   4.323 -2.7336  0.3514  0.9541
23276SOL    HW272146   9.419   7.050   4.192 -0.6946  0.0434  0.5658
23277SOL     OW72147   8.535   9.107   3.060 -0.8845 -0.0909 -0.2236
23277SOL    HW172148   8.562   9.131   2.971 -1.5992  0.5446 -0.2816
23277SOL    HW272149   8.588   9.031   3.082  1.1899  1.2639 -0.2180
23278SOL     OW72150   1.328   7.639   1.409 -0.6223  0.0226 -0.2816
23278SOL    HW172151   1.389   7.614   1.340  0.5456 -0.2184  0.8168
23278SOL    HW272152   1.348   7.580   1.482  0.8367  2.7280  1.6703
23279SOL     OW72153   7.130   4.478   9.788 -0.3111  0.3368  0.0201
23279SOL    HW172154   7.102   4.439   9.870 -0.8739 -0.9260 -0.7355
23279SOL    HW272155   7.094   4.420   9.720 -1.0347  2.0814 -1.1607
23280SOL     OW72156   5.708   8.774   2.680  0.0160 -0.4132 -0.2324
23280SOL    HW172157   5.732   8.686   2.651 -1.0649 -1.5255  2.0180
23280SOL    HW272158   5.637   8.800   2.620 -0.2781 -1.4528 -0.3589
23281SOL     OW72159   5.754   3.160   6.720 -0.0927 -0.3800  0.1158
23281SOL    HW172160   5.692   3.087   6.721 -1.0423  0.4068 -0.0551
23281SOL    HW272161   5.828   3.127   6.669 -1.3674 -0.5671 -1.7308
23282SOL     OW72162   5.492   3.241   8.637 -0.8006 -0.2999 -0.2375
23282SOL    HW172163   5.583   3.218   8.655 -0.9397 -0.4874  0.2397
23282SOL    HW272164   5.447   3.157   8.629 -0.5656 -0.2761 -2.5406
23283SOL     OW72165   7.812   1.478   9.343 -0.2707 -0.0258 -0.3638
23283SOL    HW172166   7.777   1.567   9.345  1.1013  0.6468 -2.7626
23283SOL    HW272167   7.899   1.485   9.383  0.2471 -0.0463 -1.4507
23284SOL     OW72168   5.403   1.350   3.803  0.2476 -0.0353 -0.0074
23284SOL    HW172169   5.380   1.428   3.855  0.8829 -0.4105  0.8705
23284SOL    HW272170   5.364   1.366   3.717 -0.0739  1.0168  0.3157
23285SOL     OW72171   4.320   3.924   9.629  0.2585  0.3361  0.1801
23285SOL    HW172172   4.296   3.967   9.712 -0.5052  0.0359  0.1185
23285SOL    HW272173   4.291   3.834   9.640  0.8319  0.1046 -0.1377
23286SOL     OW72174   5.167   8.092   7.157 -0.3823 -0.0502  0.3886
23286SOL    HW172175   5.112   8.137   7.221 -3.4348  1.1724 -2.7113
23286SOL    HW272176   5.105   8.038   7.107  1.7893 -1.0053 -1.4352
23287SOL     OW72177   6.245   6.204   2.991 -0.3744 -0.9178 -0.3835
23287SOL    HW172178   6.156   6.181   3.019 -0.2920 -0.1390  0.5930
23287SOL    HW272179   6.261   6.150   2.914 -1.7630 -0.9359 -0.6831
23288SOL     OW72180   6.631   2.842   2.669  0.3099  0.6021  0.5001
23288SOL    HW172181   6.720   2.823   2.642 -0.5945  1.2873 -3.7331
23288SOL    HW272182   6.609   2.924   2.624 -2.5822  0.2402  1.0189
23289SOL     OW72183   4.942   1.824   1.351 -0.2598  0.4716 -0.0164
23289SOL    HW172184   4.935   1.914   1.319 -1.4689  0.7850  1.0472
23289SOL    HW272185   5.007   1.828   1.421  1.5418  0.0014 -1.5825
23290SOL     OW72186  10.202   8.880   8.149  0.1526 -0.2007  0.1502
23290SOL    HW172187  10.297   8.891   8.154 -0.0120  1.0509  0.8440
23290SOL    HW272188  10.185   8.798   8.196  0.6838  0.7957  2.1882
23291SOL     OW72189   4.459   1.480   7.573  0.0014 -0.3120 -0.3667
23291SOL    HW172190   4.524   1.440   7.630 -1.2507  1.0668  2.1913
23291SOL    HW272191   4.508   1.507   7.495  1.7741 -2.3112 -0.0301
23292SOL     OW72192   6.951   5.013   0.257 -0.3852  0.2165  0.5371
23292SOL    HW172193   6.872   4.971   0.223  0.0187  0.7014 -1.0776
23292SOL    HW272194   6.974   5.078   0.191  1.4037  0.0438  0.9422
23293SOL     OW72195   6.331   4.422   8.845 -0.1316  0.0837 -0.1840
23293SOL    HW172196   6.237   4.419   8.829  0.2417  0.2071 -2.8382
23293SOL    HW272197   6.362   4.334   8.821  0.5044  0.2324  0.0704
23294SOL     OW72198   1.600   3.661   3.320 -0.7102 -0.3266 -0.2775
23294SOL    HW172199   1.599   3.698   3.409 -1.8601 -3.2713  1.0859
23294SOL    HW272200   1.578   3.734   3.263  0.9149  1.8786  1.7498
23295SOL     OW72201   0.008   9.548   0.241 -0.1743 -0.3008  0.1536
23295SOL    HW172202  -0.030   9.484   0.181  0.3574 -0.4969  0.0189
23295SOL    HW272203   0.102   9.532   0.236  0.0605  1.1476 -0.6280
23296SOL     OW72204   0.044   3.728   4.172  0.0939 -0.2195 -0.0366
23296SOL    HW172205   0.132   3.711   4.136  0.4775 -0.2284  0.8788
23296SOL    HW272206   0.018   3.811   4.132  0.7206  0.0220  0.0393
23297SOL     OW72207   1.877   5.052   4.467  0.8121  0.2592  0.7810
23297SOL    HW172208   1.970   5.038   4.449  0.4031 -1.0394 -0.5266
23297SOL    HW272209   1.874   5.089   4.555  2.5319 -0.0920  1.0089
23298SOL     OW72210   4.195   7.043   2.860 -0.1021  0.3725 -0.1564
23298SOL    HW172211   4.224   7.132   2.841  0.6113  0.4235  1.0296
23298SOL    HW272212   4.184   7.042   2.956 -1.0517 -0.5347 -0.2567
23299SOL     OW72213  10.431   4.623   0.026  0.1337 -0.0759  0.1758
23299SOL    HW172214  10.390   4.648   0.108  0.0894  0.7849 -0.0997
23299SOL    HW272215  10.508   4.679   0.019 -0.4686  0.6532 -0.8898
23300SOL     OW72216   0.946   7.679   0.605  0.1092 -0.4056  0.5900
23300SOL    HW172217   0.901   7.657   0.524  0.6227 -1.1991  0.5089
23300SOL    HW272218   1.027   7.722   0.577  0.5135 -1.1074  0.6587
23301SOL     OW72219   2.902  10.022   5.182  0.6956 -0.1648  0.0835
23301SOL    HW172220   2.837   9.971   5.133 -1.1162  1.5393  0.5933
23301SOL    HW272221   2.940  10.081   5.118 -0.7640  1.1828  0.3947
23302SOL     OW72222   4.730   2.433  10.502  0.8072  0.2191 -0.5219
23302SOL    HW172223   4.818   2.469  10.508  0.5205  0.7729  0.5828
23302SOL    HW272224   4.688   2.457  10.584 -0.6495  0.6910 -1.3657
23303SOL     OW72225   5.696   7.811   6.281 -0.0780 -0.1928 -0.5327
23303SOL    HW172226   5.663   7.886   6.331  2.3417  1.1849 -0.8427
23303SOL    HW272227   5.648   7.736   6.315 -0.3110  1.0492  2.0906
23304SOL     OW72228   0.518   5.087   6.568  0.3432 -0.0976 -0.8570
23304SOL    HW172229   0.480   5.144   6.635  0.3820  0.3054 -1.1747
23304SOL    HW272230   0.487   4.999   6.591 -1.1980  0.2760 -1.3713
23305SOL     OW72231  10.299   9.017   0.820 -0.3071 -0.3073  0.1655
23305SOL    HW172232  10.321   9.110   0.811 -2.0397 -0.0433 -1.9247
23305SOL    HW272233  10.369   8.971   0.773  0.1211 -0.0164  0.5159
23306SOL     OW72234   2.445   7.268   8.171  0.3887  0.9595  0.1434
23306SOL    HW172235   2.539   7.255   8.187  0.7034 -0.2672 -2.2585
23306SOL    HW272236   2.440   7.352   8.126  0.4573  0.5822 -0.5773
23307SOL     OW72237   5.725   0.121   4.253  1.0453  0.4694  0.0981
23307SOL    HW172238   5.750   0.029   4.260  0.0900 -0.0581 -2.3707
23307SOL    HW272239   5.635   0.119   4.220  1.4930  2.2590 -1.4111
23308SOL     OW72240   1.073   6.865   7.175 -0.5270  0.3931  0.0804
23308SOL    HW172241   1.092   6.844   7.084  0.9164  1.5558  0.0780
23308SOL    HW272242   1.023   6.946   7.172 -0.2869  0.5560  0.3092
23309SOL     OW72243   8.817   5.971   3.733 -0.4109 -0.1328 -0.3334
23309SOL    HW172244   8.818   5.880   3.763 -1.8758  0.0721  0.3878
23309SOL    HW272245   8.733   6.006   3.763  1.0492  2.1351  1.4852
23310SOL     OW72246   6.673   7.080   1.761  0.3868  0.4403 -0.4652
23310SOL    HW172247   6.653   7.064   1.853  2.0052 -0.4439 -0.2157
23310SOL    HW272248   6.703   7.171   1.759 -0.3414  0.6913 -0.2595
23311SOL     OW72249   8.785   6.775   3.523 -0.2519 -0.7551 -0.6876
23311SOL    HW172250   8.877   6.799   3.513 -0.4968  0.2834 -0.5182
23311SOL    HW272251   8.736   6.852   3.493 -1.0581 -0.8832  0.2377
23312SOL     OW72252   7.214   7.076   9.949  0.1199 -0.4037 -0.0839
23312SOL    HW172253   7.140   7.016   9.951  0.2004 -0.4863  2.1974
23312SOL    HW272254   7.282   7.031  10.000  1.4139  0.1104 -1.2954
23313SOL     OW72255   3.875   8.720   2.127  0.1970  0.0381  0.3479
23313SOL    HW172256   3.875   8.801   2.178  3.0706 -0.2539  1.0199
23313SOL    HW272257   3.923   8.741   2.047  1.7368 -1.1264  0.9038
23314SOL     OW72258   7.580   6.614   0.199  0.3757 -0.1419 -0.0823
23314SOL    HW172259   7.616   6.682   0.142  1.8067  0.6742  1.6961
23314SOL    HW272260   7.525   6.661   0.261 -0.3051 -0.8875 -0.0951
23315SOL     OW72261   2.153   6.621   4.041  0.2444  0.2167  0.3629
23315SOL    HW172262   2.211   6.635   4.116 -0.5442 -1.9069  1.4416
23315SOL    HW272263   2.120   6.532   4.052 -0.3113  0.0196 -2.2570
23316SOL     OW72264   5.925   9.545   3.738  0.2293  0.1977 -0.5991
23316SOL    HW172265   5.859   9.527   3.805 -1.2910 -0.1024 -2.1221
23316SOL    HW272266   5.912   9.636   3.715  0.5098  0.2010 -0.7502
23317SOL     OW72267   5.089   8.419   1.030  0.3387  0.5087  0.0603
23317SOL    HW172268   5.115   8.467   1.109  1.5876  1.6411 -0.9993
23317SOL    HW272269   5.171   8.404   0.983 -0.3273 -0.5792 -0.8096
23318SOL     OW72270   1.426   5.892   4.833 -0.3256 -0.2251  0.2549
23318SOL    HW172271   1.479   5.872   4.757 -0.6325 -1.0823  0.2552
23318SOL    HW272272   1.336   5.873   4.805 -0.8141  2.3105 -0.1356
23319SOL     OW72273   7.033   3.306   8.034  0.4443  0.2607  0.4517
23319SOL    HW172274   6.973   3.243   8.073 -0.1736  0.7905  0.3804
23319SOL    HW272275   7.090   3.333   8.106  0.2445  0.1646  0.6459
23320SOL     OW72276   2.314   0.250   7.315 -0.5792 -0.4951 -0.1522
23320SOL    HW172277   2.266   0.207   7.245  0.5700 -1.5918 -0.2940
23320SOL    HW272278   2.374   0.309   7.270  0.2773 -1.3234 -0.1208
23321SOL     OW72279   5.316   1.439   0.702 -0.0449 -0.4526 -0.1492
23321SOL    HW172280   5.261   1.481   0.636 -0.2379 -0.0871  0.2355
23321SOL    HW272281   5.281   1.471   0.785 -0.9077 -2.2151  0.2049
23322SOL     OW72282   0.591   8.862   6.257  0.7252 -0.2422 -0.2612
23322SOL    HW172283   0.566   8.954   6.264  1.4549 -0.0438 -0.2102
23322SOL    HW272284   0.518   8.814   6.298  0.7170  0.3597  0.4448
23323SOL     OW72285   0.094   7.833   0.238 -0.0125  0.0095  0.0139
23323SOL    HW172286   0.106   7.744   0.271 -0.7978 -0.6267 -1.3607
23323SOL    HW272287   0.149   7.837   0.160  1.5927  1.4134  1.1144
23324SOL     OW72288   5.075   6.337   6.947  0.0136  0.0870  0.1411
23324SOL    HW172289   5.046   6.307   6.860  1.4612 -1.2804  0.0846
23324SOL    HW272290   5.170   6.324   6.946 -0.0782 -1.1669  2.3501
23325SOL     OW72291   5.742   8.957   1.803 -0.1354 -0.1593  0.1965
23325SOL    HW172292   5.647   8.969   1.803  0.0800  2.0263  1.5859
23325SOL    HW272293   5.774   9.014   1.733  0.1281 -1.4713 -0.7842
23326SOL     OW72294   1.394   3.949   9.848  0.0047  0.3439 -0.3588
23326SOL    HW172295   1.426   3.891   9.918 -1.6014  0.0493  0.1621
23326SOL    HW272296   1.373   3.890   9.776 -0.6800  0.3736 -0.1881
23327SOL     OW72297   8.723   5.483   4.057  0.9416 -0.1829  0.0403
23327SOL    HW172298   8.635   5.460   4.028  0.4965 -0.7692  1.7588
23327SOL    HW272299   8.711   5.566   4.104  1.4531  0.1305 -0.3646
23328SOL     OW72300   8.839   7.140   0.127  0.4378  0.2853  0.0415
23328SOL    HW172301   8.858   7.179   0.212 -1.4526 -1.1133  1.1626
23328SOL    HW272302   8.816   7.214   0.071 -1.2519  1.0024  1.5967
23329SOL     OW72303   8.205  10.026   6.834  0.0561  0.4749  0.2529
23329SOL    HW172304   8.264   9.980   6.775 -0.8566 -1.2586  0.6156
23329SOL    HW272305   8.260  10.091   6.878  1.6566 -0.9608  0.4618
23330SOL     OW72306   3.733   7.522   9.213  0.1855  0.1590 -0.0867
23330SOL    HW172307   3.749   7.617   9.211  0.4431  0.1153 -0.0766
23330SOL    HW272308   3.809   7.486   9.258  0.5368 -0.1469 -0.9017
23331SOL     OW72309   9.549   9.371   7.339 -0.6767  0.1028  0.2655
23331SOL    HW172310   9.518   9.319   7.265 -0.7603  1.8950 -1.0283
23331SOL    HW272311   9.644   9.373   7.329 -0.6010 -0.4760  0.8025
23332SOL     OW72312   0.345   5.039   8.671 -0.4019  0.1160  0.6606
23332SOL    HW172313   0.325   5.128   8.642  2.3114  0.8759  0.8855
23332SOL    HW272314   0.299   4.982   8.609 -1.1960  1.6529 -0.2165
23333SOL     OW72315   9.308   0.657   5.752 -0.1164 -0.0881  0.3155
23333SOL    HW172316   9.295   0.617   5.838  2.1624  1.6597  1.5918
23333SOL    HW272317   9.397   0.691   5.754 -0.3994  1.0922 -2.3192
23334SOL     OW72318   1.523   5.519   4.041  0.0444  0.4158  0.0558
23334SOL    HW172319   1.483   5.432   4.035  1.7376 -0.3856 -0.3930
23334SOL    HW272320   1.454   5.579   4.015 -0.8839 -0.8808 -0.6234
23335SOL     OW72321   1.463   3.717   5.618  0.2812  0.2600  0.3301
23335SOL    HW172322   1.514   3.647   5.576 -0.9151  1.1569 -2.9565
23335SOL    HW272323   1.374   3.704   5.586 -0.5153  1.7577  1.7795
23336SOL     OW72324   1.005   0.458   0.731 -0.2244 -0.3546 -0.2198
23336SOL    HW172325   1.057   0.431   0.807  0.2801 -0.7509 -0.6948
23336SOL    HW272326   1.062   0.518   0.683 -0.6744  0.1709 -0.1065
23337SOL     OW72327   8.193   3.966   7.904 -0.0250 -0.5793 -0.3597
23337SOL    HW172328   8.189   3.879   7.863 -1.0839 -0.8768  0.3228
23337SOL    HW272329   8.286   3.983   7.914  0.2027 -2.0105  0.2555
23338SOL     OW72330   0.690   4.605   1.378 -0.2448  0.3194  0.3106
23338SOL    HW172331   0.746   4.532   1.354 -0.4651 -0.1225  1.1027
23338SOL    HW272332   0.750   4.673   1.408 -0.0230  0.5759 -0.6669
23339SOL     OW72333   1.675   0.067   5.029 -0.0960 -0.8279 -0.3435
23339SOL    HW172334   1.759   0.111   5.042 -0.0341 -0.8046 -0.8196
23339SOL    HW272335   1.685  -0.018   5.072 -1.1499  0.6306  3.1542
23340SOL     OW72336   8.694   1.878   0.640  0.6902 -0.0361 -0.1113
23340SOL    HW172337   8.613   1.909   0.600 -0.3562 -0.0678  1.8806
23340SOL    HW272338   8.753   1.863   0.566 -0.4429  1.8460 -1.4690
23341SOL     OW72339   4.752   6.760   0.000  0.3821 -0.0760 -0.2648
23341SOL    HW172340   4.663   6.763   0.035  0.2492 -0.7508 -0.5176
23341SOL    HW272341   4.755   6.830  -0.064  0.1217  0.1316 -0.0540
23342SOL     OW72342   6.351   6.374   3.186 -0.0508 -0.8146  0.0918
23342SOL    HW172343   6.400   6.316   3.245 -0.5451 -1.6408 -0.2922
23342SOL    HW272344   6.319   6.316   3.117 -0.1486  0.0086 -0.5649
23343SOL     OW72345   9.241   5.736   7.971  0.7787 -0.2633 -0.1380
23343SOL    HW172346   9.234   5.703   8.061 -0.0548 -0.1240 -0.1455
23343SOL    HW272347   9.202   5.667   7.917  2.1236 -0.7701 -0.4995
23344SOL     OW72348   3.208   6.413   1.305  0.5211  0.9187 -0.1464
23344SOL    HW172349   3.256   6.428   1.386 -0.0986 -1.2307  0.6879
23344SOL    HW272350   3.276   6.397   1.239  1.0220 -0.4517  0.6581
23345SOL     OW72351   5.690   2.162   5.592 -0.0059 -1.0595  0.6292
23345SOL    HW172352   5.627   2.190   5.657 -2.3182 -0.1016 -1.8535
23345SOL    HW272353   5.695   2.234   5.530  0.8778 -2.5262 -1.1122
23346SOL     OW72354   0.379  10.322   2.403 -0.0455  0.6261 -0.6326
23346SOL    HW172355   0.419  10.311   2.489  0.3692  1.2678 -0.7399
23346SOL    HW272356   0.405  10.245   2.354  0.2166  0.5510 -0.3753
23347SOL     OW72357   1.150   7.693   3.085  0.0680 -0.1514  0.4225
23347SOL    HW172358   1.071   7.639   3.073  0.5751 -0.8391  0.0644
23347SOL    HW272359   1.143   7.726   3.174 -0.0587 -1.1740  0.8135
23348SOL     OW72360   6.642   6.736   9.783  0.4217 -0.1918  0.2353
23348SOL    HW172361   6.603   6.824   9.786 -0.2391 -0.4443 -0.5672
23348SOL    HW272362   6.715   6.745   9.721 -0.2174 -0.4084 -0.5733
23349SOL     OW72363   6.798   1.849   6.306  0.9577  0.2673 -0.0211
23349SOL    HW172364   6.810   1.899   6.225  0.0549  0.3324 -0.1279
23349SOL    HW272365   6.793   1.916   6.374 -4.2642  0.8552 -0.5523
23350SOL     OW72366   2.946   4.807   1.369  0.2876  0.6360  0.1805
23350SOL    HW172367   2.994   4.878   1.412 -1.2324  1.3588  0.7425
23350SOL    HW272368   3.014   4.746   1.342  1.4911  1.3613  1.4193
23351SOL     OW72369   0.454  10.511   2.231  0.2594  0.1817 -0.1077
23351SOL    HW172370   0.430  10.458   2.307 -0.2928 -1.1673 -1.1715
23351SOL    HW272371   0.549  10.503   2.225  0.3410  0.5473  0.6096
23352SOL     OW72372   6.433  10.467   5.301 -0.4703 -0.0569  0.4023
23352SOL    HW172373   6.387  10.504   5.376 -0.8071 -0.4979  0.4134
23352SOL    HW272374   6.515  10.433   5.338 -0.2833  0.4181  0.4362
23353SOL     OW72375   5.968   1.308   9.236 -0.1177 -0.0055 -0.7512
23353SOL    HW172376   6.001   1.218   9.242 -0.1741  0.0682  2.0042
23353SOL    HW272377   6.036   1.360   9.278 -1.7110  0.7064  1.0782
23354SOL     OW72378   2.974   4.768   9.714  0.7164 -0.2793 -0.1725
23354SOL    HW172379   3.027   4.841   9.746 -1.4217  0.8079  1.1407
23354SOL    HW272380   3.000   4.694   9.769  0.5670  0.3497  0.7718
23355SOL     OW72381   8.117   4.991   7.348  0.7477 -0.2127  0.5745
23355SOL    HW172382   8.023   5.006   7.347  0.2646 -2.6516  1.6236
23355SOL    HW272383   8.145   5.014   7.437  1.3241  1.2103  0.0550
23356SOL     OW72384   5.132   1.994   3.772  0.0381 -0.3703 -0.2310
23356SOL    HW172385   5.176   1.998   3.687 -0.8531  0.3805 -0.6726
23356SOL    HW272386   5.089   2.079   3.781 -2.6770 -1.5832 -0.5814
23357SOL     OW72387   8.543   5.771  10.201 -1.0488  0.3558 -0.2632
23357SOL    HW172388   8.500   5.833  10.261  0.5593  2.1075 -0.8440
23357SOL    HW272389   8.601   5.720  10.258  0.2699  1.8275 -0.2518
23358SOL     OW72390   0.916   1.662   7.238  0.2589  0.0255 -0.5852
23358SOL    HW172391   1.002   1.692   7.266 -0.8016  2.5482  0.2768
23358SOL    HW272392   0.909   1.690   7.147  0.6580 -1.0047 -0.9493
23359SOL     OW72393   6.443  10.238   1.355  0.5758 -0.6311 -0.4003
23359SOL    HW172394   6.460  10.145   1.373 -1.3027 -0.5551  2.5674
23359SOL    HW272395   6.447  10.279   1.442 -2.1662  1.3852 -1.1091
23360SOL     OW72396   5.011   3.418   0.792  0.4769 -0.2014 -0.2779
23360SOL    HW172397   4.961   3.473   0.731  0.0277 -1.7541 -1.3765
23360SOL    HW272398   5.098   3.411   0.753  0.1357 -1.3505 -0.8845
23361SOL     OW72399   9.748  10.483   8.132 -0.0492 -0.3055 -0.1221
23361SOL    HW172400   9.750  10.518   8.043  0.4057  1.5755  0.5802
23361SOL    HW272401   9.836  10.449   8.147 -0.2015 -0.8640 -0.4662
23362SOL     OW72402   6.236   4.702  10.137 -0.2946 -0.1502  0.5294
23362SOL    HW172403   6.309   4.746  10.094 -1.4014 -1.5213 -3.1266
23362SOL    HW272404   6.160   4.759  10.120 -0.9193 -1.1594 -0.1582
23363SOL     OW72405   8.363   8.491   5.332 -0.2727  0.5429 -0.2545
23363SOL    HW172406   8.415   8.451   5.403 -0.3131 -0.0908 -0.5753
23363SOL    HW272407   8.419   8.562   5.299  0.4461 -0.2014 -0.6685
23364SOL     OW72408   7.889   4.961   8.961  0.0382  0.0276 -0.2304
23364SOL    HW172409   7.821   4.925   8.905 -0.6465  1.5716 -0.4515
23364SOL    HW272410   7.971   4.937   8.918 -0.3680 -1.3736 -0.2587
23365SOL     OW72411   1.071   7.916   7.684 -0.0664 -0.1375 -0.3765
23365SOL    HW172412   0.994   7.973   7.681 -1.0930 -1.3981  0.6967
23365SOL    HW272413   1.058   7.863   7.763  0.8076 -1.9031 -1.3597
23366SOL     OW72414   3.661   3.243   5.803 -0.1107  0.2043 -0.0645
23366SOL    HW172415   3.585   3.185   5.794  0.2664 -0.3293  0.1449
23366SOL    HW272416   3.641   3.317   5.746  0.3399 -1.1160 -2.0707
23367SOL     OW72417   1.383   4.156   3.703  0.2883  0.0651 -0.7004
23367SOL    HW172418   1.419   4.229   3.752  1.2386 -0.0740 -1.1478
23367SOL    HW272419   1.375   4.085   3.766 -2.3422  1.0312  0.1585
23368SOL     OW72420   6.070   3.972   9.706  0.0320  0.3270 -0.3407
23368SOL    HW172421   6.154   3.937   9.735 -1.2674 -0.0610  3.5221
23368SOL    HW272422   6.045   3.916   9.632  2.3099 -0.6590 -0.4561
23369SOL     OW72423   5.176   4.917   2.545 -0.8973  0.4036 -0.3963
23369SOL    HW172424   5.194   4.960   2.462 -3.7254 -1.0878 -1.9062
23369SOL    HW272425   5.153   4.988   2.605  2.7586  1.6813 -0.2213
23370SOL     OW72426   0.051   3.265   7.223 -0.3579 -0.4405 -0.3077
23370SOL    HW172427  -0.016   3.332   7.233  0.2259  0.0871  0.1543
23370SOL    HW272428   0.003   3.187   7.195 -1.3076 -0.3599  0.9835
23371SOL     OW72429   7.753   2.669   5.440  0.3883  0.1275 -0.6710
23371SOL    HW172430   7.659   2.668   5.424 -0.1410 -0.0870  1.9924
23371SOL    HW272431   7.784   2.747   5.395 -1.2077  0.6733 -0.8854
23372SOL     OW72432   1.095  10.282   3.142 -0.1854 -0.7176 -0.2166
23372SOL    HW172433   1.103  10.288   3.237  0.2814 -0.7300 -0.2528
23372SOL    HW272434   1.139  10.200   3.119 -0.2814 -0.7076 -0.4462
23373SOL     OW72435   9.408   6.858   7.625 -0.4146 -0.3869 -0.0348
23373SOL    HW172436   9.427   6.858   7.531  0.2032 -0.4315  0.0907
23373SOL    HW272437   9.473   6.916   7.663 -1.7291  1.0368  0.1668
23374SOL     OW72438   5.553   0.882   0.321  0.2822  0.3550  0.3077
23374SOL    HW172439   5.614   0.925   0.381 -0.8426  1.7227  0.5289
23374SOL    HW272440   5.558   0.790   0.344  1.6295  0.5461  0.8792
23375SOL     OW72441   4.291   8.552   1.007 -0.6144 -0.1020 -0.8041
23375SOL    HW172442   4.215   8.599   0.973 -0.8004  0.6823  0.6317
23375SOL    HW272443   4.328   8.610   1.073  1.6546 -0.1768 -1.9134
23376SOL     OW72444   0.995   6.131   8.878  0.4931  0.0106  0.5882
23376SOL    HW172445   1.004   6.195   8.949  0.7245  1.0153 -0.3256
23376SOL    HW272446   1.079   6.133   8.833  0.1274 -0.1496 -0.1060
23377SOL     OW72447   7.742   1.283   0.613  0.2547 -0.2133 -1.0280
23377SOL    HW172448   7.705   1.198   0.636  0.7041 -0.7376 -2.1846
23377SOL    HW272449   7.768   1.321   0.696  0.7909 -1.5531 -0.5628
23378SOL     OW72450   6.378   5.362   6.880 -0.3536  0.2440 -0.2811
23378SOL    HW172451   6.361   5.365   6.786 -0.8773  0.0010 -0.1922
23378SOL    HW272452   6.295   5.337   6.920 -0.1117  0.2505  0.2417
23379SOL     OW72453   2.887   3.417   2.667  0.3430 -0.0548  0.0119
23379SOL    HW172454   2.892   3.398   2.761  2.0834 -2.8551 -0.5436
23379SOL    HW272455   2.967   3.464   2.647  0.5668 -0.5513 -0.2722
23380SOL     OW72456   3.381   9.470   9.893  0.5999 -0.0638 -0.1721
23380SOL    HW172457   3.359   9.418   9.816 -1.5028 -0.1378  0.4141
23380SOL    HW272458   3.380   9.561   9.863 -1.2899 -0.0114 -0.0574
23381SOL     OW72459   6.765   3.754   2.487 -0.1842  0.0273  0.0230
23381SOL    HW172460   6.678   3.746   2.449 -0.4577 -0.0713  0.6590
23381SOL    HW272461   6.751   3.748   2.581  0.2715  2.0193  0.2710
23382SOL     OW72462   4.052   1.652   2.802 -0.2671 -0.0302  0.3380
23382SOL    HW172463   3.964   1.683   2.780 -0.2294 -0.2742 -0.1650
23382SOL    HW272464   4.093   1.727   2.846 -0.5558  0.2539  0.1337
23383SOL     OW72465   8.237   2.431   1.785 -0.2367  0.2050 -0.1934
23383SOL    HW172466   8.178   2.507   1.789  0.9639  1.1770 -0.3874
23383SOL    HW272467   8.315   2.459   1.833  0.2637 -0.8733 -0.3629
23384SOL     OW72468   4.404   8.709   4.302  0.1206 -0.2691 -0.0412
23384SOL    HW172469   4.374   8.664   4.381 -1.3907  0.0702 -0.3882
23384SOL    HW272470   4.422   8.798   4.331  0.2977 -0.3383  0.0651
23385SOL     OW72471   1.119   1.950   8.635 -0.0155  0.4443 -0.3091
23385SOL    HW172472   1.096   1.911   8.550 -1.2604  1.6766 -0.5802
23385SOL    HW272473   1.064   2.028   8.641  0.3695  0.6245  1.4524
23386SOL     OW72474   3.434   5.334   5.612 -0.6044 -0.2249  0.3717
23386SOL    HW172475   3.492   5.261   5.588 -0.5983 -0.1485  0.1519
23386SOL    HW272476   3.494   5.406   5.632 -0.5323 -0.7439  2.2268
23387SOL     OW72477   4.165   0.678   2.681  0.0783 -0.9886  0.8304
23387SOL    HW172478   4.179   0.602   2.737  0.1359 -2.0448 -0.5657
23387SOL    HW272479   4.186   0.648   2.593 -0.4738  0.4831  0.1502
23388SOL     OW72480   2.915   1.358   6.058 -0.2074 -0.2598  0.0042
23388SOL    HW172481   2.944   1.367   6.149 -0.0489 -0.0737 -0.0628
23388SOL    HW272482   2.820   1.367   6.061 -0.2145 -0.3903  0.1683
23389SOL     OW72483   8.125   7.700   5.808 -0.7156  0.0931  0.5766
23389SOL    HW172484   8.079   7.619   5.784 -1.3156  0.6453 -0.1850
23389SOL    HW272485   8.078   7.769   5.761  2.0360  0.5050 -1.9092
23390SOL     OW72486   3.246   3.769   2.648  0.7120  0.3957  0.0474
23390SOL    HW172487   3.213   3.857   2.667  0.2584  0.2442 -0.0411
23390SOL    HW272488   3.318   3.783   2.586 -0.4579  0.5848 -1.3071
23391SOL     OW72489   4.515   2.486   7.281 -0.0156  0.5803 -0.2953
23391SOL    HW172490   4.486   2.460   7.368  0.2306 -0.9454 -0.6366
23391SOL    HW272491   4.548   2.575   7.292  0.0333  0.4050  1.1641
23392SOL     OW72492   3.216   0.460   1.633 -0.2502 -0.4347 -0.4618
23392SOL    HW172493   3.295   0.454   1.579  0.4259  0.2309  0.4178
23392SOL    HW272494   3.173   0.375   1.623  2.5911 -2.3537  2.0369
23393SOL     OW72495  10.090   3.937   1.284  0.6088 -0.6359 -0.5441
23393SOL    HW172496  10.016   3.877   1.296 -0.5511  0.5629 -1.4028
23393SOL    HW272497  10.126   3.914   1.198  0.2871 -0.2629 -0.7854
23394SOL     OW72498   0.240   8.425   3.911 -0.0324 -0.2881 -0.7554
23394SOL    HW172499   0.209   8.380   3.832  0.6407 -2.7116  0.2545
23394SOL    HW272500   0.335   8.417   3.908  0.1249  1.3313 -0.6371
23395SOL     OW72501   6.153   6.403   2.541  0.8315  0.9217  0.0460
23395SOL    HW172502   6.242   6.372   2.555  1.0346  1.0267 -0.9602
23395SOL    HW272503   6.149   6.424   2.448 -0.7914 -0.9004 -0.3510
23396SOL     OW72504   3.888   2.438   4.744  0.0546 -0.0854  0.1527
23396SOL    HW172505   3.795   2.429   4.765 -0.1853 -1.0653 -1.1878
23396SOL    HW272506   3.889   2.483   4.659  0.8022 -0.0234  0.1870
23397SOL     OW72507   5.551   4.882   9.336 -0.0633 -0.0100  0.3164
23397SOL    HW172508   5.554   4.789   9.315  1.8270 -0.0787  0.7759
23397SOL    HW272509   5.584   4.888   9.426 -0.3670  1.0819  0.3715
23398SOL     OW72510   7.280   4.056   0.050 -0.1787  0.4595 -0.3620
23398SOL    HW172511   7.375   4.049   0.042 -0.3297 -2.1313 -1.0430
23398SOL    HW272512   7.255   3.978   0.099 -1.9949  0.8073 -0.6599
23399SOL     OW72513   8.396   5.971   2.935  0.1246  0.5141 -0.3233
23399SOL    HW172514   8.446   6.025   2.875 -2.1170  3.3192  0.1154
23399SOL    HW272515   8.304   5.991   2.914 -0.8681 -2.9495  0.1145
23400SOL     OW72516   5.927   5.844   0.074 -0.4060 -0.0863 -0.7694
23400SOL    HW172517   6.002   5.809   0.026  0.3600  0.5455 -0.0459
23400SOL    HW272518   5.856   5.845   0.010  0.1843 -0.7363 -1.4474
23401SOL     OW72519   5.755   1.765   7.394 -0.0041 -0.3589  0.9299
23401SOL    HW172520   5.832   1.769   7.337 -0.9222 -0.7873 -0.4080
23401SOL    HW272521   5.784   1.715   7.470  1.3243  0.4076  0.9561
23402SOL     OW72522   0.799   6.020   5.558  0.6752 -0.1468  0.1580
23402SOL    HW172523   0.765   5.945   5.509 -1.5645  0.9662 -0.1310
23402SOL    HW272524   0.816   5.986   5.645 -0.4849 -0.9882  0.0890
23403SOL     OW72525   2.751  10.081   7.835 -0.5647  0.6100  0.9215
23403SOL    HW172526   2.732  10.162   7.786  0.0627  0.5514  0.5684
23403SOL    HW272527   2.847  10.080   7.842 -0.5468 -0.2831  0.6129
23404SOL     OW72528   3.233   6.312   4.613  0.1649 -0.0431 -0.1524
23404SOL    HW172529   3.310   6.270   4.651 -0.4228 -2.0524 -1.0639
23404SOL    HW272530   3.266   6.360   4.537  0.5415 -0.8684 -0.5190
23405SOL     OW72531   0.512   7.637   3.072 -0.6569 -0.1650 -0.4932
23405SOL    HW172532   0.458   7.576   3.121 -1.6473  1.5498  0.6409
23405SOL    HW272533   0.451   7.688   3.020  0.1000  0.1388 -1.1090
23406SOL     OW72534   5.220   5.743   1.705  0.0739  0.1421  0.5942
23406SOL    HW172535   5.167   5.667   1.727 -0.1245 -0.0790 -0.5927
23406SOL    HW272536   5.310   5.717   1.725 -0.0317 -0.2725  0.5370
23407SOL     OW72537   9.668   1.682   2.853 -0.2693  0.2157 -0.3653
23407SOL    HW172538   9.739   1.698   2.915  1.6165 -0.4328 -2.2685
23407SOL    HW272539   9.619   1.764   2.853  1.1944  1.1379  0.0910
23408SOL     OW72540   8.393   6.839   4.712  0.1896  0.1816  0.0016
23408SOL    HW172541   8.394   6.816   4.619  0.8862  0.4900 -0.0707
23408SOL    HW272542   8.305   6.816   4.741  0.5232 -1.6905 -0.2937
23409SOL     OW72543   7.842   9.273   9.845 -0.6293  0.2672  0.6017
23409SOL    HW172544   7.858   9.185   9.812  1.0045  0.5875  0.4397
23409SOL    HW272545   7.758   9.299   9.807 -0.1110 -0.4088 -1.0865
23410SOL     OW72546   6.440   5.842   3.098 -0.6286 -0.2040 -0.4635
23410SOL    HW172547   6.455   5.805   3.011  1.6920 -0.1803 -0.1524
23410SOL    HW272548   6.514   5.903   3.110 -2.2324  1.6561  0.5678
23411SOL     OW72549   9.480   4.223   7.686  0.1221  0.2374  0.0697
23411SOL    HW172550   9.399   4.234   7.637  0.7702 -0.1830 -1.1273
23411SOL    HW272551   9.478   4.292   7.752 -0.8603  0.6921 -0.4205
23412SOL     OW72552   6.405   2.232   3.167  0.2112  0.0482 -0.2952
23412SOL    HW172553   6.443   2.168   3.228 -0.0242  0.3250  0.1527
23412SOL    HW272554   6.403   2.314   3.218  0.7855  0.4861 -0.9533
23413SOL     OW72555   2.916   1.731   5.225 -0.0119 -0.6000  0.6129
23413SOL    HW172556   2.984   1.698   5.166  0.0685 -2.7891  1.8370
23413SOL    HW272557   2.960   1.737   5.310 -1.4569 -2.8133  1.6070
23414SOL     OW72558   5.094   9.672   5.634 -0.3288 -0.3138  0.0522
23414SOL    HW172559   5.026   9.626   5.584  0.3551 -1.9103  0.5125
23414SOL    HW272560   5.150   9.710   5.567 -1.3055  0.4853 -0.3406
23415SOL     OW72561  10.327   0.116   8.309  0.6168  0.0755  0.0004
23415SOL    HW172562  10.250   0.073   8.272 -0.6977  1.6701  0.7587
23415SOL    HW272563  10.306   0.209   8.308  2.6290  0.5774  0.0703
23416SOL     OW72564   2.456   4.051   5.436  0.5454 -0.6953 -0.7436
23416SOL    HW172565   2.426   4.035   5.525  0.8509  0.8957 -0.3085
23416SOL    HW272566   2.378   4.079   5.388  0.6551 -0.0405 -0.5520
23417SOL     OW72567  10.483   0.634   4.019 -0.8037  0.3552 -0.3401
23417SOL    HW172568  10.419   0.696   3.985  0.1962  0.6146 -1.8471
23417SOL    HW272569  10.554   0.688   4.054 -1.3143  0.0724  1.1682
23418SOL     OW72570   0.368   7.270   0.379 -0.0914  0.6618  0.0448
23418SOL    HW172571   0.356   7.345   0.322 -0.0882  0.1901 -0.5787
23418SOL    HW272572   0.306   7.284   0.451 -0.0340  1.2949 -0.0253
23419SOL     OW72573   1.944   4.318   6.620  0.8375  0.0971 -0.4129
23419SOL    HW172574   1.906   4.282   6.540  1.2209 -2.2747  0.3677
23419SOL    HW272575   2.038   4.300   6.612  0.7481 -1.2579  0.9914
23420SOL     OW72576   6.576   9.491   2.712 -0.2724 -1.0622  0.0921
23420SOL    HW172577   6.517   9.440   2.768  2.8767 -1.2091  3.6343
23420SOL    HW272578   6.649   9.433   2.694 -0.1409 -0.2377 -2.5071
23421SOL     OW72579   7.128   4.003   2.512  0.0766  0.3032  0.1217
23421SOL    HW172580   7.128   4.013   2.417 -1.8280  3.2146  0.3181
23421SOL    HW272581   7.154   4.089   2.546 -1.6377  0.0864  2.2226
23422SOL     OW72582   7.964   4.165   3.530 -0.1018  0.0358  0.0202
23422SOL    HW172583   7.974   4.186   3.623  1.0063  2.1186 -0.5209
23422SOL    HW272584   8.014   4.084   3.518  2.2050  1.2912  0.7053
23423SOL     OW72585   5.344   1.576   9.936  0.1928  0.4761 -0.2785
23423SOL    HW172586   5.395   1.563   9.856  0.2276 -0.0318 -0.1768
23423SOL    HW272587   5.268   1.627   9.908  1.9657  3.4916 -0.0002
23424SOL     OW72588   4.535   6.056   8.981 -0.3190  0.3242  0.0693
23424SOL    HW172589   4.556   5.995   9.053  1.8458  1.7443  0.7429
23424SOL    HW272590   4.467   6.113   9.017 -0.4431 -0.0183  0.3913
23425SOL     OW72591   2.456   5.483  10.213  0.0388  0.4936  0.1310
23425SOL    HW172592   2.382   5.466  10.272  0.6440 -1.7594  0.3234
23425SOL    HW272593   2.451   5.413  10.147  0.8143  1.5205 -1.0569
23426SOL     OW72594   1.796   5.968   7.611 -0.0851 -0.4354 -0.2832
23426SOL    HW172595   1.887   5.992   7.626  0.0455 -0.3333 -1.1916
23426SOL    HW272596   1.800   5.888   7.557 -0.5252 -1.6172  1.3575
23427SOL     OW72597   0.944   1.457   9.895  0.4164 -0.2496  0.6022
23427SOL    HW172598   1.017   1.442   9.835  1.1883 -1.1061  1.7031
23427SOL    HW272599   0.888   1.380   9.882 -0.3765  0.4606 -0.3224
23428SOL     OW72600   7.808   2.108   4.334  0.0474  0.3441  0.7635
23428SOL    HW172601   7.853   2.031   4.369 -1.0082 -0.5850  0.1409
23428SOL    HW272602   7.762   2.145   4.409  1.4019  1.0133  1.2984
23429SOL     OW72603   3.113   5.698   2.291 -0.3387  0.3291 -0.3827
23429SOL    HW172604   3.085   5.724   2.203 -0.3065  0.2898 -0.4051
23429SOL    HW272605   3.043   5.642   2.324  0.3595 -0.9837 -1.0167
23430SOL     OW72606   2.738   2.184   6.091 -0.5047 -0.3335  0.0969
23430SOL    HW172607   2.775   2.201   6.178  0.3353  1.3401 -0.5457
23430SOL    HW272608   2.650   2.151   6.109 -1.1462  1.9519  1.5996
23431SOL     OW72609   6.521   2.047   3.354 -0.1486  0.1330 -0.0705
23431SOL    HW172610   6.609   2.076   3.376  0.2493 -0.1072 -1.2279
23431SOL    HW272611   6.519   1.954   3.379  0.7881 -0.5366 -2.2119
23432SOL     OW72612   0.881   0.523   2.552  0.1582  0.1907 -0.0182
23432SOL    HW172613   0.923   0.585   2.492  1.1747 -0.2231  0.2325
23432SOL    HW272614   0.941   0.448   2.554 -0.5788 -0.3990  0.4120
23433SOL     OW72615   6.572   4.138   4.914 -0.1659  0.1181  0.3306
23433SOL    HW172616   6.531   4.196   4.850 -0.0183  0.8330  0.8746
23433SOL    HW272617   6.502   4.076   4.938 -1.4903  2.2382  2.3803
23434SOL     OW72618   8.166   2.262   1.597 -0.1661  0.3254  0.0626
23434SOL    HW172619   8.213   2.314   1.663 -0.1917  0.2542  0.1369
23434SOL    HW272620   8.175   2.313   1.516 -2.3186  1.7736  0.6300
23435SOL     OW72621   1.648   4.542   6.375 -0.4089 -0.1284 -0.4704
23435SOL    HW172622   1.633   4.550   6.470  0.2268 -0.0647 -0.3708
23435SOL    HW272623   1.642   4.448   6.358  0.8822 -0.2983 -0.1096
23436SOL     OW72624   7.075   5.193   3.193  0.6713  0.8442  0.4536
23436SOL    HW172625   7.149   5.183   3.134  1.5674  0.1834  1.6411
23436SOL    HW272626   7.045   5.103   3.209 -1.9290  1.1610 -1.8053
23437SOL     OW72627   7.545   7.088   6.542 -0.1336  0.0451  0.0418
23437SOL    HW172628   7.608   7.127   6.481  1.5662 -1.9212  0.4182
23437SOL    HW272629   7.531   7.000   6.509 -1.6985  0.0014  0.7365
23438SOL     OW72630   4.295   6.888   6.227  0.0568 -0.7014  0.1081
23438SOL    HW172631   4.255   6.829   6.163  0.5066 -1.1992  0.2810
23438SOL    HW272632   4.387   6.894   6.201 -0.1048  0.3961 -0.2541
23439SOL     OW72633  10.061   7.346   7.190  0.5158  0.3621  0.1469
23439SOL    HW172634  10.021   7.274   7.141  0.2836  0.8453 -0.3928
23439SOL    HW272635  10.089   7.307   7.273 -0.7504 -0.0857  0.3889
23440SOL     OW72636   3.491   1.941   5.639  0.2893  0.3230 -0.2954
23440SOL    HW172637   3.443   2.024   5.638 -0.2360  0.1127  1.9094
23440SOL    HW272638   3.575   1.962   5.679 -0.1970 -0.3361  1.1357
23441SOL     OW72639   2.864  10.076   6.158  0.0440 -0.0285  0.0159
23441SOL    HW172640   2.895  10.167   6.165 -1.5482  0.6977 -1.3954
23441SOL    HW272641   2.832  10.069   6.068  0.1885 -2.0317  0.0810
23442SOL     OW72642   2.628   2.747   9.329  0.3486  0.2891  0.1614
23442SOL    HW172643   2.637   2.824   9.273  0.7138  1.4799  1.7732
23442SOL    HW272644   2.562   2.692   9.286 -0.3837  1.8048 -0.7036
23443SOL     OW72645   6.801   0.986  10.069 -0.1619 -0.3921  0.0946
23443SOL    HW172646   6.727   0.927  10.084  0.8509 -1.4701  1.0115
23443SOL    HW272647   6.878   0.933  10.085  0.8334  0.7730 -0.6209
23444SOL     OW72648   1.823   0.666   7.576  0.7147 -0.4708  0.5407
23444SOL    HW172649   1.762   0.672   7.503  1.3931 -0.6965 -0.0507
23444SOL    HW272650   1.775   0.703   7.650  0.1817  0.1707 -0.1106
23445SOL     OW72651   9.968   2.696   2.640 -0.2936  0.4715  0.3388
23445SOL    HW172652   9.969   2.757   2.714  0.4671  0.5333  0.2915
23445SOL    HW272653   9.945   2.611   2.679 -2.2688  0.9301  0.2643
23446SOL     OW72654   3.127   3.166   1.088 -0.1773  0.0146  0.0973
23446SOL    HW172655   3.089   3.238   1.139  0.5702  0.7435 -0.3500
23446SOL    HW272656   3.221   3.174   1.103 -0.1312 -1.4646  0.7985
23447SOL     OW72657   3.084   7.314   2.274  0.1006  0.3014 -0.0446
23447SOL    HW172658   2.996   7.313   2.236  0.1982  1.1692 -0.3160
23447SOL    HW272659   3.140   7.345   2.203  0.6547 -0.3612  0.0920
23448SOL     OW72660   6.779   7.975   6.292  0.0171 -0.4760 -0.1127
23448SOL    HW172661   6.856   8.018   6.327 -1.2509  2.9326 -1.0164
23448SOL    HW272662   6.807   7.941   6.207  0.0664  3.2683 -1.7899
23449SOL     OW72663   1.124  10.247   8.853 -0.5189  0.4371  0.3102
23449SOL    HW172664   1.048  10.257   8.910 -1.1877  0.1357 -0.4986
23449SOL    HW272665   1.127  10.153   8.833 -2.3445  0.8759 -2.7723
23450SOL     OW72666   7.148   3.447   5.397  0.4854  0.0214 -0.1070
23450SOL    HW172667   7.122   3.363   5.358 -1.0327 -0.4828  1.8620
23450SOL    HW272668   7.191   3.423   5.479  0.0478  1.1660  0.4752
23451SOL     OW72669   3.166   2.347   6.038  0.0034  0.9585 -0.8196
23451SOL    HW172670   3.190   2.341   6.131  3.1757  2.3081 -1.4084
23451SOL    HW272671   3.189   2.261   6.002 -1.1208  0.4733 -0.4290
23452SOL     OW72672   8.500   1.080   8.152  0.0105  0.3977 -0.0431
23452SOL    HW172673   8.552   1.123   8.084  0.1031 -0.6897 -0.6907
23452SOL    HW272674   8.561   1.020   8.195 -0.4999 -0.3028 -0.2749
23453SOL     OW72675   1.898   6.939   4.212  0.2766  0.5705  0.5998
23453SOL    HW172676   1.858   6.853   4.221 -0.8926  0.8855 -1.0650
23453SOL    HW272677   1.967   6.928   4.147  0.5853  0.7608  0.8894
23454SOL     OW72678   5.643   3.571   6.999 -0.4464 -0.1753 -0.0202
23454SOL    HW172679   5.695   3.491   6.990 -0.3695 -0.2140  0.7260
23454SOL    HW272680   5.553   3.544   6.981 -0.3753 -0.3535 -0.1053
23455SOL     OW72681   0.421   6.641   8.718  0.1856 -0.2688 -0.8541
23455SOL    HW172682   0.494   6.630   8.656 -0.4252  1.0156 -1.8397
23455SOL    HW272683   0.365   6.566   8.702  0.8307 -0.7882 -0.7264
23456SOL     OW72684   0.628   4.632   1.657  0.3202  0.0574 -0.1905
23456SOL    HW172685   0.536   4.605   1.658  0.3360 -0.0163 -0.6192
23456SOL    HW272686   0.649   4.640   1.565  0.9734 -0.6955 -0.1123
23457SOL     OW72687   1.699   2.772   7.189 -0.4719 -0.3275 -0.3890
23457SOL    HW172688   1.634   2.785   7.119 -1.1617  1.3094  0.4841
23457SOL    HW272689   1.667   2.696   7.238  0.0348 -1.5052 -1.8290
23458SOL     OW72690   2.424  10.152   7.332 -0.2073  0.4025  0.1098
23458SOL    HW172691   2.355  10.156   7.266 -2.4534  2.8268  2.3723
23458SOL    HW272692   2.492  10.212   7.299 -1.0969  1.2345 -0.2441
23459SOL     OW72693   2.008   9.729   7.407 -0.1521  0.1823  0.1168
23459SOL    HW172694   1.985   9.793   7.340 -0.0878  0.3640  0.2656
23459SOL    HW272695   2.023   9.782   7.486 -0.2688 -0.0333  0.2838
23460SOL     OW72696   1.007   2.859   1.578  0.1298  0.7563  0.6882
23460SOL    HW172697   0.986   2.834   1.668  1.5430  0.9488  1.0911
23460SOL    HW272698   1.054   2.942   1.586  1.0975  0.3089 -0.1531
23461SOL     OW72699   7.716   1.965   5.295  0.1210  0.5045  0.2300
23461SOL    HW172700   7.629   1.936   5.325 -0.5725  0.9062 -1.3070
23461SOL    HW272701   7.719   1.938   5.203 -0.0729  4.1196 -0.9611
23462SOL     OW72702   0.365   6.130   3.377  0.1921  0.9906  0.1831
23462SOL    HW172703   0.361   6.060   3.442 -0.5381  0.7737 -0.0873
23462SOL    HW272704   0.438   6.106   3.321 -1.2942 -0.6970 -1.1679
23463SOL     OW72705   3.927   7.963   7.072  0.4023  0.1490 -0.5410
23463SOL    HW172706   3.988   7.986   7.002  1.8481  0.0379  0.6264
23463SOL    HW272707   3.942   7.870   7.089  0.2080  0.2158  0.0452
23464SOL     OW72708   3.147   4.938   7.201  0.0911  0.4049  0.1764
23464SOL    HW172709   3.145   4.909   7.110 -0.5922  1.1692 -0.0612
23464SOL    HW272710   3.240   4.938   7.223  0.2691  0.2688 -0.5363
23465SOL     OW72711   2.293  10.042   4.593 -0.0826  0.0842 -0.6677
23465SOL    HW172712   2.383  10.013   4.574 -1.2075 -4.3640 -0.2202
23465SOL    HW272713   2.251  10.048   4.507 -0.0423 -0.4208 -0.7229
23466SOL     OW72714   5.783   1.214   4.789  0.0665 -0.2300 -0.4929
23466SOL    HW172715   5.833   1.205   4.707  1.2332 -2.8595  0.3945
23466SOL    HW272716   5.752   1.125   4.808  0.1597  0.2296  2.1357
23467SOL     OW72717   3.590   2.935   9.703 -0.6206 -0.2146  0.2791
23467SOL    HW172718   3.671   2.939   9.653 -1.2472 -0.6581 -0.7908
23467SOL    HW272719   3.554   3.024   9.698 -0.3184 -0.0694  0.5875
23468SOL     OW72720   6.590   1.010   0.689  0.0792  0.0369 -0.2934
23468SOL    HW172721   6.587   0.921   0.654  0.5823 -0.4116  0.7809
23468SOL    HW272722   6.623   1.063   0.616 -1.9321 -0.3274 -1.5448
23469SOL     OW72723   9.825   9.156   1.910  0.6639  0.1367 -0.2880
23469SOL    HW172724   9.883   9.103   1.964 -0.8667  0.3416  1.6872
23469SOL    HW272725   9.759   9.095   1.877  0.0245  0.4579  0.3718
23470SOL     OW72726   2.605   2.512   6.226 -0.3853  0.2128  0.0267
23470SOL    HW172727   2.598   2.602   6.194  2.3248  0.1929 -0.8331
23470SOL    HW272728   2.593   2.519   6.320  0.2956  1.5717  0.0388
23471SOL     OW72729   3.577   7.380   4.595  0.1165 -0.0489  0.3701
23471SOL    HW172730   3.519   7.305   4.605 -0.6153  0.2661 -1.1615
23471SOL    HW272731   3.658   7.343   4.560  0.1932 -0.2774  0.7892
23472SOL     OW72732   5.381   9.515   2.849  0.3268 -0.2087 -0.4801
23472SOL    HW172733   5.468   9.546   2.874 -0.4440  1.6709  0.1025
23472SOL    HW272734   5.362   9.560   2.767 -0.9649  1.2981  0.5585
23473SOL     OW72735   4.659   0.296   4.621  0.1223  0.3843 -0.0850
23473SOL    HW172736   4.662   0.246   4.539 -0.5761  0.9251 -0.4639
23473SOL    HW272737   4.578   0.267   4.664 -0.4294  1.3293 -0.4336
23474SOL     OW72738   0.867   7.289   0.865  0.2678 -0.6658 -0.1826
23474SOL    HW172739   0.800   7.222   0.870  1.6521 -2.0236  1.7003
23474SOL    HW272740   0.871   7.326   0.954  1.2225  0.1782 -0.5540
23475SOL     OW72741   6.123   8.132   0.738  0.1935  0.3316 -0.1659
23475SOL    HW172742   6.107   8.143   0.831  0.0891  1.8765 -0.3454
23475SOL    HW272743   6.218   8.141   0.728  0.2560 -0.2675 -0.1697
23476SOL     OW72744   3.686   7.604   2.461 -0.2075 -0.1157  0.0228
23476SOL    HW172745   3.670   7.692   2.496 -2.0931 -0.5156  0.3000
23476SOL    HW272746   3.664   7.611   2.368 -1.2864 -0.4922  0.2377
23477SOL     OW72747   9.415   2.603   8.891  0.5176 -0.6188 -0.4033
23477SOL    HW172748   9.382   2.673   8.947 -0.7383 -0.4646 -1.2771
23477SOL    HW272749   9.510   2.606   8.900  0.5259  1.4910 -0.7636
23478SOL     OW72750   2.435   2.292   8.215  0.2834 -0.0978 -0.4044
23478SOL    HW172751   2.462   2.248   8.134  0.4779 -0.0734 -0.3552
23478SOL    HW272752   2.345   2.265   8.229 -0.0786  0.6988 -1.1646
23479SOL     OW72753   0.579   4.214   6.463 -0.1101 -0.8165 -0.4968
23479SOL    HW172754   0.618   4.148   6.520  0.4692 -0.9755 -1.0543
23479SOL    HW272755   0.565   4.168   6.380 -0.1976 -0.3817 -0.7247
23480SOL     OW72756   2.184   7.988  10.391 -0.6033  0.1306 -0.3390
23480SOL    HW172757   2.237   7.925  10.343 -1.2034  0.4186 -1.4146
23480SOL    HW272758   2.248   8.052  10.424  0.1749 -1.6441  1.8604
23481SOL     OW72759   7.441   7.846   0.317  0.2261  0.5926  0.0579
23481SOL    HW172760   7.350   7.843   0.346 -0.0279 -1.0639 -0.7888
23481SOL    HW272761   7.476   7.759   0.337  1.4192  0.9711 -0.2674
23482SOL     OW72762  10.132   6.042   0.800  0.0295  0.6297 -0.2031
23482SOL    HW172763  10.222   6.076   0.804  0.1502  0.3287 -0.3333
23482SOL    HW272764  10.083   6.098   0.859  0.2639  0.9238 -0.2855
23483SOL     OW72765   6.947   0.786   4.900 -0.0785  0.4064 -0.0610
23483SOL    HW172766   6.871   0.775   4.843 -0.5784  1.8737  0.2674
23483SOL    HW272767   7.019   0.811   4.841 -0.1929  0.3542 -0.2222
23484SOL     OW72768   2.018   0.220   3.046 -0.9643 -0.1181 -0.0376
23484SOL    HW172769   1.986   0.131   3.032 -1.3508 -0.0282  0.2499
23484SOL    HW272770   2.081   0.212   3.118 -2.5093  0.1303  1.4146
23485SOL     OW72771   0.039   9.737   3.477 -0.4635  0.1022  0.0831
23485SOL    HW172772   0.126   9.752   3.438 -0.4029  0.2846  0.2821
23485SOL    HW272773  -0.011   9.693   3.409 -0.0558 -0.4628  0.1397
23486SOL     OW72774   5.752   1.088   9.564  0.6627 -0.1775 -0.3143
23486SOL    HW172775   5.662   1.063   9.585 -0.3801  0.9268 -3.0335
23486SOL    HW272776   5.770   1.163   9.620 -0.4400  0.1391 -0.3659
23487SOL     OW72777   2.436   6.601   3.026 -0.9099 -0.0954 -0.1301
23487SOL    HW172778   2.366   6.652   2.985 -0.4177 -0.2431 -1.2064
23487SOL    HW272779   2.395   6.516   3.046 -1.3617  0.2435  0.3962
23488SOL     OW72780   7.843   8.285   9.189  0.2637  0.2617 -0.5879
23488SOL    HW172781   7.782   8.347   9.229 -0.0567 -0.3963 -0.0209
23488SOL    HW272782   7.894   8.337   9.128 -0.6648  0.8893 -0.8527
23489SOL     OW72783   1.932   9.851   4.472 -0.2438  0.8393 -0.5321
23489SOL    HW172784   1.971   9.874   4.387 -0.1728  1.6577 -0.2898
23489SOL    HW272785   1.952   9.926   4.528  0.8482 -0.2374  0.5940
23490SOL     OW72786   1.777   9.698  10.018 -0.9548  0.0140  0.0407
23490SOL    HW172787   1.792   9.779  10.068 -1.2319  0.0439  0.0734
23490SOL    HW272788   1.729   9.726   9.941 -0.2196  0.0193 -0.4286
23491SOL     OW72789   8.034   1.624   0.753  0.5380 -0.2265 -0.0102
23491SOL    HW172790   8.076   1.702   0.718 -0.5928  0.6131  0.4515
23491SOL    HW272791   8.072   1.613   0.840  1.7096 -1.0117 -0.6074
23492SOL     OW72792   5.345   3.111   1.199  0.0566  0.3398  0.0293
23492SOL    HW172793   5.335   3.059   1.278 -1.0750  0.3305 -0.1052
23492SOL    HW272794   5.310   3.197   1.222  0.5071  0.5863 -0.2038
23493SOL     OW72795   1.168   4.774   3.419  0.2640 -0.2020 -0.1621
23493SOL    HW172796   1.089   4.723   3.399  0.4133 -1.2291  1.6716
23493SOL    HW272797   1.205   4.795   3.333 -0.7428 -1.7031 -1.0124
23494SOL     OW72798   0.559   9.027   6.970  0.0391 -0.4802  0.0088
23494SOL    HW172799   0.484   9.084   6.951 -0.9251 -1.0878  1.7405
23494SOL    HW272800   0.526   8.938   6.953  0.3776 -0.7502  0.7312
23495SOL     OW72801   2.723   0.807   8.998  0.1369 -0.1861 -0.6711
23495SOL    HW172802   2.767   0.891   9.011 -0.2679 -0.0102 -0.3893
23495SOL    HW272803   2.630   0.827   9.008  0.1585 -1.2856  3.0501
23496SOL     OW72804   6.933   9.103   1.501 -0.2259 -0.0770  0.4339
23496SOL    HW172805   6.853   9.145   1.467  1.4939  1.3991 -2.1923
23496SOL    HW272806   6.991   9.176   1.521 -0.2402 -0.9834  4.7578
23497SOL     OW72807   3.594   8.501   7.397 -0.6015 -0.2178  0.0436
23497SOL    HW172808   3.632   8.487   7.310 -0.9497 -2.3700  0.1913
23497SOL    HW272809   3.503   8.525   7.379 -0.4591  0.1542 -0.1967
23498SOL     OW72810   4.314   6.950   4.778  0.0936  0.0527 -0.4709
23498SOL    HW172811   4.377   6.944   4.851  0.4308  0.0959 -0.7568
23498SOL    HW272812   4.369   6.956   4.700 -0.2410  1.3902 -0.6304
23499SOL     OW72813   8.771   3.854   1.512 -0.1038  0.1047 -0.2291
23499SOL    HW172814   8.702   3.838   1.577  0.1844 -0.4692 -0.0606
23499SOL    HW272815   8.759   3.784   1.447  0.6486 -0.3250  0.0802
23500SOL     OW72816   1.803   6.925   3.373  0.0097  0.3927 -0.2972
23500SOL    HW172817   1.727   6.895   3.423  0.9112 -0.2994  0.7371
23500SOL    HW272818   1.815   6.859   3.305  0.6610 -0.4613  0.5981
23501SOL     OW72819   8.624   8.483   9.288  0.0543  0.2512  0.4196
23501SOL    HW172820   8.697   8.535   9.254  1.3413 -1.2764  0.7363
23501SOL    HW272821   8.630   8.492   9.383 -0.5724  0.5891  0.4389
23502SOL     OW72822   3.766   4.911   6.057 -0.1092  0.0540  0.1223
23502SOL    HW172823   3.831   4.852   6.019  0.8071  0.8898  0.3379
23502SOL    HW272824   3.797   4.999   6.033 -1.3739  0.4700 -0.1012
23503SOL     OW72825   2.330   3.868   7.063  0.2002  0.1332 -0.3137
23503SOL    HW172826   2.384   3.790   7.059  0.7241  0.2860  2.0360
23503SOL    HW272827   2.256   3.843   7.119 -1.1197  0.5400 -1.7936
23504SOL     OW72828   0.496   2.810   0.376  0.4528 -0.0702 -0.6055
23504SOL    HW172829   0.509   2.889   0.323 -0.9592 -1.0902 -2.5996
23504SOL    HW272830   0.405   2.785   0.362  0.1514 -0.7291  1.9480
23505SOL     OW72831   4.801   0.898   7.948  0.1452  0.1007  0.3007
23505SOL    HW172832   4.839   0.810   7.952 -0.3560 -0.0919  1.0248
23505SOL    HW272833   4.816   0.934   8.036 -1.9855 -0.2677  0.8660
23506SOL     OW72834   4.951   8.591   5.759 -0.6189 -0.5734 -0.3823
23506SOL    HW172835   4.912   8.541   5.831 -0.0660 -1.1733 -0.4839
23506SOL    HW272836   4.878   8.640   5.722 -0.7915  0.2445  0.9844
23507SOL     OW72837   2.455   7.828   8.970 -0.0709  0.0319  0.1537
23507SOL    HW172838   2.360   7.833   8.982 -0.4499 -0.6673 -2.0030
23507SOL    HW272839   2.480   7.914   8.937 -0.1132 -0.0572 -0.1154
23508SOL     OW72840   8.466   6.966   0.972 -0.0529 -0.0905  0.5681
23508SOL    HW172841   8.488   6.873   0.977  1.5688  0.2267 -0.0680
23508SOL    HW272842   8.383   6.969   0.924 -0.2589 -1.2165  0.8340
23509SOL     OW72843   2.356   9.864   5.737  0.1119 -0.4998  0.0162
23509SOL    HW172844   2.371   9.895   5.826  1.2787 -0.5548 -0.1443
23509SOL    HW272845   2.288   9.923   5.703  2.2687  1.9950 -0.2893
23510SOL     OW72846   0.789   0.749   1.551 -0.1235 -0.1530 -0.6988
23510SOL    HW172847   0.819   0.693   1.623 -0.6019 -0.8141 -1.0002
23510SOL    HW272848   0.816   0.837   1.576 -0.5132 -0.3355  0.4222
23511SOL     OW72849  10.286  10.564   5.762  0.4293 -0.4616  0.2230
23511SOL    HW172850  10.351  10.519   5.708 -0.7169  0.6788 -2.2682
23511SOL    HW272851  10.206  10.514   5.751 -0.1115  0.4473 -0.1382
23512SOL     OW72852   5.388   5.401   5.285 -0.3496  0.1543  0.1956
23512SOL    HW172853   5.352   5.329   5.233  1.6076  0.1979 -1.2908
23512SOL    HW272854   5.328   5.408   5.360 -3.0319 -0.2080 -1.7538
23513SOL     OW72855   0.305   8.258   8.485 -0.2431 -0.0067  0.1092
23513SOL    HW172856   0.271   8.213   8.407  1.0413 -0.3758 -0.2537
23513SOL    HW272857   0.357   8.331   8.450  0.7512 -0.4662  0.5882
23514SOL     OW72858   1.257   9.328   2.568  0.2679 -0.5889 -0.0261
23514SOL    HW172859   1.255   9.279   2.651 -0.5347  0.9585  0.9031
23514SOL    HW272860   1.165   9.345   2.547  0.5299  0.8924 -0.0786
23515SOL     OW72861   8.776   6.676   7.527 -0.4193  0.3244 -0.2473
23515SOL    HW172862   8.734   6.591   7.539 -1.0466  0.5561 -0.7404
23515SOL    HW272863   8.842   6.680   7.596  0.8035 -1.2710 -1.2672
23516SOL     OW72864   9.878   2.646   7.452 -0.2322  0.6294 -0.2095
23516SOL    HW172865   9.847   2.712   7.513 -0.1723  0.4117  0.0572
23516SOL    HW272866   9.895   2.694   7.371 -2.1643  0.6153 -0.6688
23517SOL     OW72867   5.565   7.479   0.428 -0.0251 -0.0849  0.3446
23517SOL    HW172868   5.497   7.437   0.481  0.5413 -1.1394  0.2762
23517SOL    HW272869   5.547   7.573   0.435 -1.1290 -0.3101  0.7977
23518SOL     OW72870   0.769   4.317   4.126  0.3067  0.4610  0.1334
23518SOL    HW172871   0.761   4.400   4.174  0.2287  1.2816 -1.2497
23518SOL    HW272872   0.798   4.254   4.193  0.2634  1.5642  1.2401
23519SOL     OW72873   4.145   2.935   8.765  0.2812  0.7120  0.1646
23519SOL    HW172874   4.144   2.927   8.669  0.5944  1.2888  0.1125
23519SOL    HW272875   4.098   3.016   8.783 -0.6190  0.1253  0.5621
23520SOL     OW72876   3.048   0.867   0.420 -0.6790  0.1125  0.2513
23520SOL    HW172877   3.025   0.905   0.505 -0.3955  1.8320 -0.4064
23520SOL    HW272878   2.992   0.914   0.357 -0.5127 -0.7735 -0.5768
23521SOL     OW72879  10.160   1.962   1.589 -0.2583  0.1433 -0.0463
23521SOL    HW172880  10.141   2.049   1.624  0.4352  0.3021 -0.0375
23521SOL    HW272881  10.167   1.905   1.665 -0.9420  0.0301 -0.0661
23522SOL     OW72882   5.895   8.262   6.128 -0.2970  0.1399 -0.0571
23522SOL    HW172883   5.881   8.193   6.193 -0.9480  0.4501  0.1325
23522SOL    HW272884   5.810   8.274   6.087  0.3095 -0.7354 -1.6787
23523SOL     OW72885   9.328   1.882   1.129  0.3161  0.0877 -0.2242
23523SOL    HW172886   9.346   1.815   1.063  2.7058  0.7733 -0.3650
23523SOL    HW272887   9.256   1.847   1.180  0.5855 -1.9623 -1.1594
23524SOL     OW72888   3.171  10.573   2.190 -0.2270  0.2829 -0.4311
23524SOL    HW172889   3.214  10.488   2.185 -0.3081  0.3192 -3.8045
23524SOL    HW272890   3.088  10.560   2.144 -1.2085  1.6876  0.8545
23525SOL     OW72891   1.187   8.142   8.340 -0.5414 -0.3075 -0.2547
23525SOL    HW172892   1.258   8.142   8.404 -1.4766 -1.5959  0.8470
23525SOL    HW272893   1.231   8.149   8.255  0.7283  1.5748  0.4842
23526SOL     OW72894   7.591   6.265   4.218  0.2353 -0.0481  0.1339
23526SOL    HW172895   7.525   6.238   4.282 -2.8681  0.3163 -2.6439
23526SOL    HW272896   7.648   6.189   4.207 -0.1689 -0.6611  2.0600
23527SOL     OW72897   4.850   6.496   7.195  0.0797 -0.5819  0.6000
23527SOL    HW172898   4.928   6.457   7.234  0.6950  0.0027 -0.0149
23527SOL    HW272899   4.883   6.552   7.125 -0.9690 -1.4025 -0.6076
23528SOL     OW72900   7.309   2.076   0.871 -0.5523 -0.2559 -0.0266
23528SOL    HW172901   7.278   1.992   0.904  1.2183 -1.9206 -2.2630
23528SOL    HW272902   7.232   2.116   0.829 -1.3723 -0.8284  0.8988
23529SOL     OW72903   0.368   6.214   6.058  0.1090 -0.0375  0.2418
23529SOL    HW172904   0.320   6.228   5.976 -0.9317 -1.0859  0.6548
23529SOL    HW272905   0.320   6.264   6.123  0.7856  0.5803  0.2731
23530SOL     OW72906   0.899   3.503   8.954 -0.3255  0.2294 -0.6527
23530SOL    HW172907   0.995   3.506   8.948 -0.1435  0.3701  1.6383
23530SOL    HW272908   0.873   3.592   8.976 -0.9412  0.0840 -0.7740
23531SOL     OW72909   9.378   7.296   2.862  0.3484 -0.2609 -0.0680
23531SOL    HW172910   9.383   7.202   2.841  1.7032 -0.1129 -0.5237
23531SOL    HW272911   9.470   7.325   2.865 -0.0644  1.2070 -0.6702
23532SOL     OW72912   9.293   7.776   7.678  0.4191  0.2620 -0.3061
23532SOL    HW172913   9.371   7.738   7.637  0.2927 -0.7326  0.3500
23532SOL    HW272914   9.225   7.771   7.610  0.3832 -0.7724 -0.2050
23533SOL     OW72915   4.570   1.789   9.449  0.4353 -0.0885  0.2706
23533SOL    HW172916   4.490   1.737   9.443  0.6921 -0.4239 -0.3452
23533SOL    HW272917   4.639   1.725   9.467  0.8405 -0.0539 -1.0517
23534SOL     OW72918   5.689   4.552   4.157 -0.6481 -0.5733  0.0477
23534SOL    HW172919   5.739   4.527   4.234 -1.5947 -0.9844  0.5494
23534SOL    HW272920   5.708   4.484   4.093  2.5294  1.3031 -1.2454
23535SOL     OW72921   2.116   3.189   1.587  0.4601  0.5076  0.0951
23535SOL    HW172922   2.075   3.171   1.503  0.9952 -1.7271  0.2453
23535SOL    HW272923   2.054   3.247   1.633 -0.1507  1.1949 -1.5312
23536SOL     OW72924   0.667   1.588   2.557 -0.0129 -0.0766  0.2618
23536SOL    HW172925   0.680   1.652   2.626 -0.5450  1.3658 -0.9336
23536SOL    HW272926   0.755   1.555   2.538  0.6757  2.1395 -0.7765
23537SOL     OW72927   8.129   0.401   4.170  0.3380 -0.2985  0.5371
23537SOL    HW172928   8.136   0.318   4.217 -0.4302 -1.1739 -0.8020
23537SOL    HW272929   8.047   0.393   4.121  0.0100  1.4554  0.7322
23538SOL     OW72930   8.614   9.465   7.427 -0.2229  0.0853 -0.3512
23538SOL    HW172931   8.522   9.484   7.411  0.2440  3.5547  0.2555
23538SOL    HW272932   8.626   9.481   7.521  1.1711  0.7193 -0.6075
23539SOL     OW72933   7.720  10.179   3.199  0.0919 -0.4039 -0.3024
23539SOL    HW172934   7.713  10.100   3.253 -1.1157  0.7245  1.2711
23539SOL    HW272935   7.633  10.218   3.202  1.1631  2.0693  0.6556
23540SOL     OW72936   1.674   1.996   9.910 -0.3282 -0.0692 -0.3326
23540SOL    HW172937   1.655   2.090   9.913 -0.0458 -0.0262  0.1921
23540SOL    HW272938   1.769   1.991   9.904 -0.3886 -0.3141 -1.1729
23541SOL     OW72939   7.616   7.403   3.075 -0.4387  0.5104 -0.1682
23541SOL    HW172940   7.593   7.311   3.074 -0.1950  0.4555 -1.1055
23541SOL    HW272941   7.576   7.440   2.996  1.7929  0.6072 -1.3350
23542SOL     OW72942   4.968   1.238   0.844  0.0583  0.0106 -0.7534
23542SOL    HW172943   4.972   1.300   0.917 -0.4989  0.4505 -1.0930
23542SOL    HW272944   4.997   1.155   0.882  1.6471  0.6438 -0.5003
23543SOL     OW72945   0.974   0.701   9.519 -0.1553  0.1149  0.4156
23543SOL    HW172946   0.912   0.685   9.448  0.3516  1.3868 -0.3458
23543SOL    HW272947   0.938   0.775   9.567  0.4628  0.4916  0.3160
23544SOL     OW72948   1.894   0.036   7.670 -0.5819 -0.0429 -0.5828
23544SOL    HW172949   1.902  -0.022   7.594  1.3480  0.6028 -0.9235
23544SOL    HW272950   1.800   0.049   7.680 -1.0996 -2.9808 -0.6667
23545SOL     OW72951   2.034   8.788   6.837  0.5084  0.6456 -0.1073
23545SOL    HW172952   2.107   8.751   6.788  0.6886  1.1272 -0.2089
23545SOL    HW272953   2.006   8.864   6.785 -0.2222  0.3259 -0.1978
23546SOL     OW72954   3.270  10.276  10.295  0.3873  0.7813  0.1338
23546SOL    HW172955   3.187  10.289  10.341 -0.2363 -0.3572 -0.6081
23546SOL    HW272956   3.327  10.235  10.361 -0.5055 -0.8617 -0.0528
23547SOL     OW72957   0.393  10.496   4.448  0.0409  0.0062  0.4391
23547SOL    HW172958   0.308  10.535   4.431  0.7600  1.5511  0.1947
23547SOL    HW272959   0.443  10.510   4.367  0.8329 -0.0002  0.9134
23548SOL     OW72960   1.320   4.702   1.421  0.9604  0.1561 -0.3505
23548SOL    HW172961   1.243   4.754   1.442 -0.0688 -0.7715 -1.6733
23548SOL    HW272962   1.314   4.626   1.478 -1.1552 -1.7385 -2.8991
23549SOL     OW72963   1.350   6.226   7.548  0.3370  0.1710  0.3069
23549SOL    HW172964   1.440   6.249   7.570  0.5791  0.3915 -0.8570
23549SOL    HW272965   1.324   6.163   7.616  2.2801 -2.0058 -0.8401
23550SOL     OW72966   4.450   3.089   4.892  0.2495 -0.1177 -0.4667
23550SOL    HW172967   4.500   3.023   4.941 -0.3159 -1.1271 -1.1994
23550SOL    HW272968   4.445   3.054   4.803 -0.7428  0.5385 -0.6875
23551SOL     OW72969   0.383   1.141   1.378  0.7995 -0.2661 -0.4454
23551SOL    HW172970   0.341   1.219   1.417 -0.0300  0.0029 -1.8277
23551SOL    HW272971   0.314   1.075   1.378  1.6512 -1.2339  1.2203
23552SOL     OW72972   3.264   8.006   8.935 -0.0592 -0.2162  0.5746
23552SOL    HW172973   3.327   8.014   8.864  0.2264 -1.5846  0.6358
23552SOL    HW272974   3.287   8.075   8.996 -0.4577  1.1404 -0.7510
23553SOL     OW72975   6.764   8.502   1.808 -0.2694 -0.5305 -0.3945
23553SOL    HW172976   6.857   8.505   1.829 -0.1956  1.0847 -0.8328
23553SOL    HW272977   6.722   8.474   1.890  0.6261 -2.0921 -0.4266
23554SOL     OW72978   0.740   9.765   2.060 -0.1318 -0.6410 -0.1446
23554SOL    HW172979   0.706   9.789   2.146  1.4504 -0.4794  0.4635
23554SOL    HW272980   0.677   9.802   1.998 -0.9555 -0.2148  0.9231
23555SOL     OW72981   8.405   6.628   5.149 -0.2632  0.7443 -0.0013
23555SOL    HW172982   8.479   6.683   5.123  0.9284 -1.1847 -0.9469
23555SOL    HW272983   8.439   6.575   5.221 -0.9286  0.2589 -0.0358
23556SOL     OW72984   5.320   1.219   9.277 -0.6547  0.4147 -0.2737
23556SOL    HW172985   5.394   1.254   9.228 -0.4211  0.9389  0.4301
23556SOL    HW272986   5.261   1.294   9.286 -0.1813  0.6412  1.2008
23557SOL     OW72987   8.789   4.005   8.705 -0.1377  0.5558 -0.3416
23557SOL    HW172988   8.847   3.966   8.639 -2.1604 -0.9829 -1.3069
23557SOL    HW272989   8.742   3.931   8.742 -0.2182  1.5833  1.7169
23558SOL     OW72990   0.001   7.690   1.976 -0.2270 -0.4015 -0.0071
23558SOL    HW172991  -0.058   7.618   1.954  0.1862 -0.1327 -2.1890
23558SOL    HW272992  -0.015   7.706   2.069 -1.9856 -1.7726 -0.0153
23559SOL     OW72993   2.135   6.975   7.640  0.0129  0.7715  0.0371
23559SOL    HW172994   2.170   6.927   7.715 -1.4210 -0.7289 -0.1847
23559SOL    HW272995   2.063   7.027   7.676 -0.4180  0.3587 -0.2077
23560SOL     OW72996   3.992   8.533   3.223 -0.3430 -0.2400  0.5114
23560SOL    HW172997   3.961   8.446   3.248  2.4270 -1.3711  0.3682
23560SOL    HW272998   4.023   8.571   3.305 -0.6593  0.2414  0.4123
23561SOL     OW72999  10.568   1.373   8.167 -1.0944 -0.2910  0.4271
23561SOL    HW173000  10.573   1.317   8.090 -1.4511  0.2952 -0.0361
23561SOL    HW273001  10.629   1.445   8.148 -2.4155  0.7421 -0.0755
23562SOL     OW73002   0.456   4.006   8.666 -0.2447  0.1005 -0.3022
23562SOL    HW173003   0.546   4.002   8.698 -0.4100  1.0877  0.3137
23562SOL    HW273004   0.446   3.926   8.614  1.3890  0.6086 -1.4826
23563SOL     OW73005   4.565   1.149   7.878  0.6918 -0.2641 -0.6750
23563SOL    HW173006   4.527   1.075   7.832 -3.1487 -0.5618  2.5292
23563SOL    HW273007   4.603   1.112   7.957 -2.9805  1.0449  1.9728
23564SOL     OW73008   2.650   3.493   3.844 -0.0721  0.5940 -0.0293
23564SOL    HW173009   2.691   3.426   3.790  0.4558 -0.0553  1.1400
23564SOL    HW273010   2.716   3.516   3.909 -1.2340  0.1529  1.3664
23565SOL     OW73011   5.900   3.436   1.237 -0.7474  0.0863 -0.5587
23565SOL    HW173012   5.903   3.518   1.288 -0.2217 -1.4593  2.0883
23565SOL    HW273013   5.991   3.421   1.210 -0.6291 -0.2285  0.0078
23566SOL     OW73014   6.388   0.478   2.807  0.2256  0.4642  0.4647
23566SOL    HW173015   6.387   0.567   2.772  0.3822  0.3819  0.2451
23566SOL    HW273016   6.480   0.454   2.808  0.2017  0.3759  0.7127
23567SOL     OW73017   7.781   0.888   5.928 -0.2252 -0.4300  0.3853
23567SOL    HW173018   7.710   0.835   5.890 -1.1489 -0.1545  1.6688
23567SOL    HW273019   7.825   0.828   5.989  0.0899 -0.3337  0.2552
23568SOL     OW73020   9.085   7.777   1.790 -0.1893 -0.1600 -0.4920
23568SOL    HW173021   9.174   7.762   1.759 -0.3299 -1.7869 -0.1828
23568SOL    HW273022   9.059   7.695   1.831 -1.5163  0.5785  0.2303
23569SOL     OW73023   5.705   7.300   7.564 -0.3051 -0.3691  0.5119
23569SOL    HW173024   5.760   7.351   7.624 -0.6705 -2.9939  3.2709
23569SOL    HW273025   5.765   7.238   7.524 -0.0094  1.5264 -2.2686
23570SOL     OW73026   3.048   9.422   7.720 -0.4996  0.2108  0.1775
23570SOL    HW173027   3.125   9.440   7.775 -1.3292  0.5668  1.2540
23570SOL    HW273028   2.999   9.356   7.769 -0.8210 -0.1055 -0.5643
23571SOL     OW73029   4.848   7.766   7.170 -0.1221  0.1426  0.4581
23571SOL    HW173030   4.822   7.753   7.078  0.2143 -1.3956  0.5541
23571SOL    HW273031   4.804   7.695   7.217 -1.0646  1.4675  1.6677
23572SOL     OW73032   6.878   9.426   0.612 -0.6871 -0.0027 -0.3110
23572SOL    HW173033   6.899   9.503   0.559 -0.3945  0.1424  0.0079
23572SOL    HW273034   6.888   9.456   0.703 -0.8235 -0.3459 -0.1801
23573SOL     OW73035   5.858   3.565   8.112  0.5617  0.3343 -0.4847
23573SOL    HW173036   5.919   3.630   8.145 -1.5394  1.2613  1.9900
23573SOL    HW273037   5.802   3.612   8.050 -0.0880  0.5785  0.2638
23574SOL     OW73038   1.678   4.656   2.395 -0.0373 -0.0089 -0.0882
23574SOL    HW173039   1.645   4.732   2.444  2.0285 -0.4537  2.2096
23574SOL    HW273040   1.644   4.580   2.443 -1.9485 -0.6438 -2.2653
23575SOL     OW73041   5.424   8.790   8.544  0.3014  0.1322 -0.3607
23575SOL    HW173042   5.514   8.772   8.573  0.2301  0.5251  0.1222
23575SOL    HW273043   5.420   8.885   8.536  0.3794  0.0220 -1.9054
23576SOL     OW73044   4.766   8.353  10.266 -0.3083 -0.7324 -0.0317
23576SOL    HW173045   4.842   8.375  10.320 -1.0323 -0.8277  1.0629
23576SOL    HW273046   4.716   8.435  10.261 -0.2912 -0.7514 -0.4672
23577SOL     OW73047   0.141   5.671   6.961 -0.1304 -0.2426 -0.1624
23577SOL    HW173048   0.216   5.684   6.903  2.3178 -3.2259  1.9916
23577SOL    HW273049   0.080   5.619   6.909  1.3064 -1.5101 -0.6764
23578SOL     OW73050   9.273   2.662   2.996  0.4191 -0.3391 -0.0580
23578SOL    HW173051   9.323   2.743   2.998  0.0101 -0.0833 -0.2483
23578SOL    HW273052   9.315   2.607   3.063  0.4475  0.1697  0.3481
23579SOL     OW73053   9.772   7.608   7.526 -0.1938  0.0362 -0.6629
23579SOL    HW173054   9.839   7.616   7.459  0.0120 -1.4335 -0.6830
23579SOL    HW273055   9.818   7.623   7.608 -0.3854  1.5498 -0.8019
23580SOL     OW73056   3.059   8.622  10.383  0.5925  0.4254  0.3031
23580SOL    HW173057   3.106   8.581  10.311  1.7052  0.5766  0.9171
23580SOL    HW273058   3.109   8.702  10.402 -0.2149  0.8636  0.6390
23581SOL     OW73059   9.681   3.519   7.404  0.1985  0.2117  0.1450
23581SOL    HW173060   9.769   3.535   7.371  0.7173 -0.8985  0.8921
23581SOL    HW273061   9.634   3.600   7.389  1.6081  1.1313  0.5142
23582SOL     OW73062   2.110   4.366   8.427 -0.0865  0.1629  0.4795
23582SOL    HW173063   2.098   4.324   8.512 -0.6364  0.2332  0.4401
23582SOL    HW273064   2.092   4.297   8.363  1.0138 -0.0754  0.4172
23583SOL     OW73065   3.509   1.941   1.390 -0.6461  0.1137 -0.3705
23583SOL    HW173066   3.584   1.923   1.445 -2.4282 -0.9229  1.8859
23583SOL    HW273067   3.528   1.895   1.308  1.7136  1.0236 -0.4147
23584SOL     OW73068   0.377   1.559   3.277 -0.1493  0.2710  0.4248
23584SOL    HW173069   0.410   1.483   3.325  0.5753  1.5979  2.1718
23584SOL    HW273070   0.289   1.534   3.249  0.3650 -1.4749  0.2652
23585SOL     OW73071   5.342   9.513   2.009  0.0394  0.0787 -0.0436
23585SOL    HW173072   5.394   9.547   2.081  0.5876 -0.0136 -0.3887
23585SOL    HW273073   5.285   9.586   1.983  0.5420  0.4276 -0.1681
23586SOL     OW73074   3.241   5.224   4.020 -0.2057  0.9893  0.3604
23586SOL    HW173075   3.205   5.300   4.066 -0.0282  0.9461  0.5756
23586SOL    HW273076   3.234   5.153   4.083 -3.6254 -0.0548 -1.0171
23587SOL     OW73077   4.962   2.477   0.286 -0.2136  0.1892  0.5516
23587SOL    HW173078   4.921   2.460   0.370 -0.6467 -0.3127  0.2475
23587SOL    HW273079   4.909   2.547   0.247 -0.4753 -0.1063  0.3748
23588SOL     OW73080   3.789   8.247   8.929  0.0425  0.3716 -0.4865
23588SOL    HW173081   3.878   8.281   8.934  0.1065  0.2846 -0.9891
23588SOL    HW273082   3.734   8.320   8.960  0.4082 -0.2678  1.8880
23589SOL     OW73083   4.308   5.668   1.515 -0.4241  0.4654 -0.4907
23589SOL    HW173084   4.395   5.665   1.555  0.4118  0.3094 -2.2166
23589SOL    HW273085   4.265   5.587   1.544 -0.1501  0.7182  0.6692
23590SOL     OW73086   1.483   9.268   2.416 -0.2882  0.2461  0.0798
23590SOL    HW173087   1.524   9.342   2.371 -1.7084  0.3151 -1.1832
23590SOL    HW273088   1.434   9.307   2.488  0.8570  0.2730  0.8722
23591SOL     OW73089  10.262   7.390   4.691  0.0834  1.1858 -0.4150
23591SOL    HW173090  10.319   7.462   4.664  1.0522  0.6829  0.2051
23591SOL    HW273091  10.239   7.346   4.609  1.1993  0.9765 -0.6406
23592SOL     OW73092   3.783  10.291   8.446 -0.5489  0.2971 -0.0011
23592SOL    HW173093   3.733  10.360   8.490 -1.1285  1.3046 -2.1004
23592SOL    HW273094   3.827  10.337   8.374 -0.1961 -1.3822 -0.8931
23593SOL     OW73095   1.450   2.287   1.535  0.3983  0.4983 -0.0414
23593SOL    HW173096   1.545   2.288   1.526  0.4329 -1.6160 -0.5976
23593SOL    HW273097   1.418   2.266   1.447 -0.6755  2.3242 -0.1283
23594SOL     OW73098   2.029   5.685   0.191  0.2379  0.1115  0.2791
23594SOL    HW173099   1.994   5.716   0.275  0.1154 -0.0112  0.2758
23594SOL    HW273100   2.050   5.764   0.142 -0.5300  0.1982  0.0768
23595SOL     OW73101   6.808   0.580  10.465 -0.2142  0.2334 -0.5833
23595SOL    HW173102   6.788   0.655  10.521 -2.6411 -0.1457 -0.8213
23595SOL    HW273103   6.890   0.603  10.423  0.0158  1.9627  0.6891
23596SOL     OW73104   9.912   6.609   6.618 -0.0413 -0.0800 -0.6083
23596SOL    HW173105   9.955   6.668   6.556 -2.2153  0.6313 -1.5336
23596SOL    HW273106   9.925   6.522   6.582  0.1922  0.1655 -1.1211
23597SOL     OW73107   4.171   0.873   4.751 -0.0090 -0.7016  0.1016
23597SOL    HW173108   4.152   0.960   4.716 -1.3624 -1.2372 -0.5770
23597SOL    HW273109   4.244   0.841   4.698  0.1643 -0.1697  0.0183
23598SOL     OW73110   0.431   9.735   0.230  0.3090 -0.3632  0.1463
23598SOL    HW173111   0.460   9.645   0.241  0.7447 -0.4989 -1.7319
23598SOL    HW273112   0.510   9.787   0.246  0.2382 -0.3631  0.4964
23599SOL     OW73113   9.027   6.516   5.682 -0.0449 -0.0803  0.1766
23599SOL    HW173114   9.103   6.529   5.627 -1.0087 -2.9870 -2.1449
23599SOL    HW273115   8.954   6.555   5.633 -0.6138 -0.8211  0.4064
23600SOL     OW73116   9.460   3.857   5.723 -0.2262 -0.1488  0.1667
23600SOL    HW173117   9.483   3.772   5.687 -1.2047 -1.1505  1.7692
23600SOL    HW273118   9.444   3.912   5.647 -1.3711 -1.9312 -0.9501
23601SOL     OW73119  10.216   9.524   5.356  0.3066  0.1462  0.4012
23601SOL    HW173120  10.161   9.467   5.303  1.6215 -1.7696  0.9666
23601SOL    HW273121  10.296   9.472   5.371  1.7452  2.3070  0.6286
23602SOL     OW73122   3.069   4.044   5.183  0.6207 -0.0659  0.0833
23602SOL    HW173123   3.017   4.082   5.112 -0.2831  0.3512  0.9425
23602SOL    HW273124   3.142   4.106   5.194  0.3206  0.2949  0.0617
23603SOL     OW73125  10.171   6.885   7.721 -0.1784 -0.0560  0.3253
23603SOL    HW173126  10.222   6.946   7.775 -0.8102  1.5929 -0.8361
23603SOL    HW273127  10.230   6.864   7.648 -0.1209 -0.4700  0.4934
23604SOL     OW73128   8.330   3.105   5.567 -0.2632  0.0384 -0.3271
23604SOL    HW173129   8.375   3.162   5.505 -1.1673  2.3462  0.9857
23604SOL    HW273130   8.292   3.036   5.513  1.1966  0.4457 -1.9607
23605SOL     OW73131   1.219   9.719   3.438 -0.4392 -0.2500  0.5277
23605SOL    HW173132   1.165   9.644   3.411 -0.9629  0.1940  0.3159
23605SOL    HW273133   1.282   9.730   3.367 -0.4993 -0.3555  0.4574
23606SOL     OW73134   4.994   4.441   2.174 -0.0146 -0.3773 -0.0874
23606SOL    HW173135   5.046   4.490   2.238 -1.5072  0.1706  0.7736
23606SOL    HW273136   4.972   4.506   2.107 -0.4417 -0.3255  0.0971
23607SOL     OW73137   6.942   9.178  10.386  0.6836 -0.4086  0.1035
23607SOL    HW173138   6.934   9.167  10.480  0.8563  0.8159  0.2801
23607SOL    HW273139   6.871   9.238  10.362  0.3240 -1.1025 -0.6331
23608SOL     OW73140   7.323   6.521   4.408 -0.1767  0.3089  0.1269
23608SOL    HW173141   7.233   6.551   4.395 -0.5102 -0.3561  0.8486
23608SOL    HW273142   7.321   6.428   4.388  0.1679  0.1150  0.9499
23609SOL     OW73143   0.981   2.802   8.411 -0.5902  0.5828 -0.6420
23609SOL    HW173144   1.046   2.855   8.455 -1.8359  1.4305  0.2449
23609SOL    HW273145   0.909   2.863   8.391 -1.0877 -0.2918 -1.6634
23610SOL     OW73146   5.602   9.099   4.982  0.1099 -0.1925  0.0011
23610SOL    HW173147   5.565   9.156   5.050  0.9715 -0.0668  0.3729
23610SOL    HW273148   5.665   9.155   4.936 -0.3203 -0.3376 -0.7837
23611SOL     OW73149   8.056  10.096   8.012 -0.5894  0.4459 -0.3593
23611SOL    HW173150   8.065  10.050   8.095 -0.1086  1.7590  0.3417
23611SOL    HW273151   8.090  10.184   8.029  1.5248  0.1633 -2.4766
23612SOL     OW73152   4.018   4.582   3.558 -0.5122 -0.0438  0.2606
23612SOL    HW173153   4.056   4.627   3.634 -0.0265 -0.4210  0.2444
23612SOL    HW273154   4.089   4.582   3.493 -0.9119  0.2435 -0.1825
23613SOL     OW73155   5.113   7.455   4.670 -0.3599  0.0685  0.3783
23613SOL    HW173156   5.097   7.384   4.608 -1.2165 -0.3798  1.1036
23613SOL    HW273157   5.027   7.480   4.702 -0.0610  1.3523  0.2471
23614SOL     OW73158   4.715   2.872   0.402 -0.1522 -0.1168 -0.4292
23614SOL    HW173159   4.638   2.816   0.394  0.4048 -0.8971 -0.4423
23614SOL    HW273160   4.784   2.825   0.356  0.5883  0.0763  0.4530
23615SOL     OW73161   4.398   1.398   0.905  0.4184  0.0623  0.2059
23615SOL    HW173162   4.457   1.467   0.934 -0.6340  0.5878  1.1583
23615SOL    HW273163   4.431   1.374   0.818  0.9058  1.6352 -0.0728
23616SOL     OW73164   8.990   9.114   8.233 -0.1091 -0.5506  0.2076
23616SOL    HW173165   8.987   9.035   8.178  0.3614  1.7371 -3.4866
23616SOL    HW273166   8.902   9.149   8.229  0.0853 -0.0419  0.3654
23617SOL     OW73167   8.920   2.929   8.293  0.5275 -0.9488  0.8933
23617SOL    HW173168   8.827   2.942   8.276  0.4149 -1.3907  1.1839
23617SOL    HW273169   8.942   2.846   8.250  0.6067 -1.2530  1.5132
23618SOL     OW73170   1.235   4.075   7.772 -0.2341 -0.4475  0.1016
23618SOL    HW173171   1.172   4.020   7.818 -0.3659 -0.7797 -0.4687
23618SOL    HW273172   1.233   4.044   7.682 -1.0739  1.1798 -0.4764
23619SOL     OW73173   7.948   0.474   0.397  0.3757 -0.0846  0.4137
23619SOL    HW173174   7.972   0.382   0.406  2.5167  0.3186 -0.4899
23619SOL    HW273175   7.924   0.484   0.305 -1.5512 -0.0527  0.8794
23620SOL     OW73176   4.897   7.047   7.533  0.1723 -0.1304 -0.2417
23620SOL    HW173177   4.819   7.013   7.576  0.6286  0.3565  1.0378
23620SOL    HW273178   4.903   6.999   7.450  1.2238 -3.7922  1.7377
23621SOL     OW73179   3.553   4.591   5.832 -0.0985  0.3164  0.2677
23621SOL    HW173180   3.536   4.646   5.909 -0.3922 -0.0801  0.4914
23621SOL    HW273181   3.552   4.652   5.758 -0.1624  0.6513  0.5403
23622SOL     OW73182   5.239   6.750   6.430 -0.0172  0.3462 -0.1309
23622SOL    HW173183   5.234   6.790   6.343  0.1763 -0.7945 -0.6737
23622SOL    HW273184   5.332   6.742   6.448 -0.0547  0.8432  0.3163
23623SOL     OW73185   6.278   9.463   2.433 -0.4656  0.4125  0.0848
23623SOL    HW173186   6.294   9.517   2.356 -0.2044  2.5407  1.5211
23623SOL    HW273187   6.188   9.483   2.458 -0.6119 -0.3968  0.2277
23624SOL     OW73188   7.351   0.018   0.304  0.3419  0.0706  0.3019
23624SOL    HW173189   7.316  -0.006   0.218  1.4894  1.1100 -0.5028
23624SOL    HW273190   7.446   0.011   0.293  0.5362  1.0317  1.2236
23625SOL     OW73191   0.894   5.411   5.002 -0.0392  0.5234 -0.1546
23625SOL    HW173192   0.820   5.350   5.011 -0.7866  1.1825 -1.4911
23625SOL    HW273193   0.916   5.435   5.092  0.3433 -1.7643  0.4271
23626SOL     OW73194   3.238   2.054   3.314  0.1533 -0.0866  0.2296
23626SOL    HW173195   3.247   2.003   3.394  0.4857  0.8896  0.8273
23626SOL    HW273196   3.228   1.988   3.245 -0.4246 -0.9295  1.0973
23627SOL     OW73197  10.567   7.222   2.980  0.0603 -0.4995  0.5926
23627SOL    HW173198  10.506   7.179   2.920  0.2856 -0.1993  0.1453
23627SOL    HW273199  10.513   7.286   3.026 -0.1755 -0.9341  0.9232
23628SOL     OW73200   5.231   0.108   3.051 -0.0172  0.3625 -0.2848
23628SOL    HW173201   5.198   0.106   3.141  0.5738 -0.7225 -0.0644
23628SOL    HW273202   5.292   0.182   3.050  2.5038 -1.4819  1.2267
23629SOL     OW73203   0.274   6.157   6.735  0.2146  0.0706  0.1833
23629SOL    HW173204   0.190   6.112   6.726  0.3322 -0.1227  0.0340
23629SOL    HW273205   0.270   6.229   6.672  0.7270 -0.8090 -0.9018
23630SOL     OW73206   0.594   9.948   2.889  0.2735 -0.0832 -0.4127
23630SOL    HW173207   0.625  10.008   2.957 -1.0438  0.2711 -0.1003
23630SOL    HW273208   0.500   9.945   2.901  0.2573 -1.8390 -0.7628
23631SOL     OW73209   9.888   4.847   1.657  0.3608  0.1049  0.0485
23631SOL    HW173210   9.804   4.875   1.693  0.1220  0.7803 -0.9660
23631SOL    HW273211   9.946   4.839   1.733 -0.7210 -0.8011  0.8136
23632SOL     OW73212   9.121   0.665   9.605  0.5494  0.5392 -1.1881
23632SOL    HW173213   9.127   0.630   9.694  0.2213 -1.2395 -1.8379
23632SOL    HW273214   9.028   0.656   9.582  0.5177  1.5442 -1.5043
23633SOL     OW73215   5.318   5.933   5.146 -0.1247  0.0852  0.6494
23633SOL    HW173216   5.311   5.952   5.239  1.0577 -0.0071  0.7725
23633SOL    HW273217   5.408   5.955   5.124 -0.2724 -0.2948 -0.3870
23634SOL     OW73218   5.215  10.460   1.814  0.1209  0.0627  0.2505
23634SOL    HW173219   5.191  10.534   1.759  1.0642 -0.3239 -0.7218
23634SOL    HW273220   5.212  10.384   1.755  0.5776 -0.4482  0.8651
23635SOL     OW73221   3.134   7.489   4.551  0.1570  0.6274 -0.6559
23635SOL    HW173222   3.201   7.470   4.616  0.0973 -0.0446 -0.7874
23635SOL    HW273223   3.179   7.538   4.482 -0.1161  2.8739  0.6612
23636SOL     OW73224   9.195   8.755   4.361 -0.3788  0.4677 -0.2675
23636SOL    HW173225   9.138   8.820   4.401  1.0153  1.2286  0.5711
23636SOL    HW273226   9.266   8.806   4.322 -0.0142 -0.4682 -0.8671
23637SOL     OW73227   8.662   6.384   3.095  0.5654 -0.8098  0.1517
23637SOL    HW173228   8.670   6.455   3.032  1.1036 -0.8055  0.2192
23637SOL    HW273229   8.568   6.368   3.102  0.3612  0.4987  0.7928
23638SOL     OW73230   7.639   0.255   0.541  0.0004 -0.2309  0.1245
23638SOL    HW173231   7.589   0.214   0.612 -0.4771 -0.7387 -0.4882
23638SOL    HW273232   7.689   0.324   0.584 -1.3202  0.3739  0.7534
23639SOL     OW73233   9.524   7.609   4.094  0.4019 -0.2718 -0.3044
23639SOL    HW173234   9.568   7.579   4.174 -1.0409  0.9200  1.0069
23639SOL    HW273235   9.548   7.702   4.088 -0.6372 -0.0103 -0.4617
23640SOL     OW73236   0.311   9.435   8.500 -0.2942  0.1293  0.6747
23640SOL    HW173237   0.346   9.403   8.583  0.2228  0.6595  0.6711
23640SOL    HW273238   0.282   9.524   8.519 -1.8304 -0.3631  0.7130
23641SOL     OW73239   0.246   4.354   8.561  0.3479  0.4987 -0.3752
23641SOL    HW173240   0.290   4.305   8.491  1.1459  1.4091 -0.5471
23641SOL    HW273241   0.228   4.289   8.628  0.9270 -0.1263 -0.8044
23642SOL     OW73242   2.855   8.141   7.307  0.4133  0.8837 -0.4843
23642SOL    HW173243   2.814   8.056   7.317  1.7654  0.2497 -0.0510
23642SOL    HW273244   2.901   8.137   7.223  1.6687  0.6337  0.1892
23643SOL     OW73245  10.419   7.719   7.011 -0.2630  0.1626  0.1559
23643SOL    HW173246  10.402   7.777   6.937  0.3493  0.0999 -0.0386
23643SOL    HW273247  10.333   7.686   7.036 -0.8730  2.4042  1.3025
23644SOL     OW73248   3.139   9.552   7.146 -0.3517 -0.1876  0.4837
23644SOL    HW173249   3.179   9.472   7.181  2.3185 -0.6311 -2.9105
23644SOL    HW273250   3.208   9.618   7.153 -0.1937  0.0586 -2.2227
23645SOL     OW73251   2.492   2.702   3.060  0.1439  0.3212 -0.6887
23645SOL    HW173252   2.575   2.743   3.085  1.1293 -0.4177 -2.5102
23645SOL    HW273253   2.425   2.766   3.081  1.1978  1.0274  0.6343
23646SOL     OW73254   8.465   9.021   6.438 -0.3465 -0.0709 -0.6045
23646SOL    HW173255   8.416   9.103   6.450 -2.1213 -1.0838 -0.7069
23646SOL    HW273256   8.501   9.028   6.349  0.9982  1.3100 -0.0149
23647SOL     OW73257   6.499   6.118   1.127  0.0502  0.0576  0.1121
23647SOL    HW173258   6.404   6.127   1.139  0.2145  0.7707  0.9087
23647SOL    HW273259   6.508   6.086   1.038 -0.9657 -0.4298  0.1645
23648SOL     OW73260   3.228   8.871  10.334  0.0926  0.4330 -0.4076
23648SOL    HW173261   3.190   8.958  10.347 -3.0409 -0.3373 -3.3315
23648SOL    HW273262   3.237   8.862  10.239  2.3712 -1.7062 -0.0985
23649SOL     OW73263   6.062   1.151   6.423 -0.5230 -0.1009 -0.3895
23649SOL    HW173264   6.123   1.190   6.485 -1.3645  0.0678  0.3615
23649SOL    HW273265   6.117   1.115   6.354  0.3582  1.0535 -0.3211
23650SOL     OW73266   6.440   4.599   0.188 -0.2328 -0.6240 -0.3036
23650SOL    HW173267   6.350   4.581   0.160 -0.9513 -1.2555  2.1048
23650SOL    HW273268   6.485   4.627   0.109 -2.1061 -1.9495 -1.9362
23651SOL     OW73269   0.555   8.173   6.884  0.1388  0.0341 -0.1153
23651SOL    HW173270   0.468   8.210   6.864 -0.3618 -0.4741  1.0377
23651SOL    HW273271   0.613   8.249   6.886 -0.8168  0.7842  1.9122
23652SOL     OW73272   3.987   8.925   4.809  0.4298  0.1486  0.3041
23652SOL    HW173273   4.021   8.979   4.880 -0.5360  0.3614  0.6179
23652SOL    HW273274   4.005   8.835   4.837 -0.5062  0.2031  1.1327
23653SOL     OW73275   7.894   1.424   8.597  0.5418  0.0689 -0.6400
23653SOL    HW173276   7.904   1.375   8.515  1.7064 -0.4470 -0.2322
23653SOL    HW273277   7.883   1.515   8.570  0.6944 -0.1209 -1.3795
23654SOL     OW73278   1.774   7.402   0.980 -0.5755  0.1152  0.6078
23654SOL    HW173279   1.732   7.480   0.944 -0.5925  0.8364  2.1331
23654SOL    HW273280   1.770   7.413   1.075  0.8580 -0.9746  0.8422
23655SOL     OW73281   5.388   1.610   5.094 -0.1973 -0.2761  0.0833
23655SOL    HW173282   5.471   1.648   5.065 -0.8402 -0.4154 -2.1134
23655SOL    HW273283   5.393   1.518   5.067 -0.3025 -0.7998  1.7243
23656SOL     OW73284   9.270   9.153   1.452 -0.1192  0.5502  0.8123
23656SOL    HW173285   9.325   9.223   1.417 -1.2354  2.1290  2.0543
23656SOL    HW273286   9.224   9.194   1.526 -2.2550 -0.9423  0.4019
23657SOL     OW73287   7.060   2.438   8.107 -0.2060 -0.1929  0.4734
23657SOL    HW173288   7.077   2.390   8.026 -1.2980  2.0590 -1.1785
23657SOL    HW273289   7.144   2.476   8.131 -0.1600  0.2762 -0.4006
23658SOL     OW73290   9.828   8.736   5.715 -0.0930  0.2864  0.2311
23658SOL    HW173291   9.789   8.668   5.659  0.9371 -0.6739  0.6392
23658SOL    HW273292   9.884   8.786   5.656  0.3324 -0.1907  0.2242
23659SOL     OW73293   8.938   5.308   5.410  0.2376  0.0240 -0.1432
23659SOL    HW173294   8.966   5.218   5.424 -2.6936 -1.2145 -1.3636
23659SOL    HW273295   8.987   5.338   5.334  0.7406 -0.7894 -0.1436
23660SOL     OW73296   7.301   6.252   4.400  0.4296 -0.6300  0.1445
23660SOL    HW173297   7.297   6.186   4.331  1.6077  0.1698 -0.7133
23660SOL    HW273298   7.280   6.203   4.480 -3.2993 -1.1488 -0.9349
23661SOL     OW73299   7.285   7.217   7.958 -0.1656  0.4791  0.0487
23661SOL    HW173300   7.275   7.291   7.898 -0.2771  0.8212  0.4824
23661SOL    HW273301   7.219   7.153   7.929  0.1814  0.3871 -0.5567
23662SOL     OW73302   7.789   4.295   7.815 -0.0141  0.5762 -0.2915
23662SOL    HW173303   7.843   4.227   7.855  0.1344  0.8046 -0.1017
23662SOL    HW273304   7.774   4.264   7.725  1.7191  1.2195 -0.8455
23663SOL     OW73305   6.055   3.212   6.775 -0.4450 -0.6690 -0.0104
23663SOL    HW173306   6.007   3.177   6.699  0.5952  0.5484 -1.2939
23663SOL    HW273307   6.142   3.174   6.767 -0.1509 -0.0458  0.2109
23664SOL     OW73308   1.152   2.949   3.146  1.0132 -0.7907 -0.2219
23664SOL    HW173309   1.212   3.023   3.152  1.6648 -1.1686 -1.6355
23664SOL    HW273310   1.162   2.903   3.229  1.5688 -0.0195  0.1459
23665SOL     OW73311   7.072   0.170   2.897 -0.0947  0.0167 -0.1426
23665SOL    HW173312   7.154   0.144   2.857 -0.7559 -1.0068 -0.8802
23665SOL    HW273313   7.075   0.132   2.985  0.5556  0.6781  0.1304
23666SOL     OW73314   1.462   9.717   5.724 -0.1051 -0.4837  0.2348
23666SOL    HW173315   1.464   9.779   5.796 -0.4194 -0.4038  0.1781
23666SOL    HW273316   1.394   9.751   5.665  0.2327 -0.4798 -0.1584
23667SOL     OW73317   6.044   6.280   4.063  0.1675  0.1866  0.1730
23667SOL    HW173318   6.066   6.230   3.984  0.2010 -0.0657  0.3406
23667SOL    HW273319   6.094   6.361   4.055  0.5959 -0.0695  0.1978
23668SOL     OW73320   5.738   4.564   6.771 -0.3627  0.3857 -0.2862
23668SOL    HW173321   5.657   4.526   6.738 -0.6450 -1.5920  2.3122
23668SOL    HW273322   5.721   4.658   6.775 -1.5702  0.2841 -2.1415
23669SOL     OW73323  10.326   1.033  10.010 -0.5471 -0.9854  0.5808
23669SOL    HW173324  10.261   1.066   9.948  1.3860  1.2532 -0.4293
23669SOL    HW273325  10.307   1.078  10.092  0.0569  0.1828  0.1079
23670SOL     OW73326   0.123   2.183   0.730 -0.2795  0.0051  0.1224
23670SOL    HW173327   0.029   2.182   0.745 -0.3615 -0.3903 -0.3957
23670SOL    HW273328   0.134   2.226   0.645 -0.3228 -3.4908 -1.8328
23671SOL     OW73329   1.065   4.993   6.311 -0.3077  0.1403 -0.7903
23671SOL    HW173330   1.126   5.061   6.284  0.0653 -0.0562 -0.4565
23671SOL    HW273331   1.089   4.974   6.402 -1.3861  0.6348 -0.3831
23672SOL     OW73332   2.438   3.648   5.624 -0.6864  0.1015 -0.3106
23672SOL    HW173333   2.505   3.637   5.557  0.8730 -1.0165  1.3342
23672SOL    HW273334   2.398   3.732   5.605  1.3526  0.9223 -1.2259
23673SOL     OW73335   1.869   5.771   5.196 -0.0968 -0.4183 -0.0696
23673SOL    HW173336   1.914   5.825   5.260 -0.5693 -1.7485  1.4389
23673SOL    HW273337   1.781   5.760   5.232 -0.6459 -0.5012 -1.3755
23674SOL     OW73338   1.280  10.446   6.847  0.1416 -0.0195  0.2264
23674SOL    HW173339   1.353  10.497   6.883  0.1615 -0.7822  1.2830
23674SOL    HW273340   1.315  10.409   6.766  0.5307  0.6022  0.0974
23675SOL     OW73341   7.628   2.711   6.776  0.3466  0.0622  0.3095
23675SOL    HW173342   7.603   2.713   6.683  2.5254  2.1502 -0.3244
23675SOL    HW273343   7.569   2.774   6.818 -0.6753 -0.9204  0.4188
23676SOL     OW73344   1.141   9.409   7.712 -0.0073  0.5959  0.1907
23676SOL    HW173345   1.174   9.409   7.622  0.5642 -0.5299  0.3756
23676SOL    HW273346   1.196   9.472   7.759  0.6306  0.1470  0.0594
23677SOL     OW73347   8.667   1.237   9.348  0.3014  0.2536 -0.9542
23677SOL    HW173348   8.716   1.158   9.323  0.5897  0.7449 -1.9959
23677SOL    HW273349   8.585   1.230   9.299 -0.1856  0.0314 -0.1348
23678SOL     OW73350   8.489   9.542   0.723 -0.3454  0.2633  0.8979
23678SOL    HW173351   8.566   9.514   0.773 -0.9464  0.0585  1.7307
23678SOL    HW273352   8.439   9.461   0.710 -0.1837  0.3049 -0.0872
23679SOL     OW73353   2.250   1.146   8.824  0.6479 -0.1741 -0.2734
23679SOL    HW173354   2.271   1.160   8.916  1.0664 -1.8642 -0.0814
23679SOL    HW273355   2.166   1.190   8.811  0.7796  0.4207  0.7994
23680SOL     OW73356   3.493   3.827   9.291  0.6581 -0.1110  0.5820
23680SOL    HW173357   3.544   3.856   9.215  0.0282  0.7699  0.4734
23680SOL    HW273358   3.469   3.909   9.336 -2.1366 -0.3244 -0.3415
23681SOL     OW73359   2.218   7.249   3.287  0.4813  0.3720  0.1202
23681SOL    HW173360   2.171   7.208   3.214  0.6855 -1.4012  0.9329
23681SOL    HW273361   2.199   7.342   3.278 -1.8504 -0.0960 -0.5199
23682SOL     OW73362   7.399  10.468   4.133  0.3847  0.4948 -0.5861
23682SOL    HW173363   7.322  10.493   4.184 -0.1252  0.0632 -1.1271
23682SOL    HW273364   7.395  10.372   4.130  1.7738  0.3711  0.6409
23683SOL     OW73365   9.974   2.576   2.210  0.1606 -0.5316 -0.1641
23683SOL    HW173366  10.054   2.524   2.219  0.1095 -0.5168  0.3770
23683SOL    HW273367  10.001   2.666   2.224 -0.0209 -0.5676  0.4632
23684SOL     OW73368   7.710   7.180   6.757 -0.0805  0.5707  0.8764
23684SOL    HW173369   7.708   7.109   6.694  0.8032  0.1447  1.3161
23684SOL    HW273370   7.752   7.143   6.834  3.3129  2.3343  0.0921
23685SOL     OW73371   7.105   3.267   5.163 -0.4952  0.1651  0.2996
23685SOL    HW173372   7.040   3.310   5.107 -0.8300  1.4829  1.6360
23685SOL    HW273373   7.091   3.174   5.149 -1.5146  0.4380 -0.7217
23686SOL     OW73374   2.799   3.478   7.236  0.1219  0.0450  0.1226
23686SOL    HW173375   2.821   3.517   7.151 -1.8977  1.6328  0.2544
23686SOL    HW273376   2.723   3.422   7.218  0.5309 -0.7123  0.6661
23687SOL     OW73377   6.572   0.369   6.709 -0.7394 -0.6942  0.3137
23687SOL    HW173378   6.485   0.380   6.748 -0.5609  1.6362  0.2143
23687SOL    HW273379   6.565   0.411   6.623  0.8179  0.7781  0.8577
23688SOL     OW73380  10.174   3.760   0.054  0.3629 -0.0956 -0.1842
23688SOL    HW173381  10.206   3.803   0.134  0.6501  0.4478 -0.5848
23688SOL    HW273382  10.189   3.825  -0.015 -0.5594 -0.2727 -0.5623
23689SOL     OW73383   4.272   0.852  10.209  0.2912  0.0518  0.1103
23689SOL    HW173384   4.179   0.871  10.222 -0.2025 -1.4675 -0.9931
23689SOL    HW273385   4.315   0.937  10.219 -1.2113  0.7846  0.5998
23690SOL     OW73386   6.888   6.828   5.021  0.2379 -0.7906 -0.0070
23690SOL    HW173387   6.852   6.768   4.956  1.4620  0.5544 -2.0201
23690SOL    HW273388   6.970   6.860   4.983  1.0871 -0.0003  2.2537
23691SOL     OW73389   6.022   0.160   1.847 -0.6609 -0.3765 -0.1281
23691SOL    HW173390   5.937   0.149   1.890 -1.6862 -0.1732 -1.9798
23691SOL    HW273391   6.083   0.176   1.918 -2.0624 -1.1310  1.3135
23692SOL     OW73392   1.079   4.153   6.601  0.0643 -0.0581 -0.0533
23692SOL    HW173393   0.996   4.188   6.634 -0.7802 -2.0455  0.0743
23692SOL    HW273394   1.066   4.147   6.506 -1.0722 -2.8810  0.1745
23693SOL     OW73395   0.663  10.214   0.304 -0.3593  0.0458  0.0109
23693SOL    HW173396   0.651  10.308   0.316  1.9907  0.1734  2.1042
23693SOL    HW273397   0.612  10.174   0.374  0.0341 -0.1394  0.1935
23694SOL     OW73398   9.884   3.987   5.660 -0.4669 -0.5402  0.2655
23694SOL    HW173399   9.871   4.024   5.748 -3.0180 -0.9543  0.1292
23694SOL    HW273400   9.905   3.895   5.676 -0.3505 -0.4828  0.4525
23695SOL     OW73401   7.025   0.036   5.478 -0.1841  0.0474 -0.0897
23695SOL    HW173402   6.953   0.082   5.522 -0.7456 -0.2978 -0.6216
23695SOL    HW273403   7.000   0.038   5.385  0.2396 -0.5295 -0.2179
23696SOL     OW73404   4.285   3.886   0.880  0.0521  0.0460 -0.1922
23696SOL    HW173405   4.192   3.898   0.862 -0.3180  0.7409  1.8833
23696SOL    HW273406   4.329   3.946   0.819 -0.8459 -0.3093 -1.2074
23697SOL     OW73407  10.506   8.015   1.176  0.2454  0.6709 -0.7533
23697SOL    HW173408  10.497   7.926   1.212 -2.1837  1.2034  0.1943
23697SOL    HW273409  10.599   8.036   1.185  0.3601 -0.5577  2.0809
23698SOL     OW73410   8.887   1.852   3.605 -0.3232 -0.3534  0.0255
23698SOL    HW173411   8.897   1.775   3.548 -1.4924  0.6452 -1.6254
23698SOL    HW273412   8.976   1.872   3.634 -0.0727 -2.8574  1.3028
23699SOL     OW73413   3.885   4.443   8.999  0.1216 -0.7898  0.6438
23699SOL    HW173414   3.855   4.522   9.044 -0.5743 -0.0819 -0.9913
23699SOL    HW273415   3.837   4.442   8.916  2.3282 -1.2858 -0.7383
23700SOL     OW73416   7.248   4.070   3.042 -0.1429  0.0985  0.0079
23700SOL    HW173417   7.255   3.975   3.053  1.6084  0.3117  1.1807
23700SOL    HW273418   7.337   4.103   3.058 -0.6521  1.9182 -0.6428
23701SOL     OW73419   8.601   1.792   3.977 -0.3792 -0.0158  0.3636
23701SOL    HW173420   8.667   1.730   4.007  0.3929  0.4458 -0.3269
23701SOL    HW273421   8.650   1.858   3.929 -1.4742 -0.3938 -1.3861
23702SOL     OW73422   8.050   5.684   2.487  0.1275 -0.1626 -0.3753
23702SOL    HW173423   8.103   5.606   2.501  0.6955  0.3438  0.3930
23702SOL    HW273424   7.968   5.652   2.449  0.3764 -1.1109 -0.1270
23703SOL     OW73425   7.594   4.239   5.638  0.0609  0.3019  0.2239
23703SOL    HW173426   7.651   4.171   5.601  0.4479  1.1105 -0.7212
23703SOL    HW273427   7.623   4.247   5.729  0.0975 -0.6897  0.3164
23704SOL     OW73428   2.878   5.815   9.162 -0.2948 -0.0694 -0.2377
23704SOL    HW173429   2.805   5.755   9.145 -0.8360  0.4511  0.2185
23704SOL    HW273430   2.932   5.810   9.083 -1.3922  0.3564 -1.0491
23705SOL     OW73431   1.230   9.099   6.511 -0.1281 -0.2235  0.3651
23705SOL    HW173432   1.178   9.045   6.571  1.0094 -1.3868  0.3571
23705SOL    HW273433   1.187   9.088   6.426 -0.0307 -0.9990  0.4021
23706SOL     OW73434   0.098   4.218  10.006 -0.1186  0.6732  0.2252
23706SOL    HW173435   0.157   4.248   9.937 -0.7260  0.2882 -0.4726
23706SOL    HW273436   0.028   4.283  10.009 -0.5691  0.2195 -0.1561
23707SOL     OW73437   4.809   1.373   7.455 -0.1577  0.2010 -0.2899
23707SOL    HW173438   4.792   1.286   7.491  0.0336 -0.0905 -0.8900
23707SOL    HW273439   4.901   1.371   7.428 -0.6495 -0.0781 -2.0801
23708SOL     OW73440   0.594   6.137   3.212  0.0448  0.2401  0.4130
23708SOL    HW173441   0.573   6.207   3.151  2.1866  0.8998  0.3556
23708SOL    HW273442   0.571   6.057   3.165 -1.8658  0.8281  0.2528
23709SOL     OW73443   6.110   5.354   6.320 -0.0291 -0.0442 -0.3256
23709SOL    HW173444   6.071   5.354   6.233 -0.8996 -0.9010  0.0471
23709SOL    HW273445   6.061   5.420   6.368 -0.7402 -0.7822 -0.0000
23710SOL     OW73446   1.982   6.262   7.078  0.1427 -0.0510  0.1620
23710SOL    HW173447   2.055   6.305   7.122 -0.4028  0.7989  0.2685
23710SOL    HW273448   1.904   6.311   7.107 -0.7105 -2.1255  1.5881
23711SOL     OW73449   5.143   6.705   3.607 -0.1141 -0.0958 -0.0532
23711SOL    HW173450   5.185   6.654   3.538  0.6669 -0.2591  0.5241
23711SOL    HW273451   5.109   6.639   3.667  0.6219  0.0368  0.5332
23712SOL     OW73452  10.476   3.666   6.754  0.1988  0.0323  0.1728
23712SOL    HW173453  10.397   3.711   6.725  0.6256  0.8173  0.2153
23712SOL    HW273454  10.548   3.724   6.729  0.6764  0.0074  1.4093
23713SOL     OW73455   1.176   4.282   1.080 -0.5401 -0.3511 -0.0294
23713SOL    HW173456   1.193   4.347   1.148 -0.0004 -0.8713  0.3363
23713SOL    HW273457   1.126   4.213   1.124  0.9352 -1.3234  0.1826
23714SOL     OW73458   5.080   5.404   5.750  0.1921 -0.2353  0.1050
23714SOL    HW173459   4.992   5.366   5.745 -0.5794  1.3744  0.8702
23714SOL    HW273460   5.067   5.490   5.789  1.7835  1.0928 -2.0591
23715SOL     OW73461   3.453   9.031   9.015 -0.0909  0.0673 -0.0444
23715SOL    HW173462   3.517   9.073   9.072 -0.9226  0.4863  0.6053
23715SOL    HW273463   3.396   9.103   8.986  0.0306 -0.2182 -1.0120
23716SOL     OW73464   7.874   8.907   7.127  0.0354  0.7876  0.3353
23716SOL    HW173465   7.924   8.876   7.051 -0.3777 -0.0282  0.3873
23716SOL    HW273466   7.926   8.878   7.202 -1.4739 -1.8944  0.4555
23717SOL     OW73467   0.684   0.761   6.897  0.3170 -0.4582 -0.4500
23717SOL    HW173468   0.608   0.709   6.922  0.5891 -0.7737 -0.2731
23717SOL    HW273469   0.720   0.715   6.821 -0.2968  0.2932 -1.2325
23718SOL     OW73470   0.186   5.136   8.246 -0.4620  0.2718 -0.5570
23718SOL    HW173471   0.104   5.094   8.220 -0.4683  1.7025 -3.2043
23718SOL    HW273472   0.180   5.143   8.341 -1.8608 -2.6634 -0.2979
23719SOL     OW73473   4.001   2.631   5.768  0.7363 -0.1101 -0.6248
23719SOL    HW173474   3.974   2.624   5.859  1.2561 -2.3798 -0.5871
23719SOL    HW273475   4.035   2.720   5.760 -0.9883  0.7653  0.8842
23720SOL     OW73476   4.789   7.918   5.396 -0.6038  0.2321 -0.1936
23720SOL    HW173477   4.827   7.964   5.470  2.5394 -0.8952 -0.9520
23720SOL    HW273478   4.842   7.838   5.388 -3.3044 -1.6037 -1.3233
23721SOL     OW73479   8.881   5.984  10.130  0.3459 -0.1859  0.2577
23721SOL    HW173480   8.922   5.997  10.215 -0.4556  0.6109  0.5258
23721SOL    HW273481   8.880   6.070  10.090 -1.7433 -0.0222  0.5726
23722SOL     OW73482   2.733   3.349   4.538  0.1417  0.3250 -0.3307
23722SOL    HW173483   2.808   3.391   4.496  1.9531 -0.9793  1.4007
23722SOL    HW273484   2.718   3.400   4.617 -0.4641  0.2520 -0.3924
23723SOL     OW73485   2.395   4.626   3.538 -0.4434  0.4303 -0.1087
23723SOL    HW173486   2.343   4.691   3.586 -1.9857 -0.4371 -0.5194
23723SOL    HW273487   2.413   4.668   3.454 -2.8175 -0.1605 -1.0147
23724SOL     OW73488  10.256   5.729   9.896 -0.6957  0.0340  0.3968
23724SOL    HW173489  10.225   5.745   9.807 -0.7247 -1.1198  0.1812
23724SOL    HW273490  10.339   5.682   9.885 -1.3761 -1.3664  0.9478
23725SOL     OW73491   5.075   2.411   1.772 -0.0588 -0.3662  0.0938
23725SOL    HW173492   5.089   2.473   1.701 -3.3236  0.9444  0.4297
23725SOL    HW273493   5.065   2.326   1.728 -2.6552  0.5051 -1.2214
23726SOL     OW73494   8.432   2.037   5.668  0.1176 -0.3860 -0.0366
23726SOL    HW173495   8.434   2.003   5.758  2.8395  0.7654  0.4424
23726SOL    HW273496   8.485   1.975   5.618 -1.4989 -1.0984 -0.9683
23727SOL     OW73497   4.315   9.443   0.778 -0.0714  0.1957 -0.0773
23727SOL    HW173498   4.389   9.426   0.835 -0.1384  2.9738  1.0191
23727SOL    HW273499   4.264   9.363   0.779  1.1823 -0.6373  1.8597
23728SOL     OW73500   9.540   2.754   4.562  0.2833  1.4103  0.1920
23728SOL    HW173501   9.491   2.749   4.480 -0.3624  2.0391  0.5240
23728SOL    HW273502   9.472   2.757   4.630  0.7757  2.2922  0.6603
23729SOL     OW73503   3.264   1.307   4.733 -0.0928  0.4315  0.0027
23729SOL    HW173504   3.256   1.218   4.766  0.4579  0.4933  0.3211
23729SOL    HW273505   3.258   1.298   4.638 -0.8064  0.1485  0.0665
23730SOL     OW73506   1.290  10.247   9.684  0.0375 -0.3868  0.3624
23730SOL    HW173507   1.321  10.283   9.767 -0.7466  0.5224  0.2695
23730SOL    HW273508   1.323  10.157   9.683  1.7204  0.1861  0.7714
23731SOL     OW73509   6.022   5.485   4.435  0.0407  0.3157  0.2094
23731SOL    HW173510   5.933   5.486   4.470 -0.0742  0.1930 -0.0779
23731SOL    HW273511   6.027   5.564   4.381 -0.3881 -0.4531 -0.9946
23732SOL     OW73512   4.970   3.852   3.049  0.2254 -0.5261 -0.6119
23732SOL    HW173513   4.963   3.943   3.021 -0.3533 -0.1515  0.7020
23732SOL    HW273514   4.886   3.833   3.091  1.4152 -0.6949  1.8862
23733SOL     OW73515  10.056   3.696   7.866 -0.2151  0.0994  0.3944
23733SOL    HW173516  10.143   3.729   7.841 -0.0988 -0.0294  0.6291
23733SOL    HW273517  10.070   3.603   7.884 -0.3261  0.1584  0.8005
23734SOL     OW73518   4.975   3.109   4.421 -0.2010  0.0499  0.4588
23734SOL    HW173519   4.909   3.142   4.361  0.5527  1.6978  0.4804
23734SOL    HW273520   5.011   3.188   4.463  0.8101 -0.9029  1.4552
23735SOL     OW73521   7.950  10.110   6.742  0.0173 -1.0300 -0.0194
23735SOL    HW173522   8.031  10.065   6.767 -1.0628 -3.6573 -0.9305
23735SOL    HW273523   7.980  10.181   6.685  1.8406 -0.0562  1.9965
23736SOL     OW73524  10.118   7.477   9.434  0.1074 -0.0582  0.1532
23736SOL    HW173525  10.132   7.492   9.528  1.0351  0.1259 -0.0090
23736SOL    HW273526  10.200   7.438   9.404  0.0275  0.4099 -0.6965
23737SOL     OW73527   6.362   3.673   0.671 -0.0784  0.3957  0.0227
23737SOL    HW173528   6.367   3.583   0.702  0.2016  0.2172 -0.5318
23737SOL    HW273529   6.447   3.711   0.693 -0.5642  0.8620  1.2346
23738SOL     OW73530   9.087   9.069   7.469 -0.1820 -0.0882  0.0553
23738SOL    HW173531   9.066   9.161   7.455  0.9133  0.1433 -0.0946
23738SOL    HW273532   9.042   9.023   7.398 -0.0389  0.4145 -0.3657
23739SOL     OW73533   5.365   9.931   7.698 -0.1483 -0.2893  0.1372
23739SOL    HW173534   5.398   9.869   7.633  0.2057  1.7631 -1.7786
23739SOL    HW273535   5.290   9.972   7.654  0.9569  2.1581  0.3949
23740SOL     OW73536   9.463   0.467   9.400 -0.2845 -0.5516  0.1876
23740SOL    HW173537   9.434   0.543   9.450 -0.2412 -1.2728  1.3372
23740SOL    HW273538   9.547   0.443   9.439 -0.6669 -1.6606  0.3628
23741SOL     OW73539   4.765   7.496   9.948  0.5148 -0.0019  0.1563
23741SOL    HW173540   4.726   7.533  10.027  0.1604 -2.0619  1.0248
23741SOL    HW273541   4.838   7.442   9.980  0.0287 -1.3091 -0.8437
23742SOL     OW73542   1.387   4.512   5.195 -0.2325 -0.4423  0.0676
23742SOL    HW173543   1.410   4.534   5.286 -0.2317 -0.1531 -0.0003
23742SOL    HW273544   1.413   4.421   5.185 -0.1885 -0.4610  0.3454
23743SOL     OW73545   8.622   2.208   4.930  0.0936 -0.8603  0.2333
23743SOL    HW173546   8.541   2.175   4.969 -0.0004  0.2592  1.0568
23743SOL    HW273547   8.636   2.154   4.852 -3.0120  0.7623 -1.6425
23744SOL     OW73548   0.840   9.517   7.238 -0.4284 -0.0141  0.0887
23744SOL    HW173549   0.790   9.530   7.319 -0.1086 -0.2036  0.3260
23744SOL    HW273550   0.793   9.566   7.171 -0.9143 -0.1700  0.3112
23745SOL     OW73551  10.495   7.302   3.985 -0.8049  0.3610 -0.1214
23745SOL    HW173552  10.425   7.356   3.947 -1.3853 -0.8214 -0.7972
23745SOL    HW273553  10.575   7.353   3.973 -1.0287  0.2456 -2.5563
23746SOL     OW73554   2.373   4.967   7.826 -0.1840 -0.3014 -0.1486
23746SOL    HW173555   2.300   4.916   7.862 -0.6903  0.5137 -0.0001
23746SOL    HW273556   2.448   4.939   7.877 -0.5861 -0.4027  0.4009
23747SOL     OW73557   3.681   1.789   8.167 -0.7096 -0.9545  0.3968
23747SOL    HW173558   3.611   1.852   8.153  0.4291  0.0858 -0.9706
23747SOL    HW273559   3.697   1.790   8.261 -0.9944  0.5070  0.4483
23748SOL     OW73560   1.500   8.197   5.235 -0.1663  0.5691 -0.1478
23748SOL    HW173561   1.534   8.163   5.152  0.8217 -1.8584  1.1713
23748SOL    HW273562   1.578   8.216   5.287 -0.7831  0.2500  0.9208
23749SOL     OW73563   1.388   7.443  10.037 -0.2038 -0.2963 -0.0658
23749SOL    HW173564   1.337   7.374   9.995  0.2269  0.8240 -2.5951
23749SOL    HW273565   1.371   7.521   9.984  1.8565  0.7840  0.7692
23750SOL     OW73566   6.473   1.076   4.514  0.0842 -0.5270  0.1452
23750SOL    HW173567   6.389   1.074   4.561  1.0067 -0.4602  1.9026
23750SOL    HW273568   6.536   1.104   4.581  1.1365  1.8936 -1.7200
23751SOL     OW73569   0.152   0.832   7.864 -0.6209 -0.3331  0.0381
23751SOL    HW173570   0.204   0.877   7.797  1.4648  0.8361  2.2640
23751SOL    HW273571   0.169   0.739   7.850  2.9771  0.0072  1.1745
23752SOL     OW73572   3.218   7.989   9.826 -0.0754  0.0881  0.7318
23752SOL    HW173573   3.237   7.948   9.910  0.9720 -1.1080 -0.0506
23752SOL    HW273574   3.304   8.001   9.785 -0.6198 -0.1570 -0.5348
23753SOL     OW73575   4.383   8.124  10.002  0.0834 -0.1007 -0.0671
23753SOL    HW173576   4.341   8.203  10.038  0.6806 -0.1477  0.7694
23753SOL    HW273577   4.310   8.066   9.980 -0.3358  0.4008 -0.0079
23754SOL     OW73578   2.975   0.257  10.505 -0.6169  0.4756  0.8212
23754SOL    HW173579   2.997   0.295  10.589 -1.4568 -1.2805  1.8985
23754SOL    HW273580   2.879   0.250  10.506 -0.5009 -1.8461  0.8202
23755SOL     OW73581   8.660   5.695   7.699 -0.0429  0.4289 -0.2765
23755SOL    HW173582   8.707   5.723   7.621 -0.3043  0.8482 -0.2889
23755SOL    HW273583   8.675   5.601   7.704 -0.5513  0.2848 -1.1930
23756SOL     OW73584   4.607   3.175   5.617  0.1979 -0.2375 -0.3505
23756SOL    HW173585   4.525   3.220   5.638  0.7549 -0.0625  1.6072
23756SOL    HW273586   4.675   3.239   5.637  0.9856 -1.6938  1.9931
23757SOL     OW73587   9.191   4.428   4.759  0.4288 -0.3872 -0.0146
23757SOL    HW173588   9.128   4.396   4.694 -0.4252 -0.5011  0.8472
23757SOL    HW273589   9.274   4.388   4.733 -0.0304 -0.9553 -0.6534
23758SOL     OW73590   5.629   9.987   2.485  0.6409 -0.6663 -0.4085
23758SOL    HW173591   5.584   9.970   2.402  0.4434  1.0923 -0.7041
23758SOL    HW273592   5.693  10.054   2.464  0.2375  0.1920  0.9582
23759SOL     OW73593   4.395   1.197   9.723  0.7111 -0.4614  0.0361
23759SOL    HW173594   4.380   1.291   9.708  0.8989 -0.6431 -1.4000
23759SOL    HW273595   4.313   1.167   9.763  0.4394  0.2069  0.0089
23760SOL     OW73596   9.662   7.350   2.487 -0.1356 -0.0645 -0.4307
23760SOL    HW173597   9.650   7.308   2.401 -0.5026 -0.7823 -0.0381
23760SOL    HW273598   9.574   7.377   2.512 -0.2592 -1.1452  0.3587
23761SOL     OW73599   6.855   2.210   7.895 -0.1799  0.4754  0.3523
23761SOL    HW173600   6.945   2.222   7.863  0.6024  2.9562  3.0843
23761SOL    HW273601   6.801   2.254   7.829  0.8091  0.8365 -0.2494
23762SOL     OW73602   0.502   0.283   7.559  0.5079  0.0517  0.1016
23762SOL    HW173603   0.549   0.312   7.481  1.7153  0.2074  0.8655
23762SOL    HW273604   0.570   0.259   7.621 -0.4300  0.0142  1.1549
23763SOL     OW73605   3.063   0.280  10.230  0.2496  0.4746  0.2336
23763SOL    HW173606   2.980   0.310  10.191 -0.0084  0.3579  0.6833
23763SOL    HW273607   3.043   0.271  10.323  0.8440  0.6976  0.3850
23764SOL     OW73608   9.318   0.791   9.827 -0.5773  0.6729  0.0125
23764SOL    HW173609   9.228   0.813   9.850  0.0240  3.0157  0.3268
23764SOL    HW273610   9.351   0.867   9.780  1.3383 -0.0120  0.1391
23765SOL     OW73611   1.722   8.080   7.857  0.0622  0.0622 -0.5800
23765SOL    HW173612   1.785   8.052   7.791 -0.6325 -0.9063 -0.8521
23765SOL    HW273613   1.637   8.055   7.821 -0.2223 -2.5395  1.6074
23766SOL     OW73614   6.817   5.752   5.448  0.0848  0.2796 -0.0905
23766SOL    HW173615   6.822   5.731   5.354  1.7621 -0.2474  0.0791
23766SOL    HW273616   6.800   5.846   5.450 -3.5726 -0.2096 -0.8665
23767SOL     OW73617   5.205   5.022   0.068 -0.3925  0.7307  0.2858
23767SOL    HW173618   5.264   5.003  -0.004  0.6160  2.0436  0.7416
23767SOL    HW273619   5.262   5.033   0.144 -1.0179  3.5227  0.4443
23768SOL     OW73620   1.155   3.220   3.268  1.0045 -0.2945  0.2447
23768SOL    HW173621   1.167   3.296   3.211 -0.7227 -0.3541 -0.2462
23768SOL    HW273622   1.227   3.225   3.331  0.9301  1.7607  0.2254
23769SOL     OW73623   4.731   3.589   2.359 -0.1348 -0.2737  0.3455
23769SOL    HW173624   4.738   3.684   2.358  0.2937 -0.3017 -0.7916
23769SOL    HW273625   4.796   3.560   2.296 -1.5707 -1.2315 -0.7475
23770SOL     OW73626   9.660   5.281   4.042  0.3017 -0.4961 -0.4216
23770SOL    HW173627   9.596   5.328   4.096  1.1400  1.1039 -0.7532
23770SOL    HW273628   9.681   5.202   4.093 -0.3255  0.0307  0.6935
23771SOL     OW73629   5.523   5.543   4.678  0.2846  0.2726 -0.3783
23771SOL    HW173630   5.427   5.547   4.679  0.2933  0.3384  0.6639
23771SOL    HW273631   5.550   5.583   4.760  1.0814 -2.5067  0.8365
23772SOL     OW73632   3.312   8.538   1.697  0.3553 -0.0768 -0.3183
23772SOL    HW173633   3.252   8.477   1.656  1.2481 -1.0427 -0.2371
23772SOL    HW273634   3.398   8.495   1.693  1.0362  1.2082 -0.3409
23773SOL     OW73635   2.282   0.384   5.265 -0.0551 -0.4569  0.0762
23773SOL    HW173636   2.341   0.312   5.285  0.6860  0.0352 -0.3182
23773SOL    HW273637   2.307   0.453   5.327  0.9235  0.3583 -1.2010
23774SOL     OW73638   1.020   0.106   0.224  0.6445 -0.4921  0.2149
23774SOL    HW173639   0.964   0.037   0.189 -0.0189  0.6162 -0.9829
23774SOL    HW273640   1.107   0.066   0.230  0.2727 -1.4278 -0.4074
23775SOL     OW73641   4.355   5.606   0.655 -0.1117  0.4632 -0.5751
23775SOL    HW173642   4.403   5.586   0.735 -0.9354 -0.0473 -0.1933
23775SOL    HW273643   4.422   5.613   0.587  0.4777 -0.5262 -0.1121
23776SOL     OW73644   4.703   2.039   1.569  0.2596  0.6758 -0.2049
23776SOL    HW173645   4.637   2.090   1.522  0.3441  0.5699 -0.4435
23776SOL    HW273646   4.654   1.970   1.613  0.0643  1.3462  0.6666
23777SOL     OW73647   0.190   1.565   9.415 -0.2477  0.5191  0.2046
23777SOL    HW173648   0.099   1.579   9.389 -0.1238  0.2630 -0.3732
23777SOL    HW273649   0.238   1.638   9.374  0.4345 -1.5264 -2.9758
23778SOL     OW73650   0.126   8.919   8.235 -0.2340 -0.2156 -0.1022
23778SOL    HW173651   0.211   8.958   8.217  0.0961 -0.5565  0.6660
23778SOL    HW273652   0.145   8.828   8.255 -0.8174 -0.3753 -0.2656
23779SOL     OW73653   2.253   6.874   6.621  0.1964 -0.0673  0.6287
23779SOL    HW173654   2.280   6.920   6.542 -0.4350  1.3009  1.1706
23779SOL    HW273655   2.281   6.784   6.608  0.1068  0.1339 -1.1494
23780SOL     OW73656   9.282   0.651   8.082  0.2500 -0.1614  0.3345
23780SOL    HW173657   9.242   0.702   8.153  0.8632  0.3790  0.2961
23780SOL    HW273658   9.325   0.716   8.027  0.4140 -0.6559 -0.1265
23781SOL     OW73659   1.749   1.005   2.821  0.3226 -0.2456 -0.2942
23781SOL    HW173660   1.823   0.984   2.764  0.7655  0.8618 -0.1484
23781SOL    HW273661   1.790   1.028   2.905 -0.1781  0.3967 -0.2205
23782SOL     OW73662   3.079   4.109   4.277  0.0615 -0.3130  0.0992
23782SOL    HW173663   3.140   4.179   4.252 -3.1326  2.0615 -1.8773
23782SOL    HW273664   3.090   4.043   4.209  0.4480  0.0645 -0.2183
23783SOL     OW73665  10.354   6.951   2.168  0.1213  0.1246  0.0373
23783SOL    HW173666  10.445   6.972   2.188  1.2462 -3.7348 -0.1082
23783SOL    HW273667  10.342   6.979   2.077  1.5662 -0.2356 -0.2894
23784SOL     OW73668   2.068   5.100   1.399 -0.1106  0.1060 -0.0868
23784SOL    HW173669   2.132   5.034   1.427 -1.8625 -1.1859  1.0292
23784SOL    HW273670   2.012   5.113   1.475 -2.5264 -0.4364 -1.6801
23785SOL     OW73671   4.407   1.121   9.247  0.3180 -0.1280  0.4134
23785SOL    HW173672   4.452   1.197   9.210 -0.0932  0.5361  1.2356
23785SOL    HW273673   4.434   1.119   9.339  1.0086 -1.5126  0.2186
23786SOL     OW73674   1.054   2.480   1.145 -0.2202  0.1478 -0.1388
23786SOL    HW173675   0.970   2.470   1.189  0.5797  0.8035  1.5853
23786SOL    HW273676   1.073   2.392   1.110 -1.6491  0.0256 -0.6802
23787SOL     OW73677   1.381   8.405   8.402  0.0515  0.3812 -0.5634
23787SOL    HW173678   1.407   8.479   8.347  1.7969  0.3216  0.1134
23787SOL    HW273679   1.456   8.346   8.399 -0.6217 -0.5332  0.3087
23788SOL     OW73680   1.180   5.648   1.593 -0.3421 -0.7540 -0.2413
23788SOL    HW173681   1.248   5.622   1.531 -0.0121  0.1877 -0.2783
23788SOL    HW273682   1.142   5.565   1.622 -0.3564 -1.2251 -1.5343
23789SOL     OW73683   4.425   6.594   7.013 -0.1477 -0.0915 -0.4851
23789SOL    HW173684   4.490   6.525   7.006 -2.2121 -2.3966  1.4223
23789SOL    HW273685   4.372   6.585   6.933 -0.4765 -0.8467 -0.1946
23790SOL     OW73686   1.811   7.816   3.070 -0.1545 -0.1852 -0.4368
23790SOL    HW173687   1.836   7.741   3.016 -0.2874 -0.0685 -0.6604
23790SOL    HW273688   1.890   7.871   3.072 -0.2341 -0.0605 -0.7301
23791SOL     OW73689   6.383   3.936   3.321 -0.3845 -0.2089  0.0031
23791SOL    HW173690   6.314   3.982   3.273 -1.6036 -0.3713  1.5418
23791SOL    HW273691   6.448   4.004   3.340 -0.3631  0.0623 -0.9881
23792SOL     OW73692   8.474   7.884   0.235  0.2426  0.2003  0.0419
23792SOL    HW173693   8.461   7.800   0.191 -1.9091  0.7002 -0.3869
23792SOL    HW273694   8.398   7.893   0.293  1.9189  0.5470  2.2988
23793SOL     OW73695   3.345  10.049   5.582  0.0866 -0.2195 -0.0855
23793SOL    HW173696   3.374   9.994   5.510 -0.3424 -2.7311  1.5210
23793SOL    HW273697   3.249  10.042   5.581  0.0421  0.2140  0.3518
23794SOL     OW73698   9.453   0.144   7.670  0.2675  0.6440  0.2511
23794SOL    HW173699   9.465   0.230   7.711  0.6682  0.3753  0.7114
23794SOL    HW273700   9.540   0.123   7.634 -0.0379  0.8070 -0.6122
23795SOL     OW73701   1.755   9.032   1.825  0.1724 -0.0268  0.4883
23795SOL    HW173702   1.760   9.071   1.912  0.2873 -1.1894  1.0237
23795SOL    HW273703   1.741   8.939   1.841 -1.6226 -0.0103 -0.7732
23796SOL     OW73704   9.330   1.710   7.133 -0.3379  0.0945 -0.2926
23796SOL    HW173705   9.333   1.712   7.037  0.9996  0.3802 -0.2631
23796SOL    HW273706   9.390   1.780   7.160 -0.7016  0.0155  0.7538
23797SOL     OW73707   3.534   2.561   7.634 -0.3020  0.0644  0.0669
23797SOL    HW173708   3.502   2.494   7.695  0.5034 -1.1500 -0.8012
23797SOL    HW273709   3.621   2.583   7.666  0.1521 -0.6270 -0.6497
23798SOL     OW73710   0.929   6.269   3.691 -0.5417  0.2859 -0.5217
23798SOL    HW173711   0.961   6.357   3.713 -0.2961  0.7287 -2.4503
23798SOL    HW273712   0.997   6.232   3.636 -0.7434 -1.0695  0.1024
23799SOL     OW73713   4.511   1.840   3.980  0.4173 -0.5458  0.5652
23799SOL    HW173714   4.501   1.811   3.890 -0.7951 -2.0473  1.1430
23799SOL    HW273715   4.450   1.785   4.030  1.1843  0.1277  2.3191
23800SOL     OW73716  10.515   1.591   3.780 -0.0289 -0.4077 -0.5506
23800SOL    HW173717  10.442   1.531   3.765 -0.2957 -0.4422  0.7687
23800SOL    HW273718  10.590   1.535   3.798 -0.1193 -0.3577 -0.0107
23801SOL     OW73719   6.100   1.689   6.493  0.1792 -0.3598 -0.2368
23801SOL    HW173720   6.047   1.630   6.547 -2.7553  1.4020 -0.9753
23801SOL    HW273721   6.103   1.647   6.407  2.1451 -1.6191  0.3871
23802SOL     OW73722   7.903   8.678   6.280 -0.2963  0.2712  0.0773
23802SOL    HW173723   7.809   8.670   6.265 -0.2554  1.0867 -0.7229
23802SOL    HW273724   7.938   8.591   6.264 -0.8168  0.1503 -0.4153
23803SOL     OW73725   6.358   2.038   1.391 -0.1159 -0.3587  0.2994
23803SOL    HW173726   6.294   2.094   1.346  0.8849  0.1107 -0.5987
23803SOL    HW273727   6.367   1.962   1.334  0.3216 -0.2966  0.2847
23804SOL     OW73728  10.020   7.307   1.847  0.1439 -0.3269 -0.0255
23804SOL    HW173729  10.035   7.396   1.818  1.9966 -1.0228 -1.4146
23804SOL    HW273730  10.093   7.289   1.907  1.6033 -1.8011 -2.0856
23805SOL     OW73731   2.255   3.229   5.514 -0.4413 -0.0541  0.5779
23805SOL    HW173732   2.283   3.306   5.465 -1.5274 -0.4699 -0.7721
23805SOL    HW273733   2.177   3.258   5.562 -0.4993 -0.1525  0.5435
23806SOL     OW73734   3.764   3.188   9.749  0.0219 -0.0189  0.3426
23806SOL    HW173735   3.725   3.143   9.824  0.8328 -1.1103  0.1270
23806SOL    HW273736   3.818   3.257   9.788 -0.2150 -0.0430  0.7229
23807SOL     OW73737   6.019   1.274   4.566  0.8299 -0.0455  0.4829
23807SOL    HW173738   5.970   1.353   4.541 -0.8749 -1.1842  0.0141
23807SOL    HW273739   6.086   1.265   4.499  0.8711  0.8526  0.3925
23808SOL     OW73740   8.458   7.207   9.858  0.5653  0.0646  0.2453
23808SOL    HW173741   8.408   7.252   9.926 -0.2942  0.2859 -0.5079
23808SOL    HW273742   8.396   7.198   9.786  1.3075 -0.6252 -0.3173
23809SOL     OW73743   0.605   8.713   8.538 -0.0748 -0.3323 -0.1006
23809SOL    HW173744   0.510   8.705   8.532 -0.0204 -0.6316 -0.7006
23809SOL    HW273745   0.637   8.622   8.536  0.1774 -0.2796  1.0958
23810SOL     OW73746  10.353   8.318   1.871 -0.2041  0.0125 -0.5287
23810SOL    HW173747  10.398   8.324   1.956 -2.4314 -1.5029  0.8509
23810SOL    HW273748  10.365   8.405   1.833  0.2634  0.9903  1.6569
23811SOL     OW73749   4.424   2.381   7.517 -0.2487 -0.6362 -0.2206
23811SOL    HW173750   4.338   2.385   7.560  0.5639  0.2115  1.4225
23811SOL    HW273751   4.449   2.288   7.523 -1.0637 -0.8985 -0.7668
23812SOL     OW73752   0.482   3.356   9.152 -0.5206 -0.0841  0.0961
23812SOL    HW173753   0.435   3.370   9.070 -1.0220  0.3392  0.4446
23812SOL    HW273754   0.574   3.354   9.127 -0.6018  0.9967 -0.3734
23813SOL     OW73755   5.586  10.131   7.790  0.5337 -0.0588 -0.3344
23813SOL    HW173756   5.538  10.062   7.745  2.1435  0.0485 -2.3709
23813SOL    HW273757   5.521  10.199   7.808 -0.4685 -0.8225 -1.0184
23814SOL     OW73758   1.003   7.236   3.224 -0.4117  0.0004 -0.1630
23814SOL    HW173759   1.022   7.176   3.152 -1.0068  0.0069 -0.3327
23814SOL    HW273760   0.907   7.243   3.225 -0.3209  2.6432 -1.5279
23815SOL     OW73761   9.941   2.826   6.456  0.2846 -0.4462 -0.7550
23815SOL    HW173762   9.854   2.858   6.430 -0.5213 -0.3244  1.8731
23815SOL    HW273763   9.924   2.739   6.492  1.4845 -0.9735 -1.3944
23816SOL     OW73764   9.492   3.586   5.013  0.7620  0.3451  0.9269
23816SOL    HW173765   9.501   3.677   4.986  2.5165 -0.1146 -0.2560
23816SOL    HW273766   9.577   3.546   4.991 -0.8177 -2.1993 -1.1994
23817SOL     OW73767   8.509   6.402   9.254  0.1286 -0.0414 -0.3165
23817SOL    HW173768   8.506   6.484   9.205  1.3568  0.6736  0.7267
23817SOL    HW273769   8.601   6.394   9.281 -0.2821 -0.9517  0.9248
23818SOL     OW73770   6.182   1.288   4.332 -0.0818 -0.5864  0.0058
23818SOL    HW173771   6.142   1.366   4.370  0.2013  0.6677 -2.1248
23818SOL    HW273772   6.227   1.320   4.254  2.8946 -2.3205  0.8400
23819SOL     OW73773   2.843   7.545   0.902  0.0849  0.1110 -0.1596
23819SOL    HW173774   2.759   7.563   0.944  0.7289 -1.5473  2.0361
23819SOL    HW273775   2.904   7.608   0.940 -0.0197  1.0632 -1.4735
23820SOL     OW73776   2.224   7.820   9.754  0.0429  0.1685 -0.2363
23820SOL    HW173777   2.276   7.813   9.674  0.7919 -0.7046  0.3002
23820SOL    HW273778   2.149   7.762   9.740  0.8199 -0.9616  0.1543
23821SOL     OW73779   2.146   4.570   7.196 -0.1844 -0.4682 -0.2597
23821SOL    HW173780   2.141   4.637   7.264  3.1813  0.3838 -0.6416
23821SOL    HW273781   2.113   4.612   7.117  0.3360  0.1928 -0.1320
23822SOL     OW73782   4.745   6.397   5.764 -0.0177  0.6621 -0.3687
23822SOL    HW173783   4.695   6.317   5.746  1.9697 -0.7211 -0.1240
23822SOL    HW273784   4.688   6.448   5.821 -1.3898 -0.5300 -0.5930
23823SOL     OW73785   0.583   3.946  10.161 -0.5860 -0.1546  0.2858
23823SOL    HW173786   0.665   3.993  10.177 -0.6009  0.3246 -0.9318
23823SOL    HW273787   0.576   3.941  10.066 -2.2385  0.3000  0.3362
23824SOL     OW73788   5.548   8.977   3.048 -0.3259  0.7613 -0.1071
23824SOL    HW173789   5.524   9.022   3.129 -0.7799  0.2209  0.0670
23824SOL    HW273790   5.635   9.011   3.026 -0.1034  0.7553  0.7299
23825SOL     OW73791   8.638   2.051   4.705 -0.3456 -0.9392  0.4182
23825SOL    HW173792   8.565   2.068   4.645  0.1597 -0.6426 -0.1226
23825SOL    HW273793   8.712   2.033   4.648  0.8491  2.1088  0.8453
23826SOL     OW73794   9.179   0.602   8.408 -0.4190  0.3520 -0.0475
23826SOL    HW173795   9.158   0.685   8.365 -0.6214  1.0071  1.2815
23826SOL    HW273796   9.174   0.621   8.501  3.9731  0.0666  0.4766
23827SOL     OW73797   1.566   4.496  10.076 -0.5867  0.5776  0.2395
23827SOL    HW173798   1.617   4.479  10.155  0.0785 -2.2752 -0.6777
23827SOL    HW273799   1.495   4.553  10.104 -1.1421 -1.3647  3.2327
23828SOL     OW73800   3.172   8.937   9.617 -0.3157 -0.2776  0.2227
23828SOL    HW173801   3.258   8.921   9.577 -1.7211  0.1412 -3.3557
23828SOL    HW273802   3.170   9.032   9.631 -0.5757 -0.1302 -0.7557
23829SOL     OW73803   3.617  10.115   6.980  0.3031 -0.1902 -0.2222
23829SOL    HW173804   3.658  10.201   6.989 -1.6801  1.0454 -2.2592
23829SOL    HW273805   3.615  10.080   7.069  2.8888  0.9787  0.3852
23830SOL     OW73806   5.259   0.566   3.506  0.0366 -0.1278  0.7138
23830SOL    HW173807   5.205   0.635   3.468  0.6048  0.8099  1.5500
23830SOL    HW273808   5.334   0.558   3.446 -0.4315 -0.5949  0.1860
23831SOL     OW73809   8.993   5.085   7.415  0.1490 -0.0232 -0.1345
23831SOL    HW173810   8.997   5.131   7.499  0.1333  0.8694 -0.6107
23831SOL    HW273811   9.039   5.003   7.431  2.3856  1.1897  0.0832
23832SOL     OW73812   0.576   4.269   8.044  0.0137 -0.0221  0.1949
23832SOL    HW173813   0.508   4.310   7.991 -0.0646  1.8593  1.6317
23832SOL    HW273814   0.541   4.182   8.066  0.4867 -1.3179 -3.5343
23833SOL     OW73815   4.954   6.986   7.001 -0.0638  0.8107 -0.6571
23833SOL    HW173816   4.877   6.981   7.057  1.1347  0.1658  1.0149
23833SOL    HW273817   4.971   6.895   6.975  2.0262  0.3983  1.7817
23834SOL     OW73818   9.406   9.033   8.824  0.1289 -0.1570 -0.7934
23834SOL    HW173819   9.314   9.034   8.796 -0.3950  2.0838  0.7827
23834SOL    HW273820   9.406   8.984   8.906  0.0995  0.9653 -0.1149
23835SOL     OW73821   0.947   3.632   6.512 -0.2995  1.0222 -0.2753
23835SOL    HW173822   0.987   3.563   6.565 -0.6690 -0.1993 -1.5327
23835SOL    HW273823   0.995   3.629   6.429  0.4635  3.0897  0.0452
23836SOL     OW73824   3.808   5.592   1.923  0.1422 -0.0093  0.3217
23836SOL    HW173825   3.734   5.561   1.975  0.1085 -0.4531  0.0145
23836SOL    HW273826   3.771   5.612   1.837  0.4776 -0.8080 -0.0184
23837SOL     OW73827   4.272   5.428   7.422  0.2730  0.2370  0.1416
23837SOL    HW173828   4.200   5.487   7.445  0.2267 -0.4952  2.1126
23837SOL    HW273829   4.300   5.392   7.506  0.4005 -2.4396 -0.9532
23838SOL     OW73830   4.519   3.261   0.657 -0.5556  0.2506  0.7509
23838SOL    HW173831   4.504   3.204   0.582  1.8769 -1.2981  1.3505
23838SOL    HW273832   4.588   3.321   0.629 -2.1240  2.1021  0.6111
23839SOL     OW73833   8.131   0.402   4.709  0.4504  0.4043 -0.3040
23839SOL    HW173834   8.086   0.480   4.744 -0.8427  0.1675 -1.3401
23839SOL    HW273835   8.108   0.332   4.769 -1.4244  0.0848 -1.3195
23840SOL     OW73836   5.332   9.360   3.281  0.3932  0.4314 -0.5831
23840SOL    HW173837   5.270   9.393   3.217 -0.8417 -0.7979 -0.0563
23840SOL    HW273838   5.278   9.324   3.351  1.6866 -1.2594 -0.3994
23841SOL     OW73839   3.269   4.728   2.903 -0.1423 -0.4574 -1.0531
23841SOL    HW173840   3.296   4.814   2.934 -1.3115 -0.0297 -1.1981
23841SOL    HW273841   3.181   4.740   2.869  0.1593 -1.4401 -2.2804
23842SOL     OW73842   0.078   5.415   0.544  0.0642 -0.0879 -0.2289
23842SOL    HW173843   0.053   5.324   0.528 -1.2439 -0.0772  1.4452
23842SOL    HW273844   0.004   5.467   0.510 -0.3904  0.1797  1.1066
23843SOL     OW73845   8.937   2.024   7.657 -0.0435  0.6231  0.2026
23843SOL    HW173846   8.905   2.094   7.713 -0.0672  0.5198  0.3178
23843SOL    HW273847   8.909   2.049   7.569 -0.7473  0.3540  0.3457
23844SOL     OW73848   7.390   3.894   4.367 -0.6359  0.1214 -0.5136
23844SOL    HW173849   7.462   3.926   4.312 -0.2448 -0.2693 -0.2331
23844SOL    HW273850   7.397   3.799   4.363  0.3085  0.0559  1.3488
23845SOL     OW73851   5.523   8.217   1.116  0.4777  0.2002  0.0831
23845SOL    HW173852   5.481   8.247   1.035  2.4859  1.6170 -0.5322
23845SOL    HW273853   5.568   8.294   1.150 -1.4153  0.0359  3.4004
23846SOL     OW73854   3.611   2.937  10.595  0.0264  0.2255  0.2602
23846SOL    HW173855   3.522   2.970  10.604  0.0890  0.6459 -0.6013
23846SOL    HW273856   3.653   2.997  10.533  0.5808 -0.6174 -0.1935
23847SOL     OW73857   6.047   0.835   4.896  0.2336  0.0449  0.5631
23847SOL    HW173858   6.035   0.745   4.925 -1.3403  0.3188  0.8280
23847SOL    HW273859   6.101   0.875   4.965  0.5551 -0.5606  0.6693
23848SOL     OW73860   3.746   4.306   7.371  0.0864  0.3233  0.5214
23848SOL    HW173861   3.800   4.355   7.433 -0.0784 -0.4452  1.2896
23848SOL    HW273862   3.657   4.316   7.403 -0.1971  1.2384 -0.5074
23849SOL     OW73863   1.266   0.873   6.959 -0.3430 -0.9791  0.2789
23849SOL    HW173864   1.323   0.875   7.036 -0.9528 -0.8753  0.7308
23849SOL    HW273865   1.286   0.790   6.917 -0.8079 -1.5549  1.1677
23850SOL     OW73866   4.006   0.411   6.166  0.3939  0.1676  0.3194
23850SOL    HW173867   3.919   0.419   6.125  0.0409  0.1821  1.0609
23850SOL    HW273868   4.047   0.497   6.151 -0.1852  0.5730  1.0021
23851SOL     OW73869   9.518   4.030   5.935 -0.2342  0.2619 -0.2944
23851SOL    HW173870   9.493   3.961   5.997  1.0703 -0.4011 -0.4535
23851SOL    HW273871   9.482   4.001   5.851  0.5084 -0.3862 -0.4095
23852SOL     OW73872   8.410   6.282   2.937  0.9375 -0.2848  0.0064
23852SOL    HW173873   8.335   6.293   2.996  1.1479 -1.7878  0.5911
23852SOL    HW273874   8.399   6.352   2.873 -0.8281 -0.2902  0.2335
23853SOL     OW73875   1.121   3.092   4.417 -1.0826 -0.1749  0.2260
23853SOL    HW173876   1.031   3.066   4.439 -0.5508 -0.1991  2.7250
23853SOL    HW273877   1.166   3.010   4.399 -1.0370 -0.4136  1.3301
23854SOL     OW73878   3.479   6.610   2.868  0.9048  0.1625 -0.0430
23854SOL    HW173879   3.475   6.701   2.896  0.9866 -0.4481  2.0744
23854SOL    HW273880   3.388   6.581   2.868  0.9666 -0.0316  0.2615
23855SOL     OW73881   1.867   3.877   3.275 -0.0245 -0.2644  0.0924
23855SOL    HW173882   1.843   3.801   3.222 -0.5543  1.3438 -2.1243
23855SOL    HW273883   1.951   3.906   3.240 -0.2562  0.6871  0.2940
23856SOL     OW73884   6.075   6.072   2.152 -0.4314 -0.4343 -0.5759
23856SOL    HW173885   5.994   6.093   2.199 -0.1556  0.6629 -0.5804
23856SOL    HW273886   6.145   6.098   2.212 -0.0161 -3.3696  0.3667
23857SOL     OW73887   2.715   5.516   9.120  0.0349 -0.3814  0.7415
23857SOL    HW173888   2.659   5.509   9.042 -0.2326  1.8171  0.6697
23857SOL    HW273889   2.673   5.583   9.174  1.7651  0.2173  1.4076
23858SOL     OW73890   9.467   5.883   4.911 -0.4589  0.0244  0.2624
23858SOL    HW173891   9.536   5.862   4.847 -0.3582 -0.8945  0.6520
23858SOL    HW273892   9.475   5.977   4.925  1.0475 -0.1412  0.6721
23859SOL     OW73893   5.247   9.593   0.169 -0.2791 -0.0007 -0.0156
23859SOL    HW173894   5.306   9.621   0.099 -0.4579 -1.6066 -0.8349
23859SOL    HW273895   5.287   9.629   0.249  1.2623 -0.2063 -0.6585
23860SOL     OW73896   2.096   6.978   3.407  0.5493  0.1346  0.6817
23860SOL    HW173897   2.003   6.958   3.401  0.7542 -1.5191  2.3594
23860SOL    HW273898   2.105   7.062   3.362 -1.7164  0.2776  0.3937
23861SOL     OW73899   3.661   4.997   5.241  0.1316 -0.1844 -0.1841
23861SOL    HW173900   3.655   5.089   5.267 -2.3966 -0.9724  2.5288
23861SOL    HW273901   3.585   4.983   5.184  0.9658 -0.4433 -1.2614
23862SOL     OW73902   6.692   5.458   5.739 -0.1483  0.4274  0.7165
23862SOL    HW173903   6.606   5.438   5.703 -0.6969  0.4242  1.9663
23862SOL    HW273904   6.687   5.430   5.831  0.8949  1.2053  1.0365
23863SOL     OW73905   3.787   4.717   2.695  0.6648 -0.4030  0.3827
23863SOL    HW173906   3.857   4.755   2.747 -0.2663  0.7830  0.8303
23863SOL    HW273907   3.829   4.649   2.643  2.2990  0.8637 -0.0169
23864SOL     OW73908   1.284   4.514   2.110  0.2484  0.4553 -0.0777
23864SOL    HW173909   1.319   4.450   2.049  1.6831 -0.5132  1.6496
23864SOL    HW273910   1.288   4.597   2.063  2.1628 -0.0987 -1.0121
23865SOL     OW73911   6.711   9.032   2.539 -0.6037  0.0262 -0.0495
23865SOL    HW173912   6.693   9.005   2.629 -0.5762  0.3670  0.0603
23865SOL    HW273913   6.807   9.028   2.531 -0.5998  0.0960 -0.0335
23866SOL     OW73914   4.213   4.758  10.218  0.0170  0.9068 -1.2118
23866SOL    HW173915   4.281   4.800  10.272 -0.0940  1.1569 -1.2621
23866SOL    HW273916   4.149   4.828  10.203 -1.3276  0.1228  0.5674
23867SOL     OW73917   5.959   5.023  10.373 -0.2592  0.0812  0.1976
23867SOL    HW173918   5.893   5.033  10.305 -1.8523  0.2580  1.6916
23867SOL    HW273919   5.926   4.954  10.429  2.1519 -1.7071 -0.4143
23868SOL     OW73920   5.155   7.145   5.790 -0.7075  0.6556 -0.3167
23868SOL    HW173921   5.138   7.051   5.781 -2.9261  0.8486  1.0526
23868SOL    HW273922   5.243   7.157   5.755 -0.6511 -1.8029 -1.2170
23869SOL     OW73923   4.861   7.954   3.474 -0.1958  0.3436  0.2644
23869SOL    HW173924   4.815   7.877   3.438 -0.3820  1.1170 -1.2245
23869SOL    HW273925   4.792   8.019   3.486 -0.1980 -0.0127  2.4651
23870SOL     OW73926   1.261  10.017   5.065 -0.3427 -0.0405  0.3679
23870SOL    HW173927   1.166  10.006   5.066 -0.1705 -1.8442  2.0822
23870SOL    HW273928   1.296   9.932   5.039  0.8399  0.6773 -0.5578
23871SOL     OW73929  10.309   3.462   9.984 -0.0218 -0.1129  0.3817
23871SOL    HW173930  10.236   3.432  10.038  0.4382 -1.5054  0.2570
23871SOL    HW273931  10.268   3.517   9.917 -0.5732  1.9267  2.2904
23872SOL     OW73932   8.287   2.019  10.519 -0.6224  0.1363 -0.7881
23872SOL    HW173933   8.250   1.966  10.449  1.2287 -1.2554 -0.7931
23872SOL    HW273934   8.317   1.956  10.584 -0.9822  1.3339  0.5958
23873SOL     OW73935   3.369   4.900   1.955 -0.0438 -0.6701  0.2913
23873SOL    HW173936   3.409   4.820   1.989  1.5040 -0.5042 -1.0512
23873SOL    HW273937   3.440   4.965   1.957 -0.3091 -0.2664 -1.8256
23874SOL     OW73938   6.358   6.609   5.630  0.1811  0.1922  0.4617
23874SOL    HW173939   6.321   6.610   5.542  0.1679 -2.1160  0.3996
23874SOL    HW273940   6.294   6.560   5.682 -1.5629  4.2599  2.6582
23875SOL     OW73941  10.434  10.423   5.574 -0.4284 -0.7819 -0.2197
23875SOL    HW173942  10.463  10.508   5.540  0.4678 -0.5459  1.0440
23875SOL    HW273943  10.453  10.361   5.503  0.9009 -0.2392 -0.3631
23876SOL     OW73944   2.899   1.569   2.948 -0.4051 -0.1958 -0.2487
23876SOL    HW173945   2.851   1.645   2.916  0.0785 -0.5300 -1.8313
23876SOL    HW273946   2.881   1.500   2.884 -0.3178 -1.2385  0.8147
23877SOL     OW73947   9.653   9.706   4.590 -0.1053 -0.1002  0.6347
23877SOL    HW173948   9.674   9.617   4.561 -0.1043  0.4518 -1.1167
23877SOL    HW273949   9.736   9.753   4.588 -0.6758  0.9744 -2.3431
23878SOL     OW73950   7.345   5.869   1.909  0.2805  0.1470  0.2040
23878SOL    HW173951   7.294   5.853   1.829 -1.2694  0.5652  1.0757
23878SOL    HW273952   7.316   5.803   1.970 -1.1975  1.9630  1.5780
23879SOL     OW73953   9.646   2.118   1.533  0.1838 -0.0427  0.0240
23879SOL    HW173954   9.699   2.121   1.613  1.4043  0.0510 -0.7582
23879SOL    HW273955   9.561   2.154   1.560  0.1855 -1.0811  1.5364
23880SOL     OW73956   2.414  10.176   3.765  0.4782 -0.0020  0.1820
23880SOL    HW173957   2.452  10.088   3.767  2.4035  0.7738  0.3482
23880SOL    HW273958   2.395  10.196   3.857  2.5518  0.7162  0.5098
23881SOL     OW73959   6.599   6.944   3.954 -0.4675  0.3855  0.3423
23881SOL    HW173960   6.555   6.884   3.894  0.4108 -1.6255  1.6080
23881SOL    HW273961   6.541   6.948   4.031  0.4504 -0.5698  1.1217
23882SOL     OW73962   3.536   0.831   0.841  0.5564 -0.0697  0.3633
23882SOL    HW173963   3.468   0.781   0.796 -1.3798 -0.4002  3.3718
23882SOL    HW273964   3.519   0.922   0.819 -0.2258 -0.2398  0.2617
23883SOL     OW73965   0.637   9.742   4.345 -0.3712  0.1575  0.0351
23883SOL    HW173966   0.621   9.720   4.437  0.5093 -0.0748  0.1431
23883SOL    HW273967   0.730   9.721   4.331 -0.1320  1.4688 -0.5261
23884SOL     OW73968   3.160   0.600   6.147 -0.0272 -0.1500 -0.6780
23884SOL    HW173969   3.132   0.672   6.090  1.1655  1.0079  0.1256
23884SOL    HW273970   3.085   0.585   6.204  0.0672  1.2616 -0.1224
23885SOL     OW73971   5.867   8.287   1.176 -0.5352  0.3724 -0.1822
23885SOL    HW173972   5.881   8.276   1.270 -0.3029  0.8414 -0.1561
23885SOL    HW273973   5.780   8.327   1.169 -2.1241 -2.8076 -0.3584
23886SOL     OW73974   9.531   6.987   5.011  0.0498 -0.0405 -0.0251
23886SOL    HW173975   9.593   6.925   5.049 -0.2245  0.4952  1.3413
23886SOL    HW273976   9.562   7.073   5.040 -0.0876  0.4031 -1.1573
23887SOL     OW73977   3.842   3.405   1.983 -0.0125  0.2201  0.1434
23887SOL    HW173978   3.828   3.326   2.035 -0.3351  0.0498 -0.1964
23887SOL    HW273979   3.757   3.424   1.944 -0.7990  2.6056  2.7505
23888SOL     OW73980   0.180   8.052   0.368  0.1553 -0.2624  0.0384
23888SOL    HW173981   0.129   7.982   0.327  0.3234 -0.1221 -0.4170
23888SOL    HW273982   0.216   8.012   0.447 -1.8309  0.0413  1.1728
23889SOL     OW73983   2.792   5.030   1.205  0.0995 -0.6692  0.5313
23889SOL    HW173984   2.719   4.990   1.157  0.0890 -1.1592  0.9506
23889SOL    HW273985   2.841   4.956   1.241  1.8296 -0.4748 -1.1791
23890SOL     OW73986   4.556   1.489   1.228  0.1609 -0.2236  0.3269
23890SOL    HW173987   4.461   1.497   1.243  0.0895 -1.0853  0.3726
23890SOL    HW273988   4.578   1.564   1.173  0.0418  1.9196  2.9785
23891SOL     OW73989   0.916   5.180   5.401  0.0894  0.7228 -0.0134
23891SOL    HW173990   0.928   5.150   5.491  1.7802  1.1500 -0.0604
23891SOL    HW273991   0.862   5.259   5.408 -0.6937  0.1491  0.5096
23892SOL     OW73992   5.360   1.723   3.555 -0.3785 -0.1512  0.3432
23892SOL    HW173993   5.308   1.791   3.512  1.4816  0.7846 -0.5081
23892SOL    HW273994   5.367   1.751   3.646 -0.6578  0.1409  0.2757
23893SOL     OW73995   1.400   4.446   0.952 -0.0983  0.1001  0.1399
23893SOL    HW173996   1.314   4.410   0.930  0.0190 -0.0994 -0.0047
23893SOL    HW273997   1.398   4.460   1.046 -0.0807 -0.4769  0.2319
23894SOL     OW73998   9.369   6.488   6.435  0.4100  0.7871  0.5835
23894SOL    HW173999   9.388   6.482   6.341 -1.5622  0.0828  0.1815
23894SOL    HW274000   9.279   6.523   6.439 -0.1037 -0.5859  2.1502
23895SOL     OW74001   1.588   7.943   9.763  0.4262 -0.3055  0.0033
23895SOL    HW174002   1.571   7.952   9.669 -1.6603  0.2722  0.3793
23895SOL    HW274003   1.596   8.033   9.794 -2.0476 -0.2929  0.8305
23896SOL     OW74004   0.054   0.517   7.725 -0.7681 -0.3874 -0.1683
23896SOL    HW174005   0.127   0.458   7.703  0.8036  1.3247  0.1687
23896SOL    HW274006   0.054   0.582   7.655 -0.5804  0.8117  0.8915
23897SOL     OW74007   4.783   6.743   2.600 -0.0525  0.2638  0.1649
23897SOL    HW174008   4.740   6.727   2.684 -0.8651  1.5207  0.0186
23897SOL    HW274009   4.803   6.837   2.601  0.2405  0.2266 -0.9081
23898SOL     OW74010   9.712   2.767   9.287  0.5812  0.9113 -0.2201
23898SOL    HW174011   9.712   2.684   9.240  0.3816  1.0205 -0.4181
23898SOL    HW274012   9.638   2.759   9.348  0.7192  0.8447 -0.0621
23899SOL     OW74013   7.204   0.102   9.357  0.2720  0.2427 -0.3364
23899SOL    HW174014   7.119   0.073   9.327 -0.2036  0.9965  0.2414
23899SOL    HW274015   7.267   0.051   9.305 -0.4347 -3.1918  1.8536
23900SOL     OW74016   8.982   5.521   4.359 -0.2710  0.2680  0.2245
23900SOL    HW174017   8.960   5.614   4.366  0.3175  0.3527  1.0837
23900SOL    HW274018   9.053   5.518   4.295 -1.5096  0.1807 -1.2291
23901SOL     OW74019   5.071   3.208   4.084 -0.5982  0.5205 -0.2069
23901SOL    HW174020   5.111   3.189   3.999 -1.4586 -0.6077 -0.3721
23901SOL    HW274021   5.039   3.124   4.115  1.7039  0.4352  2.3287
23902SOL     OW74022   7.757   6.190   0.667  0.0965 -0.1549 -0.4444
23902SOL    HW174023   7.727   6.280   0.667 -0.9876 -0.5051 -0.7930
23902SOL    HW274024   7.728   6.155   0.751  1.5141  0.1154  0.1988
23903SOL     OW74025   2.656   3.809   9.796 -0.6786 -0.6761 -0.4575
23903SOL    HW174026   2.579   3.751   9.802 -0.2339 -1.2405 -0.1488
23903SOL    HW274027   2.731   3.751   9.810 -0.1212 -0.3193 -1.8159
23904SOL     OW74028   9.760   7.918   6.635  0.7676  0.6450 -0.4841
23904SOL    HW174029   9.800   7.837   6.668 -1.1405 -0.5929 -1.0301
23904SOL    HW274030   9.760   7.977   6.710  1.0989 -0.2959  0.2792
23905SOL     OW74031   1.928   0.136   5.164 -0.0579  0.1806  0.3513
23905SOL    HW174032   1.931   0.107   5.256  0.0442 -1.3973 -0.1102
23905SOL    HW274033   1.969   0.222   5.164  2.3520 -0.8766  1.4054
23906SOL     OW74034   2.505   7.416   0.859 -0.2010 -0.0722 -0.2847
23906SOL    HW174035   2.431   7.356   0.868 -1.3841  1.3430 -0.2428
23906SOL    HW274036   2.582   7.361   0.874 -1.3183 -1.1271  2.3018
23907SOL     OW74037   1.168   4.649   4.745 -0.4488 -0.1306  0.0146
23907SOL    HW174038   1.229   4.575   4.741  3.5334  2.7255  1.1927
23907SOL    HW274039   1.114   4.631   4.822 -0.0559 -2.1105 -0.1272
23908SOL     OW74040   0.510   8.502   9.681 -0.2167 -0.5210  0.1884
23908SOL    HW174041   0.451   8.532   9.749  1.7238  0.9723  1.3073
23908SOL    HW274042   0.519   8.577   9.622 -1.1570 -1.4949 -1.2642
23909SOL     OW74043   4.158   2.778   7.920  0.2872  0.0558 -0.6368
23909SOL    HW174044   4.152   2.694   7.875 -2.5238  0.1473 -0.5718
23909SOL    HW274045   4.194   2.757   8.006 -0.6743 -1.1416 -0.5097
23910SOL     OW74046   9.736   9.274   1.122 -0.2295  0.2034  0.1419
23910SOL    HW174047   9.778   9.188   1.113  0.3768  0.4308  0.6999
23910SOL    HW274048   9.793   9.322   1.181 -2.0528  0.0395  2.1327
23911SOL     OW74049   4.285   2.650   8.554 -0.3523  0.3410 -0.3710
23911SOL    HW174050   4.293   2.618   8.465 -0.6706 -0.5785 -0.0816
23911SOL    HW274051   4.333   2.587   8.607 -2.0811 -0.4247  0.3696
23912SOL     OW74052   3.665   6.581   6.774  0.3129  0.0566 -0.7266
23912SOL    HW174053   3.595   6.585   6.710  1.2556  0.4546 -1.7639
23912SOL    HW274054   3.620   6.577   6.859 -0.9728  1.9380 -1.2610
23913SOL     OW74055   1.862   8.845   7.860 -0.4495 -0.3341 -0.3261
23913SOL    HW174056   1.948   8.887   7.860 -0.0826 -1.0667 -1.0831
23913SOL    HW274057   1.802   8.914   7.831 -0.0117 -0.0086 -0.4715
23914SOL     OW74058   5.387   7.664   1.081 -0.5695 -0.1920 -0.0616
23914SOL    HW174059   5.338   7.742   1.106 -1.0202 -0.7337  0.7736
23914SOL    HW274060   5.430   7.689   0.999  0.3776  1.3944  0.8539
23915SOL     OW74061   5.019   3.777   9.293  0.1507  0.1358  0.1996
23915SOL    HW174062   4.989   3.867   9.292  0.5058  0.2615 -1.2760
23915SOL    HW274063   4.985   3.741   9.375  0.5339  1.7689  1.1320
23916SOL     OW74064   7.738   8.128   2.666  0.2342  0.2593 -0.2243
23916SOL    HW174065   7.697   8.187   2.602 -0.9910 -1.1367 -0.7973
23916SOL    HW274066   7.824   8.108   2.629 -0.8003 -1.2477 -1.9774
23917SOL     OW74067   8.274   0.824   9.729  0.5627  0.0487 -0.5578
23917SOL    HW174068   8.190   0.869   9.731 -1.0948 -2.7249 -1.2270
23917SOL    HW274069   8.326   0.865   9.797 -1.5152  1.5612  0.1876
23918SOL     OW74070   3.578   9.983   6.741  0.2953  0.0488 -0.0694
23918SOL    HW174071   3.495   9.996   6.695  1.3919  3.5664 -1.4203
23918SOL    HW274072   3.567  10.031   6.823  0.2728 -1.4577  0.8450
23919SOL     OW74073   4.490   7.147   4.959  0.1186  0.4530  0.0120
23919SOL    HW174074   4.521   7.074   5.012  0.8244  0.8029  0.0961
23919SOL    HW274075   4.554   7.152   4.887 -0.4166  0.4390 -0.4686
23920SOL     OW74076   7.868   3.037   2.233 -0.4252 -0.5729 -0.2759
23920SOL    HW174077   7.936   2.990   2.185  0.6291 -0.8438  1.3895
23920SOL    HW274078   7.798   2.973   2.245 -0.6443 -0.5342 -1.3256
23921SOL     OW74079   8.225   4.984   2.777 -0.3371 -0.1109  0.2165
23921SOL    HW174080   8.312   5.005   2.813 -1.0374 -0.0450  1.9514
23921SOL    HW274081   8.164   5.015   2.843 -1.6633 -1.0633 -0.5276
23922SOL     OW74082   7.280   2.408   0.737  0.1265 -0.0526  0.3131
23922SOL    HW174083   7.358   2.395   0.791  0.6273  0.9643 -0.1440
23922SOL    HW274084   7.313   2.447   0.656 -0.6926 -0.9294 -0.4726
23923SOL     OW74085   6.668   5.503   2.383  0.5380 -0.6403  0.2967
23923SOL    HW174086   6.591   5.496   2.327  1.1191 -1.1988 -0.4608
23923SOL    HW274087   6.708   5.416   2.379  1.2157 -0.3517  0.6528
23924SOL     OW74088   9.516   8.259   1.478 -0.6336  1.1513  0.1236
23924SOL    HW174089   9.504   8.342   1.432 -0.8709  0.9132 -0.2574
23924SOL    HW274090   9.581   8.213   1.425 -0.9467  0.8520 -0.0027
23925SOL     OW74091   5.698   3.421   8.274  0.4376 -0.1721  0.2106
23925SOL    HW174092   5.747   3.470   8.208  0.9183 -1.2881 -0.2739
23925SOL    HW274093   5.718   3.330   8.257 -0.3849 -0.5519  1.1566
23926SOL     OW74094   2.971   9.713   7.744  0.1023 -0.0352  0.7689
23926SOL    HW174095   2.876   9.723   7.749  0.0197 -0.0646 -0.4089
23926SOL    HW274096   2.983   9.630   7.697  0.6402  1.5180 -2.0493
23927SOL     OW74097   4.261   3.153   7.537 -0.1013 -0.1630 -0.1060
23927SOL    HW174098   4.271   3.244   7.564  0.5996  0.1153 -1.2236
23927SOL    HW274099   4.275   3.102   7.616 -1.6871  0.7275  0.7956
23928SOL     OW74100   2.287   1.317   5.103  0.0004 -0.2138  0.0078
23928SOL    HW174101   2.377   1.313   5.133 -0.5100  1.8396  2.0680
23928SOL    HW274102   2.249   1.232   5.130  0.5131  0.1683  2.1171
23929SOL     OW74103   9.991   0.145   7.211  0.0601  0.2763  0.0570
23929SOL    HW174104   9.984   0.201   7.288 -2.9772 -1.8811  1.5669
23929SOL    HW274105  10.031   0.064   7.244  3.1746  0.9160 -1.7841
23930SOL     OW74106   0.676   9.114   2.506 -0.3733  0.4506 -0.3254
23930SOL    HW174107   0.664   9.019   2.511  0.5419  0.3229 -0.4449
23930SOL    HW274108   0.587   9.149   2.502 -0.7831 -0.2965  1.3819
23931SOL     OW74109   4.858   9.616   8.322 -0.0720 -0.3553  0.0451
23931SOL    HW174110   4.941   9.660   8.304 -0.7656 -0.1981 -3.6492
23931SOL    HW274111   4.884   9.526   8.343  1.0893  0.4559  2.5117
23932SOL     OW74112   1.407   7.248   1.327  0.4929 -0.2012  0.1430
23932SOL    HW174113   1.350   7.174   1.305  0.0011  0.4913 -1.0277
23932SOL    HW274114   1.358   7.297   1.393  0.0755 -0.0475 -0.2703
23933SOL     OW74115   7.082   1.682   7.330 -0.7578 -0.0060  0.6603
23933SOL    HW174116   7.124   1.692   7.416 -0.6970  0.3208  0.5934
23933SOL    HW274117   7.156   1.678   7.269 -0.8396  2.4355  0.3372
23934SOL     OW74118  10.246   8.754   3.571 -0.3489  0.0973  0.4012
23934SOL    HW174119  10.251   8.845   3.600  0.7721  0.6869 -1.4693
23934SOL    HW274120  10.224   8.761   3.478  1.7258 -1.4382 -0.2678
23935SOL     OW74121  10.576   6.852   2.772  0.3738 -0.0893 -0.2471
23935SOL    HW174122  10.485   6.841   2.747  0.7530 -0.0859 -1.7369
23935SOL    HW274123  10.609   6.763   2.785  0.1802 -0.0903  0.2848
23936SOL     OW74124   3.570   4.525  10.063 -0.1712  0.6352  0.0664
23936SOL    HW174125   3.644   4.575  10.098 -0.0250  1.9335 -1.9207
23936SOL    HW274126   3.579   4.533   9.968 -2.5636  0.3788 -0.2413
23937SOL     OW74127   5.327   5.342   6.795  0.0638  0.4709  0.1220
23937SOL    HW174128   5.260   5.277   6.772 -0.5885  0.9128  0.7186
23937SOL    HW274129   5.367   5.366   6.711 -1.6613  1.4179 -0.4910
23938SOL     OW74130   6.939   2.698   5.703  0.1531 -0.1217  0.2580
23938SOL    HW174131   6.910   2.753   5.631  1.8564 -1.6452 -1.7487
23938SOL    HW274132   6.996   2.632   5.661  2.6955 -0.0311  3.2005
23939SOL     OW74133   7.790   0.566   8.525 -0.3492 -0.1634  0.2395
23939SOL    HW174134   7.871   0.526   8.495 -1.2087 -0.6877 -1.6027
23939SOL    HW274135   7.812   0.658   8.539  1.2220 -0.8503  2.7424
23940SOL     OW74136   5.726   0.238   7.604  0.0063 -0.2243  0.2413
23940SOL    HW174137   5.660   0.170   7.610 -0.4705  0.1138 -0.8106
23940SOL    HW274138   5.679   0.315   7.573  0.9762 -0.1503 -1.1660
23941SOL     OW74139   9.767   2.871   3.271  0.2018 -0.0682  0.3778
23941SOL    HW174140   9.767   2.893   3.177  1.6021 -2.2814 -0.2220
23941SOL    HW274141   9.676   2.849   3.290  0.0647 -0.5561 -0.7314
23942SOL     OW74142   5.615   3.209   7.337 -0.3758  0.4928 -0.0903
23942SOL    HW174143   5.680   3.142   7.359 -0.7376  0.4045  0.7687
23942SOL    HW274144   5.659   3.292   7.353  0.8188  0.5851 -3.2345
23943SOL     OW74145   7.232   9.516   3.958  0.4725  0.1664 -0.6223
23943SOL    HW174146   7.281   9.441   3.992  0.4035  0.2977 -0.2328
23943SOL    HW274147   7.217   9.572   4.034  0.6784  0.6641 -0.9373
23944SOL     OW74148   3.609   5.924   2.554  0.5422  0.2718 -0.4046
23944SOL    HW174149   3.585   6.013   2.579  0.0348  0.1347 -0.3948
23944SOL    HW274150   3.701   5.931   2.526  1.3620  0.3104  2.0791
23945SOL     OW74151   0.325   2.540   7.086 -0.2496 -0.4816  0.3743
23945SOL    HW174152   0.325   2.631   7.059  0.7659 -0.5405  0.1270
23945SOL    HW274153   0.404   2.503   7.047 -0.1350 -1.2217  1.2572
23946SOL     OW74154   3.220   9.018   7.503  0.2605  0.2951  0.0089
23946SOL    HW174155   3.149   9.016   7.566 -0.8908 -0.5416 -1.2564
23946SOL    HW274156   3.182   9.059   7.425 -0.1111 -3.4551 -2.0352
23947SOL     OW74157   0.176   1.942   0.526  0.3967 -0.0168 -0.0525
23947SOL    HW174158   0.105   2.007   0.524 -1.3398 -1.8357 -0.3557
23947SOL    HW274159   0.194   1.923   0.434  1.4455  0.5511  0.0154
23948SOL     OW74160   5.257   1.553   3.971  0.0497  0.1394  0.3660
23948SOL    HW174161   5.200   1.486   3.933 -1.2741  0.0962  2.2519
23948SOL    HW274162   5.199   1.629   3.981  1.4539  1.5467 -1.5026
23949SOL     OW74163   4.032   1.770   0.530 -0.3076  0.1791  0.3600
23949SOL    HW174164   4.109   1.756   0.475  0.6582 -0.7106  1.8647
23949SOL    HW274165   4.052   1.849   0.580 -0.2981 -0.1239  0.8460
23950SOL     OW74166   8.154   3.369   3.435  0.4170 -0.2240 -0.3903
23950SOL    HW174167   8.165   3.276   3.454  2.0131 -0.0621 -0.3977
23950SOL    HW274168   8.212   3.385   3.360  0.5031  0.8644 -0.1012
23951SOL     OW74169   4.359   8.307   6.397 -0.1959  0.2230 -0.2471
23951SOL    HW174170   4.451   8.331   6.402  0.1994 -0.7094 -1.9735
23951SOL    HW274171   4.360   8.211   6.395 -1.0664  0.2131 -1.6236
23952SOL     OW74172   3.286   3.460   6.980 -0.1738  0.4815  0.2383
23952SOL    HW174173   3.264   3.383   6.928  1.3588 -1.4219  2.2012
23952SOL    HW274174   3.373   3.486   6.948  1.2182 -1.2859  2.2705
23953SOL     OW74175   1.406  10.576   8.485  0.1787 -0.4384 -0.0251
23953SOL    HW174176   1.412  10.547   8.394  1.2127 -0.0336 -0.1030
23953SOL    HW274177   1.382  10.497   8.534  1.4791 -1.1139 -0.4180
23954SOL     OW74178   7.912   6.957   2.620 -0.0604 -0.2126  0.2669
23954SOL    HW174179   7.898   6.863   2.614 -1.0308 -0.1484  1.1740
23954SOL    HW274180   7.942   6.972   2.709 -1.5130  0.4877  0.6784
23955SOL     OW74181   6.824   4.841   6.994 -0.5687  0.8945 -0.2798
23955SOL    HW174182   6.881   4.846   6.917 -1.2444  0.1841 -0.8369
23955SOL    HW274183   6.745   4.797   6.963  0.2782 -2.1216  1.4557
23956SOL     OW74184   6.525   5.368  10.500 -0.7171  0.0754  0.0279
23956SOL    HW174185   6.469   5.434  10.541  0.4660  1.7406 -0.8983
23956SOL    HW274186   6.608   5.376  10.545 -0.1961  0.0852 -0.9083
23957SOL     OW74187   2.593   7.155   5.998  0.8460  0.0880  0.7523
23957SOL    HW174188   2.656   7.185   6.063  1.2989  1.2896 -0.2080
23957SOL    HW274189   2.630   7.180   5.914 -0.4160 -0.1108  0.1006
23958SOL     OW74190   3.505   9.274   1.696  0.2982  0.2328  0.9606
23958SOL    HW174191   3.490   9.197   1.752 -0.4226 -0.5866 -0.3151
23958SOL    HW274192   3.600   9.287   1.699  0.4994 -1.0845  0.7178
23959SOL     OW74193   0.054   0.510   5.233 -0.6263  0.3323  0.2617
23959SOL    HW174194   0.102   0.522   5.151  0.1122 -1.4705  0.3633
23959SOL    HW274195   0.067   0.591   5.282  0.6641  0.6446 -0.5652
23960SOL     OW74196   3.037   8.023   2.502 -0.3996  0.1494  0.6175
23960SOL    HW174197   3.020   8.008   2.595 -2.5533  0.9763  0.4295
23960SOL    HW274198   2.996   7.949   2.458  0.0941  0.0659  0.2936
23961SOL     OW74199   4.926   8.350   9.233 -0.1731 -0.1913  0.0168
23961SOL    HW174200   4.843   8.396   9.222 -2.4169 -3.5805  1.1322
23961SOL    HW274201   4.972   8.363   9.150 -2.4386  0.6550 -1.1886
23962SOL     OW74202   0.848   5.451   9.865 -0.0780  0.4760  0.0917
23962SOL    HW174203   0.860   5.542   9.890  2.7068  0.2021  0.0906
23962SOL    HW274204   0.838   5.453   9.770 -1.1637  0.8469  0.2106
23963SOL     OW74205   5.689  10.237   3.873 -0.0372 -0.5542 -0.5366
23963SOL    HW174206   5.695  10.211   3.965 -0.3273  0.4841 -0.2039
23963SOL    HW274207   5.656  10.327   3.876  3.0586  0.7406 -1.4853
23964SOL     OW74208   8.102   9.650   6.555 -0.5426  0.4227 -0.1056
23964SOL    HW174209   8.078   9.728   6.505  1.5175  0.2287 -1.5264
23964SOL    HW274210   8.063   9.664   6.642 -0.0364  3.1459 -0.2298
23965SOL     OW74211   4.055   7.853   3.702 -1.0264  0.6751 -0.8518
23965SOL    HW174212   4.102   7.937   3.698 -1.1524  0.7071 -2.6858
23965SOL    HW274213   4.073   7.812   3.617 -1.4129 -0.9221 -0.1963
23966SOL     OW74214   1.778   1.675   9.304 -0.1096 -0.2050  0.5216
23966SOL    HW174215   1.872   1.676   9.320 -0.1299  0.6702  0.6594
23966SOL    HW274216   1.757   1.765   9.278 -0.7605 -0.6022 -0.3755
23967SOL     OW74217   5.077   0.695   8.539 -0.1562  0.8966 -0.3557
23967SOL    HW174218   5.002   0.755   8.545 -1.5317 -0.7365 -0.5043
23967SOL    HW274219   5.072   0.642   8.619 -0.8224 -1.0333 -1.6089
23968SOL     OW74220   8.611   6.826   2.603 -0.1585  0.5213 -0.4725
23968SOL    HW174221   8.529   6.798   2.561  0.7814 -0.1307 -1.9627
23968SOL    HW274222   8.646   6.745   2.642 -0.3732  0.8630  0.4451
23969SOL     OW74223   8.644   7.775   4.677  0.8630 -0.2217 -0.2754
23969SOL    HW174224   8.573   7.799   4.617  0.6011 -0.2108  0.0302
23969SOL    HW274225   8.599   7.738   4.753  1.2581 -1.4476 -0.6302
23970SOL     OW74226   4.694   2.586   0.646 -0.1727  0.0109  0.3707
23970SOL    HW174227   4.739   2.534   0.579  0.0164  0.8704 -0.1805
23970SOL    HW274228   4.763   2.608   0.708 -0.3027 -0.5939  0.7368
23971SOL     OW74229   3.539   9.300   2.880  0.5558  0.2499 -0.1427
23971SOL    HW174230   3.562   9.393   2.890  1.6684  0.0696 -0.8156
23971SOL    HW274231   3.610   9.253   2.925  0.3305 -0.2856 -0.3386
23972SOL     OW74232  10.032   9.783   4.206 -0.0172 -0.2715  0.0080
23972SOL    HW174233  10.067   9.813   4.122  0.5688  0.5943  0.5440
23972SOL    HW274234  10.050   9.855   4.267 -2.6356  0.2146  0.3509
23973SOL     OW74235   0.467   6.288   8.411 -0.0557  0.5595 -0.3051
23973SOL    HW174236   0.476   6.194   8.395  2.8343  1.0941 -2.7437
23973SOL    HW274237   0.523   6.305   8.487  1.4620  0.5784 -1.3792
23974SOL     OW74238   0.098   7.931   3.022 -0.6499  0.2646  0.1542
23974SOL    HW174239   0.025   7.877   3.054  1.2375 -1.1221  2.4670
23974SOL    HW274240   0.112   7.996   3.091  2.0818 -1.3424  1.2533
23975SOL     OW74241   9.433   4.094   3.247  0.2235  0.2062 -0.3470
23975SOL    HW174242   9.468   4.022   3.300  0.9647  0.2928 -0.6996
23975SOL    HW274243   9.507   4.122   3.193 -0.3128  0.6241 -0.8803
23976SOL     OW74244   9.522   4.255   0.610  0.1404  0.4609  0.3527
23976SOL    HW174245   9.430   4.247   0.634  0.3335 -0.8465  0.7530
23976SOL    HW274246   9.564   4.179   0.650  0.7179 -1.1999 -3.0127
23977SOL     OW74247   8.803   3.797   2.460 -0.2358 -0.0646 -0.4210
23977SOL    HW174248   8.713   3.797   2.427 -0.1816  0.3624 -0.5701
23977SOL    HW274249   8.796   3.821   2.552 -0.4431 -1.8073  0.0515
23978SOL     OW74250   3.397   4.796   9.328  0.1397 -0.1716  0.5750
23978SOL    HW174251   3.343   4.831   9.399 -1.3942  0.9209 -1.0481
23978SOL    HW274252   3.335   4.773   9.259  1.5376 -1.7012 -0.2535
23979SOL     OW74253   1.176   8.643   5.080 -0.0288  0.6444  0.1136
23979SOL    HW174254   1.165   8.593   4.999  1.1799  1.9351 -0.8992
23979SOL    HW274255   1.095   8.629   5.128  0.5379 -2.9733  0.3382
23980SOL     OW74256   4.554   6.863   6.899  0.1618  0.2122 -0.5045
23980SOL    HW174257   4.587   6.777   6.871  0.3186 -0.3463  1.2471
23980SOL    HW274258   4.459   6.852   6.901  0.0993  0.4872 -1.4649
23981SOL     OW74259   0.504   4.751   8.075 -0.0704  0.0556  0.0802
23981SOL    HW174260   0.507   4.822   8.010  1.3391  0.3406  0.4316
23981SOL    HW274261   0.565   4.685   8.042 -1.6671 -1.2096 -0.4433
23982SOL     OW74262   1.649   1.864   5.423  0.2398  0.1216  0.6189
23982SOL    HW174263   1.715   1.927   5.451  1.2061 -0.7630  0.4140
23982SOL    HW274264   1.696   1.806   5.362 -0.9462 -0.0216 -0.1890
23983SOL     OW74265   7.153   9.081   6.316 -0.4548  0.2527  0.4861
23983SOL    HW174266   7.203   9.145   6.266  0.4436 -0.9258 -0.1737
23983SOL    HW274267   7.066   9.080   6.275 -0.0243  0.0105 -0.4199
23984SOL     OW74268   1.560   8.280   1.623  0.8243 -0.2408 -0.2624
23984SOL    HW174269   1.554   8.304   1.530 -0.3447 -1.6163 -0.5696
23984SOL    HW274270   1.488   8.219   1.637  0.6102  0.3948  1.7222
23985SOL     OW74271   5.512   9.979   8.963  0.0269 -0.3514  0.0375
23985SOL    HW174272   5.467   9.911   8.913 -0.1336  0.1988 -0.5824
23985SOL    HW274273   5.562  10.028   8.898 -0.7892  0.8543  0.2741
23986SOL     OW74274   5.823   3.159   9.815  0.2484  0.4349  0.7100
23986SOL    HW174275   5.896   3.106   9.846 -0.5296 -0.5128  0.9805
23986SOL    HW274276   5.776   3.184   9.895  1.1940  2.4728  0.6849
23987SOL     OW74277   9.362   5.279   8.180 -0.7758  0.3142  0.1779
23987SOL    HW174278   9.422   5.350   8.159 -0.8392  0.4326  0.3976
23987SOL    HW274279   9.372   5.217   8.107  1.2809 -0.7593  1.2920
23988SOL     OW74280   1.477   2.237   1.093  0.6068 -0.8442 -0.0745
23988SOL    HW174281   1.538   2.305   1.120 -0.2753 -0.3172  0.6551
23988SOL    HW274282   1.420   2.224   1.169 -1.2037 -0.1596 -1.2249
23989SOL     OW74283   2.207   8.591   5.694 -0.6109  0.1041  0.3190
23989SOL    HW174284   2.284   8.627   5.738 -0.7630 -0.5693  1.1630
23989SOL    HW274285   2.150   8.667   5.680 -0.3453  0.4083  0.8403
23990SOL     OW74286   5.440   5.720   8.656 -0.1638  0.4320 -0.0202
23990SOL    HW174287   5.427   5.779   8.731  0.8288  3.0281 -1.7623
23990SOL    HW274288   5.534   5.702   8.656 -0.3420 -0.5448  0.0188
23991SOL     OW74289   5.821   3.823   0.091  0.3566  0.1067  0.2084
23991SOL    HW174290   5.850   3.865   0.010  1.9872 -2.2998 -0.5802
23991SOL    HW274291   5.890   3.761   0.112 -2.0981 -2.6424  0.8923
23992SOL     OW74292   7.890   1.500  10.437 -0.4584  0.1698 -0.1688
23992SOL    HW174293   7.812   1.445  10.423 -0.1283  0.1382 -2.1797
23992SOL    HW274294   7.890   1.560  10.363  0.7216  1.0511  0.5168
23993SOL     OW74295   9.904   4.493   7.345 -0.1134  0.7679  0.1271
23993SOL    HW174296   9.935   4.447   7.423 -0.7824 -0.1006 -0.1026
23993SOL    HW274297   9.983   4.512   7.295  0.3541  1.6542  1.1815
23994SOL     OW74298   3.478   1.398   1.189  0.2633 -0.2195 -0.3162
23994SOL    HW174299   3.419   1.472   1.200 -0.9040 -1.0754 -0.5547
23994SOL    HW274300   3.554   1.420   1.243 -0.6768  0.5115  0.7797
23995SOL     OW74301  10.134   9.316   5.212 -0.6511 -0.1285 -0.3870
23995SOL    HW174302  10.065   9.291   5.151 -0.0443 -2.5444 -0.1823
23995SOL    HW274303  10.215   9.300   5.164 -0.1881 -0.8820  0.5986
23996SOL     OW74304   9.652   2.475   0.889 -0.3508  0.0661  0.3673
23996SOL    HW174305   9.575   2.419   0.895 -0.4265  0.2594  1.4322
23996SOL    HW274306   9.725   2.414   0.872 -0.4444 -0.3517  1.4162
23997SOL     OW74307   5.469   9.938   1.058  0.2147  0.5150 -0.1052
23997SOL    HW174308   5.411   9.879   1.010  1.3649 -0.2915 -0.5217
23997SOL    HW274309   5.479   9.896   1.144  1.1720 -0.0119 -0.4599
23998SOL     OW74310   6.037   2.916   4.369  0.4239 -0.3680 -0.2053
23998SOL    HW174311   6.108   2.967   4.410 -0.1736  1.0826 -0.9297
23998SOL    HW274312   5.991   2.877   4.443  0.8013  0.2753  0.3876
23999SOL     OW74313   3.685   1.567   3.985 -0.2164 -0.2057  0.0307
23999SOL    HW174314   3.774   1.597   3.965 -0.0584 -0.0504  0.9242
23999SOL    HW274315   3.629   1.616   3.924  0.2273  0.3814  0.0814
24000SOL     OW74316  10.520   1.853   3.718 -0.1225 -0.1595 -0.5039
24000SOL    HW174317  10.487   1.898   3.796  0.4335  1.2841 -1.0686
24000SOL    HW274318  10.516   1.760   3.740 -2.4923  0.0673  0.2403
24001SOL     OW74319   4.392   0.508   9.173  0.3037 -0.4207  0.1835
24001SOL    HW174320   4.320   0.477   9.227  0.7068 -0.2749  0.8157
24001SOL    HW274321   4.459   0.440   9.179 -0.3120 -1.2527 -1.5677
24002SOL     OW74322   3.910   2.866   2.695 -0.3098  0.6188  0.3709
24002SOL    HW174323   4.003   2.845   2.689 -0.6281 -0.7339 -0.1354
24002SOL    HW274324   3.907   2.947   2.746  1.0525 -0.0599  1.6145
24003SOL     OW74325   0.739   7.266   6.413 -0.5023 -0.3797 -0.5015
24003SOL    HW174326   0.672   7.314   6.460 -1.0244 -0.4487 -1.1581
24003SOL    HW274327   0.692   7.194   6.371 -0.1881  0.1092 -1.7338
24004SOL     OW74328   9.693   1.853   5.997 -0.0085  0.0743  0.2317
24004SOL    HW174329   9.645   1.897   5.927  0.3300  0.4241  0.2132
24004SOL    HW274330   9.644   1.874   6.077 -0.2804 -0.1570  0.1268
24005SOL     OW74331   0.781   6.118   6.418 -0.1218  0.0060  0.1754
24005SOL    HW174332   0.794   6.033   6.375  0.7054  0.2300 -0.0348
24005SOL    HW274333   0.696   6.110   6.461 -0.5762 -0.5334 -0.7798
24006SOL     OW74334   3.516   1.831   1.838 -0.5955 -0.4184 -0.0521
24006SOL    HW174335   3.448   1.871   1.783 -0.5840 -1.9969 -1.3012
24006SOL    HW274336   3.471   1.760   1.884  0.1595 -1.4802 -0.8961
24007SOL     OW74337   7.248   8.234   0.253 -0.2361  0.0600  0.5609
24007SOL    HW174338   7.227   8.299   0.319  0.5132  2.7402 -1.6659
24007SOL    HW274339   7.343   8.239   0.243 -0.3914  0.2681 -1.1676
24008SOL     OW74340   3.176   2.400   6.730  0.1964 -0.5344  0.3271
24008SOL    HW174341   3.099   2.382   6.784 -0.0226  1.8540  0.9410
24008SOL    HW274342   3.250   2.372   6.783 -0.1779 -1.9374  0.1429
24009SOL     OW74343   3.235   9.226   8.636 -0.1102  0.0621  0.6766
24009SOL    HW174344   3.308   9.283   8.662  1.2804 -0.8779 -0.9839
24009SOL    HW274345   3.273   9.138   8.632 -1.6229 -0.6332  0.8374
24010SOL     OW74346   3.415   8.630  10.151  0.1459  0.4155 -0.6100
24010SOL    HW174347   3.460   8.664  10.228  0.7355 -0.5181 -0.5307
24010SOL    HW274348   3.447   8.541  10.141  0.2436  0.5818 -2.0569
24011SOL     OW74349   3.869   8.874   8.881 -0.0279 -0.3556  0.0037
24011SOL    HW174350   3.930   8.928   8.832  0.3075 -0.0516  0.7486
24011SOL    HW274351   3.782   8.904   8.852  0.1611  0.1542 -0.0446
24012SOL     OW74352   8.435   5.338  10.099 -0.0352  0.1490  0.0933
24012SOL    HW174353   8.432   5.351  10.194  0.2412  1.5263 -0.0546
24012SOL    HW274354   8.410   5.247  10.085 -1.0252  0.1993  1.4179
24013SOL     OW74355  10.314   6.237  10.018 -0.1394 -0.1275 -0.2057
24013SOL    HW174356  10.361   6.247   9.935  0.3846 -1.1531 -0.0540
24013SOL    HW274357  10.255   6.312  10.021 -0.2487 -0.1209 -1.5530
24014SOL     OW74358   4.886   7.949   6.007  0.1270 -0.1104  0.0340
24014SOL    HW174359   4.927   7.966   6.092  0.1407 -3.8997  0.9758
24014SOL    HW274360   4.822   8.020   5.997  0.3328  0.6626  3.0784
24015SOL     OW74361   4.754   2.674   5.496 -0.4845  0.4014  0.4438
24015SOL    HW174362   4.665   2.699   5.471 -0.9213 -1.5284 -0.1152
24015SOL    HW274363   4.765   2.708   5.585 -2.9728 -1.9246  1.7848
24016SOL     OW74364   2.023   8.218   2.012 -0.1295  0.6120  0.3212
24016SOL    HW174365   1.997   8.276   2.083  0.1201  1.2070 -0.0650
24016SOL    HW274366   2.115   8.237   1.997 -0.0877  0.2410  0.0698
24017SOL     OW74367   8.639   6.146   9.677 -0.4255 -0.6849 -0.4313
24017SOL    HW174368   8.611   6.233   9.649 -1.1810 -0.6885  0.2837
24017SOL    HW274369   8.731   6.158   9.702 -1.2393  0.6048  2.3526
24018SOL     OW74370   3.377  10.470   7.533 -0.4482  0.0988 -0.2782
24018SOL    HW174371   3.444  10.523   7.490  0.2901 -2.0897 -2.0376
24018SOL    HW274372   3.310  10.457   7.467 -0.8962 -0.6231  0.2958
24019SOL     OW74373   4.642   3.219   7.536 -0.2307  1.1694 -0.1094
24019SOL    HW174374   4.723   3.169   7.523 -0.9389 -0.0842  0.0966
24019SOL    HW274375   4.671   3.304   7.567  1.0048  0.6116  0.3368
24020SOL     OW74376   0.925  10.277   2.857  0.4101 -0.2248  0.0280
24020SOL    HW174377   0.966  10.191   2.851  0.8207 -0.0577  0.4246
24020SOL    HW274378   0.990  10.332   2.899 -0.4555 -0.1197  1.2889
24021SOL     OW74379   3.780   3.786   4.437  0.4855  0.2908  0.1812
24021SOL    HW174380   3.779   3.703   4.389 -0.0835  0.7742 -0.6688
24021SOL    HW274381   3.828   3.767   4.518  0.8807 -0.7103 -0.2768
24022SOL     OW74382   6.960   9.799   1.826  0.4593 -0.0987 -0.3832
24022SOL    HW174383   6.875   9.814   1.784  0.0527  1.2556  0.8153
24022SOL    HW274384   7.023   9.804   1.755 -0.3086  0.9160 -1.0207
24023SOL     OW74385   0.478   2.657   3.403  0.1002  0.1924  0.3473
24023SOL    HW174386   0.405   2.719   3.408 -1.0288 -0.7897 -2.0914
24023SOL    HW274387   0.546   2.702   3.354  0.6660  0.6652  1.5373
24024SOL     OW74388  10.192   6.369   9.299 -0.3213 -0.4633 -0.2844
24024SOL    HW174389  10.211   6.276   9.315 -0.0462 -0.6564 -1.5588
24024SOL    HW274390  10.270   6.415   9.331 -0.6900 -0.6185  0.8456
24025SOL     OW74391   1.712   8.750   9.941 -0.3704 -0.5147 -1.0154
24025SOL    HW174392   1.776   8.735   9.871 -1.1414 -0.0551 -1.8242
24025SOL    HW274393   1.637   8.695   9.917 -1.3901  1.0762 -1.5734
24026SOL     OW74394   7.972   6.142   8.301  0.1701 -0.3747 -0.0963
24026SOL    HW174395   7.902   6.204   8.279 -0.6286 -1.3536 -0.4040
24026SOL    HW274396   7.952   6.115   8.391  1.3333  0.8541  0.5724
24027SOL     OW74397   4.645   0.435   3.035  0.2553 -0.4068 -0.2932
24027SOL    HW174398   4.604   0.458   2.952 -1.0297 -3.1195 -0.5180
24027SOL    HW274399   4.608   0.350   3.057  1.9763 -0.6271  2.1458
24028SOL     OW74400   4.593   2.186   6.989 -0.3355  0.2081  0.7732
24028SOL    HW174401   4.639   2.191   6.906 -1.4181 -1.9713 -0.0401
24028SOL    HW274402   4.546   2.269   6.995  0.3539  0.7117 -0.4265
24029SOL     OW74403   3.178   1.411  10.367 -0.2812 -0.4559  0.2269
24029SOL    HW174404   3.099   1.389  10.317 -0.2335  0.9093 -0.4835
24029SOL    HW274405   3.162   1.500  10.399  1.4268  0.2851 -0.8716
24030SOL     OW74406   4.712   8.845   4.197  0.0585  0.1431 -0.2349
24030SOL    HW174407   4.772   8.824   4.125  0.4484  0.6521 -0.0628
24030SOL    HW274408   4.654   8.769   4.202  0.7120 -0.3723 -0.3818
24031SOL     OW74409   2.054   2.796   4.910 -0.1098  0.2871 -0.2209
24031SOL    HW174410   2.047   2.891   4.904 -1.2519  0.1644 -1.1171
24031SOL    HW274411   2.148   2.779   4.912  0.1031  1.4700  0.8000
24032SOL     OW74412   5.947   4.261   6.252  0.3132  0.0214 -0.6689
24032SOL    HW174413   5.872   4.201   6.255  0.7071 -0.4492  1.6921
24032SOL    HW274414   5.914   4.342   6.290  0.7234  0.1824 -0.6561
24033SOL     OW74415   4.924   0.360   0.025 -0.4339  0.0648 -1.1184
24033SOL    HW174416   4.834   0.329   0.021 -0.0753 -1.0785 -0.7559
24033SOL    HW274417   4.958   0.326   0.108  0.1543  0.9911 -0.9661
24034SOL     OW74418   0.210   9.485   7.711 -0.5983  0.2961  0.7640
24034SOL    HW174419   0.271   9.421   7.747 -0.2206 -0.3054 -0.8477
24034SOL    HW274420   0.143   9.495   7.779  0.0263 -0.8251  1.5882
24035SOL     OW74421   5.401   9.992   0.655 -0.3434 -0.2043 -0.0060
24035SOL    HW174422   5.396   9.927   0.585  0.5719 -1.0603  0.6912
24035SOL    HW274423   5.481   9.969   0.703 -0.7027  0.6505  1.0356
24036SOL     OW74424   1.631   9.238  10.582  0.3404 -0.0382 -0.0634
24036SOL    HW174425   1.614   9.262  10.673 -0.1465  0.2673 -0.2295
24036SOL    HW274426   1.558   9.182  10.558  0.1165  0.4148 -0.4634
24037SOL     OW74427   1.635   8.477   1.081  0.2067 -0.4208  0.2803
24037SOL    HW174428   1.653   8.488   1.175  2.0211  2.0201 -0.2389
24037SOL    HW274429   1.721   8.466   1.041 -0.1958  1.7926 -1.3738
24038SOL     OW74430   3.887   8.237   7.220 -0.1282 -0.0319  0.7605
24038SOL    HW174431   3.914   8.211   7.308 -1.6867  1.6133  1.8106
24038SOL    HW274432   3.893   8.157   7.168  0.5432 -1.1268  2.4269
24039SOL     OW74433   8.065   1.011   3.666  0.3240 -0.0135 -0.1497
24039SOL    HW174434   7.989   1.002   3.725 -1.0159  1.6621 -1.5103
24039SOL    HW274435   8.123   1.072   3.710  0.0948 -0.0263  0.1722
24040SOL     OW74436   5.654   3.667   2.831  0.1519  0.2719  0.0009
24040SOL    HW174437   5.705   3.676   2.912 -0.6045  0.3936  0.4744
24040SOL    HW274438   5.567   3.640   2.861  0.3959 -1.7006 -0.9141
24041SOL     OW74439   2.627   2.049   1.026 -0.4930  0.4314  0.4605
24041SOL    HW174440   2.644   2.125   1.082  0.9983 -0.3819  1.1705
24041SOL    HW274441   2.601   1.980   1.088  1.9441 -0.7047  0.2935
24042SOL     OW74442   4.258   2.250   0.577  0.1556  0.5217  0.0716
24042SOL    HW174443   4.261   2.224   0.485  1.5470 -2.5930  0.8839
24042SOL    HW274444   4.331   2.311   0.587 -0.8806  2.0617 -1.0965
24043SOL     OW74445   3.740   8.086   3.360 -0.0215  0.4904  0.7360
24043SOL    HW174446   3.704   7.997   3.366  2.8252 -0.7209  1.6263
24043SOL    HW274447   3.773   8.104   3.448  1.3097  1.5652  0.0487
24044SOL     OW74448   4.990   4.689   2.599  0.3676 -0.2911  0.1304
24044SOL    HW174449   5.029   4.621   2.545 -0.6909  0.2443 -1.3759
24044SOL    HW274450   5.037   4.769   2.576 -0.6480  0.1000 -0.6843
24045SOL     OW74451   4.976   1.062   6.908  0.3837 -0.5856  0.2153
24045SOL    HW174452   4.990   1.086   6.817 -0.1061  1.3069  0.5939
24045SOL    HW274453   5.064   1.042   6.941  0.8396  0.6530 -0.1846
24046SOL     OW74454   0.881   4.188   1.640  0.1465  0.2595 -0.0106
24046SOL    HW174455   0.790   4.169   1.666 -0.3766  1.4662 -0.8765
24046SOL    HW274456   0.877   4.276   1.602  1.5690  0.0612 -0.6683
24047SOL     OW74457   5.016   1.374   5.699 -0.5614 -0.2113 -0.3462
24047SOL    HW174458   5.103   1.371   5.739 -1.4520  1.3369  1.8972
24047SOL    HW274459   5.030   1.418   5.615  0.6255  1.4554  0.6565
24048SOL     OW74460   7.874   9.778   5.587 -0.2109  0.1513 -0.4071
24048SOL    HW174461   7.889   9.817   5.501  0.9768 -1.6156 -1.0575
24048SOL    HW274462   7.945   9.814   5.641 -0.8888  1.1709 -0.1665
24049SOL     OW74463   2.989   0.768   1.514 -0.0189 -0.4878  0.4203
24049SOL    HW174464   2.928   0.722   1.572  0.2047  0.1831  1.2050
24049SOL    HW274465   3.065   0.786   1.569  0.4582 -0.3904 -0.2643
24050SOL     OW74466   4.638   6.551   6.311  0.0304  0.0741 -0.1061
24050SOL    HW174467   4.657   6.599   6.392 -0.1679  1.8216 -1.0407
24050SOL    HW274468   4.714   6.493   6.300  0.0068 -0.2715  1.3688
24051SOL     OW74469   9.892   1.981   9.178 -0.5261 -0.0729  0.3077
24051SOL    HW174470   9.956   1.918   9.210  1.3335  0.7274 -1.5992
24051SOL    HW274471   9.824   1.928   9.136  0.2696 -0.8545  0.0048
24052SOL     OW74472   9.965   9.930   3.300 -0.5629 -0.5986  0.7279
24052SOL    HW174473  10.057   9.957   3.292 -0.6156 -0.7006 -0.2927
24052SOL    HW274474   9.915  10.010   3.288 -0.6369 -0.7150  0.2432
24053SOL     OW74475   2.985   8.791   4.958  0.4922  0.3031  0.0376
24053SOL    HW174476   2.973   8.885   4.974  1.8860  0.3145  1.1921
24053SOL    HW274477   3.006   8.755   5.044  1.1544 -0.8814 -0.6038
24054SOL     OW74478   8.431   8.816   1.185 -0.0931 -0.3870 -0.0740
24054SOL    HW174479   8.447   8.773   1.101 -0.3439 -0.4318 -0.0971
24054SOL    HW274480   8.505   8.877   1.194 -0.2304 -0.1565 -0.4741
24055SOL     OW74481   1.699   9.528   1.577  0.0713 -0.4131 -0.4828
24055SOL    HW174482   1.681   9.446   1.623  2.2550 -0.7442 -0.1515
24055SOL    HW274483   1.638   9.527   1.503 -0.2673 -2.0903 -0.2219
24056SOL     OW74484  10.012   6.326   9.100 -0.0584 -0.1202 -0.1631
24056SOL    HW174485   9.997   6.237   9.068  0.8670 -0.5813  0.6327
24056SOL    HW274486  10.088   6.318   9.157  1.2443  1.5293 -1.5769
24057SOL     OW74487   8.320   2.490  10.557 -0.2867 -0.4534 -0.1598
24057SOL    HW174488   8.379   2.548  10.509  1.0099 -0.1452  1.6952
24057SOL    HW274489   8.378   2.424  10.596 -1.3643 -1.1327  0.3471
24058SOL     OW74490   6.811   0.605   9.911  0.4511  0.2921  0.5031
24058SOL    HW174491   6.717   0.621   9.900  0.4581  1.1661  1.5513
24058SOL    HW274492   6.854   0.675   9.862  0.5769 -0.4490 -0.4684
24059SOL     OW74493   9.637   8.139   2.712 -0.3429  0.0275 -0.1090
24059SOL    HW174494   9.543   8.140   2.729 -0.4150  0.9329 -0.4627
24059SOL    HW274495   9.669   8.222   2.750  0.3875 -0.4691  0.3902
24060SOL     OW74496   7.187   2.988   2.046  0.1191  0.1642 -0.7319
24060SOL    HW174497   7.120   2.960   1.984  1.3425 -0.8149 -1.6652
24060SOL    HW274498   7.260   3.017   1.992  1.0655 -0.3288  0.2368
24061SOL     OW74499   3.703   6.742   1.443  0.8141 -0.6712  0.8354
24061SOL    HW174500   3.770   6.699   1.391  1.4282  1.1634 -0.0055
24061SOL    HW274501   3.738   6.745   1.532  0.8561 -1.6751  0.8535
24062SOL     OW74502   3.107   7.944   5.966  0.0572 -0.3715 -0.0093
24062SOL    HW174503   3.153   7.952   5.883  0.7812 -1.1143  0.3046
24062SOL    HW274504   3.155   7.876   6.014  0.6174  1.1077  1.6594
24063SOL     OW74505   1.348   6.083   8.989 -0.4672 -0.2334 -0.5824
24063SOL    HW174506   1.400   6.163   8.981  0.4022 -0.5600  1.2671
24063SOL    HW274507   1.296   6.080   8.909  0.9573  1.1173 -1.6140
24064SOL     OW74508   5.297   1.091   8.348  0.4508 -0.2668  0.5655
24064SOL    HW174509   5.279   0.999   8.368  2.9775 -1.2528 -1.1934
24064SOL    HW274510   5.379   1.110   8.394  0.3672  0.8665  0.2780
24065SOL     OW74511  10.451   4.097   9.737 -0.7714  0.2959 -0.6294
24065SOL    HW174512  10.540   4.119   9.710 -0.7917  0.1948 -0.7754
24065SOL    HW274513  10.436   4.151   9.815 -0.7225  0.6001 -0.8306
24066SOL     OW74514   8.773   7.019   5.026  0.1050 -0.0252 -0.3918
24066SOL    HW174515   8.791   7.113   5.032 -0.9446  0.1986 -0.5553
24066SOL    HW274516   8.689   7.014   4.980  0.7025 -1.0942 -1.4124
24067SOL     OW74517   2.990   1.928   2.677  0.2142  0.2805 -0.3397
24067SOL    HW174518   3.084   1.940   2.684  0.2346  0.6117 -1.0501
24067SOL    HW274519   2.955   2.016   2.663 -0.1917  0.1541 -0.1311
24068SOL     OW74520   4.499   3.535   8.156 -0.2617  0.2034 -0.3940
24068SOL    HW174521   4.579   3.485   8.170 -0.4123  0.2911  0.8683
24068SOL    HW274522   4.499   3.555   8.062  0.4355 -1.0701 -0.6862
24069SOL     OW74523   9.762   4.549   2.588 -0.1091 -0.1055 -0.1394
24069SOL    HW174524   9.713   4.607   2.647 -0.3027  2.4197 -2.5696
24069SOL    HW274525   9.852   4.552   2.620 -0.4502  0.1193  0.8228
24070SOL     OW74526   5.904   2.798   5.363  0.0035 -0.3208  0.4048
24070SOL    HW174527   5.940   2.747   5.290  1.2563  1.1521 -0.0799
24070SOL    HW274528   5.958   2.774   5.438 -0.9384 -1.4359  0.7447
24071SOL     OW74529   5.263   7.584   3.819 -0.5143 -0.4896 -0.6485
24071SOL    HW174530   5.319   7.638   3.875 -0.4519 -0.1110 -1.0767
24071SOL    HW274531   5.215   7.647   3.766 -0.3923 -0.8590 -1.2001
24072SOL     OW74532   4.367   4.263   1.853  0.5724  0.0296 -0.4091
24072SOL    HW174533   4.457   4.294   1.842  0.3886  0.5669 -0.4325
24072SOL    HW274534   4.361   4.186   1.797  1.1507 -0.2809 -0.0510
24073SOL     OW74535   7.841   7.700   0.606  0.0548 -0.1514  0.0513
24073SOL    HW174536   7.863   7.606   0.608 -1.5140 -0.5689 -0.3229
24073SOL    HW274537   7.783   7.712   0.682  0.5230  0.6026  0.2962
24074SOL     OW74538  10.148   0.199   5.061  0.7484  0.1287  0.0218
24074SOL    HW174539  10.224   0.232   5.013 -0.0572  1.3596 -0.4295
24074SOL    HW274540  10.163   0.104   5.066  2.0842  0.2914 -0.4487
24075SOL     OW74541   4.971   0.503   9.106  0.0563  0.2088  0.7813
24075SOL    HW174542   4.992   0.411   9.091 -0.3591  0.0641  1.0939
24075SOL    HW274543   5.054   0.542   9.133  0.0718 -0.2284  1.3878
24076SOL     OW74544   0.988   1.063   7.949 -0.1032  0.5435  0.3484
24076SOL    HW174545   0.949   1.093   7.867  0.9158  0.5046 -0.1588
24076SOL    HW274546   1.081   1.056   7.930  0.0715  0.0210  1.3594
24077SOL     OW74547   1.939   3.478   6.260 -0.0283 -0.0077  0.0936
24077SOL    HW174548   2.003   3.528   6.209 -0.8038  0.1579 -0.7594
24077SOL    HW274549   1.934   3.524   6.343  0.0102  0.7552 -0.3114
24078SOL     OW74550   9.219   6.051   9.242 -0.0439 -0.1243 -0.3167
24078SOL    HW174551   9.283   6.116   9.212  0.7581 -0.5495  0.4619
24078SOL    HW274552   9.244   5.971   9.196 -0.5657 -0.0870 -0.6807
24079SOL     OW74553   7.571   6.979   5.914 -0.4191 -0.2053 -0.1757
24079SOL    HW174554   7.517   7.001   5.838 -1.1165 -0.6729  0.1808
24079SOL    HW274555   7.595   6.887   5.900  0.3405  0.0118 -0.3584
24080SOL     OW74556   2.380   6.560   8.295 -0.1239  0.2265  0.1877
24080SOL    HW174557   2.400   6.602   8.378 -1.2574  0.3873  0.3989
24080SOL    HW274558   2.450   6.495   8.283  1.2646  1.6724  0.1852
24081SOL     OW74559   7.645   0.547   2.557 -0.2256  0.5525  0.3687
24081SOL    HW174560   7.580   0.529   2.625  1.6151 -2.0348  1.6288
24081SOL    HW274561   7.726   0.560   2.605  0.7675  0.6166 -1.2586
24082SOL     OW74562   8.620   3.147   1.975 -0.5722 -0.1613 -0.5372
24082SOL    HW174563   8.529   3.164   1.953 -0.2536  2.5578 -0.0469
24082SOL    HW274564   8.668   3.157   1.893 -0.4520  0.8863 -0.3509
24083SOL     OW74565   8.018   2.891   0.589 -0.4215 -0.0508  0.5236
24083SOL    HW174566   7.969   2.836   0.650 -1.3744  0.8533  0.6038
24083SOL    HW274567   8.097   2.841   0.570 -1.1855 -1.3755  0.7044
24084SOL     OW74568   2.026   4.688   0.366 -0.3874  0.1309  0.2054
24084SOL    HW174569   1.935   4.660   0.371  0.4340 -2.6913  1.4315
24084SOL    HW274570   2.054   4.662   0.278 -0.7070  0.7843 -0.0883
24085SOL     OW74571   8.925   0.890   1.229  0.5542 -0.7152  0.1261
24085SOL    HW174572   8.962   0.945   1.159 -0.7278  0.0988  0.0677
24085SOL    HW274573   8.979   0.909   1.305  0.1831  0.5959  0.0878
24086SOL     OW74574   3.829   9.357   2.819  0.1819  0.1549 -0.1331
24086SOL    HW174575   3.800   9.311   2.740 -0.5511  0.1013  0.1650
24086SOL    HW274576   3.847   9.288   2.882 -0.0839  0.2381  0.0336
24087SOL     OW74577   4.000   0.860   6.345  0.0981  0.0374 -0.2251
24087SOL    HW174578   3.924   0.839   6.398 -0.7932  1.4988 -0.8530
24087SOL    HW274579   4.056   0.912   6.402  0.1979 -0.2844 -0.0314
24088SOL     OW74580   9.295   3.906   1.315  0.1265 -0.4725 -0.1919
24088SOL    HW174581   9.275   4.000   1.322  0.4668 -0.2704 -1.5504
24088SOL    HW274582   9.268   3.883   1.226  0.5140 -1.5494 -0.0380
24089SOL     OW74583   7.256   7.179   7.005  0.0649 -0.3962  0.5850
24089SOL    HW174584   7.291   7.268   7.014 -2.2445  0.7568 -0.7536
24089SOL    HW274585   7.280   7.152   6.917  1.0811 -1.2753  1.1233
24090SOL     OW74586   0.878   4.532   9.292 -0.2476  0.5938  0.0182
24090SOL    HW174587   0.823   4.606   9.265 -0.7316  0.0474 -0.5139
24090SOL    HW274588   0.947   4.572   9.345  0.5861  1.7030 -1.7736
24091SOL     OW74589   1.686   6.988   4.487 -0.2589  0.3568 -0.5038
24091SOL    HW174590   1.605   6.940   4.502 -0.1251  0.4926  0.7875
24091SOL    HW274591   1.664   7.052   4.419 -1.1060  0.1016 -0.4786
24092SOL     OW74592   5.083   8.291  10.387 -0.3736  0.1544  0.2519
24092SOL    HW174593   5.148   8.322  10.450  0.6307 -0.6570 -0.3672
24092SOL    HW274594   5.000   8.294  10.436  0.4829 -1.2002  1.9088
24093SOL     OW74595   6.438   1.755   7.628  0.4171 -0.1003 -0.1013
24093SOL    HW174596   6.452   1.827   7.690 -1.0352  0.0365  0.0900
24093SOL    HW274597   6.526   1.721   7.611  0.8688 -0.2573  2.1884
24094SOL     OW74598   9.285   3.655   0.439  0.5788 -0.2776  0.0986
24094SOL    HW174599   9.284   3.559   0.449  0.7770 -0.1175  2.1474
24094SOL    HW274600   9.328   3.687   0.519  1.6921  1.4807 -1.1461
24095SOL     OW74601   7.320   6.998  10.216  0.1051 -0.0714 -0.0875
24095SOL    HW174602   7.395   7.004  10.275 -0.0797  2.2386 -0.0061
24095SOL    HW274603   7.273   7.080  10.229 -1.4689 -0.7121 -1.4418
24096SOL     OW74604   4.640   2.536   3.214  0.0746 -0.0163 -0.4275
24096SOL    HW174605   4.664   2.607   3.155  0.8555  1.1273  1.1993
24096SOL    HW274606   4.696   2.463   3.188 -0.6688 -0.0446 -2.0587
24097SOL     OW74607   6.934   1.823   9.069 -0.5270  0.2257 -0.1011
24097SOL    HW174608   6.876   1.898   9.086 -0.6382  0.4262 -1.2609
24097SOL    HW274609   6.955   1.789   9.156  0.5502  2.3733  0.5504
24098SOL     OW74610   2.902   0.823  10.302 -0.0890 -0.0429 -0.1309
24098SOL    HW174611   2.829   0.875  10.272 -0.9558 -0.7099  0.7364
24098SOL    HW274612   2.878   0.733  10.282  0.8456 -0.2131 -0.5402
24099SOL     OW74613   4.554   9.346   5.175 -0.1443  0.2136 -0.7992
24099SOL    HW174614   4.549   9.365   5.082  2.7426 -1.1797 -1.3601
24099SOL    HW274615   4.629   9.396   5.206 -1.8931  1.7873  1.1871
24100SOL     OW74616   3.429   4.975   1.544  0.0899  0.0714  0.3119
24100SOL    HW174617   3.360   5.031   1.578  0.4304  0.5579  0.2033
24100SOL    HW274618   3.385   4.891   1.527 -0.3588  0.2207  0.7204
24101SOL     OW74619   2.355   3.932   5.678  0.3916  0.0239  0.6910
24101SOL    HW174620   2.285   3.998   5.679 -0.0720 -0.4570  1.7063
24101SOL    HW274621   2.373   3.915   5.770 -0.1613 -1.9244  0.4959
24102SOL     OW74622   5.568   2.400   4.381  0.3966 -0.2048 -0.1319
24102SOL    HW174623   5.524   2.440   4.456 -0.9553 -0.4232 -0.7683
24102SOL    HW274624   5.496   2.366   4.327  1.1233  1.8504 -2.6454
24103SOL     OW74625   9.231  10.509   8.190  0.5534  0.0117 -0.3350
24103SOL    HW174626   9.161  10.530   8.252  1.1924 -1.7456  1.1001
24103SOL    HW274627   9.301  10.570   8.212 -0.3580  1.5581 -1.5592
24104SOL     OW74628   1.259   0.736   7.909  0.3881 -0.5143 -0.0964
24104SOL    HW174629   1.174   0.742   7.867 -0.4988  1.1598  1.7860
24104SOL    HW274630   1.241   0.702   7.997  1.5657  0.3184  0.5073
24105SOL     OW74631   3.688   4.442   4.139 -0.3651  0.1175  0.3212
24105SOL    HW174632   3.753   4.448   4.208 -2.2607 -0.2432  2.2543
24105SOL    HW274633   3.655   4.532   4.129 -0.7721 -0.0022  0.5806
24106SOL     OW74634   6.435   3.976   7.451 -0.2437 -0.9180 -0.0689
24106SOL    HW174635   6.390   3.948   7.371  0.0005 -0.0949 -0.5077
24106SOL    HW274636   6.509   4.028   7.420  0.4509 -1.4347  0.6749
24107SOL     OW74637   8.832   2.657   9.556 -0.1029  0.7415  0.5402
24107SOL    HW174638   8.867   2.746   9.546  0.7653  0.4170  0.5970
24107SOL    HW274639   8.772   2.646   9.482  1.4130  0.6310 -0.7423
24108SOL     OW74640   8.300  10.280   9.507  0.2598  0.4238 -0.0193
24108SOL    HW174641   8.255  10.288   9.591 -1.1074  0.3626 -0.7121
24108SOL    HW274642   8.262  10.202   9.467  1.9411 -0.4000 -0.1047
24109SOL     OW74643   7.106   5.454   5.816  0.1921  0.1216 -0.9744
24109SOL    HW174644   7.081   5.467   5.908 -0.2009  1.0739 -1.2113
24109SOL    HW274645   7.055   5.518   5.767 -1.1926 -1.7621 -2.1258
24110SOL     OW74646   6.275   1.924   0.740  0.3297  0.0762 -0.2799
24110SOL    HW174647   6.293   1.909   0.647 -1.3412  0.3807 -0.6876
24110SOL    HW274648   6.239   1.841   0.771  1.3972 -0.2019  0.2512
24111SOL     OW74649   8.845   9.476   3.829 -0.7507  0.1386  0.1124
24111SOL    HW174650   8.908   9.439   3.891 -0.0066  0.1748 -0.6096
24111SOL    HW274651   8.886   9.557   3.799 -1.6016  0.6900  0.3860
24112SOL     OW74652   6.095   8.330   1.870 -0.0555  0.4970 -0.4924
24112SOL    HW174653   6.142   8.271   1.928  0.4437 -0.0821 -1.4536
24112SOL    HW274654   6.062   8.399   1.927  1.1427  0.4058  0.3448
24113SOL     OW74655   4.278   2.210   0.317 -0.1589  0.1624  0.2330
24113SOL    HW174656   4.236   2.151   0.256 -1.7834  2.1443 -0.6855
24113SOL    HW274657   4.354   2.245   0.269  0.3250 -0.5324  0.4808
24114SOL     OW74658   3.739   0.970  10.041 -0.5510 -0.3848 -0.1626
24114SOL    HW174659   3.713   1.061  10.060 -0.1409  0.7001 -4.0410
24114SOL    HW274660   3.660   0.919  10.059 -1.0643  0.7962  1.2496
24115SOL     OW74661  10.315   0.653   3.634  0.5525 -0.0282 -0.6782
24115SOL    HW174662  10.284   0.716   3.568 -0.1331  2.0878  1.5188
24115SOL    HW274663  10.409   0.665   3.636  0.2841  2.5769  1.1262
24116SOL     OW74664   0.973   2.272   9.349 -0.3554 -0.5344  0.3673
24116SOL    HW174665   0.958   2.366   9.345  1.3468 -0.2644 -0.7613
24116SOL    HW274666   1.016   2.259   9.434  0.8482 -0.0300 -0.1417
24117SOL     OW74667   4.759   9.405   7.723  0.4461 -0.5941 -0.0108
24117SOL    HW174668   4.680   9.404   7.777 -0.1760 -0.8235 -0.9017
24117SOL    HW274669   4.827   9.368   7.779  0.0627  0.1326  0.9652
24118SOL     OW74670   5.547   6.467   3.427  0.3355  0.7989  0.1241
24118SOL    HW174671   5.476   6.510   3.379  2.0832  1.6282 -1.9179
24118SOL    HW274672   5.582   6.403   3.365  2.2595  1.4388  0.4564
24119SOL     OW74673   7.112   3.818   9.805  0.0116  0.4398  0.3076
24119SOL    HW174674   7.051   3.830   9.878  0.2117 -2.2647  1.0361
24119SOL    HW274675   7.190   3.780   9.845  1.4404  1.9613 -0.8974
24120SOL     OW74676   9.457   7.883   2.666 -0.3522  0.0798 -0.7485
24120SOL    HW174677   9.493   7.820   2.728 -0.1192 -0.1249 -1.0885
24120SOL    HW274678   9.362   7.870   2.670 -0.3359  0.0518 -0.4543
24121SOL     OW74679   8.144   3.774   7.189 -0.2635  0.4028 -0.4471
24121SOL    HW174680   8.177   3.690   7.222  1.1122  1.1827  0.2550
24121SOL    HW274681   8.080   3.801   7.253 -0.8847 -0.2044 -0.7958
24122SOL     OW74682   8.236   1.787   8.769 -0.3161  0.3584  0.2227
24122SOL    HW174683   8.160   1.845   8.759 -0.2205  0.6407  1.0514
24122SOL    HW274684   8.289   1.829   8.837 -0.1659 -0.6300  0.7313
24123SOL     OW74685   5.267   4.020   5.293  0.3073 -0.1612 -0.0575
24123SOL    HW174686   5.287   4.052   5.381 -0.4690  0.7365 -0.1887
24123SOL    HW274687   5.352   3.995   5.257  0.8062  0.6859  0.4857
24124SOL     OW74688   3.233   0.859   9.707 -0.0352 -0.6353 -0.2351
24124SOL    HW174689   3.275   0.864   9.621  0.2365  0.1660 -0.0559
24124SOL    HW274690   3.164   0.925   9.704  0.6225  0.0999  0.5132
24125SOL     OW74691   7.036   7.767   2.086  0.6337 -0.5556 -0.1780
24125SOL    HW174692   7.024   7.789   2.178  2.9843 -2.1458  0.5934
24125SOL    HW274693   6.978   7.692   2.072  0.9932 -0.9327  0.3025
24126SOL     OW74694   8.046   0.232   1.498 -0.4041 -0.3118 -0.0659
24126SOL    HW174695   8.098   0.164   1.541  1.2023  1.3772  0.8027
24126SOL    HW274696   8.089   0.244   1.414  0.3239  0.6965  0.4281
24127SOL     OW74697   6.655   3.040   5.415 -0.6472 -0.6310  1.3424
24127SOL    HW174698   6.616   3.004   5.335  0.0581  0.8077  0.2991
24127SOL    HW274699   6.592   3.018   5.484 -1.5216 -1.4737  0.3222
24128SOL     OW74700   4.330   9.974   4.524  0.1855 -0.0981  0.0407
24128SOL    HW174701   4.282   9.954   4.443  0.8971 -0.5644 -0.2772
24128SOL    HW274702   4.304   9.904   4.585 -1.6155  1.1351  0.8013
24129SOL     OW74703   2.169   9.972  10.540 -0.4794 -0.2749 -0.4848
24129SOL    HW174704   2.251   9.972  10.491 -0.8953  0.0082 -1.1910
24129SOL    HW274705   2.171   9.891  10.590  0.8478  0.3617  0.5632
24130SOL     OW74706   9.026   0.083   6.633  0.1156 -0.4698  0.5680
24130SOL    HW174707   9.116   0.094   6.603  0.0741 -1.4063  0.0809
24130SOL    HW274708   9.026  -0.000   6.680 -0.6544 -0.8372 -0.0590
24131SOL     OW74709   9.334  10.309   2.365  0.2826  0.0107  0.1234
24131SOL    HW174710   9.291  10.281   2.285  1.1420  1.3014 -0.8332
24131SOL    HW274711   9.334  10.231   2.421 -0.7851 -0.7689 -0.9217
24132SOL     OW74712   2.312   4.563   2.542 -0.3813 -0.1027  0.3950
24132SOL    HW174713   2.336   4.596   2.628  0.0193 -0.9052  0.5951
24132SOL    HW274714   2.390   4.518   2.510 -0.4779  0.3051 -0.4537
24133SOL     OW74715   2.333   0.797   3.607  0.7089  0.1195  0.0394
24133SOL    HW174716   2.380   0.826   3.686 -1.4420  0.4228  1.2938
24133SOL    HW274717   2.306   0.707   3.628  1.1736 -0.2409 -0.8810
24134SOL     OW74718   1.465  10.018   5.411 -0.3076  0.3399  0.4860
24134SOL    HW174719   1.422  10.083   5.355 -1.7118 -0.0921  1.0187
24134SOL    HW274720   1.456   9.935   5.363  0.1313  0.2774  0.5078
24135SOL     OW74721   6.199   2.535   7.341  0.0328 -0.4456  0.3010
24135SOL    HW174722   6.154   2.482   7.275 -0.0648  0.2487 -0.2041
24135SOL    HW274723   6.129   2.578   7.389  0.1289  0.2184 -0.1357
24136SOL     OW74724   0.325   4.181   9.023  0.6423  0.3173  0.1285
24136SOL    HW174725   0.260   4.242   9.059 -2.1241 -1.4974 -1.3933
24136SOL    HW274726   0.355   4.131   9.099 -2.9659 -1.5323  0.5805
24137SOL     OW74727   2.454   6.111   0.863  0.6757  0.4380 -0.1706
24137SOL    HW174728   2.471   6.133   0.771  1.8745 -1.2244 -0.3798
24137SOL    HW274729   2.524   6.154   0.912 -1.4385  3.6433  0.3937
24138SOL     OW74730   8.653   4.562   4.853 -0.0764 -0.3031  0.3557
24138SOL    HW174731   8.665   4.607   4.770  0.2711 -1.0220  0.0130
24138SOL    HW274732   8.713   4.605   4.914 -0.8567  0.7033  0.4293
24139SOL     OW74733   5.576   9.608   3.015  0.2198 -0.4392  0.6401
24139SOL    HW174734   5.653   9.657   3.042  1.3190 -1.7931  0.0832
24139SOL    HW274735   5.534   9.582   3.097 -0.2579  1.1568  0.9469
24140SOL     OW74736   3.856   2.616   3.549 -0.0469 -0.1051  0.9511
24140SOL    HW174737   3.883   2.575   3.631  0.0030  0.3067  1.1472
24140SOL    HW274738   3.936   2.660   3.518 -0.5958  1.6793  1.8691
24141SOL     OW74739   4.811   4.057   0.411 -0.1066  0.6743  0.0126
24141SOL    HW174740   4.864   4.059   0.331 -1.1419  0.0046 -0.7045
24141SOL    HW274741   4.870   4.089   0.479  1.1330  0.2152 -0.8155
24142SOL     OW74742  10.517   5.800   3.211  0.1372  0.0903 -0.1225
24142SOL    HW174743  10.487   5.748   3.285 -1.3467  1.3115  0.1755
24142SOL    HW274744  10.462   5.773   3.138  0.6499 -0.0923 -0.4534
24143SOL     OW74745   5.769   1.000   6.995  0.2279  0.3436 -0.1177
24143SOL    HW174746   5.840   0.936   7.005 -0.6754 -0.9849 -1.6098
24143SOL    HW274747   5.705   0.976   7.062 -0.6312 -1.1502 -1.3884
24144SOL     OW74748   0.079  10.141   4.531 -0.1725  0.2866  0.0291
24144SOL    HW174749   0.104  10.050   4.547  1.5585  0.8951  1.0944
24144SOL    HW274750   0.159  10.182   4.497 -1.6993  0.8080 -3.3749
24145SOL     OW74751  10.129   0.427   8.404  0.7951  0.2054  0.1565
24145SOL    HW174752  10.060   0.362   8.391 -0.0476  1.5812 -3.6056
24145SOL    HW274753  10.083   0.509   8.419  1.6853  0.6856  0.3673
24146SOL     OW74754   8.512   8.629  10.344  0.5969  0.5803 -0.1870
24146SOL    HW174755   8.478   8.674  10.421  1.4193  1.0524 -0.0944
24146SOL    HW274756   8.605   8.615  10.362  0.4157 -0.9410 -0.3230
24147SOL     OW74757   1.213   6.588   4.382 -0.2251 -0.5071  0.2177
24147SOL    HW174758   1.124   6.570   4.412  0.1276 -0.4198  1.3959
24147SOL    HW274759   1.220   6.684   4.384 -0.1936 -0.5010 -0.1508
24148SOL     OW74760  10.229   3.654   3.222 -0.8333 -0.6874  0.2781
24148SOL    HW174761  10.154   3.652   3.282 -0.1640 -2.6531  1.1477
24148SOL    HW274762  10.260   3.744   3.224 -1.9713 -0.2961  1.4181
24149SOL     OW74763   4.256   1.228   7.602  0.2861 -0.0207  0.0808
24149SOL    HW174764   4.213   1.295   7.548  1.0228  1.1561  0.8868
24149SOL    HW274765   4.343   1.218   7.564  0.3445 -0.1550  0.2463
24150SOL     OW74766   7.151   4.307   3.422 -0.2051  0.3115  0.4566
24150SOL    HW174767   7.141   4.256   3.341 -1.9939 -0.5869  1.1855
24150SOL    HW274768   7.140   4.398   3.394 -1.1156 -0.0083 -0.2931
24151SOL     OW74769   2.747   8.826   2.129 -0.2720  0.2837 -1.3674
24151SOL    HW174770   2.830   8.867   2.106 -0.5828  1.4335 -0.5270
24151SOL    HW274771   2.755   8.806   2.222  0.1306 -2.2778 -1.8690
24152SOL     OW74772   9.175   6.956   7.789  0.3655  0.2710 -0.2602
24152SOL    HW174773   9.201   7.033   7.839 -0.0879 -0.6787  1.5017
24152SOL    HW274774   9.257   6.924   7.750  0.5988  1.4430 -0.7619
24153SOL     OW74775  10.128   6.630   7.828  0.2195 -0.5476 -0.4711
24153SOL    HW174776  10.121   6.696   7.759 -0.6118 -0.3827 -0.2397
24153SOL    HW274777  10.147   6.680   7.908  0.3698 -0.6647 -0.4320
24154SOL     OW74778   1.511   2.523   0.056  0.3973 -0.1338 -0.1360
24154SOL    HW174779   1.505   2.595  -0.007  0.2310 -0.1357 -0.1209
24154SOL    HW274780   1.590   2.475   0.029  1.8517  1.3696  1.2185
24155SOL     OW74781   3.539  10.090  10.289  0.4272  0.3411 -0.2554
24155SOL    HW174782   3.491  10.037  10.225 -0.8346  1.7961 -0.5895
24155SOL    HW274783   3.572  10.164  10.238  0.4763  0.8802  0.5386
24156SOL     OW74784   5.493   4.177   6.899  0.2291  0.2660  0.2905
24156SOL    HW174785   5.560   4.185   6.831  0.8696 -1.2157  0.7050
24156SOL    HW274786   5.527   4.110   6.958 -0.8342  0.7283  1.4703
24157SOL     OW74787   6.071   2.250   8.349 -0.2092  0.3979  0.1990
24157SOL    HW174788   5.987   2.213   8.322 -0.5246  0.3182  1.2210
24157SOL    HW274789   6.072   2.338   8.310 -0.9077  0.5169  0.4217
24158SOL     OW74790   2.858   9.785   9.626 -0.4800  0.2818  0.2199
24158SOL    HW174791   2.799   9.810   9.697 -1.3956 -1.9746  0.3614
24158SOL    HW274792   2.800   9.773   9.550  0.2363  0.9032 -0.4509
24159SOL     OW74793   0.933   1.181  10.108  0.0582  0.0522  0.3581
24159SOL    HW174794   0.957   1.123  10.180  0.8662  1.0711  0.9445
24159SOL    HW274795   0.844   1.156  10.085  0.3585 -1.3607  0.6314
24160SOL     OW74796  10.279   1.515   7.947  0.4013 -0.2678  0.8352
24160SOL    HW174797  10.250   1.604   7.969 -0.1798 -0.4230  0.7040
24160SOL    HW274798  10.270   1.466   8.028  2.9374  0.3147  1.5879
24161SOL     OW74799   9.553   9.068   2.149  0.3478 -0.2464 -0.2342
24161SOL    HW174800   9.557   9.048   2.056 -3.1974 -2.0949 -0.1533
24161SOL    HW274801   9.599   8.995   2.191  3.8117  1.6131 -0.4125
24162SOL     OW74802   4.059   6.471   3.014  0.1810  0.4745  0.4810
24162SOL    HW174803   3.995   6.492   2.945 -0.0807 -2.1246 -0.1868
24162SOL    HW274804   4.142   6.462   2.968  0.0675 -0.9575  0.5249
24163SOL     OW74805  10.535   4.488   5.182 -0.5327 -0.0376 -0.3850
24163SOL    HW174806  10.583   4.426   5.237  0.5116  1.5109  0.5358
24163SOL    HW274807  10.453   4.504   5.230 -0.7712 -0.6389 -0.5882
24164SOL     OW74808   7.036   0.993   3.628  0.1204 -0.4701  0.5543
24164SOL    HW174809   7.066   0.903   3.640  0.5873 -0.7922 -2.3205
24164SOL    HW274810   6.994   1.015   3.711  0.5376 -3.0994  1.5761
24165SOL     OW74811   6.165   1.139   8.025 -0.3063 -0.1939  0.2790
24165SOL    HW174812   6.183   1.207   7.960  0.4958  0.6245  1.3226
24165SOL    HW274813   6.076   1.111   8.006 -0.6696  1.1825 -0.1666
24166SOL     OW74814  10.477   1.316   1.847  0.2218 -0.2683 -0.0379
24166SOL    HW174815  10.546   1.370   1.809 -1.1178  2.5219  1.2222
24166SOL    HW274816  10.524   1.240   1.882  2.7459  1.6159  1.0135
24167SOL     OW74817   1.029   2.696  10.504  0.3350  0.1101 -0.3126
24167SOL    HW174818   1.028   2.753  10.427 -2.1009 -0.5749 -0.8758
24167SOL    HW274819   1.081   2.620  10.477 -0.5302 -0.1453 -1.3536
24168SOL     OW74820   3.899   1.785   7.740  0.4510 -0.0764  0.2966
24168SOL    HW174821   3.834   1.826   7.797 -0.3898 -0.8080 -0.1025
24168SOL    HW274822   3.901   1.840   7.662  0.7543  0.2822  0.5548
24169SOL     OW74823   6.030   3.467   0.830 -0.3592 -0.4587  0.5049
24169SOL    HW174824   5.981   3.532   0.881 -0.4744  0.2327 -0.4529
24169SOL    HW274825   6.013   3.491   0.738 -1.0068 -2.2977  0.1148
24170SOL     OW74826  10.450   7.866   6.516  0.5923 -0.0870  0.3938
24170SOL    HW174827  10.411   7.912   6.590 -1.2475 -0.8452 -0.0363
24170SOL    HW274828  10.398   7.894   6.440  0.7943 -1.2250 -0.1940
24171SOL     OW74829   6.911   8.755   7.048  0.2762 -0.3416 -0.1351
24171SOL    HW174830   6.831   8.807   7.043 -1.6108 -3.0857 -1.9475
24171SOL    HW274831   6.982   8.818   7.051 -1.8702  2.2440 -0.5016
24172SOL     OW74832   1.103   8.666   5.509 -0.2169  0.3421  0.0744
24172SOL    HW174833   1.044   8.590   5.511  0.4467 -0.2124 -0.6775
24172SOL    HW274834   1.146   8.666   5.594  0.6836 -0.8885 -0.3483
24173SOL     OW74835   6.217   2.814   1.875 -0.3029 -0.4390  0.0618
24173SOL    HW174836   6.174   2.761   1.808 -0.7517 -0.4545  0.3591
24173SOL    HW274837   6.300   2.770   1.892 -0.3040 -0.5807 -0.2927
24174SOL     OW74838   1.742   0.972   4.165 -0.1048  0.1478  0.3647
24174SOL    HW174839   1.729   0.973   4.259 -0.7028 -0.5973  0.2974
24174SOL    HW274840   1.806   0.902   4.150  0.2140  0.4624  0.2393
24175SOL     OW74841   0.999   1.053   5.870 -0.2254  0.2939 -0.4638
24175SOL    HW174842   1.023   0.979   5.926 -1.8046 -0.2504 -0.4458
24175SOL    HW274843   1.072   1.115   5.878  0.1188 -0.2905  1.2593
24176SOL     OW74844   7.796   6.770   6.264 -0.0062 -0.9270  0.0196
24176SOL    HW174845   7.767   6.683   6.237 -2.2393 -0.3846  0.4181
24176SOL    HW274846   7.873   6.754   6.318 -0.1125 -2.6132 -0.2664
24177SOL     OW74847   2.144   7.106   2.229 -0.3675  0.1736 -0.1536
24177SOL    HW174848   2.171   7.104   2.321 -1.1997  0.8063  0.1173
24177SOL    HW274849   2.205   7.167   2.187 -1.0595  1.2469  0.3592
24178SOL     OW74850   8.486   9.767   8.070  0.3083 -0.2993  0.0393
24178SOL    HW174851   8.412   9.732   8.119  0.1242  1.2273  0.9124
24178SOL    HW274852   8.447   9.830   8.009  0.7739 -0.4234 -0.3990
24179SOL     OW74853   7.195   9.310   1.929  0.4975 -0.0333 -0.0547
24179SOL    HW174854   7.138   9.232   1.932  0.8884 -0.3078  0.3526
24179SOL    HW274855   7.134   9.384   1.936  0.1096 -0.2967 -0.5968
24180SOL     OW74856   1.155   4.083   0.143 -0.1299  0.3493  0.1226
24180SOL    HW174857   1.209   4.122   0.074  0.3426 -1.7651 -0.7688
24180SOL    HW274858   1.066   4.114   0.124 -0.1002 -0.6069 -1.7992
24181SOL     OW74859   6.103   4.826   2.090 -0.1828  0.5266 -0.0715
24181SOL    HW174860   6.010   4.845   2.078 -0.1225 -0.2863 -2.1482
24181SOL    HW274861   6.105   4.741   2.133 -0.3795  1.2638  1.4569
24182SOL     OW74862   8.044   4.057   2.019 -0.0762  0.0275  0.2523
24182SOL    HW174863   8.017   3.966   2.010  1.0412 -0.4790  1.6042
24182SOL    HW274864   7.966   4.108   1.996 -1.6071 -1.3113  2.1376
24183SOL     OW74865   5.328   6.038   7.319  0.2514  0.0221  0.0386
24183SOL    HW174866   5.255   6.031   7.257  0.6156  1.1094 -0.5348
24183SOL    HW274867   5.291   6.008   7.403 -0.5716 -0.3590 -0.4450
24184SOL     OW74868   2.598   1.731   2.027 -0.0173 -0.1355  0.6433
24184SOL    HW174869   2.527   1.700   1.972 -0.2489 -0.5949  1.1903
24184SOL    HW274870   2.676   1.722   1.973  0.3560 -4.1491  1.5239
24185SOL     OW74871   2.556   0.113   0.190 -0.1212  0.0329  0.4583
24185SOL    HW174872   2.619   0.042   0.180 -1.1474 -0.9794  0.8513
24185SOL    HW274873   2.513   0.119   0.105  0.5104  0.7377  0.1833
24186SOL     OW74874   5.931   9.325   1.817 -0.2945  0.5165  0.3926
24186SOL    HW174875   5.882   9.325   1.735  0.3504  1.2658 -0.0119
24186SOL    HW274876   5.865   9.322   1.885 -0.9819  2.3403 -0.1192
24187SOL     OW74877   3.488   0.018   2.877  0.1879  0.4865  0.1579
24187SOL    HW174878   3.438   0.092   2.913  0.6468  1.0433 -0.3253
24187SOL    HW274879   3.541   0.057   2.808  0.6730 -0.2476  0.1102
24188SOL     OW74880  10.046  10.481   1.215 -0.0311 -0.3464 -0.4319
24188SOL    HW174881  10.036  10.404   1.271 -1.2054  0.6016  0.7056
24188SOL    HW274882  10.029  10.555   1.272  2.3350  0.8822 -1.1727
24189SOL     OW74883   9.190   9.998   9.071  0.4759 -0.3542 -0.2487
24189SOL    HW174884   9.253   9.930   9.095 -1.3004 -1.5076  1.5167
24189SOL    HW274885   9.204  10.013   8.977  2.0680 -1.9061 -0.2995
24190SOL     OW74886   0.308   0.355   4.600  0.5807 -0.1653  0.2810
24190SOL    HW174887   0.349   0.424   4.548  2.9561 -2.8453 -1.7925
24190SOL    HW274888   0.363   0.348   4.678 -0.1269  0.7583  0.8700
24191SOL     OW74889   1.996   7.488   8.609  0.4226 -0.1621 -0.0235
24191SOL    HW174890   1.973   7.557   8.672 -0.4378 -0.4320 -0.0314
24191SOL    HW274891   1.999   7.408   8.661 -0.8277 -0.4754 -0.4090
24192SOL     OW74892   0.074   2.244   8.138 -0.0663 -0.6540  0.3762
24192SOL    HW174893   0.153   2.237   8.084 -0.0431  0.8970  0.1521
24192SOL    HW274894   0.007   2.279   8.078 -0.6243 -0.9187  0.8392
24193SOL     OW74895   2.008   5.734   6.042  0.2562  0.4490  0.8878
24193SOL    HW174896   2.048   5.818   6.018 -2.9726  1.9939  0.3282
24193SOL    HW274897   2.062   5.701   6.114  2.3675  2.3610  0.2867
24194SOL     OW74898  10.484   6.514   8.641  0.3296 -0.3739  0.1458
24194SOL    HW174899  10.574   6.490   8.663  1.1076  0.2568 -2.0010
24194SOL    HW274900  10.441   6.528   8.725  2.0442 -1.3356  1.2480
24195SOL     OW74901   9.570   7.194   4.850  0.7602  0.3620  0.4770
24195SOL    HW174902   9.627   7.166   4.779  2.4269  1.1571  1.4485
24195SOL    HW274903   9.544   7.113   4.893  1.0533 -0.0252 -0.0631
24196SOL     OW74904   4.715   0.013   6.186 -0.2538  0.0343 -0.2047
24196SOL    HW174905   4.655  -0.031   6.246 -1.6813  0.4961 -1.2310
24196SOL    HW274906   4.738  -0.054   6.121  0.5660 -0.2159  0.3377
24197SOL     OW74907   1.111   3.582   7.374  0.6694  0.1421 -0.0691
24197SOL    HW174908   1.088   3.588   7.282 -0.3310 -0.1160  0.1540
24197SOL    HW274909   1.151   3.496   7.384 -0.6001 -0.4541  0.0181
24198SOL     OW74910   2.848   2.334  10.065 -0.9994  0.2341  0.0059
24198SOL    HW174911   2.789   2.364  10.134 -0.6190  2.7345 -0.6593
24198SOL    HW274912   2.926   2.303  10.112 -1.7033 -0.4088  0.7754
24199SOL     OW74913   3.341   2.727   4.882 -0.0426 -0.0013 -0.1288
24199SOL    HW174914   3.327   2.766   4.795  0.5451 -0.3949 -0.4149
24199SOL    HW274915   3.436   2.711   4.885 -0.1463 -0.5610  0.3351
24200SOL     OW74916   4.490   5.141   4.175  0.8534  0.0833  0.1107
24200SOL    HW174917   4.431   5.092   4.118  1.6911  0.5938 -1.2269
24200SOL    HW274918   4.433   5.201   4.223 -0.0124 -1.1939  0.7405
24201SOL     OW74919   0.766  10.539   2.104  0.0310 -0.1644 -0.5881
24201SOL    HW174920   0.767  10.499   2.191 -0.1118  0.9160 -0.0678
24201SOL    HW274921   0.722  10.623   2.117 -1.5983 -0.7358 -2.0576
24202SOL     OW74922   8.186   4.848  10.108  0.3197  0.4135  0.2284
24202SOL    HW174923   8.168   4.858  10.201  0.4045  1.4271  0.1434
24202SOL    HW274924   8.189   4.753  10.094 -0.3217  0.2491  1.1326
24203SOL     OW74925   7.868   4.094   6.572  0.0952  0.2884 -0.6846
24203SOL    HW174926   7.815   4.023   6.536 -0.3272 -0.0419  0.5780
24203SOL    HW274927   7.958   4.068   6.551 -0.1343  0.1976 -1.6456
24204SOL     OW74928   2.759   5.730   5.017  0.2199  0.3319 -0.2760
24204SOL    HW174929   2.668   5.758   5.010  0.2654  0.3241 -0.9523
24204SOL    HW274930   2.766   5.696   5.106 -0.7113 -0.6060 -0.5314
24205SOL     OW74931   9.292   1.474   6.696 -0.1099 -0.0191 -0.2437
24205SOL    HW174932   9.232   1.401   6.710  0.2305 -0.3058 -0.2677
24205SOL    HW274933   9.343   1.450   6.619  1.5723 -0.8193  1.0538
24206SOL     OW74934   5.796   8.738   6.873 -0.0699  0.4701 -0.2462
24206SOL    HW174935   5.869   8.687   6.909  0.8932  1.9920  0.1029
24206SOL    HW274936   5.728   8.674   6.853 -0.1947 -0.6309  3.1509
24207SOL     OW74937   2.860   6.033   8.918  0.5341  0.2023  0.1452
24207SOL    HW174938   2.801   6.090   8.868 -0.1700 -0.9642 -0.3819
24207SOL    HW274939   2.849   6.060   9.009 -1.8266 -0.8608  0.2290
24208SOL     OW74940   0.891   7.298   1.138  0.2573  0.2947  0.0706
24208SOL    HW174941   0.878   7.385   1.177  0.8035  0.5004 -0.2031
24208SOL    HW274942   0.824   7.243   1.179 -0.0594  0.8348  0.2800
24209SOL     OW74943   0.100   9.886   4.590  0.4817  0.3009 -0.7965
24209SOL    HW174944   0.055   9.832   4.525  0.0883 -1.1985  0.6592
24209SOL    HW274945   0.037   9.895   4.661  2.0131 -0.8596  0.7825
24210SOL     OW74946   8.668   5.425   3.636  0.2324 -0.3210 -0.0670
24210SOL    HW174947   8.669   5.387   3.723 -1.1855  1.7224  0.9345
24210SOL    HW274948   8.664   5.350   3.577  2.1273 -1.7741  1.5429
24211SOL     OW74949   3.957   9.143   0.376 -0.7139 -0.5264 -0.2392
24211SOL    HW174950   3.941   9.062   0.327  0.9032 -1.2389  0.3505
24211SOL    HW274951   4.024   9.119   0.440  0.7197  1.5709 -0.8695
24212SOL     OW74952   0.944   4.467   7.933 -0.2944 -0.1204 -0.1435
24212SOL    HW174953   0.972   4.458   8.024  1.8209 -1.9240 -0.8582
24212SOL    HW274954   0.910   4.556   7.926  1.9901  1.0130  1.7966
24213SOL     OW74955   0.388   6.420   9.081  0.3498  0.2023 -0.0770
24213SOL    HW174956   0.460   6.414   9.018 -0.1753  0.6064 -0.7336
24213SOL    HW274957   0.428   6.454   9.160  1.1599 -0.9656  0.0410
24214SOL     OW74958   2.914   9.331   5.228  0.0098  0.2523 -0.3581
24214SOL    HW174959   2.873   9.248   5.253  2.8852 -0.9003  0.9317
24214SOL    HW274960   2.868   9.358   5.149 -2.2169 -1.6055  0.2065
24215SOL     OW74961   9.753   0.700   7.378 -0.1452  0.4431 -0.3357
24215SOL    HW174962   9.775   0.787   7.410  1.6629 -0.6940  1.7826
24215SOL    HW274963   9.735   0.649   7.457 -0.6820 -1.2473 -1.4871
24216SOL     OW74964   9.616   5.065   5.254 -0.1721 -0.3389 -0.2324
24216SOL    HW174965   9.556   4.993   5.236  1.7178 -1.7668 -1.1412
24216SOL    HW274966   9.664   5.038   5.332 -0.7141  0.8143  0.5256
24217SOL     OW74967   6.280   0.653   0.172  0.2820  0.0146  0.1505
24217SOL    HW174968   6.196   0.607   0.167  0.5865 -0.7028  1.3368
24217SOL    HW274969   6.304   0.650   0.265  1.0316  1.2887  0.0295
24218SOL     OW74970   6.734   3.030   6.722  0.4675 -0.1855 -0.1065
24218SOL    HW174971   6.718   2.938   6.744  1.2715 -0.1471  0.6515
24218SOL    HW274972   6.799   3.027   6.652  1.3085 -0.1681  0.6638
24219SOL     OW74973   8.813   0.415   1.716 -0.4929 -0.4153 -0.2985
24219SOL    HW174974   8.764   0.465   1.650 -1.9328 -1.6822 -0.2637
24219SOL    HW274975   8.879   0.367   1.665  0.6983  1.2339 -0.3629
24220SOL     OW74976   4.157   7.973   4.537 -0.5375 -0.9086  0.1202
24220SOL    HW174977   4.094   7.988   4.466  0.8871 -0.5961 -1.1228
24220SOL    HW274978   4.231   8.030   4.516 -0.7287  0.4633  2.7648
24221SOL     OW74979   0.015   7.100   2.023 -0.5096 -0.2269  0.2228
24221SOL    HW174980  -0.002   7.194   2.033  1.2339  0.3440 -1.4974
24221SOL    HW274981   0.037   7.069   2.111 -1.3011  0.9112  0.8456
24222SOL     OW74982   0.778   2.834   2.283  0.8982 -0.6394  0.2488
24222SOL    HW174983   0.683   2.825   2.282  0.8103  0.1337 -1.9208
24222SOL    HW274984   0.810   2.747   2.307 -0.3265 -1.1991 -0.0860
24223SOL     OW74985   6.831   1.005   5.822  0.1392 -0.0610 -0.6016
24223SOL    HW174986   6.880   0.991   5.903 -0.9924 -0.6508 -0.0058
24223SOL    HW274987   6.888   1.061   5.769  0.5025  1.1253  0.9672
24224SOL     OW74988   2.046   0.658   1.257  0.2065  0.3547 -0.5730
24224SOL    HW174989   2.060   0.733   1.314  1.5794  0.2873 -0.7738
24224SOL    HW274990   1.965   0.677   1.210 -0.9843  0.3747  1.4121
24225SOL     OW74991  10.193   4.142   8.719  0.3846 -0.1530 -0.7812
24225SOL    HW174992  10.239   4.089   8.785 -0.9452 -0.8876 -0.4082
24225SOL    HW274993  10.193   4.087   8.641 -2.1033 -1.3464 -0.0451
24226SOL     OW74994  10.399   6.213   0.426 -0.0966 -0.4991 -0.6226
24226SOL    HW174995  10.429   6.130   0.390 -2.5455 -0.0759 -4.2147
24226SOL    HW274996  10.304   6.202   0.436 -0.7836  2.2245 -2.7868
24227SOL     OW74997   6.404   3.582   1.475 -0.2910 -0.1557 -0.3558
24227SOL    HW174998   6.417   3.677   1.482 -1.5570  0.0469 -0.4159
24227SOL    HW274999   6.365   3.557   1.559  0.4886 -0.7132 -0.1561
24228SOL     OW75000   5.014   6.265  10.566  0.1420 -0.1294 -0.6741
24228SOL    HW175001   5.069   6.258  10.489  0.9272  0.9619 -0.2349
24228SOL    HW275002   5.050   6.338  10.616  0.9176 -1.9977  1.7398
24229SOL     OW75003   8.125   1.652   2.760  0.0882 -0.0515 -0.1984
24229SOL    HW175004   8.135   1.560   2.735  0.6115  0.2509 -1.1732
24229SOL    HW275005   8.204   1.673   2.809  0.1284 -0.0347 -0.2691
24230SOL     OW75006   0.122   7.320   9.614 -0.1953  0.2482  0.2630
24230SOL    HW175007   0.027   7.317   9.610 -0.1820 -0.7906  0.4841
24230SOL    HW275008   0.141   7.397   9.668 -0.9734 -0.6032  1.8226
24231SOL     OW75009   3.567   5.413   4.480  0.1481  0.0332  0.1138
24231SOL    HW175010   3.524   5.355   4.415  0.0835 -0.2781  0.4302
24231SOL    HW275011   3.595   5.489   4.429  1.6685 -0.9757 -0.6355
24232SOL     OW75012   8.010   0.695   9.211 -0.2747 -0.3504  0.1671
24232SOL    HW175013   7.987   0.675   9.120 -0.0204 -0.5382  0.1430
24232SOL    HW275014   8.100   0.727   9.206 -0.4537  0.1761  0.2847
24233SOL     OW75015   2.913   1.891   0.215  0.4438 -0.1274  0.1987
24233SOL    HW175016   2.855   1.918   0.287 -0.0381 -3.7896  1.3589
24233SOL    HW275017   2.975   1.964   0.207 -1.2616  1.7225  2.3045
24234SOL     OW75018  10.308   0.082   1.370 -0.3865 -0.1306 -0.5150
24234SOL    HW175019  10.341   0.091   1.281  1.7480 -0.7029  0.1407
24234SOL    HW275020  10.387   0.076   1.424 -1.6141 -0.1923  1.3762
24235SOL     OW75021   2.260   8.866   8.407 -0.1050  0.2722 -0.0209
24235SOL    HW175022   2.351   8.874   8.376 -0.2906  2.0671 -0.1825
24235SOL    HW275023   2.216   8.944   8.373 -1.1185  0.6860  2.0906
24236SOL     OW75024   8.293   0.397   6.944 -0.2031 -0.7548 -0.9676
24236SOL    HW175025   8.246   0.423   7.023 -0.7304  0.7149 -1.7497
24236SOL    HW275026   8.385   0.393   6.972 -0.5271 -1.6161  0.0456
24237SOL     OW75027   0.442   5.900   3.074  0.1106  0.6402  0.0082
24237SOL    HW175028   0.433   5.807   3.052  1.4605  0.9131 -1.8762
24237SOL    HW275029   0.357   5.924   3.113 -1.6241 -0.5032 -2.7791
24238SOL     OW75030   6.682   2.562   1.523 -0.1577 -0.5729  0.1428
24238SOL    HW175031   6.656   2.653   1.510 -1.8325 -1.0201  0.0903
24238SOL    HW275032   6.769   2.556   1.485  0.7785  1.4197  1.8206
24239SOL     OW75033   5.834   1.806   3.446  0.4816  0.5733 -0.2290
24239SOL    HW175034   5.874   1.799   3.533 -1.9531 -1.5843  0.8556
24239SOL    HW275035   5.898   1.765   3.387  1.3802  0.3747  0.8531
24240SOL     OW75036   6.508   9.130   4.125 -0.0599  0.0560  0.2892
24240SOL    HW175037   6.434   9.117   4.066  0.0520  0.1890  0.1169
24240SOL    HW275038   6.507   9.053   4.182 -0.3462  0.0718  0.3056
24241SOL     OW75039   7.202  10.488   2.480 -0.4353  0.3220 -0.0810
24241SOL    HW175040   7.292  10.518   2.494 -0.2594 -0.2237 -0.0126
24241SOL    HW275041   7.177  10.526   2.395  1.2374 -2.6262 -2.0647
24242SOL     OW75042   1.821  10.497   9.560  0.4657  0.2768 -0.4147
24242SOL    HW175043   1.817  10.519   9.467 -0.7902 -0.6766 -0.6147
24242SOL    HW275044   1.743  10.444   9.575  1.6371 -1.2010  0.7562
24243SOL     OW75045   1.153   5.346   8.688 -0.3626  0.4211  0.0812
24243SOL    HW175046   1.166   5.302   8.772  1.6193  2.8307  1.1669
24243SOL    HW275047   1.168   5.439   8.707  0.2054  1.0587 -2.9378
24244SOL     OW75048   2.444   4.805   4.745  0.4807 -0.0785  0.2616
24244SOL    HW175049   2.371   4.765   4.697 -0.3039  2.5837 -0.9784
24244SOL    HW275050   2.406   4.883   4.785  2.4937  1.0588  0.0723
24245SOL     OW75051   4.886   7.943   4.907  0.5309 -0.3112 -0.2196
24245SOL    HW175052   4.876   7.988   4.823  0.9153  1.2584  0.5244
24245SOL    HW275053   4.867   7.851   4.888  1.0281 -0.0665 -2.1013
24246SOL     OW75054   3.685   4.758   6.664 -0.4740 -0.2551  0.3613
24246SOL    HW175055   3.777   4.734   6.654  0.0302  0.9067  1.8183
24246SOL    HW275056   3.663   4.733   6.753 -1.1697  0.6831  0.4741
24247SOL     OW75057   1.853   4.633   5.895 -0.5348  0.0380  0.2688
24247SOL    HW175058   1.889   4.697   5.956  0.1566  0.4044 -0.5128
24247SOL    HW275059   1.900   4.552   5.917  0.9572  0.5514 -0.8635
24248SOL     OW75060   8.158   9.944   9.915 -0.5267  0.3001 -0.3123
24248SOL    HW175061   8.138   9.998   9.991  0.2229 -0.0584  0.1540
24248SOL    HW275062   8.242   9.904   9.936 -0.3667  0.1022 -1.2803
24249SOL     OW75063   9.178   9.593   0.792 -0.1614 -0.1446 -0.0243
24249SOL    HW175064   9.185   9.544   0.710  0.7774  1.3808 -0.9012
24249SOL    HW275065   9.257   9.570   0.841 -1.1191 -1.7167  0.9022
24250SOL     OW75066   1.864   7.301   7.412 -0.1290  0.1453 -0.3293
24250SOL    HW175067   1.807   7.332   7.483  0.8336  0.0147  0.5155
24250SOL    HW275068   1.893   7.214   7.440  1.1413  0.5478 -0.3434
24251SOL     OW75069   1.966   2.644   2.978  0.1663  0.6753  0.3419
24251SOL    HW175070   2.060   2.638   2.959  0.6068  1.2693  2.1514
24251SOL    HW275071   1.925   2.655   2.892  1.6702 -0.3137 -0.5538
24252SOL     OW75072   1.469   1.814   9.029 -0.5054  0.2973 -0.1175
24252SOL    HW175073   1.522   1.845   8.956 -1.5149  1.2777 -0.4636
24252SOL    HW275074   1.446   1.724   9.005  0.7101 -0.0396 -0.1012
24253SOL     OW75075   1.979   0.163   1.532  0.1200 -0.2618  0.2321
24253SOL    HW175076   1.958   0.160   1.625  1.7936  0.3812  0.6825
24253SOL    HW275077   1.999   0.256   1.515  2.3023 -0.7307 -0.1165
24254SOL     OW75078   1.452   6.226   7.901 -0.1535 -0.0082 -0.0807
24254SOL    HW175079   1.503   6.222   7.820  0.3197 -0.1736  0.2235
24254SOL    HW275080   1.390   6.153   7.894  1.0209 -1.0978  0.4545
24255SOL     OW75081   0.514   8.318   3.754  0.0356  0.2553  0.9705
24255SOL    HW175082   0.566   8.253   3.708 -1.7443 -0.3350 -0.2852
24255SOL    HW275083   0.511   8.287   3.844 -1.1243 -1.6727  0.3205
24256SOL     OW75084   4.505   4.847   5.085 -0.0448  0.1005  0.0457
24256SOL    HW175085   4.477   4.845   4.993 -3.0093 -0.2639  0.8401
24256SOL    HW275086   4.599   4.860   5.081 -0.1854  1.0568 -3.0360
24257SOL     OW75087   9.510   5.441   2.960  0.0848 -0.0548  0.1258
24257SOL    HW175088   9.601   5.412   2.967 -0.5214 -2.5131 -0.9995
24257SOL    HW275089   9.515   5.536   2.964  2.5945 -0.1374  1.0640
24258SOL     OW75090   3.178   5.164  10.331 -0.3457  0.0338 -0.0090
24258SOL    HW175091   3.160   5.156  10.237  1.2208  1.8316 -0.5303
24258SOL    HW275092   3.095   5.191  10.370 -0.8894 -0.2592 -0.9484
24259SOL     OW75093   9.067   6.884   4.285 -0.2250  0.0062 -0.3870
24259SOL    HW175094   9.124   6.897   4.361 -2.8208 -1.3003  1.9858
24259SOL    HW275095   8.978   6.886   4.322 -1.6700  0.3133 -3.6016
24260SOL     OW75096   9.677   5.817   2.638 -0.1808 -0.1044 -0.5699
24260SOL    HW175097   9.695   5.863   2.557  0.6742 -0.3912 -0.5502
24260SOL    HW275098   9.741   5.851   2.700 -0.0032 -0.8043 -0.3637
24261SOL     OW75099   2.570   6.536   4.141 -0.0906  0.2561 -0.1808
24261SOL    HW175100   2.595   6.593   4.069  1.2360 -1.4190 -1.1395
24261SOL    HW275101   2.653   6.510   4.181 -0.6920 -0.4358  0.6672
24262SOL     OW75102   3.997   2.323   0.486  0.0839  0.2620  0.0606
24262SOL    HW175103   4.077   2.291   0.527  1.1056  1.2517 -1.0669
24262SOL    HW275104   4.027   2.393   0.428 -1.7355  1.3960  0.4186
24263SOL     OW75105   3.715   4.897   1.207 -0.1060 -0.2559 -0.0157
24263SOL    HW175106   3.666   4.817   1.186  0.7293 -0.2110 -2.3871
24263SOL    HW275107   3.790   4.895   1.148  0.7555  1.5505  0.9542
24264SOL     OW75108   4.822   9.580   1.789  0.1610 -0.0296 -0.1069
24264SOL    HW175109   4.833   9.663   1.835 -0.1665  1.5897 -2.7492
24264SOL    HW275110   4.912   9.548   1.776  0.2650 -0.4197  1.3687
24265SOL     OW75111   8.094   7.409   4.514 -0.1876 -0.2517  0.7010
24265SOL    HW175112   8.125   7.473   4.450  1.7492  0.8877  2.6137
24265SOL    HW275113   8.103   7.324   4.470  1.7200  0.4199 -0.3309
24266SOL     OW75114  10.006   9.952   5.157 -0.0180  0.5448 -0.8280
24266SOL    HW175115   9.924   9.977   5.200  0.7035 -1.2760  1.8836
24266SOL    HW275116  10.042  10.034   5.123 -1.6448  1.7998  0.3477
24267SOL     OW75117   3.318   9.602   6.069  0.2083  0.6277  0.4745
24267SOL    HW175118   3.331   9.697   6.075  1.0832  0.7753 -2.4314
24267SOL    HW275119   3.225   9.591   6.052 -0.1130  0.8260  1.9187
24268SOL     OW75120   2.464   1.808   4.077  0.3959  0.3797  0.9465
24268SOL    HW175121   2.549   1.820   4.035 -0.3882  1.7104 -0.3734
24268SOL    HW275122   2.465   1.870   4.150  0.2994  0.9464  0.4777
24269SOL     OW75123  10.467  10.376   1.860  0.2094 -0.6059 -0.2595
24269SOL    HW175124  10.476  10.416   1.946 -1.9324  1.1532 -0.7574
24269SOL    HW275125  10.478  10.282   1.876  3.3753 -0.0827  1.2937
24270SOL     OW75126   1.945   9.202   1.671  0.2842 -0.5748  0.3592
24270SOL    HW175127   1.865   9.152   1.687  0.7119 -1.5243 -0.3675
24270SOL    HW275128   1.931   9.240   1.584  1.1775 -1.9249 -0.4193
24271SOL     OW75129   9.476  10.383   0.021 -0.1036  0.2049  0.6367
24271SOL    HW175130   9.530  10.320  -0.026 -0.2279 -1.2110  2.3019
24271SOL    HW275131   9.452  10.448  -0.045 -0.5652 -1.8550 -1.3545
24272SOL     OW75132   0.370   8.684   0.341  0.4021  0.1650  0.2788
24272SOL    HW175133   0.331   8.744   0.404 -0.4411  1.2555 -1.2296
24272SOL    HW275134   0.299   8.623   0.320  1.1726 -1.2697  1.6015
24273SOL     OW75135   3.969   1.292   6.958  0.5315 -0.0407 -0.0150
24273SOL    HW175136   3.903   1.247   7.009 -1.2408 -0.4812 -2.4933
24273SOL    HW275137   4.011   1.223   6.906 -1.4917  0.7970 -3.0682
24274SOL     OW75138   0.785   6.378   4.805  0.0858  0.2008  0.0330
24274SOL    HW175139   0.870   6.366   4.763  0.7113 -1.7598  1.7040
24274SOL    HW275140   0.780   6.471   4.824  2.9771  0.0841  2.0224
24275SOL     OW75141   3.771   5.586  10.185 -0.3052 -0.3451  0.0385
24275SOL    HW175142   3.765   5.644  10.109  0.7084  1.0199  0.9526
24275SOL    HW275143   3.680   5.568  10.209 -0.6614  1.6969  0.3298
24276SOL     OW75144   5.205   3.794   0.481  0.5213 -0.4882  0.0357
24276SOL    HW175145   5.278   3.830   0.531  1.1070 -3.5718  1.6315
24276SOL    HW275146   5.127   3.821   0.530  0.6265  1.3250 -0.6994
24277SOL     OW75147   8.276   4.945   7.110 -0.2993 -0.1160 -0.2708
24277SOL    HW175148   8.234   4.968   7.193  3.1910 -0.4561  1.7913
24277SOL    HW275149   8.294   4.851   7.118  1.2815  0.1130 -0.7706
24278SOL     OW75150   6.167   3.693   9.649 -0.2212 -0.7539 -0.5218
24278SOL    HW175151   6.148   3.735   9.565  0.2388  0.5836  0.0193
24278SOL    HW275152   6.123   3.608   9.644 -2.2233  0.2579 -1.1930
24279SOL     OW75153   0.272   4.874   9.000  0.1756  0.4570  0.0019
24279SOL    HW175154   0.192   4.927   9.000  1.5904  2.7190  0.9565
24279SOL    HW275155   0.310   4.887   8.914 -0.8552 -1.3592 -0.7946
24280SOL     OW75156   9.173   5.960   7.482 -0.0578  0.6498 -0.3104
24280SOL    HW175157   9.123   6.041   7.474 -3.4645 -1.1860  0.3709
24280SOL    HW275158   9.187   5.931   7.392 -3.4707 -0.4676 -0.6207
24281SOL     OW75159   2.363  10.324   8.959 -0.1949 -0.2171 -0.1211
24281SOL    HW175160   2.401  10.325   9.047 -0.5701  0.3593  0.0455
24281SOL    HW275161   2.278  10.282   8.971 -0.4988  0.3927 -0.0890
24282SOL     OW75162   3.520   6.329   6.899 -0.1359  0.1746 -0.1504
24282SOL    HW175163   3.470   6.407   6.873 -0.9328 -0.2894 -0.0686
24282SOL    HW275164   3.598   6.363   6.942 -1.3903  0.9635  1.6425
24283SOL     OW75165   5.603   6.931   2.520  0.7426 -0.3914  0.0500
24283SOL    HW175166   5.560   6.939   2.434 -0.1845 -1.6298  0.3772
24283SOL    HW275167   5.626   7.021   2.543  2.5995 -0.1881 -2.2672
24284SOL     OW75168   4.222   2.148   5.299 -0.8663  0.3305 -0.1700
24284SOL    HW175169   4.215   2.198   5.381 -0.3308  0.3492 -0.1324
24284SOL    HW275170   4.131   2.130   5.274 -1.1649  2.4929 -0.9036
24285SOL     OW75171   0.833   0.906   8.264  0.0372  0.5831 -0.2898
24285SOL    HW175172   0.881   0.891   8.345 -0.8863 -0.4761  0.0895
24285SOL    HW275173   0.859   0.994   8.236  0.0428  1.1477  1.3732
24286SOL     OW75174   6.384   3.131  10.199 -0.0309  0.0332 -0.4610
24286SOL    HW175175   6.308   3.155  10.146  0.4288 -1.4044 -1.8388
24286SOL    HW275176   6.356   3.053  10.246  0.8066 -0.9495 -1.5495
24287SOL     OW75177   8.188   5.715   5.268  0.0283 -0.2758 -0.3962
24287SOL    HW175178   8.256   5.737   5.332 -1.5210  1.8281  0.6335
24287SOL    HW275179   8.169   5.797   5.224 -0.6469 -1.2010 -1.8870
24288SOL     OW75180   7.574   0.496   5.459 -0.2637  0.6638 -0.1948
24288SOL    HW175181   7.498   0.509   5.402 -0.8413  0.9177  0.6137
24288SOL    HW275182   7.537   0.496   5.547  0.5181 -0.5033  0.1477
24289SOL     OW75183   2.934   6.675   8.658 -0.3232  0.3077 -0.1663
24289SOL    HW175184   2.968   6.739   8.721 -0.9673  1.4875 -0.9959
24289SOL    HW275185   2.922   6.595   8.710  1.6849  0.4563  0.6078
24290SOL     OW75186   4.471   1.652   6.946 -0.2093  0.1359 -0.1870
24290SOL    HW175187   4.461   1.705   7.024 -0.2957 -1.0725  0.6558
24290SOL    HW275188   4.561   1.668   6.917  0.0315  0.0987  0.5386
24291SOL     OW75189   6.799   9.746   7.028  0.0670  0.0479 -0.5598
24291SOL    HW175190   6.764   9.657   7.022  0.0960  0.0084 -0.1328
24291SOL    HW275191   6.806   9.774   6.937 -3.5969  1.0587 -0.6590
24292SOL     OW75192   5.936   0.707   9.351 -0.1274  0.2450 -0.2000
24292SOL    HW175193   5.875   0.689   9.422 -0.4001  0.5791 -0.3450
24292SOL    HW275194   5.907   0.791   9.314 -0.9060 -0.6173 -1.6454
24293SOL     OW75195   3.165   8.410   4.651 -0.2318 -0.0614  0.2689
24293SOL    HW175196   3.153   8.318   4.677  1.5044 -0.1726  0.7985
24293SOL    HW275197   3.120   8.460   4.719 -0.9923 -0.4843  0.1012
24294SOL     OW75198   9.553   1.067   9.247 -0.4008  0.0196  0.2436
24294SOL    HW175199   9.635   1.019   9.258 -0.1020  0.3444 -0.4445
24294SOL    HW275200   9.485   1.000   9.244 -0.1318 -0.2696  0.5784
24295SOL     OW75201  10.298   0.552   5.630  0.3010  0.0670 -0.5840
24295SOL    HW175202  10.374   0.564   5.687 -0.8363  1.7818  0.6444
24295SOL    HW275203  10.256   0.472   5.662  0.7631 -0.0848 -0.3411
24296SOL     OW75204   4.868   9.395   0.885 -0.5184  0.1591 -0.0598
24296SOL    HW175205   4.888   9.384   0.978 -1.2697 -1.9398 -0.0773
24296SOL    HW275206   4.883   9.308   0.847 -0.3423  0.9375 -1.8973
24297SOL     OW75207   3.697   7.995   5.521 -0.1282  0.1663  0.2279
24297SOL    HW175208   3.623   8.054   5.506  0.9529  1.3245 -0.6803
24297SOL    HW275209   3.656   7.910   5.538 -1.7057  1.0916  1.2926
24298SOL     OW75210   8.650   9.072   8.476 -0.0902 -0.8930  0.0535
24298SOL    HW175211   8.720   9.049   8.536 -0.3259  0.0768  0.7167
24298SOL    HW275212   8.641   9.167   8.484 -1.7313 -1.0359  0.2689
24299SOL     OW75213   0.031   7.566   7.711  0.0833 -0.1946 -0.0892
24299SOL    HW175214   0.073   7.592   7.629  2.4140 -1.0385  0.7469
24299SOL    HW275215   0.073   7.620   7.777 -0.5626 -0.6948  0.7476
24300SOL     OW75216   3.398   7.176  10.480 -0.3082 -0.1261  0.3355
24300SOL    HW175217   3.486   7.154  10.450 -0.6539 -0.8386 -0.1706
24300SOL    HW275218   3.384   7.120  10.556 -0.2937  0.0565  0.4743
24301SOL     OW75219   2.552   7.851  10.408  0.4126 -0.6333 -0.5710
24301SOL    HW175220   2.571   7.938  10.442  0.7993 -0.8742 -0.1706
24301SOL    HW275221   2.501   7.808  10.477 -0.3034 -0.5218 -1.0135
24302SOL     OW75222   1.702   6.998   7.555 -0.2458  0.0210 -0.1614
24302SOL    HW175223   1.662   7.081   7.581  0.2861  0.4183 -0.5978
24302SOL    HW275224   1.781   6.991   7.609 -1.9598 -1.8492  2.3779
24303SOL     OW75225   4.031   8.956   2.891  0.2458 -0.5883  0.2462
24303SOL    HW175226   3.984   8.875   2.874 -0.4350 -0.0423 -0.4981
24303SOL    HW275227   3.967   9.014   2.932 -0.2031  0.6571 -2.0302
24304SOL     OW75228   4.248   4.770   7.119  0.3873  0.0712  0.5770
24304SOL    HW175229   4.223   4.751   7.029  0.0628 -0.8858  0.8549
24304SOL    HW275230   4.290   4.690   7.150  0.5461  0.4073  1.2653
24305SOL     OW75231   1.718   0.402   2.219  0.0662  0.1967 -0.1817
24305SOL    HW175232   1.679   0.482   2.184 -0.6046 -0.7120 -1.6677
24305SOL    HW275233   1.647   0.361   2.269 -0.4160 -0.6246 -1.4702
24306SOL     OW75234   8.742  10.200  10.089  0.5369 -0.2240  0.3534
24306SOL    HW175235   8.779  10.271  10.037  0.9862  0.7787  1.9697
24306SOL    HW275236   8.711  10.136  10.025  0.1570  1.4044 -1.1489
24307SOL     OW75237   3.811   0.449   4.133  0.1407  0.1661  0.1663
24307SOL    HW175238   3.807   0.399   4.052  1.7815  2.9397 -1.8319
24307SOL    HW275239   3.846   0.388   4.198  0.3004 -1.7343 -1.6278
24308SOL     OW75240   1.154   6.557   9.639  0.0786 -0.0452  0.0844
24308SOL    HW175241   1.167   6.612   9.716  0.3198 -0.6392  0.4728
24308SOL    HW275242   1.242   6.540   9.607  0.1963 -2.2259  1.4078
24309SOL     OW75243   8.812   0.412   5.710 -0.5290  0.1725 -0.3796
24309SOL    HW175244   8.897   0.397   5.753  0.5090  2.4504 -1.4446
24309SOL    HW275245   8.756   0.342   5.742  2.1991 -2.4083 -0.8778
24310SOL     OW75246   9.219   5.653   9.774  0.0060 -0.3167  0.4381
24310SOL    HW175247   9.252   5.593   9.707 -0.6146  0.4405 -0.5644
24310SOL    HW275248   9.124   5.649   9.764 -0.0264  1.5190 -0.2699
24311SOL     OW75249  10.516   4.776   7.599  0.0105  0.3372  0.0958
24311SOL    HW175250  10.498   4.868   7.620 -1.1333 -0.1975  1.7202
24311SOL    HW275251  10.610   4.767   7.612 -0.0946  0.9373  1.5701
24312SOL     OW75252   3.801   7.371   6.525 -0.5786 -0.0112  0.0486
24312SOL    HW175253   3.888   7.330   6.523 -0.5537  0.0552 -0.8513
24312SOL    HW275254   3.816   7.459   6.559 -0.1582  0.2801 -0.8640
24313SOL     OW75255   5.384   4.166   4.228  0.2595 -0.0120 -0.7265
24313SOL    HW175256   5.405   4.079   4.193 -2.8925 -0.8699 -0.8247
24313SOL    HW275257   5.315   4.199   4.169 -0.0668  1.6445  0.5107
24314SOL     OW75258   0.649   4.005   6.636 -0.3254 -0.5042  0.1197
24314SOL    HW175259   0.719   3.976   6.695  1.0283 -0.1445 -1.2406
24314SOL    HW275260   0.651   3.942   6.564 -2.1095 -1.0723  0.5323
24315SOL     OW75261   6.079   6.437   3.052 -0.0313 -0.1547  0.7420
24315SOL    HW175262   6.060   6.529   3.032 -1.2633  0.0069  2.4740
24315SOL    HW275263   6.155   6.441   3.110  1.3053 -0.4136 -0.9020
24316SOL     OW75264   2.555   9.383   1.488  0.6831  0.1116 -0.5060
24316SOL    HW175265   2.588   9.460   1.534  1.9762 -1.9186  2.2122
24316SOL    HW275266   2.532   9.416   1.401 -1.5236  4.1331  1.2941
24317SOL     OW75267   8.758   8.025  10.061  0.0080 -0.2654 -0.2634
24317SOL    HW175268   8.668   7.994  10.056 -0.3725  0.5119  1.3759
24317SOL    HW275269   8.805   7.956  10.108  0.2065 -0.4893 -0.7742
24318SOL     OW75270   7.901   8.795  10.537 -0.0564 -0.5348  0.2947
24318SOL    HW175271   7.990   8.763  10.526  0.2998  0.0175  1.4087
24318SOL    HW275272   7.872   8.818  10.449 -0.2089 -3.5159 -0.5463
24319SOL     OW75273   8.196   3.310   1.411  0.0983 -0.4330 -0.7252
24319SOL    HW175274   8.117   3.364   1.408  0.5101  0.2583  0.2842
24319SOL    HW275275   8.268   3.373   1.410  0.7340 -1.0846 -3.2836
24320SOL     OW75276   8.592   8.944   3.619  0.0294 -0.6737  0.1793
24320SOL    HW175277   8.543   9.026   3.630  1.1819 -0.0714  0.9910
24320SOL    HW275278   8.553   8.904   3.542 -0.0758  1.0000 -0.7008
24321SOL     OW75279  10.244   9.549   7.075  0.0024 -0.0025 -0.0136
24321SOL    HW175280  10.315   9.550   7.010  0.9224 -1.7651  0.8987
24321SOL    HW275281  10.219   9.457   7.081 -0.7161  0.2667  1.4447
24322SOL     OW75282   8.767   6.910   8.092 -0.4406 -0.1897  0.1243
24322SOL    HW175283   8.747   6.997   8.125 -1.2743  0.0762 -1.0059
24322SOL    HW275284   8.830   6.925   8.022 -1.1888 -0.3940 -0.6135
24323SOL     OW75285   7.007   8.310   4.463 -0.3134 -0.2025  0.5102
24323SOL    HW175286   6.922   8.350   4.480  0.0549 -0.0810  2.2933
24323SOL    HW275287   7.008   8.232   4.520  0.8415 -0.0684  0.7029
24324SOL     OW75288   5.573   7.300   4.201  0.5029 -0.1820  1.1403
24324SOL    HW175289   5.576   7.375   4.141  4.2984 -0.4427  0.7808
24324SOL    HW275290   5.527   7.232   4.151 -2.1903  1.4940  1.1364
24325SOL     OW75291   0.809   2.615   7.372 -0.7046 -0.0331 -0.2061
24325SOL    HW175292   0.806   2.650   7.461 -0.1463  1.0008 -0.5794
24325SOL    HW275293   0.718   2.598   7.350 -0.7312 -2.0729  1.2271
24326SOL     OW75294   4.824   3.764   5.365 -0.9804  0.1275 -0.0094
24326SOL    HW175295   4.870   3.750   5.448 -0.6312 -0.8654 -0.3562
24326SOL    HW275296   4.892   3.754   5.298 -1.3603  0.4253 -0.4418
24327SOL     OW75297   3.344   4.791   4.459  0.3075 -0.2164  0.2865
24327SOL    HW175298   3.386   4.706   4.454 -0.8226 -1.0155  2.8033
24327SOL    HW275299   3.333   4.818   4.368  2.0736 -2.0207 -0.5274
24328SOL     OW75300   5.319   1.451   6.803 -0.2349  0.0820  0.3019
24328SOL    HW175301   5.299   1.431   6.712  1.5862  0.3157 -0.1915
24328SOL    HW275302   5.305   1.368   6.850 -1.8064  0.1268 -0.0499
24329SOL     OW75303   4.053   3.218  10.062  0.0061  0.1538 -0.5399
24329SOL    HW175304   4.127   3.164  10.034  0.8631  1.0852 -0.1234
24329SOL    HW275305   4.090   3.278  10.127 -1.1314  0.5975 -0.2702
24330SOL     OW75306   6.847   1.368   7.724  0.1199  0.5478  0.0798
24330SOL    HW175307   6.757   1.366   7.692 -1.0645 -1.2626  3.0869
24330SOL    HW275308   6.859   1.458   7.756 -0.8350  0.6524  0.1776
24331SOL     OW75309   4.823   0.764   5.624 -0.2257 -0.3171 -0.1849
24331SOL    HW175310   4.829   0.784   5.717  0.0082  0.1805 -0.3032
24331SOL    HW275311   4.805   0.670   5.621 -2.1112 -0.0114  0.3996
24332SOL     OW75312   0.925   9.870   8.077 -0.7428  0.1525  0.4289
24332SOL    HW175313   1.004   9.885   8.129 -1.2243 -0.2882  1.3045
24332SOL    HW275314   0.958   9.857   7.988  0.3492 -1.6992  1.0304
24333SOL     OW75315  10.530   8.835   9.017  0.0565 -0.5357  0.1903
24333SOL    HW175316  10.496   8.924   9.019  1.2650 -0.0511  2.2238
24333SOL    HW275317  10.612   8.842   8.968  0.5633 -0.3448  1.0502
24334SOL     OW75318   5.403   7.571   6.930  0.0073 -0.0916  0.1832
24334SOL    HW175319   5.431   7.575   6.838  1.2542 -2.2327  0.3848
24334SOL    HW275320   5.391   7.477   6.946 -0.1048  0.2393  2.2415
24335SOL     OW75321   4.138   3.432  10.188  0.2740 -0.0378  0.3509
24335SOL    HW175322   4.140   3.527  10.182 -2.3204  0.0931  0.5413
24335SOL    HW275323   4.096   3.414  10.272 -0.4105 -1.3189 -0.2277
24336SOL     OW75324   2.842   4.315  10.272 -0.0638  0.6005 -0.1736
24336SOL    HW175325   2.848   4.321  10.177 -1.2364  0.9514 -0.2476
24336SOL    HW275326   2.756   4.274  10.287 -0.3136  1.4385  0.7457
24337SOL     OW75327   5.529   7.246   2.110  0.2918 -0.6098  0.4641
24337SOL    HW175328   5.621   7.224   2.094  0.4024  0.0050  0.2029
24337SOL    HW275329   5.484   7.225   2.029  0.6200  1.2571 -0.2496
24338SOL     OW75330  10.424   1.417   5.934 -0.3435  0.0458 -0.2059
24338SOL    HW175331  10.508   1.462   5.932 -1.1405  1.6233  0.0503
24338SOL    HW275332  10.446   1.324   5.940  1.3614  0.4419  0.0601
24339SOL     OW75333   8.233   8.333   1.306  0.6425  0.1081  0.3069
24339SOL    HW175334   8.214   8.371   1.221  1.2789 -1.5469 -0.6177
24339SOL    HW275335   8.148   8.306   1.340  0.4678  0.0342 -0.1849
24340SOL     OW75336   1.466   3.560   8.809 -0.5736  0.0342 -0.2098
24340SOL    HW175337   1.411   3.638   8.811  1.3306  1.4436  0.4723
24340SOL    HW275338   1.555   3.593   8.817  0.4833 -2.0802 -2.0252
24341SOL     OW75339   9.040   8.988   8.515 -0.2467  0.0562 -0.0314
24341SOL    HW175340   8.957   8.966   8.559  0.1226  2.2486  2.0249
24341SOL    HW275341   9.013   9.037   8.437 -0.9012 -0.2347  0.0036
24342SOL     OW75342   5.715   8.371   5.360 -0.4014 -0.2658  0.2652
24342SOL    HW175343   5.671   8.436   5.305 -2.2592 -1.6383  0.0397
24342SOL    HW275344   5.662   8.368   5.440 -0.1934 -1.3033  0.3783
24343SOL     OW75345   9.172  10.583   9.663 -0.0718  0.0093 -0.7474
24343SOL    HW175346   9.221  10.665   9.657 -0.8119  0.4962 -0.3153
24343SOL    HW275347   9.166  10.552   9.573 -0.7359  1.0073 -1.0639
24344SOL     OW75348   2.874   1.819   8.537 -0.2667  0.3950 -0.1168
24344SOL    HW175349   2.798   1.828   8.595  1.5410 -0.7789  2.6156
24344SOL    HW275350   2.925   1.899   8.552  1.0813 -0.6849  1.3735
24345SOL     OW75351   1.385   3.893  10.579  0.2261 -0.6607  0.6470
24345SOL    HW175352   1.334   3.884  10.660 -0.2138 -1.2784  0.3001
24345SOL    HW275353   1.321   3.888  10.509  0.3143  1.9885  0.2814
24346SOL     OW75354   9.520   7.939   0.627  0.0800  0.0174  0.0179
24346SOL    HW175355   9.507   7.950   0.721 -0.5279 -0.2683 -0.0325
24346SOL    HW275356   9.475   7.858   0.605 -0.5652  0.5522 -0.6798
24347SOL     OW75357   7.986   6.387   6.131 -0.3833  0.4110 -0.0924
24347SOL    HW175358   7.935   6.449   6.079 -2.2711 -0.1761  0.9546
24347SOL    HW275359   7.922   6.326   6.167  0.9252  0.1322  2.0182
24348SOL     OW75360   5.268   0.169   0.666  0.1427 -0.0044  0.4645
24348SOL    HW175361   5.335   0.238   0.665  0.4200 -0.2478  1.4574
24348SOL    HW275362   5.292   0.114   0.740 -1.9025  0.6400  1.6891
24349SOL     OW75363   5.931  10.383   7.524  0.2657  0.2380  0.6502
24349SOL    HW175364   5.929  10.295   7.485  0.1195  0.4673  0.1322
24349SOL    HW275365   5.857  10.384   7.584  0.3222 -0.0246  0.7258
24350SOL     OW75366   8.818   4.672   0.991  0.2036  0.0198 -0.0782
24350SOL    HW175367   8.906   4.710   0.997 -0.3266  1.0902  1.4885
24350SOL    HW275368   8.797   4.676   0.898  1.0224  1.6535 -0.2362
24351SOL     OW75369   4.846   2.552   3.954  0.7246 -0.1226 -0.1334
24351SOL    HW175370   4.771   2.495   3.969 -0.1268  0.5821 -1.4942
24351SOL    HW275371   4.859   2.597   4.038  0.5768 -1.3093  0.5504
24352SOL     OW75372   0.811   2.200   5.431  0.6239  0.4190 -0.6833
24352SOL    HW175373   0.754   2.154   5.370  1.7221 -0.2616 -1.2415
24352SOL    HW275374   0.889   2.222   5.379  0.7588  1.5803 -0.0296
24353SOL     OW75375   1.942   5.253   5.410 -0.5880 -0.0893  0.7716
24353SOL    HW175376   1.957   5.235   5.503 -0.8373  0.6939  0.9768
24353SOL    HW275377   2.017   5.214   5.365 -1.7187 -2.7173  1.0294
24354SOL     OW75378   0.820   6.352   1.309  0.3718  0.3438  0.2565
24354SOL    HW175379   0.744   6.401   1.340  1.6832  2.5951  0.0935
24354SOL    HW275380   0.843   6.295   1.382 -1.8341 -0.9255  0.0603
24355SOL     OW75381   0.943   3.875  10.305 -0.4885  0.1695 -0.0209
24355SOL    HW175382   1.032   3.862  10.336 -0.9132  1.5599  1.9264
24355SOL    HW275383   0.888   3.834  10.372 -1.3551 -2.1134 -1.9716
24356SOL     OW75384   3.471   7.866   6.073 -0.2050  0.0717  0.4358
24356SOL    HW175385   3.538   7.893   6.136  0.2098  0.3190 -0.1030
24356SOL    HW275386   3.393   7.851   6.126  0.8039 -2.2956  1.4194
24357SOL     OW75387   5.877   6.858   2.815  0.0679 -0.4167  0.6048
24357SOL    HW175388   5.854   6.941   2.856  0.9173 -0.5014  1.2801
24357SOL    HW275389   5.972   6.851   2.826  0.2953 -0.6042 -1.0844
24358SOL     OW75390   8.705  10.473   7.033  0.0004  0.1758 -0.3141
24358SOL    HW175391   8.635  10.536   7.052 -1.1771 -0.8518 -1.0800
24358SOL    HW275392   8.762  10.477   7.110 -0.8728  1.0800  0.3093
24359SOL     OW75393   1.879   3.163   3.224 -0.1879 -0.9042  0.0716
24359SOL    HW175394   1.884   3.204   3.137 -1.3864 -2.7713 -0.9460
24359SOL    HW275395   1.901   3.071   3.208 -1.4398 -1.4975  1.5486
24360SOL     OW75396   4.706  10.179   6.996  0.1974  0.0454 -0.2410
24360SOL    HW175397   4.758  10.099   7.005 -2.1745 -1.5555  0.0998
24360SOL    HW275398   4.761  10.237   6.944  2.3035 -1.5272  0.1033
24361SOL     OW75399   2.779   4.052   8.385 -0.0612 -0.1724 -0.5266
24361SOL    HW175400   2.692   4.015   8.395  0.5503 -1.5058  0.0826
24361SOL    HW275401   2.833   3.980   8.352  0.7845  0.6654 -1.0381
24362SOL     OW75402   7.447   6.816   0.331 -0.1200  0.3363 -0.7012
24362SOL    HW175403   7.489   6.898   0.307 -0.8819  0.2204 -2.5908
24362SOL    HW275404   7.369   6.811   0.275 -1.6980 -0.3162  1.4079
24363SOL     OW75405   9.729   5.268   7.281 -0.6596 -0.4449 -0.4898
24363SOL    HW175406   9.810   5.281   7.331 -0.5558 -0.8903 -0.5342
24363SOL    HW275407   9.667   5.232   7.344 -1.3327  1.3911 -0.0616
24364SOL     OW75408   1.767   2.742   5.536 -0.2270  0.0434  0.0216
24364SOL    HW175409   1.856   2.765   5.511 -0.0901  1.8060  1.9128
24364SOL    HW275410   1.719   2.739   5.452  0.7569  3.0465 -0.7774
24365SOL     OW75411   5.936   3.785   6.948 -0.6690 -0.2727 -0.1453
24365SOL    HW175412   5.965   3.698   6.921  1.7470  0.0183  1.2230
24365SOL    HW275413   5.936   3.837   6.867  0.7691 -0.8199 -0.5220
24366SOL     OW75414  10.147   4.384  10.115  0.1512  0.5779 -0.2622
24366SOL    HW175415  10.093   4.395  10.037 -1.4577 -0.3613  0.6557
24366SOL    HW275416  10.122   4.456  10.172  1.7582  1.6116 -0.8031
24367SOL     OW75417   1.291   8.540   6.107  0.2715  0.4559 -0.1247
24367SOL    HW175418   1.325   8.523   6.195  2.6806 -0.0033 -1.0606
24367SOL    HW275419   1.318   8.463   6.056 -1.3103  0.5854 -1.2391
24368SOL     OW75420   8.765   2.987   0.499  0.2816  0.5425 -0.5846
24368SOL    HW175421   8.847   3.017   0.460  1.7534 -1.2741  0.9195
24368SOL    HW275422   8.750   3.047   0.572  0.9612  0.1774 -0.1284
24369SOL     OW75423   4.949   0.528   8.787 -0.1819 -0.2871  0.5882
24369SOL    HW175424   4.960   0.557   8.878 -0.8055 -0.6656  0.7898
24369SOL    HW275425   4.878   0.582   8.753  1.6200  1.5963 -0.4616
24370SOL     OW75426   9.770   7.191   3.572 -0.2283  0.7916 -0.3616
24370SOL    HW175427   9.687   7.150   3.598  0.0821  0.3639 -0.0504
24370SOL    HW275428   9.834   7.121   3.577  0.0248  0.9427 -1.3143
24371SOL     OW75429   9.024  10.087   9.937  0.1791 -0.1623  0.3911
24371SOL    HW175430   9.075  10.113   9.860 -0.9350  1.1690  0.0646
24371SOL    HW275431   9.057  10.141  10.008  0.8533 -1.0254  0.7494
24372SOL     OW75432   1.750   0.078   2.939  0.3417  0.8074 -0.3371
24372SOL    HW175433   1.837   0.038   2.937 -0.4003 -1.5802 -6.1527
24372SOL    HW275434   1.763   0.165   2.901  0.1742 -0.3222 -3.2239
24373SOL     OW75435   6.540   7.984   4.927  0.3302  0.5566 -0.4024
24373SOL    HW175436   6.543   7.888   4.928 -0.0385  0.5388 -0.6139
24373SOL    HW275437   6.491   8.007   5.006  2.0865  0.6631  0.7166
24374SOL     OW75438   1.820   2.767   8.773  0.0793 -0.1967  0.1579
24374SOL    HW175439   1.763   2.844   8.776 -1.2945 -1.1443 -0.4541
24374SOL    HW275440   1.777   2.703   8.830  0.3988 -1.0111 -0.4908
24375SOL     OW75441   8.347   8.332   3.175  0.2470  0.1069  0.0920
24375SOL    HW175442   8.344   8.239   3.152  0.9928  0.3852 -1.2445
24375SOL    HW275443   8.349   8.333   3.271 -1.4502 -1.1874  0.2026
24376SOL     OW75444   4.718   8.122   7.498  0.3548  0.3573 -0.3502
24376SOL    HW175445   4.709   8.110   7.404 -1.4812 -0.7128 -0.0783
24376SOL    HW275446   4.783   8.056   7.524  0.6124  0.4288 -0.7987
24377SOL     OW75447   1.898   4.769  10.397 -0.7565  0.2327  0.0969
24377SOL    HW175448   1.899   4.857  10.361 -1.3052  0.3998  0.4869
24377SOL    HW275449   1.990   4.750  10.417 -0.5563  0.4711 -0.5529
24378SOL     OW75450   3.539   2.392   7.393  0.6528 -0.7210  0.6229
24378SOL    HW175451   3.444   2.386   7.403  0.7016 -1.9501  0.4380
24378SOL    HW275452   3.562   2.477   7.431 -0.6728  0.1601 -0.4585
24379SOL     OW75453   8.752   8.619   9.514  0.4476  0.3994  0.4060
24379SOL    HW175454   8.730   8.700   9.560  1.2824 -0.1448  1.8308
24379SOL    HW275455   8.771   8.557   9.583  0.0031 -0.9798 -0.6743
24380SOL     OW75456   8.850   5.743  10.012  0.0229 -0.2483 -0.1514
24380SOL    HW175457   8.858   5.823  10.064  0.9177  0.5001 -1.3819
24380SOL    HW275458   8.935   5.701  10.019 -0.1654 -0.6484 -0.2243
24381SOL     OW75459   7.144   7.930   3.215  0.0528  0.0276  0.1579
24381SOL    HW175460   7.153   8.010   3.266 -0.6259  0.8585 -0.9592
24381SOL    HW275461   7.110   7.960   3.131  1.6330 -1.2301 -0.9823
24382SOL     OW75462  10.586   1.054   7.217  0.9958 -0.9255 -0.1477
24382SOL    HW175463  10.572   0.961   7.235 -0.7349 -0.4299  1.4494
24382SOL    HW275464  10.664   1.076   7.267  0.3698 -1.1608  0.9712
24383SOL     OW75465   0.180   1.205   2.520  0.3443 -0.5858 -0.6655
24383SOL    HW175466   0.219   1.118   2.534 -0.8242 -1.2284 -1.2518
24383SOL    HW275467   0.094   1.199   2.562  1.7818  1.6852  3.0652
24384SOL     OW75468   7.711   9.058   8.244 -0.2439 -0.0406 -0.5887
24384SOL    HW175469   7.761   9.095   8.172 -1.1182  0.2920 -1.0377
24384SOL    HW275470   7.750   8.972   8.259  0.9370  0.4952 -0.4271
24385SOL     OW75471   0.673   1.503   3.849 -0.8473  0.6333 -0.2579
24385SOL    HW175472   0.602   1.448   3.881  0.6109 -1.9524 -1.1440
24385SOL    HW275473   0.747   1.481   3.906  0.1645  0.5316 -1.5685
24386SOL     OW75474   3.177   2.774   0.811 -0.6068  0.0849 -0.5032
24386SOL    HW175475   3.149   2.864   0.827  1.3080  0.5165  0.6873
24386SOL    HW275476   3.096   2.723   0.817 -1.8493  1.7572 -1.8469
24387SOL     OW75477   3.862   0.735   4.994 -0.2758 -0.3954 -0.5232
24387SOL    HW175478   3.807   0.689   4.931 -0.6842  2.2637 -2.2450
24387SOL    HW275479   3.948   0.693   4.987 -0.7827 -1.2939 -1.5200
24388SOL     OW75480   9.528   1.595   1.134 -0.2373 -0.1659 -0.0351
24388SOL    HW175481   9.578   1.659   1.084  1.0435 -1.6316 -0.7298
24388SOL    HW275482   9.442   1.593   1.094  0.7586 -1.3171 -2.2762
24389SOL     OW75483  10.234   0.487   4.344 -0.0538  0.1048  0.2003
24389SOL    HW175484  10.277   0.543   4.409 -0.9878 -1.1420  1.9698
24389SOL    HW275485  10.145   0.475   4.378  0.4378 -3.3939  0.5935
24390SOL     OW75486   0.041   0.882   4.078 -0.1602 -0.0974 -0.1235
24390SOL    HW175487   0.125   0.915   4.048 -0.1626 -0.7693 -0.9001
24390SOL    HW275488  -0.007   0.960   4.107  0.5337  0.3453 -0.1621
24391SOL     OW75489   9.778   1.189   3.391  0.4496 -0.0326 -0.6010
24391SOL    HW175490   9.811   1.113   3.343  0.3703 -0.0951 -0.5574
24391SOL    HW275491   9.819   1.184   3.477  0.3998 -0.0579 -0.5787
24392SOL     OW75492   6.914   8.126   0.018  0.2016  0.2147 -0.0573
24392SOL    HW175493   6.865   8.184   0.076 -0.1418 -0.3790  0.2597
24392SOL    HW275494   6.998   8.113   0.061  1.8161  3.4378 -1.9001
24393SOL     OW75495   9.718   4.638   5.809 -0.0379 -0.1128 -0.4520
24393SOL    HW175496   9.669   4.720   5.816 -1.7301 -1.2297  1.9423
24393SOL    HW275497   9.709   4.613   5.717 -3.8776 -0.1143 -0.2406
24394SOL     OW75498   0.770   0.613   6.687  0.4160 -0.5028  0.6215
24394SOL    HW175499   0.739   0.537   6.736  0.3046 -1.3927 -0.7634
24394SOL    HW275500   0.773   0.583   6.596  1.9548  0.6404  0.2509
24395SOL     OW75501   9.781   4.137   9.440 -0.5632 -0.7395 -0.6878
24395SOL    HW175502   9.817   4.052   9.413  0.9682 -0.9068  1.5282
24395SOL    HW275503   9.694   4.116   9.474 -0.1454 -1.5025 -0.0284
24396SOL     OW75504   9.164  10.118   8.536 -0.3480 -0.4173 -0.0234
24396SOL    HW175505   9.165  10.192   8.474 -1.5363 -0.9816 -0.7520
24396SOL    HW275506   9.074  10.116   8.568  0.2747 -0.0739  1.8389
24397SOL     OW75507   6.689   1.160   6.700  0.3070  0.2456 -0.1213
24397SOL    HW175508   6.741   1.237   6.723  0.7416  0.5081 -1.8524
24397SOL    HW275509   6.730   1.088   6.749  0.7181  0.8781  0.4808
24398SOL     OW75510  10.480   8.898   8.091  0.0357 -0.4179 -0.2853
24398SOL    HW175511  10.536   8.973   8.113  0.2343 -0.7021  0.1819
24398SOL    HW275512  10.519   8.824   8.137 -0.2549 -0.7830 -0.6114
24399SOL     OW75513   6.066  10.316  10.559 -0.6630 -0.1787  0.5405
24399SOL    HW175514   6.084  10.226  10.587 -1.9086 -0.3915  0.6958
24399SOL    HW275515   5.987  10.309  10.506 -2.1785  1.0955  2.4827
24400SOL     OW75516   6.138   0.000   7.782  0.1620 -0.2640 -0.3001
24400SOL    HW175517   6.205  -0.021   7.717 -0.1598  0.4895 -0.8990
24400SOL    HW275518   6.081   0.063   7.738 -1.1149 -1.1064  0.0936
24401SOL     OW75519   3.999   3.116   7.422 -0.3545  0.0530  0.2122
24401SOL    HW175520   3.966   3.031   7.450 -0.7314 -0.0308 -0.4778
24401SOL    HW275521   4.084   3.124   7.465 -0.7312 -0.2521  1.0438
24402SOL     OW75522   6.088   6.773   4.013  0.6413 -0.2903  0.2035
24402SOL    HW175523   6.087   6.868   4.018  1.1714 -0.3455  4.0434
24402SOL    HW275524   6.015   6.744   4.068  1.0217 -2.0986 -0.1576
24403SOL     OW75525   5.703   4.497   8.187  0.0031  0.0407 -0.6128
24403SOL    HW175526   5.669   4.583   8.164  1.2440 -0.2669 -4.3080
24403SOL    HW275527   5.793   4.513   8.215 -0.2421  0.0578  0.1787
24404SOL     OW75528   5.344   1.938   2.079  0.1566  0.2241 -0.3022
24404SOL    HW175529   5.278   2.007   2.071 -0.5474 -0.5232 -1.4470
24404SOL    HW275530   5.300   1.868   2.127 -0.0263 -0.3924 -1.3158
24405SOL     OW75531   6.483   9.633   4.572  0.1216 -0.4338 -0.1994
24405SOL    HW175532   6.469   9.705   4.510 -0.0534 -1.6677 -1.6507
24405SOL    HW275533   6.395   9.607   4.597  0.2016  0.3577  0.9567
24406SOL     OW75534   3.429   6.195  10.183 -0.4521  0.5294  0.1926
24406SOL    HW175535   3.367   6.129  10.215  2.5851 -2.0583  1.3562
24406SOL    HW275536   3.423   6.190  10.087 -1.6418 -0.0487  0.2863
24407SOL     OW75537   3.768   9.295   5.137  0.4370 -0.0980  0.5065
24407SOL    HW175538   3.718   9.336   5.207 -0.7998 -1.9098  0.7605
24407SOL    HW275539   3.763   9.357   5.064  0.1339  0.9563  1.3920
24408SOL     OW75540   7.294   0.057   2.764 -0.7510  0.0447  0.2517
24408SOL    HW175541   7.236  -0.016   2.785  0.0835 -0.5410  0.5795
24408SOL    HW275542   7.376   0.015   2.736 -0.9177  0.8367 -1.5500
24409SOL     OW75543   8.757   3.598   1.726 -0.3906 -0.0045  0.4509
24409SOL    HW175544   8.809   3.678   1.732  0.5229 -0.5745  0.2702
24409SOL    HW275545   8.799   3.546   1.657 -0.9098 -0.6803  0.6285
24410SOL     OW75546   0.662   5.304   3.520  0.1830 -0.0729  0.1337
24410SOL    HW175547   0.608   5.348   3.454 -0.4754 -2.7683 -1.2339
24410SOL    HW275548   0.752   5.319   3.492 -0.0916 -1.6800 -1.8142
24411SOL     OW75549   2.243   2.795   1.963 -0.6121  0.0590 -0.0321
24411SOL    HW175550   2.314   2.790   2.027 -0.3996  0.0721 -0.2623
24411SOL    HW275551   2.164   2.809   2.015 -0.2105  2.0209  0.1195
24412SOL     OW75552   6.415   3.138   2.467 -0.0666  0.0844  0.2795
24412SOL    HW175553   6.395   3.229   2.492  0.4047  0.1078  0.5895
24412SOL    HW275554   6.336   3.108   2.423 -0.1721  0.6986  0.0346
24413SOL     OW75555   2.618   3.053   0.935 -0.7822  0.0396  0.0940
24413SOL    HW175556   2.597   3.110   0.860 -1.7766 -0.7546 -0.2605
24413SOL    HW275557   2.547   3.069   0.997 -1.7931 -1.7133 -0.5442
24414SOL     OW75558   4.734   3.125   1.406 -0.1029  1.3657 -0.0504
24414SOL    HW175559   4.676   3.175   1.349  0.2763  0.7322 -1.0159
24414SOL    HW275560   4.777   3.062   1.348  1.8444  2.0657  0.5445
24415SOL     OW75561   2.384   2.245   3.801 -0.0903  0.0648  0.3821
24415SOL    HW175562   2.442   2.278   3.870  0.7360 -0.3065 -0.1278
24415SOL    HW275563   2.304   2.221   3.848  0.4035 -0.0458  1.1975
24416SOL     OW75564   5.413   2.566   0.460 -0.1700 -0.2548 -0.7542
24416SOL    HW175565   5.325   2.586   0.493  0.0370 -1.5023  0.6598
24416SOL    HW275566   5.446   2.651   0.428 -1.0305  0.7136  0.7898
24417SOL     OW75567   6.420   1.769   3.353  0.3885 -0.5288  0.5873
24417SOL    HW175568   6.407   1.755   3.447 -1.3294 -0.0020  0.4611
24417SOL    HW275569   6.367   1.702   3.311  1.6105 -1.1423 -0.0401
24418SOL     OW75570   6.011   5.242   2.757 -0.1521 -0.0631 -0.2404
24418SOL    HW175571   6.055   5.312   2.806  0.1537 -0.5134  0.1442
24418SOL    HW275572   6.019   5.165   2.814 -0.6435 -0.3664 -0.5764
24419SOL     OW75573   2.019   6.637   6.342  0.0241  0.5787  0.7694
24419SOL    HW175574   2.100   6.594   6.317 -1.0841 -0.7101 -0.8665
24419SOL    HW275575   1.996   6.599   6.426  0.2749 -0.3026  0.4477
24420SOL     OW75576   8.539   5.275   1.214  0.3083 -0.0545  0.5549
24420SOL    HW175577   8.451   5.267   1.177  0.7025  0.5735 -0.5431
24420SOL    HW275578   8.525   5.317   1.299 -0.4389  0.2098  0.3087
24421SOL     OW75579   2.144   3.647   0.995  0.2800 -0.0336 -0.1523
24421SOL    HW175580   2.239   3.657   0.987  0.3118  0.0084  0.2531
24421SOL    HW275581   2.133   3.564   1.042  0.0636 -1.1933 -2.1459
24422SOL     OW75582   2.003  10.567   2.933  0.1542 -0.4261 -0.0896
24422SOL    HW175583   2.080  10.592   2.985 -1.3164  0.4012  1.8217
24422SOL    HW275584   1.964  10.495   2.981 -0.3282 -0.7766 -0.9937
24423SOL     OW75585   7.485  10.205   3.752  0.4181 -0.1033 -0.2168
24423SOL    HW175586   7.479  10.159   3.668 -0.6473 -0.0486 -0.1887
24423SOL    HW275587   7.557  10.268   3.740  1.1816 -1.0286 -0.6107
24424SOL     OW75588   4.237  10.194   5.151  0.8992  0.3130  0.0027
24424SOL    HW175589   4.265  10.103   5.161  2.3478  0.7621  0.2137
24424SOL    HW275590   4.310  10.237   5.107  0.0394  1.2868 -0.5184
24425SOL     OW75591   9.635   1.672  10.097 -0.4471 -0.1574 -0.9672
24425SOL    HW175592   9.706   1.607  10.094 -1.1130 -1.0696  1.1484
24425SOL    HW275593   9.584   1.648  10.174 -0.5931  3.0473  0.0716
24426SOL     OW75594   0.285  10.022   4.990  0.4065  0.2649  0.0152
24426SOL    HW175595   0.290  10.065   5.075 -0.5966 -3.2525  2.0475
24426SOL    HW275596   0.191  10.004   4.978  0.8160 -2.0426 -0.2331
24427SOL     OW75597   9.927   8.663   8.674  0.2304 -0.9723  0.1034
24427SOL    HW175598   9.900   8.754   8.665 -0.1374 -1.0268  0.5708
24427SOL    HW275599   9.988   8.663   8.747  0.1142 -1.1191  0.2020
24428SOL     OW75600   4.284   9.879   5.747 -0.0869  0.6474 -0.1582
24428SOL    HW175601   4.238   9.952   5.789  1.2785  0.5753  1.5774
24428SOL    HW275602   4.232   9.861   5.668 -3.8755 -0.2572  2.2382
24429SOL     OW75603   7.469   9.537   3.324  0.1904  0.0913 -0.3436
24429SOL    HW175604   7.377   9.543   3.299  0.1207  1.4078  0.1504
24429SOL    HW275605   7.504   9.467   3.268 -1.0891 -0.4240 -0.5440
24430SOL     OW75606   3.476   2.371   0.638 -0.0632 -0.5330  0.9378
24430SOL    HW175607   3.411   2.399   0.573 -0.3616 -2.6697  0.2113
24430SOL    HW275608   3.460   2.427   0.714 -1.6164  0.1494  0.1578
24431SOL     OW75609   9.084   9.321   9.577 -0.7942 -0.3914  0.3659
24431SOL    HW175610   9.006   9.334   9.630 -1.1555 -0.7472 -0.0664
24431SOL    HW275611   9.052   9.274   9.500 -0.2454 -0.0671 -0.0646
24432SOL     OW75612   6.521   3.704   2.315  0.7051 -0.9402 -0.2507
24432SOL    HW175613   6.553   3.770   2.254  0.8019 -0.2180  0.5483
24432SOL    HW275614   6.432   3.734   2.338  0.6911 -1.1660 -0.0006
24433SOL     OW75615  10.153   7.156   9.905  0.1396  0.1065 -0.6192
24433SOL    HW175616  10.238   7.181   9.869  0.9059 -1.2305  0.1671
24433SOL    HW275617  10.121   7.088   9.846  0.0672 -0.0636 -0.3854
24434SOL     OW75618   1.291   8.898   7.442 -0.2304  0.3639  0.4232
24434SOL    HW175619   1.353   8.869   7.375 -0.4092  2.6716 -0.8480
24434SOL    HW275620   1.211   8.849   7.422  1.0022 -2.5225  1.9839
24435SOL     OW75621   8.938   2.903   3.463 -0.4810  0.0054  0.0290
24435SOL    HW175622   9.024   2.938   3.438  0.4474 -1.3355  1.2062
24435SOL    HW275623   8.898   2.973   3.515  0.5466  0.0590  0.7645
24436SOL     OW75624   4.131   4.414   4.297 -0.2157 -1.3710 -0.2978
24436SOL    HW175625   4.217   4.403   4.257  1.3646  1.5201  1.9562
24436SOL    HW275626   4.141   4.382   4.386 -0.5703  1.2911  0.8039
24437SOL     OW75627   0.124   4.416   0.832  0.5535 -0.2044  0.2164
24437SOL    HW175628   0.162   4.504   0.835  0.3954 -0.1194 -0.2324
24437SOL    HW275629   0.043   4.426   0.782  0.5182 -0.5967  0.1915
24438SOL     OW75630   6.579   9.494   0.987 -0.2236  0.1981  0.2447
24438SOL    HW175631   6.558   9.552   0.914  0.8459 -0.9628 -1.0600
24438SOL    HW275632   6.495   9.471   1.026 -0.8490  0.4491 -0.9362
24439SOL     OW75633   7.410   3.288   1.050  0.1981 -0.7325 -0.0803
24439SOL    HW175634   7.358   3.321   0.976 -0.9134 -0.4111  0.8004
24439SOL    HW275635   7.496   3.270   1.013  0.3769  1.5832 -0.9989
24440SOL     OW75636   6.383   5.155   2.503  0.5301 -0.2015 -0.1947
24440SOL    HW175637   6.413   5.065   2.519 -1.0597 -0.6726  0.2431
24440SOL    HW275638   6.288   5.148   2.494  0.3963  1.4185 -0.3652
24441SOL     OW75639   9.937   0.361   9.856 -0.3283  0.1493 -0.2789
24441SOL    HW175640   9.872   0.362   9.785 -0.3971  0.5686 -0.2154
24441SOL    HW275641   9.904   0.297   9.918 -1.0470  0.8404  0.0758
24442SOL     OW75642  10.110   2.055   7.410  0.3796 -0.3444  0.0710
24442SOL    HW175643  10.156   1.978   7.380 -2.3270 -1.6304 -1.0992
24442SOL    HW275644  10.090   2.037   7.502 -0.4011 -1.1365 -0.2491
24443SOL     OW75645   9.842   9.419   8.523 -0.0258 -0.3917 -0.5145
24443SOL    HW175646   9.790   9.417   8.443  1.1826 -0.8894 -1.3216
24443SOL    HW275647   9.929   9.448   8.495 -0.2359  1.9825  1.0511
24444SOL     OW75648   9.545   1.214   4.202  0.0317 -0.3693  0.2233
24444SOL    HW175649   9.496   1.201   4.284 -1.6132  0.8986 -0.5087
24444SOL    HW275650   9.507   1.293   4.164 -0.0471 -1.5614 -2.3488
24445SOL     OW75651   0.559   1.881   2.997  0.6378 -0.0458  0.2719
24445SOL    HW175652   0.617   1.867   2.922 -1.1160 -0.3349 -1.1020
24445SOL    HW275653   0.473   1.852   2.966  0.2533 -2.5388  3.2024
24446SOL     OW75654   9.115   8.570   5.807 -0.2318 -0.1435  0.5034
24446SOL    HW175655   9.060   8.638   5.768 -2.0282 -1.5000  0.5597
24446SOL    HW275656   9.060   8.532   5.876  1.0671 -1.0775  1.0580
24447SOL     OW75657   0.974   3.400   3.423 -0.6638  0.1557 -0.2746
24447SOL    HW175658   0.886   3.420   3.392 -1.2951  1.4996  2.1220
24447SOL    HW275659   1.011   3.344   3.355 -2.8963  0.5751 -1.9582
24448SOL     OW75660   0.471   5.529   7.471  0.1203  0.8324 -0.0321
24448SOL    HW175661   0.498   5.583   7.546  1.5948  0.8592 -0.5528
24448SOL    HW275662   0.524   5.561   7.398  0.5018 -0.8244 -0.5273
24449SOL     OW75663   9.623   8.391   8.142 -0.0008  0.4852 -0.5218
24449SOL    HW175664   9.700   8.385   8.085  0.5023 -2.1249  0.2838
24449SOL    HW275665   9.550   8.364   8.087 -0.1374  1.5670 -0.8931
24450SOL     OW75666   9.182   0.778   4.193  0.0613  0.7111 -0.1800
24450SOL    HW175667   9.274   0.763   4.216 -0.3162 -0.3951  0.7042
24450SOL    HW275668   9.172   0.739   4.107 -0.1655 -1.5751  0.8154
24451SOL     OW75669   9.446   4.359   6.475  0.3637 -0.5854  0.0630
24451SOL    HW175670   9.373   4.417   6.499  1.4090 -0.1204  2.4335
24451SOL    HW275671   9.474   4.390   6.389 -1.0874  0.3700 -0.1049
24452SOL     OW75672   8.674   4.374   2.541  0.2967  0.2947 -0.7011
24452SOL    HW175673   8.663   4.282   2.515 -0.0266  0.6996 -2.1302
24452SOL    HW275674   8.768   4.384   2.556  0.7335  0.3045 -3.0674
24453SOL     OW75675   1.758   3.052   8.024 -0.1526 -0.1388 -0.5632
24453SOL    HW175676   1.674   3.052   7.977  0.0676  0.6872 -0.9674
24453SOL    HW275677   1.736   3.084   8.112 -0.0628  1.4318 -1.0767
24454SOL     OW75678   5.203   1.017   9.123 -0.0720 -0.3206 -0.2736
24454SOL    HW175679   5.258   1.079   9.171  0.3246 -0.1697 -0.9064
24454SOL    HW275680   5.170   0.957   9.190  0.2842  0.0166  0.2134
24455SOL     OW75681   3.584   0.817   8.597  0.1313  0.1269 -0.1874
24455SOL    HW175682   3.670   0.849   8.571  0.1353 -0.9716 -1.6120
24455SOL    HW275683   3.524   0.858   8.536 -0.3518  0.6756  0.6306
24456SOL     OW75684   6.297   4.634   5.454 -0.4525  0.0458 -0.0281
24456SOL    HW175685   6.244   4.659   5.378 -1.6208  0.1653  0.7880
24456SOL    HW275686   6.280   4.541   5.466  1.3821 -0.4742 -1.1418
24457SOL     OW75687   8.773   6.397   9.354 -0.2905  0.0044  0.6902
24457SOL    HW175688   8.815   6.312   9.364 -0.8581 -0.1555  1.9290
24457SOL    HW275689   8.842   6.461   9.376  1.0726  0.1069 -3.1560
24458SOL     OW75690   9.785   8.156   0.318  0.1140  0.1487 -0.2799
24458SOL    HW175691   9.712   8.184   0.263 -0.8306 -2.6602 -0.6144
24458SOL    HW275692   9.754   8.169   0.408  0.5773  2.1330 -0.3700
24459SOL     OW75693   1.796   3.148   3.939  0.4711  0.2030 -0.6801
24459SOL    HW175694   1.710   3.162   3.899 -0.6585  2.2369  2.1055
24459SOL    HW275695   1.856   3.201   3.887 -0.4706  0.9072 -1.0800
24460SOL     OW75696  10.475   8.310   3.998 -0.3070  0.3915  0.7202
24460SOL    HW175697  10.418   8.353   4.061  0.5899  2.0064  0.4723
24460SOL    HW275698  10.562   8.311   4.039 -0.2171 -1.0489  0.6287
24461SOL     OW75699   8.322   0.362   4.524 -0.2735  0.9799  0.0362
24461SOL    HW175700   8.253   0.349   4.589  0.3614  0.5103  0.6422
24461SOL    HW275701   8.280   0.409   4.453 -1.1756  0.8451  0.4646
24462SOL     OW75702   5.466   1.316   8.741  0.2716  0.5866  0.3311
24462SOL    HW175703   5.490   1.226   8.762  0.9936  1.0988  1.8580
24462SOL    HW275704   5.375   1.324   8.770  0.0962  0.2580 -0.1238
24463SOL     OW75705   9.074   2.372   4.747 -0.7068 -0.1609  0.5959
24463SOL    HW175706   9.097   2.299   4.803 -1.9546 -1.0097  0.0485
24463SOL    HW275707   9.059   2.445   4.807 -1.2043 -0.8342  1.3067
24464SOL     OW75708   2.738  10.056   7.168  0.0821  0.1613 -0.1838
24464SOL    HW175709   2.825  10.042   7.130  0.9008  0.3300  1.5647
24464SOL    HW275710   2.735  10.149   7.188  0.3630 -0.2021  1.7292
24465SOL     OW75711   2.022   5.419   7.643  0.2323 -0.0082 -0.0224
24465SOL    HW175712   2.004   5.339   7.595 -0.4679 -0.2766  0.6540
24465SOL    HW275713   1.995   5.399   7.733  1.2609  0.5637  0.4246
24466SOL     OW75714   8.235   1.562   4.612  0.3195  0.2478  0.2722
24466SOL    HW175715   8.162   1.592   4.666 -0.6968  0.9177 -1.3873
24466SOL    HW275716   8.228   1.466   4.613  0.2195  0.2586  1.1615
24467SOL     OW75717   5.709   7.829   0.905  0.2689  0.0326 -0.1550
24467SOL    HW175718   5.664   7.912   0.921 -1.4155 -0.8086 -0.2887
24467SOL    HW275719   5.639   7.763   0.907  1.4500 -1.2967 -0.7911
24468SOL     OW75720   5.561   8.762   7.594  0.2920 -0.2194  0.2277
24468SOL    HW175721   5.473   8.742   7.563  0.3441  0.5404 -0.4313
24468SOL    HW275722   5.549   8.797   7.682 -0.0354 -0.3965  0.2546
24469SOL     OW75723   0.475   2.903   2.508 -0.2734  0.1614  0.7117
24469SOL    HW175724   0.386   2.899   2.543  0.1607  0.5551  1.9105
24469SOL    HW275725   0.478   2.985   2.459 -1.0132 -0.5952 -0.6516
24470SOL     OW75726   6.250   4.039   8.289 -0.5492 -0.2136 -0.0251
24470SOL    HW175727   6.163   4.000   8.291 -0.2159 -1.0081 -0.2943
24470SOL    HW275728   6.310   3.966   8.306  0.0045  0.5935  1.6837
24471SOL     OW75729   1.235   0.972   6.582  0.1484  0.0822 -0.2950
24471SOL    HW175730   1.263   1.043   6.525 -1.2789  0.6588 -0.3299
24471SOL    HW275731   1.204   1.015   6.662 -0.0056 -0.5491  0.0006
24472SOL     OW75732   4.958   5.523  10.456 -0.7312  0.1767  0.8274
24472SOL    HW175733   4.910   5.442  10.472 -0.7076 -0.0569 -0.2325
24472SOL    HW275734   5.016   5.503  10.383 -1.2938  1.3775  0.0119
24473SOL     OW75735   0.414   6.362   8.759  0.0308  0.0678 -0.4675
24473SOL    HW175736   0.443   6.339   8.848 -0.9971  2.1389  0.4537
24473SOL    HW275737   0.493   6.354   8.706  1.1185  0.5915  0.9991
24474SOL     OW75738   9.765   9.753   0.251 -0.3146  0.4727  0.7949
24474SOL    HW175739   9.729   9.773   0.165  0.1712  0.1885  0.5251
24474SOL    HW275740   9.776   9.658   0.252 -1.3285  0.3418  1.5710
24475SOL     OW75741   6.322   1.368   0.629  0.5218 -0.0184  0.2687
24475SOL    HW175742   6.326   1.361   0.534  3.3080  0.1044  0.2825
24475SOL    HW275743   6.369   1.291   0.662  1.6107  1.0776  1.4248
24476SOL     OW75744   5.448   1.353   6.169  0.8669  0.4032 -0.6655
24476SOL    HW175745   5.431   1.262   6.145 -1.1194 -0.5558  3.3924
24476SOL    HW275746   5.362   1.394   6.170  1.2131  1.1845  1.1653
24477SOL     OW75747   4.258   5.736   8.526  0.6643 -0.3090  0.3544
24477SOL    HW175748   4.233   5.731   8.434 -3.1927  1.2682  1.1077
24477SOL    HW275749   4.327   5.802   8.529  0.6646 -0.1957 -1.3734
24478SOL     OW75750   0.437   4.442   6.497 -0.0206 -0.0188 -0.0822
24478SOL    HW175751   0.351   4.427   6.456  0.0533  0.4011 -0.3960
24478SOL    HW275752   0.480   4.357   6.493 -0.9218 -0.5741  1.2684
24479SOL     OW75753   6.097   4.043   4.224 -0.0173 -0.1283 -0.4056
24479SOL    HW175754   6.062   4.030   4.312 -1.7559  0.8655 -0.9082
24479SOL    HW275755   6.070   3.966   4.176 -0.0617 -0.1350 -0.3696
24480SOL     OW75756   4.687   8.286   5.547  0.4780  0.7289  0.0277
24480SOL    HW175757   4.622   8.276   5.617  0.9086  0.6799  0.4218
24480SOL    HW275758   4.756   8.225   5.570  1.3163  1.7737  0.3649
24481SOL     OW75759   8.398   0.373   3.893  0.3374  0.5863  0.1825
24481SOL    HW175760   8.402   0.438   3.963  1.5839  0.2547  0.4399
24481SOL    HW275761   8.327   0.404   3.836  1.2853  2.5330 -0.0431
24482SOL     OW75762  10.020   6.615   2.339 -0.2999 -0.6230  0.0427
24482SOL    HW175763  10.027   6.537   2.284  1.3375 -0.9248  0.6302
24482SOL    HW275764  10.056   6.685   2.284 -1.9805 -0.1819 -0.5736
24483SOL     OW75765   1.233   9.231   5.276 -0.1762 -0.0904 -0.1710
24483SOL    HW175766   1.217   9.208   5.367 -0.3728  1.3609  0.1855
24483SOL    HW275767   1.327   9.247   5.271  0.2309 -2.3372 -0.7754
24484SOL     OW75768   7.409   6.119   5.095  0.0899 -0.0686 -0.0112
24484SOL    HW175769   7.348   6.045   5.097  0.6842 -0.5674  2.7759
24484SOL    HW275770   7.495   6.079   5.107  0.6048  0.9556 -0.2068
24485SOL     OW75771   3.784   9.780   2.991  0.3036 -0.5458 -0.0752
24485SOL    HW175772   3.837   9.834   2.932 -0.9749  1.0321  0.1333
24485SOL    HW275773   3.837   9.773   3.070  0.9123 -0.4346 -0.4614
24486SOL     OW75774   9.577   3.483   3.555  0.0982 -0.0130  0.1052
24486SOL    HW175775   9.519   3.483   3.631 -0.1449  0.2165 -0.0768
24486SOL    HW275776   9.638   3.411   3.571  0.3689  0.3610  0.7547
24487SOL     OW75777   7.981   6.964   1.373  0.1413 -0.1824  0.0124
24487SOL    HW175778   7.942   7.052   1.372 -1.5600 -0.9112 -0.6790
24487SOL    HW275779   8.021   6.957   1.459 -0.4695  0.9506  0.4127
24488SOL     OW75780   9.112   7.434   6.943  0.1994  0.0183 -0.1616
24488SOL    HW175781   9.201   7.468   6.945  0.0148  0.5112  1.5054
24488SOL    HW275782   9.118   7.353   6.892  2.1646 -1.3471  2.0145
24489SOL     OW75783   1.088   3.597   1.391 -0.4522 -0.1602  0.4611
24489SOL    HW175784   1.066   3.625   1.479 -0.7613 -0.5872  0.5225
24489SOL    HW275785   1.006   3.601   1.343 -0.1028  1.0141 -0.0777
24490SOL     OW75786   0.300   1.393   1.462  0.0799 -0.3246 -0.1467
24490SOL    HW175787   0.351   1.439   1.529 -0.4306 -0.9567  0.6976
24490SOL    HW275788   0.322   1.437   1.380 -2.0898  2.9309  0.8549
24491SOL     OW75789   1.954   9.510   0.536 -0.0090 -0.1429  0.2697
24491SOL    HW175790   1.990   9.597   0.517 -1.4682  0.1234 -1.5271
24491SOL    HW275791   2.003   9.451   0.479 -1.2595  0.0020 -1.0022
24492SOL     OW75792   4.779   1.946   8.488 -0.0089  0.2234  0.0152
24492SOL    HW175793   4.698   1.978   8.448 -0.3411  1.3306  1.4704
24492SOL    HW275794   4.759   1.940   8.582  1.3400 -0.3065  0.2918
24493SOL     OW75795   7.672   6.419   2.486 -0.3152 -0.2182  0.3155
24493SOL    HW175796   7.755   6.373   2.480  0.0053  0.4301 -0.5202
24493SOL    HW275797   7.684   6.497   2.432 -2.4062 -1.5281 -2.3162
24494SOL     OW75798   7.130  10.492   3.501 -0.7915  0.3745 -0.2759
24494SOL    HW175799   7.193  10.474   3.571  0.4388 -1.1182 -1.6848
24494SOL    HW275800   7.069  10.418   3.504  0.3442 -0.6710 -1.8942
24495SOL     OW75801  10.148   6.807   2.189  0.3397  0.1694  0.3163
24495SOL    HW175802  10.094   6.885   2.178 -0.5946 -0.7806 -2.7165
24495SOL    HW275803  10.236   6.835   2.165 -0.3622 -0.0642 -2.9468
24496SOL     OW75804   1.628   4.409   2.514 -0.0230 -0.2038 -0.1022
24496SOL    HW175805   1.607   4.406   2.421 -0.7454 -1.4137  0.0875
24496SOL    HW275806   1.543   4.403   2.558  0.3626 -0.3399  0.6416
24497SOL     OW75807   5.366   4.437   5.958 -0.2352 -0.0545 -0.4644
24497SOL    HW175808   5.370   4.360   6.015  0.4519 -0.0907 -0.5468
24497SOL    HW275809   5.314   4.500   6.007  3.3757  1.3476  2.0419
24498SOL     OW75810   9.010   4.365   3.135  0.0327 -0.3772  0.1895
24498SOL    HW175811   9.085   4.350   3.193 -0.0826 -0.2190  0.3815
24498SOL    HW275812   8.953   4.290   3.150  0.9049 -1.3601 -1.1738
24499SOL     OW75813   1.374   7.923  10.501 -0.5612  0.2776 -0.4295
24499SOL    HW175814   1.463   7.958  10.511  0.0317 -1.6377  1.6641
24499SOL    HW275815   1.318   7.989  10.541  0.1550  0.5469  0.1647
24500SOL     OW75816   6.533   5.440   9.151 -0.0271  0.0471 -0.5571
24500SOL    HW175817   6.443   5.464   9.173 -0.5680 -1.2417 -1.2631
24500SOL    HW275818   6.559   5.381   9.222  0.3315  0.5374 -0.2730
24501SOL     OW75819   3.725  10.240   1.766  0.0740  0.1256 -0.0664
24501SOL    HW175820   3.660  10.177   1.797 -1.0199  1.4279  0.3901
24501SOL    HW275821   3.700  10.258   1.676  0.3900 -0.0670 -0.1979
24502SOL     OW75822   2.368   4.462   5.387  0.6252  0.0550  0.2599
24502SOL    HW175823   2.421   4.391   5.424  0.3245  0.6106  1.8317
24502SOL    HW275824   2.412   4.542   5.415 -0.8035  0.5237  1.2873
24503SOL     OW75825   6.090   5.429   1.791  0.4779  0.2559  0.3951
24503SOL    HW175826   6.132   5.491   1.732  0.8735 -1.2342 -0.9934
24503SOL    HW275827   6.122   5.343   1.762 -1.0615 -0.7022  1.3544
24504SOL     OW75828   2.850   1.639   3.822  0.7446 -0.5627 -0.2614
24504SOL    HW175829   2.917   1.572   3.832  0.6713 -0.6835 -0.5690
24504SOL    HW275830   2.838   1.647   3.727 -0.5867 -1.4433 -0.1858
24505SOL     OW75831   1.258   5.958   5.669 -0.0833 -0.0324  0.1980
24505SOL    HW175832   1.333   5.989   5.618  0.6715 -2.6292 -0.4166
24505SOL    HW275833   1.191   5.938   5.604 -0.3198 -0.2723  0.5098
24506SOL     OW75834  10.452   6.253   0.845  0.2704  0.6753  0.6062
24506SOL    HW175835  10.401   6.308   0.786  1.5539  1.4961  0.2415
24506SOL    HW275836  10.455   6.168   0.802  2.6108  1.6746 -1.4466
24507SOL     OW75837   4.672   7.057   6.756 -0.0236 -0.2132  0.6605
24507SOL    HW175838   4.604   7.124   6.752  1.5046  1.6428  2.7930
24507SOL    HW275839   4.634   6.987   6.810 -1.9572 -1.6402 -2.3024
24508SOL     OW75840   5.033   5.973   5.364 -0.0000 -0.0471  0.2395
24508SOL    HW175841   5.013   6.067   5.375 -1.0166 -0.1122 -0.8979
24508SOL    HW275842   5.103   5.957   5.427 -1.4240  0.9399  2.2187
24509SOL     OW75843   6.891   4.064   4.537 -0.5458 -0.0494  0.0530
24509SOL    HW175844   6.984   4.051   4.558 -0.2952  3.0301  1.4851
24509SOL    HW275845   6.844   4.013   4.603  0.0546 -2.0423 -0.9901
24510SOL     OW75846   6.158   3.302   7.753 -0.7708 -0.3442  0.4066
24510SOL    HW175847   6.211   3.329   7.828  0.3407  1.0585 -0.8076
24510SOL    HW275848   6.156   3.379   7.696 -1.0596 -1.5294 -1.2773
24511SOL     OW75849   6.038   8.080   5.975  0.0747  0.2163 -0.1033
24511SOL    HW175850   5.986   8.000   5.989  1.3780 -0.4107  1.5452
24511SOL    HW275851   5.976   8.151   5.990 -0.0357 -0.4648  4.0543
24512SOL     OW75852   6.288   6.743   2.621  0.1084  0.2047 -0.2303
24512SOL    HW175853   6.278   6.650   2.599 -0.1902 -0.0840  1.0342
24512SOL    HW275854   6.305   6.743   2.715 -0.4580  1.4698 -0.1121
24513SOL     OW75855   8.865   6.444   7.923  0.2849  0.0320 -0.1436
24513SOL    HW175856   8.849   6.366   7.976 -0.8913 -0.6667 -1.4581
24513SOL    HW275857   8.869   6.516   7.986 -0.3481 -0.8655  0.9547
24514SOL     OW75858   8.103   3.690   3.287  0.1296 -1.0194 -0.0020
24514SOL    HW175859   8.018   3.652   3.310 -0.2549 -1.4862 -2.0365
24514SOL    HW275860   8.093   3.784   3.304 -0.2326 -1.2750  1.2986
24515SOL     OW75861   7.424   8.169   8.257 -0.0893  0.2492  0.3535
24515SOL    HW175862   7.507   8.121   8.266  0.2393  0.8456  0.5770
24515SOL    HW275863   7.451   8.260   8.245 -0.6639  0.1658 -1.8008
24516SOL     OW75864   4.975   4.025   6.661 -0.4649  0.7115 -0.3740
24516SOL    HW175865   5.070   4.018   6.667 -0.2990  0.0626 -2.6500
24516SOL    HW275866   4.945   3.934   6.655 -0.9620  0.9618 -2.1590
24517SOL     OW75867   0.583   1.615   6.727 -0.0711 -0.0218  0.3041
24517SOL    HW175868   0.527   1.564   6.786 -0.2356  1.3525  1.3782
24517SOL    HW275869   0.529   1.627   6.648 -1.0102  0.5984  1.0175
24518SOL     OW75870   8.869   4.978   2.312 -0.0871  0.2067  0.1491
24518SOL    HW175871   8.795   4.988   2.372 -0.7700  0.4977 -0.7255
24518SOL    HW275872   8.853   4.896   2.266 -0.2576  0.6178 -0.5509
24519SOL     OW75873   4.095   6.046   1.110  0.3351  0.0303  0.4306
24519SOL    HW175874   4.068   6.119   1.054 -0.2918  0.6766  1.5498
24519SOL    HW275875   4.018   5.989   1.112  0.1264  0.3273  1.1285
24520SOL     OW75876   9.535   2.041   8.083 -0.2244  0.2176 -0.1178
24520SOL    HW175877   9.631   2.041   8.086  0.0118 -2.0598 -2.9212
24520SOL    HW275878   9.514   2.109   8.020 -0.7310  2.3772  2.2157
24521SOL     OW75879  10.591   6.779   5.511 -0.0498 -0.6415  0.0821
24521SOL    HW175880  10.632   6.789   5.596 -0.7313 -0.2801  0.3720
24521SOL    HW275881  10.512   6.833   5.515 -0.8069 -1.6856 -0.2913
24522SOL     OW75882   1.689   3.884   7.543  0.5728 -0.3191 -0.3344
24522SOL    HW175883   1.776   3.922   7.554  1.4390 -1.2809 -2.9097
24522SOL    HW275884   1.640   3.951   7.495 -0.7445  0.8791  2.4428
24523SOL     OW75885   0.757   7.964   0.065 -0.0288  0.4037 -0.3240
24523SOL    HW175886   0.771   7.899   0.134  0.8176 -0.0857 -0.9402
24523SOL    HW275887   0.677   7.936   0.022  0.0314  0.0877 -0.2321
24524SOL     OW75888   6.945   6.336   2.997  0.3692  0.0973  0.2402
24524SOL    HW175889   6.870   6.393   2.986 -0.9834 -1.5878  0.2693
24524SOL    HW275890   6.986   6.365   3.078 -1.2655 -0.0243  1.1475
24525SOL     OW75891   3.073   2.659   1.190  0.0384  0.0061  0.2812
24525SOL    HW175892   3.161   2.697   1.194  0.1687 -0.1847 -0.5977
24525SOL    HW275893   3.084   2.571   1.228  0.2903 -0.1196 -0.0761
24526SOL     OW75894   6.814   3.376   9.072  0.0627 -0.1753  0.1433
24526SOL    HW175895   6.744   3.429   9.032  1.5934  1.3250 -0.7033
24526SOL    HW275896   6.793   3.375   9.165 -0.7556  0.8095 -0.0062
24527SOL     OW75897   5.473   1.901   9.115 -0.4984  0.4101  0.3994
24527SOL    HW175898   5.444   1.849   9.039 -0.5595  1.7425 -0.5252
24527SOL    HW275899   5.394   1.916   9.166 -1.1428  2.2815 -1.0304
24528SOL     OW75900   2.025   6.318   4.092  0.5434 -0.4785  0.0436
24528SOL    HW175901   2.061   6.275   4.015  1.2401 -0.4740  0.3516
24528SOL    HW275902   2.056   6.265   4.166 -0.1832 -0.5354  0.3171
24529SOL     OW75903   0.817   6.119   9.149  0.1569  0.0153 -0.1909
24529SOL    HW175904   0.863   6.038   9.171  0.0281 -0.1465 -0.5148
24529SOL    HW275905   0.757   6.094   9.079 -0.1522  0.3086 -0.0333
24530SOL     OW75906   1.528   8.724   2.134 -0.1738 -0.0868  0.1534
24530SOL    HW175907   1.526   8.817   2.158 -2.2151 -0.1449  0.4132
24530SOL    HW275908   1.441   8.692   2.158  0.9848 -2.4564  1.5136
24531SOL     OW75909   1.017   4.603   0.020 -0.0033  0.0093 -0.4840
24531SOL    HW175910   1.001   4.510   0.037  0.0421  0.0516 -0.2030
24531SOL    HW275911   1.102   4.605  -0.023 -0.8876 -0.2571 -2.3913
24532SOL     OW75912   4.905   1.940   5.527  0.0709  0.0825 -0.3079
24532SOL    HW175913   4.819   1.899   5.528  0.6401 -1.3579  3.0327
24532SOL    HW275914   4.957   1.884   5.469 -0.5541 -0.7126 -0.1196
24533SOL     OW75915   3.130   9.029   5.926  0.0146 -0.1268  0.9700
24533SOL    HW175916   3.190   9.103   5.920 -1.2127  0.8242 -0.1426
24533SOL    HW275917   3.183   8.954   5.900  0.4737  0.8651 -1.2180
24534SOL     OW75918   7.453   3.659   9.013 -0.3395 -0.0807 -0.3582
24534SOL    HW175919   7.364   3.694   9.015 -0.7577 -1.1306  0.9941
24534SOL    HW275920   7.443   3.572   8.975  0.1625 -0.0932 -0.4706
24535SOL     OW75921   6.792   4.930   3.595  0.0204  0.2545 -0.2202
24535SOL    HW175922   6.808   5.016   3.557  1.3585  0.1230  0.0013
24535SOL    HW275923   6.753   4.948   3.680  1.0592  0.6821  0.1764
24536SOL     OW75924  10.000   0.502   5.392  0.3282 -0.5504 -0.3294
24536SOL    HW175925  10.004   0.433   5.458 -0.6110 -1.0433 -0.7749
24536SOL    HW275926  10.047   0.466   5.317 -2.5104 -1.9374 -1.6107
24537SOL     OW75927   7.277   7.482   3.460  0.0656 -1.2612 -0.2043
24537SOL    HW175928   7.310   7.564   3.425  0.4450 -0.8934  0.9736
24537SOL    HW275929   7.235   7.506   3.542  0.1347 -2.2352  0.1305
24538SOL     OW75930   1.821   5.035   2.558  0.0850  0.3375  0.1054
24538SOL    HW175931   1.762   5.109   2.574 -0.7611 -0.1560 -0.6690
24538SOL    HW275932   1.871   5.026   2.639  1.8329  3.1887 -0.4866
24539SOL     OW75933   3.582   9.270  10.315  0.6061  0.3920  0.0514
24539SOL    HW175934   3.598   9.304  10.226  1.1425 -1.1477 -0.4781
24539SOL    HW275935   3.487   9.269  10.324  0.5245  3.2705  0.6421
24540SOL     OW75936   2.666   0.609   4.350  0.9179  0.1548 -0.0201
24540SOL    HW175937   2.756   0.597   4.321  0.7170 -0.3168 -0.4647
24540SOL    HW275938   2.658   0.703   4.367  1.3484  0.2744 -0.4565
24541SOL     OW75939   1.387   0.966   0.104 -0.1753  0.4247  0.4718
24541SOL    HW175940   1.393   0.939   0.012  0.6598 -0.1494  0.6840
24541SOL    HW275941   1.310   0.920   0.138  1.1376 -1.6683  0.7901
24542SOL     OW75942   1.473  10.303   9.884  0.2649  0.2182 -0.1919
24542SOL    HW175943   1.545  10.277   9.941  1.0305  1.0272 -0.7539
24542SOL    HW275944   1.406  10.336   9.944  1.7152  2.6498  0.2401
24543SOL     OW75945  10.052   9.646   6.578  0.0104  0.0366 -0.1860
24543SOL    HW175946   9.991   9.706   6.535  1.5350  1.4142 -0.5255
24543SOL    HW275947  10.085   9.590   6.507  1.6078  1.5116 -0.6921
24544SOL     OW75948   8.041  10.210   1.933  0.3356 -0.0025  0.3028
24544SOL    HW175949   8.034  10.283   1.995  0.8182  0.0937  0.2490
24544SOL    HW275950   8.082  10.249   1.855  1.3591 -0.5062  0.5734
24545SOL     OW75951   9.069   1.572   0.407  0.1996  0.4530  0.3596
24545SOL    HW175952   9.099   1.539   0.322  0.8012 -0.0943  0.7783
24545SOL    HW275953   9.038   1.495   0.453 -0.7299  0.8386  0.4070
24546SOL     OW75954   1.090   8.101   6.493 -0.1048  0.5728 -0.5011
24546SOL    HW175955   1.052   8.177   6.448 -0.3507 -0.3338 -1.9168
24546SOL    HW275956   1.034   8.088   6.569 -1.1325  0.7597 -1.2012
24547SOL     OW75957   2.842   3.350   5.520 -0.4489  0.1366  0.0185
24547SOL    HW175958   2.833   3.296   5.442 -0.7107  0.4819 -0.1889
24547SOL    HW275959   2.794   3.302   5.588 -1.1009  0.3493 -0.2848
24548SOL     OW75960   9.719   0.118   7.068 -0.3174  0.6566  0.2451
24548SOL    HW175961   9.762   0.200   7.092  0.6956 -0.2439  1.6602
24548SOL    HW275962   9.721   0.065   7.148 -1.3167 -0.5987 -0.5150
24549SOL     OW75963   6.533   9.599   2.460  0.2749  0.2717  0.4606
24549SOL    HW175964   6.572   9.570   2.543  1.3651  1.9830  0.6054
24549SOL    HW275965   6.507   9.518   2.416 -1.4956 -0.6578  2.9875
24550SOL     OW75966   7.369   4.757   7.590  0.1108  0.0228 -0.6074
24550SOL    HW175967   7.450   4.709   7.571  0.1622  0.2905 -1.0870
24550SOL    HW275968   7.336   4.718   7.671  0.0981 -0.9072 -1.0441
24551SOL     OW75969   6.929   2.192   5.642 -0.0690 -0.6385  0.4992
24551SOL    HW175970   6.970   2.187   5.555 -0.3582 -0.5055  0.3562
24551SOL    HW275971   6.978   2.128   5.694 -0.5971 -1.5051 -0.0500
24552SOL     OW75972   4.141   0.173   1.678  0.4036 -0.6097 -0.0299
24552SOL    HW175973   4.097   0.109   1.733 -0.2843 -0.7595 -0.7512
24552SOL    HW275974   4.234   0.159   1.695  0.1968 -0.2120  1.5840
24553SOL     OW75975   4.571   2.631   9.161 -0.1029  0.2235  0.6248
24553SOL    HW175976   4.501   2.594   9.215 -0.8152 -0.0487 -0.4549
24553SOL    HW275977   4.581   2.720   9.194 -1.5022  0.5277  0.3148
24554SOL     OW75978   6.994   9.140   1.941 -0.0288 -0.0816 -0.2157
24554SOL    HW175979   6.982   9.068   1.879  1.7732  1.2419 -2.2259
24554SOL    HW275980   6.928   9.205   1.916  2.0948  1.3987 -2.3374
24555SOL     OW75981   8.361   4.996   8.091 -0.1885 -0.1868  0.3711
24555SOL    HW175982   8.313   5.024   8.013 -0.1767 -0.4527  0.2663
24555SOL    HW275983   8.324   4.910   8.111 -0.3435 -0.0225  0.7884
24556SOL     OW75984   4.277   5.101   5.777  0.3589 -0.6383  0.8378
24556SOL    HW175985   4.327   5.124   5.699 -0.4299 -1.4048  0.0771
24556SOL    HW275986   4.338   5.051   5.831  1.3632  1.1809  1.4303
24557SOL     OW75987   3.538   3.076   0.504  0.6237  0.0418  0.8559
24557SOL    HW175988   3.594   2.999   0.493 -0.5256 -0.6044 -0.9894
24557SOL    HW275989   3.488   3.059   0.584 -0.9660 -2.0848 -0.4931
24558SOL     OW75990   3.664   1.345   8.470 -0.1107 -0.0530 -0.6542
24558SOL    HW175991   3.638   1.335   8.379 -0.3699 -1.5033 -0.4501
24558SOL    HW275992   3.721   1.423   8.471 -1.2750  0.8556 -1.7769
24559SOL     OW75993   0.155   4.193   3.752  0.5019  0.3580  0.2834
24559SOL    HW175994   0.129   4.104   3.728 -0.8558  0.5949  0.8176
24559SOL    HW275995   0.247   4.198   3.725  0.3704 -0.9217 -0.5244
24560SOL     OW75996   3.896  10.009   7.351 -0.0717  0.3464 -0.1465
24560SOL    HW175997   3.882   9.941   7.285 -1.7873  1.7720 -1.3070
24560SOL    HW275998   3.956   9.968   7.414 -0.7215 -2.0906 -1.0036
24561SOL     OW75999   9.968   6.293   6.443  0.0431 -0.1214  0.1316
24561SOL    HW176000   9.877   6.262   6.444  0.3438 -1.0443  0.0650
24561SOL    HW276001  10.015   6.228   6.495  0.6309  0.4693  0.3420
24562SOL     OW76002  10.224  10.389   5.090 -0.2681 -0.2933  0.1180
24562SOL    HW176003  10.314  10.358   5.090 -0.5911 -1.2504 -0.0496
24562SOL    HW276004  10.221  10.455   5.021 -0.0088 -1.2219 -0.8094
24563SOL     OW76005   3.585   5.533   7.186  0.4541 -0.3947  0.2565
24563SOL    HW176006   3.574   5.543   7.280 -0.2349 -1.2329  0.2814
24563SOL    HW276007   3.676   5.560   7.169  1.8355 -3.5641  1.7316
24564SOL     OW76008   1.161   0.980   1.495 -0.3850  0.0218  0.3041
24564SOL    HW176009   1.144   1.070   1.467  1.8749  0.2112 -0.7288
24564SOL    HW276010   1.221   0.989   1.570  0.7002 -0.5828 -0.4564
24565SOL     OW76011   8.168   3.943   1.036 -0.2406  0.0954  0.6599
24565SOL    HW176012   8.150   4.005   1.107 -1.8992  1.6357 -0.9876
24565SOL    HW276013   8.115   3.866   1.057 -0.5626  0.4548  1.2013
24566SOL     OW76014   5.183   6.358   3.117  0.0816  0.4293 -0.1482
24566SOL    HW176015   5.118   6.299   3.079 -0.3857  0.2868  0.8436
24566SOL    HW276016   5.132   6.432   3.149  0.2646 -0.0686  1.4013
24567SOL     OW76017   9.822   6.048   5.034  0.2840 -0.8999 -0.4019
24567SOL    HW176018   9.758   6.119   5.040  0.7166 -0.5161 -0.2872
24567SOL    HW276019   9.898   6.088   4.992  1.6274 -0.4888  2.2072
24568SOL     OW76020  10.010   0.164   1.428  0.2179  0.1290  0.2304
24568SOL    HW176021   9.988   0.134   1.516  0.3036  3.2757  1.4719
24568SOL    HW276022   9.925   0.187   1.389  0.2981  0.1075  0.0440
24569SOL     OW76023   3.626   6.793   6.022 -0.7983 -0.8900 -0.4140
24569SOL    HW176024   3.558   6.800   5.955 -0.5921  0.8226 -0.4930
24569SOL    HW276025   3.645   6.883   6.047  1.4746 -1.2833 -0.4320
24570SOL     OW76026   5.868  10.342   0.985 -0.0129  0.5210  0.3422
24570SOL    HW176027   5.915  10.373   0.908 -1.2165  0.4363 -0.4533
24570SOL    HW276028   5.817  10.267   0.954 -1.7164  1.4182  0.8103
24571SOL     OW76029   3.372   1.542   7.390  0.4287 -0.1540  0.6429
24571SOL    HW176030   3.435   1.557   7.460 -0.1953  0.5539  1.0612
24571SOL    HW276031   3.330   1.459   7.414 -1.2489  1.1019  2.2543
24572SOL     OW76032   8.317   3.669   3.657 -0.0946 -0.1922 -0.5028
24572SOL    HW176033   8.321   3.693   3.564  1.5456 -0.2531 -0.4689
24572SOL    HW276034   8.319   3.573   3.657 -0.6940 -0.2111 -0.4087
24573SOL     OW76035   5.156   1.296   1.499 -0.2503  0.0973 -0.1292
24573SOL    HW176036   5.126   1.228   1.559 -2.0578  0.3012 -0.7274
24573SOL    HW276037   5.077   1.347   1.479  0.8988  1.9229 -0.2800
24574SOL     OW76038   7.996   5.948   3.137 -0.0937 -0.3205  0.3594
24574SOL    HW176039   7.948   5.869   3.163  1.5351 -1.3605  0.3539
24574SOL    HW276040   8.055   5.965   3.211 -1.4864  1.8706  1.0754
24575SOL     OW76041   6.390   8.352   2.587  0.3582 -0.1011  0.0044
24575SOL    HW176042   6.413   8.445   2.588  0.2965 -0.0458 -1.2061
24575SOL    HW276043   6.434   8.315   2.663  1.3666  0.7018 -0.1612
24576SOL     OW76044   7.398   4.010   2.167 -0.4423  0.2781  0.3235
24576SOL    HW176045   7.409   3.915   2.162  0.0234  0.4057 -2.6169
24576SOL    HW276046   7.306   4.025   2.143 -0.4403  0.6092  0.5105
24577SOL     OW76047   0.296   3.216   1.746 -0.2599 -0.2368 -0.0814
24577SOL    HW176048   0.281   3.170   1.663 -0.6408  0.2479 -0.2840
24577SOL    HW276049   0.226   3.281   1.751 -0.2525 -0.2761  0.6368
24578SOL     OW76050   9.957   7.465   0.564 -0.3651  0.3541 -0.1122
24578SOL    HW176051   9.935   7.407   0.491  1.1239 -0.2389 -0.1366
24578SOL    HW276052   9.887   7.454   0.627 -0.4774 -0.9261 -0.4472
24579SOL     OW76053   3.738   6.170   7.786  0.8600  0.2853 -0.0905
24579SOL    HW176054   3.828   6.152   7.758  0.2179 -1.1356 -1.3572
24579SOL    HW276055   3.710   6.090   7.830  0.2528  0.7795  0.4423
24580SOL     OW76056   4.512   2.209   4.396  0.1687  0.2685  0.6444
24580SOL    HW176057   4.434   2.233   4.447 -1.3980  2.6618 -2.4612
24580SOL    HW276058   4.575   2.278   4.415 -0.5219  1.3260 -0.6831
24581SOL     OW76059  10.128   2.850   7.525 -0.1310 -0.0269 -0.4620
24581SOL    HW176060  10.137   2.831   7.618 -1.2906 -2.6550 -0.8161
24581SOL    HW276061  10.073   2.929   7.522  1.0628  0.9260  1.0454
24582SOL     OW76062   3.707   3.033   7.652  0.3275 -0.0531  0.1463
24582SOL    HW176063   3.788   3.021   7.702  1.2538  1.3274 -0.9416
24582SOL    HW276064   3.638   3.000   7.710  1.1941  2.3976  2.8339
24583SOL     OW76065   0.797   3.770   4.779 -0.1813  0.9651 -0.5098
24583SOL    HW176066   0.703   3.763   4.794 -0.0465  1.2351  0.5777
24583SOL    HW276067   0.826   3.840   4.839  1.1243 -0.9525  1.2382
24584SOL     OW76068   6.336   6.324   5.079 -0.3870 -0.0567  0.1086
24584SOL    HW176069   6.289   6.306   4.997  0.3440  0.1601 -0.3643
24584SOL    HW276070   6.387   6.244   5.095  1.7072  0.9407 -1.2002
24585SOL     OW76071   3.358   9.672   7.214 -0.3879 -0.1378  0.0124
24585SOL    HW176072   3.396   9.604   7.270 -0.3416 -0.6010 -0.5749
24585SOL    HW276073   3.432   9.703   7.161 -0.8005 -1.0323 -1.1266
24586SOL     OW76074   8.593   6.064   4.083 -0.5734  0.2027 -0.0506
24586SOL    HW176075   8.507   6.024   4.087 -0.2842 -0.5181 -0.8351
24586SOL    HW276076   8.626   6.042   3.996  0.5807  0.0850  0.3970
24587SOL     OW76077  10.196   8.663   2.113 -0.2506 -0.5085  0.7512
24587SOL    HW176078  10.289   8.662   2.089  0.2757 -0.0335  2.6124
24587SOL    HW276079  10.160   8.585   2.071  0.5381  0.2719 -1.5439
24588SOL     OW76080   9.782   7.299   1.980 -0.1233  0.2534  0.2435
24588SOL    HW176081   9.751   7.382   1.943  0.6225  0.0427 -0.8985
24588SOL    HW276082   9.871   7.290   1.946  0.7451  0.2066  2.3787
24589SOL     OW76083   3.920   5.937   8.168 -0.1233 -0.3504 -0.0438
24589SOL    HW176084   3.926   6.032   8.179 -1.0006 -0.4060  1.1386
24589SOL    HW276085   3.854   5.925   8.100 -1.1438 -0.1209  0.8791
24590SOL     OW76086   8.682   9.880   6.557  0.5909 -0.4121  0.1827
24590SOL    HW176087   8.703   9.899   6.649  1.3737  1.5440 -0.3568
24590SOL    HW276088   8.593   9.913   6.546  1.0436  0.7718 -0.1120
24591SOL     OW76089   4.304  10.205   9.712 -0.1103 -0.5085  0.5413
24591SOL    HW176090   4.358  10.281   9.690  1.4244 -1.3879  1.1696
24591SOL    HW276091   4.252  10.233   9.787 -0.5344  0.3277 -0.0432
24592SOL     OW76092   1.797   2.260   9.772 -0.0248  0.1345 -0.7727
24592SOL    HW176093   1.756   2.269   9.857 -0.1837 -0.1687 -0.8181
24592SOL    HW276094   1.854   2.184   9.780 -0.3450 -0.1372 -1.0583
24593SOL     OW76095   0.619   8.439   0.871 -0.2577  0.0099  0.4502
24593SOL    HW176096   0.641   8.487   0.791 -0.1597 -1.1537 -0.2520
24593SOL    HW276097   0.532   8.471   0.895 -0.9602 -0.7077 -1.0033
24594SOL     OW76098   6.121   5.011   1.098  0.3830  0.0615 -0.2353
24594SOL    HW176099   6.118   4.921   1.065  1.9274  0.1301 -0.6535
24594SOL    HW276100   6.142   5.002   1.191  0.7022 -0.0222 -0.3125
24595SOL     OW76101   8.679   0.627   7.790 -0.4233 -0.2696  0.7438
24595SOL    HW176102   8.628   0.625   7.871  0.6880  0.7968  1.5038
24595SOL    HW276103   8.770   0.636   7.819 -0.0038  0.0777 -0.6145
24596SOL     OW76104   2.065   6.336   1.069 -0.0685  0.0243 -0.3331
24596SOL    HW176105   2.060   6.430   1.088 -0.5309 -0.0801  0.1057
24596SOL    HW276106   2.046   6.328   0.976 -0.6901  0.3168 -0.2366
24597SOL     OW76107   1.284   6.619   4.817 -0.1695 -0.0575 -0.0939
24597SOL    HW176108   1.205   6.670   4.837 -1.1481 -1.5679  0.0883
24597SOL    HW276109   1.251   6.544   4.767  1.2434 -0.4243 -0.5088
24598SOL     OW76110   8.096   2.479   6.296  0.3044  0.3960  0.2686
24598SOL    HW176111   8.081   2.568   6.264  0.3183 -0.3931 -2.1763
24598SOL    HW276112   8.171   2.487   6.356 -1.4149  2.3849  2.3251
24599SOL     OW76113   8.543   5.754   1.713  0.3818  0.1421 -0.4751
24599SOL    HW176114   8.605   5.730   1.781 -1.0706 -0.4470  0.6786
24599SOL    HW276115   8.459   5.723   1.744 -0.4733  0.6323 -2.1493
24600SOL     OW76116   8.481  10.330   0.470 -0.2126  0.7706  0.0742
24600SOL    HW176117   8.557  10.306   0.418 -1.7725  2.1803 -3.1783
24600SOL    HW276118   8.430  10.249   0.479  0.1172  0.4893 -0.5730
24601SOL     OW76119   6.101   2.468   4.274 -0.1613 -0.1970 -0.0751
24601SOL    HW176120   6.099   2.517   4.193  1.0609  0.2891  0.1748
24601SOL    HW276121   6.051   2.388   4.255  0.1263 -0.1005 -1.3036
24602SOL     OW76122  10.122   6.559  10.406  0.3237  0.3284 -0.0802
24602SOL    HW176123  10.078   6.607  10.476 -0.1605 -1.2115  0.7002
24602SOL    HW276124  10.206   6.533  10.444  0.8713  1.0918 -0.7255
24603SOL     OW76125   8.168   7.682   6.662 -0.3274  0.0485  0.0888
24603SOL    HW176126   8.159   7.770   6.624 -0.1780 -0.1916 -0.5172
24603SOL    HW276127   8.110   7.683   6.738 -0.2569  0.7044  0.1383
24604SOL     OW76128   1.859   0.665   5.583 -0.5489 -0.0524  0.1495
24604SOL    HW176129   1.915   0.596   5.618  1.2993  0.4327 -1.6188
24604SOL    HW276130   1.892   0.745   5.624 -1.6798 -0.0281  1.0415
24605SOL     OW76131   2.234   5.331   3.340  0.9359  0.0184 -0.1757
24605SOL    HW176132   2.247   5.418   3.303 -1.3146 -0.0473 -1.2702
24605SOL    HW276133   2.188   5.282   3.272 -1.2907 -0.8057  1.7608
24606SOL     OW76134   3.047   6.767   2.813  0.6755  0.3672 -0.0302
24606SOL    HW176135   3.053   6.862   2.807  1.4258  0.2620 -1.3236
24606SOL    HW276136   2.975   6.751   2.874 -0.5836  1.7552 -1.0911
24607SOL     OW76137   2.149   9.044   1.771 -0.6052  0.1995 -0.0804
24607SOL    HW176138   2.081   9.106   1.744  1.0286  1.1510 -2.3280
24607SOL    HW276139   2.122   8.961   1.731 -0.3849  0.6208 -1.1437
24608SOL     OW76140   5.109   5.068   0.382  0.1068  0.6150  0.6126
24608SOL    HW176141   5.147   5.154   0.401  1.5096  0.5978 -1.6920
24608SOL    HW276142   5.175   5.005   0.412  1.1143  0.5267 -1.6022
24609SOL     OW76143   6.638   8.407   5.204 -0.4932 -0.1280 -0.3587
24609SOL    HW176144   6.622   8.324   5.158 -2.3227  1.0991 -2.1327
24609SOL    HW276145   6.692   8.457   5.144  1.5594 -0.3829  1.1903
24610SOL     OW76146   3.521   5.494   9.837  0.0596  0.6540 -0.3034
24610SOL    HW176147   3.473   5.465   9.760 -0.7011 -0.1217  0.4377
24610SOL    HW276148   3.570   5.571   9.808 -1.5017  1.3722 -1.1335
24611SOL     OW76149   4.319   4.467   4.007  0.1000  0.1271  0.7308
24611SOL    HW176150   4.370   4.547   4.021  0.2551  0.9709 -3.4051
24611SOL    HW276151   4.346   4.408   4.078  2.9810  2.3359  1.6489
24612SOL     OW76152   6.414   5.701   2.852 -0.0689  1.0777  0.3088
24612SOL    HW176153   6.343   5.668   2.906 -0.2414  0.7814 -0.0943
24612SOL    HW276154   6.381   5.695   2.762  2.2973 -4.3870 -0.6483
24613SOL     OW76155   6.978   1.589   3.124 -0.3701  0.4615 -0.6475
24613SOL    HW176156   7.059   1.548   3.094  0.1447  0.7462  0.3029
24613SOL    HW276157   7.002   1.680   3.141 -0.9462  0.6011 -0.5554
24614SOL     OW76158   7.366   3.912   6.305  0.7950  0.2434  0.0361
24614SOL    HW176159   7.310   3.848   6.349 -0.7928  1.2821 -0.4143
24614SOL    HW276160   7.436   3.859   6.266  0.1822 -1.0775  0.6559
24615SOL     OW76161   2.289   6.978   6.373  0.1652 -0.4761  0.3973
24615SOL    HW176162   2.306   6.920   6.299 -0.4504 -0.8976  0.5746
24615SOL    HW276163   2.195   6.995   6.369  0.5223  1.6094 -0.4309
24616SOL     OW76164   5.102   8.118   4.382 -0.6042  0.1201 -0.0846
24616SOL    HW176165   5.077   8.130   4.290 -0.7905  1.1295  0.0804
24616SOL    HW276166   5.069   8.031   4.405 -0.3032 -0.2532 -1.0498
24617SOL     OW76167   0.248   6.617   5.014 -0.0758  0.1824  0.3708
24617SOL    HW176168   0.331   6.571   5.023  0.2920  0.7772  0.0982
24617SOL    HW276169   0.271   6.710   5.022 -0.6861  0.3602  0.1257
24618SOL     OW76170   0.656   1.673   0.643  0.4234 -0.1315 -0.1440
24618SOL    HW176171   0.594   1.736   0.608  1.3607  0.3272 -1.0242
24618SOL    HW276172   0.741   1.717   0.637  0.8797 -0.8482  0.7724
24619SOL     OW76173   7.113   0.328   1.350 -0.1180  0.1111 -0.6999
24619SOL    HW176174   7.093   0.342   1.257  1.9649 -0.3189 -1.2598
24619SOL    HW276175   7.035   0.285   1.385 -0.8992  0.1688 -2.2679
24620SOL     OW76176   8.555   0.676   9.362  0.5103 -0.4272 -0.2017
24620SOL    HW176177   8.479   0.633   9.401  0.4757 -2.3455 -2.1854
24620SOL    HW276178   8.558   0.642   9.272  1.7221  2.2265 -1.2651
24621SOL     OW76179   5.420   0.368   1.115 -0.0194  0.0031 -0.3647
24621SOL    HW176180   5.370   0.435   1.067 -0.0341  0.5894  0.4462
24621SOL    HW276181   5.509   0.403   1.119 -0.2693  0.5339  1.0462
24622SOL     OW76182   9.241   1.534   7.935  0.2572  0.1815 -0.0076
24622SOL    HW176183   9.244   1.574   8.022 -0.3311 -0.5020  0.3322
24622SOL    HW276184   9.230   1.608   7.875 -0.0368  0.5951  0.5500
24623SOL     OW76185   7.265   4.423   4.988  0.1450 -0.2321 -0.0842
24623SOL    HW176186   7.229   4.335   4.980 -1.0249  0.1842  0.3041
24623SOL    HW276187   7.189   4.481   4.979  0.9139  0.7496 -0.4939
24624SOL     OW76188   6.974   0.192   6.744 -0.7165  0.0030 -0.7164
24624SOL    HW176189   6.929   0.236   6.816  0.3919  0.0165 -0.0148
24624SOL    HW276190   6.939   0.234   6.665 -1.0651  0.8251 -0.1397
24625SOL     OW76191   3.990   1.049  10.376  0.4603  0.0556  0.0819
24625SOL    HW176192   3.991   1.017  10.286  2.2716  0.9871 -0.2783
24625SOL    HW276193   4.082   1.050  10.402 -0.1024 -1.5806  2.4957
24626SOL     OW76194   4.491   5.053   4.473 -0.1739  0.8267 -0.0553
24626SOL    HW176195   4.431   5.059   4.548 -0.4971  1.8384 -0.3761
24626SOL    HW276196   4.441   5.088   4.400 -0.2733 -1.2378 -1.0243
24627SOL     OW76197   3.874   7.174   7.370 -0.8362  0.0081 -0.0207
24627SOL    HW176198   3.906   7.090   7.404 -0.2128  0.4138  0.4174
24627SOL    HW276199   3.779   7.170   7.382 -0.7860 -0.5409  0.2168
24628SOL     OW76200   2.345   3.456   5.400 -0.4756  0.0871  0.2419
24628SOL    HW176201   2.416   3.469   5.337 -0.2992  0.2522  0.4719
24628SOL    HW276202   2.347   3.534   5.455 -0.7060 -0.0008  0.3779
24629SOL     OW76203   7.240   8.085   4.046  0.0370 -0.2433  0.3146
24629SOL    HW176204   7.167   8.025   4.032 -0.4673 -0.2662  2.6857
24629SOL    HW276205   7.208   8.148   4.111  1.1666  1.5330 -0.7644
24630SOL     OW76206   8.855   0.751   0.140  0.0303 -0.1685  0.0157
24630SOL    HW176207   8.944   0.778   0.117 -0.8165  1.0669 -2.1186
24630SOL    HW276208   8.817   0.724   0.056 -1.3449 -1.5233  1.0374
24631SOL     OW76209   0.703   8.645   2.116  0.7990  0.1582 -0.4492
24631SOL    HW176210   0.661   8.593   2.048  0.3746  2.3606 -1.9718
24631SOL    HW276211   0.796   8.622   2.109  0.7975  0.5200 -1.9652
24632SOL     OW76212   9.392   5.845   6.658  0.4688  0.5571 -0.4309
24632SOL    HW176213   9.465   5.798   6.617  0.5182  0.8982 -0.7440
24632SOL    HW276214   9.427   5.874   6.742  0.2383 -0.4900  0.0302
24633SOL     OW76215   5.267   6.821   4.602 -0.0554  0.0943  0.3504
24633SOL    HW176216   5.209   6.849   4.673  0.3569 -1.3452  1.2838
24633SOL    HW276217   5.231   6.737   4.574 -0.0362  0.4999 -0.9684
24634SOL     OW76218   1.671   3.747   8.798  0.1489 -0.5541  0.1060
24634SOL    HW176219   1.716   3.781   8.721  2.4431 -0.8107  1.2509
24634SOL    HW276220   1.739   3.742   8.865 -1.0942 -3.1219  1.3031
24635SOL     OW76221   5.450   1.817   3.187 -0.2348 -0.0251 -0.1630
24635SOL    HW176222   5.498   1.856   3.260  0.7493 -0.2388 -0.6700
24635SOL    HW276223   5.462   1.878   3.115 -0.8818  0.0009 -0.2515
24636SOL     OW76224   1.691   2.633   9.762 -0.1531  0.3448 -0.6882
24636SOL    HW176225   1.746   2.711   9.776  1.5551 -0.6755 -1.3509
24636SOL    HW276226   1.743   2.577   9.705 -1.2491 -1.3820 -0.0841
24637SOL     OW76227   9.428   7.086   5.611  0.6301 -0.1512  0.0864
24637SOL    HW176228   9.455   6.995   5.603 -1.1128 -0.6421 -0.7205
24637SOL    HW276229   9.350   7.083   5.667 -0.8215  0.5070 -1.8005
24638SOL     OW76230   2.034  10.034   9.081  0.1282  0.2189 -0.4566
24638SOL    HW176231   2.129  10.033   9.086  0.1097  0.9357  0.3762
24638SOL    HW276232   2.013  10.112   9.028 -0.0149  1.3275  1.1489
24639SOL     OW76233   9.285   4.856   9.078 -0.3103  0.2726  0.1428
24639SOL    HW176234   9.200   4.831   9.113 -0.8156  1.5223 -0.1474
24639SOL    HW276235   9.274   4.851   8.983  0.4417 -1.0994  0.0940
24640SOL     OW76236   9.530   0.311   2.960 -0.0278  0.2318 -0.0739
24640SOL    HW176237   9.441   0.331   2.986 -0.4456  0.1372 -1.3517
24640SOL    HW276238   9.574   0.397   2.958 -0.2416  0.3436  0.0057
24641SOL     OW76239   9.771   5.373   7.974 -0.1755 -0.1345 -0.1203
24641SOL    HW176240   9.863   5.367   7.948 -0.0320 -0.1408  0.3764
24641SOL    HW276241   9.731   5.295   7.935 -0.1164  0.2059 -0.8885
24642SOL     OW76242   2.045   4.520   7.734  0.3539  0.5859  0.2811
24642SOL    HW176243   2.006   4.491   7.817 -0.0886 -0.0261 -0.1282
24642SOL    HW276244   2.067   4.439   7.689  1.2278  0.9244  0.0884
24643SOL     OW76245   4.517   7.631   8.991 -0.1511 -0.3319 -0.5882
24643SOL    HW176246   4.453   7.608   8.924  0.0462  0.3455 -1.0207
24643SOL    HW276247   4.500   7.570   9.063 -0.7720 -0.6588 -1.0050
24644SOL     OW76248   2.297   1.558   4.545  0.4770 -0.2305  0.1518
24644SOL    HW176249   2.368   1.494   4.547  0.5886 -0.1799 -1.3068
24644SOL    HW276250   2.242   1.532   4.471  1.2597  2.0833 -1.3723
24645SOL     OW76251   9.678   2.509   4.756 -0.0280 -0.0831 -0.4859
24645SOL    HW176252   9.587   2.487   4.771  0.0076  0.3439  0.3920
24645SOL    HW276253   9.728   2.450   4.811  0.0556  2.2296  2.1469
24646SOL     OW76254   2.143   5.140   9.049 -0.0578 -0.0263 -0.4624
24646SOL    HW176255   2.125   5.189   8.969 -1.0714 -1.2367 -1.0195
24646SOL    HW276256   2.225   5.176   9.082  0.1303  0.8152 -1.7814
24647SOL     OW76257   1.075   0.080   6.599  0.0285 -0.3393  0.1257
24647SOL    HW176258   1.053   0.067   6.507  0.0094 -0.0628  0.0902
24647SOL    HW276259   1.169   0.062   6.604  0.0733 -0.1336  0.0104
24648SOL     OW76260   2.718   3.660   1.260  0.7047 -0.2713  0.3306
24648SOL    HW176261   2.799   3.620   1.293 -0.7323 -2.0453  1.9894
24648SOL    HW276262   2.724   3.650   1.165  2.4895 -0.1833  0.3861
24649SOL     OW76263   9.405   4.733   7.015 -0.1632 -0.0466  0.7108
24649SOL    HW176264   9.422   4.723   6.921  0.9552  0.3967  0.8522
24649SOL    HW276265   9.429   4.824   7.034 -1.8593  0.3443  1.1427
24650SOL     OW76266   3.504   2.059  10.090 -0.2039 -0.2329 -0.3172
24650SOL    HW176267   3.540   2.024  10.008  1.3540  1.4800 -0.4362
24650SOL    HW276268   3.484   2.151  10.070  1.3489  0.5722  1.5018
24651SOL     OW76269  10.286   6.525   8.842 -0.1020 -0.4283 -0.1050
24651SOL    HW176270  10.303   6.460   8.910  0.9615  0.7460  0.7744
24651SOL    HW276271  10.202   6.563   8.866 -1.2915 -2.1592 -1.2261
24652SOL     OW76272   6.787   7.230   5.581  0.2430  0.4556  1.0767
24652SOL    HW176273   6.703   7.213   5.624 -0.0619 -0.8049  0.0434
24652SOL    HW276274   6.851   7.185   5.636 -0.1381 -1.1032  0.3036
24653SOL     OW76275   6.521   6.091   1.412 -0.5016 -0.5744  0.0822
24653SOL    HW176276   6.515   6.096   1.316  0.2864  2.0317  0.1020
24653SOL    HW276277   6.443   6.137   1.443  0.5119  0.8275  0.6277
24654SOL     OW76278   3.698   1.023   3.335 -0.4916  0.2575  0.6836
24654SOL    HW176279   3.700   1.028   3.240  1.7156 -2.3227  0.4852
24654SOL    HW276280   3.633   0.955   3.355  1.2128 -1.4265  0.7679
24655SOL     OW76281   9.382   4.688   8.651  0.1744 -0.2341  0.1263
24655SOL    HW176282   9.325   4.749   8.604  0.0324 -0.5772 -0.1569
24655SOL    HW276283   9.368   4.604   8.607 -0.2696 -0.6516  1.0523
24656SOL     OW76284  10.022   6.539   0.560  0.2782  0.2333 -0.6316
24656SOL    HW176285   9.966   6.473   0.518  0.6455 -0.2191 -0.4212
24656SOL    HW276286  10.100   6.543   0.505 -0.1180  1.1615 -1.1549
24657SOL     OW76287   3.671   9.472   3.780  0.1246 -0.1130  0.1343
24657SOL    HW176288   3.667   9.468   3.685  1.2274 -2.0275  0.1137
24657SOL    HW276289   3.659   9.382   3.809  3.1551 -0.1706  1.6108
24658SOL     OW76290   4.262   0.127   9.912  0.2799 -0.1438 -0.0524
24658SOL    HW176291   4.234   0.181   9.986  1.2153 -1.6260  1.4866
24658SOL    HW276292   4.217   0.043   9.925  0.5084 -0.4479 -1.1400
24659SOL     OW76293   7.307   3.888   9.252  0.2146 -0.1305  0.4027
24659SOL    HW176294   7.266   3.832   9.186  0.1871 -1.3502  1.4282
24659SOL    HW276295   7.392   3.847   9.267  0.5520  0.6163  0.5304
24660SOL     OW76296   0.057   9.286   5.270  0.0070  0.5811  0.5443
24660SOL    HW176297   0.116   9.361   5.265  0.8178 -0.0930 -1.2539
24660SOL    HW276298  -0.025   9.321   5.304  0.5263  2.1693  0.2498
24661SOL     OW76299   1.526   3.432   0.398  0.4539  0.0274 -0.0299
24661SOL    HW176300   1.458   3.408   0.461  0.2644  0.6661  0.0119
24661SOL    HW276301   1.580   3.497   0.444  0.2616  0.5635 -0.5510
24662SOL     OW76302   8.775   4.763   8.843  0.2877  0.4490  0.0167
24662SOL    HW176303   8.807   4.770   8.753  0.0847  1.1420 -0.0108
24662SOL    HW276304   8.712   4.834   8.852 -1.8428 -1.3168 -0.1541
24663SOL     OW76305   0.330   6.097   3.742 -0.3752 -0.5670  0.6550
24663SOL    HW176306   0.310   6.016   3.695  0.3792 -0.3619 -0.0395
24663SOL    HW276307   0.258   6.156   3.719 -0.3326 -0.6717  0.2461
24664SOL     OW76308   9.107   7.789   8.067  0.4199 -0.3542 -0.1046
24664SOL    HW176309   9.091   7.735   7.989 -1.6251 -0.9007  0.6363
24664SOL    HW276310   9.103   7.879   8.034 -2.0577 -0.5275 -0.4290
24665SOL     OW76311   4.186   2.590   1.399  0.1585  0.1092 -0.1347
24665SOL    HW176312   4.160   2.659   1.459 -3.1951 -0.8186 -0.3155
24665SOL    HW276313   4.162   2.623   1.312  4.0596  1.0468 -1.0365
24666SOL     OW76314   0.098   6.417   2.576  0.0828 -0.3023  0.4712
24666SOL    HW176315   0.171   6.425   2.515  0.6784 -5.0685  0.2075
24666SOL    HW276316   0.134   6.441   2.661  1.1318  0.0106 -0.0427
24667SOL     OW76317   8.099   5.260   3.314 -0.3045  0.1476  0.5592
24667SOL    HW176318   8.026   5.281   3.255 -0.1096 -0.3977  0.1103
24667SOL    HW276319   8.170   5.316   3.284 -0.8291  1.4528  1.6691
24668SOL     OW76320   2.325   9.284   8.297 -0.5803  0.5603  0.4070
24668SOL    HW176321   2.410   9.320   8.272 -0.0321 -0.0927  1.2910
24668SOL    HW276322   2.344   9.222   8.367 -1.7016 -0.1197  0.1494
24669SOL     OW76323   4.649   2.908   9.873  0.1098 -0.7533 -0.0259
24669SOL    HW176324   4.674   2.820   9.844  0.9966 -0.1120 -1.3112
24669SOL    HW276325   4.658   2.905   9.968  0.6445 -1.8979 -0.0908
24670SOL     OW76326   1.966   2.884  10.494 -0.0376 -0.0003  0.4151
24670SOL    HW176327   1.878   2.906  10.464  0.2541 -0.9616 -1.2605
24670SOL    HW276328   1.981   2.795  10.463  0.5575 -0.9091  2.9836
24671SOL     OW76329   0.921   1.771   3.670 -0.8171  0.1183 -0.0396
24671SOL    HW176330   0.966   1.721   3.603 -0.0857  1.6931 -0.7652
24671SOL    HW276331   0.834   1.787   3.633 -0.6825  0.3115 -0.2753
24672SOL     OW76332   9.035   0.612   5.622 -0.3627 -0.1660 -0.1141
24672SOL    HW176333   9.120   0.615   5.665 -1.2920  0.0434  1.8451
24672SOL    HW276334   8.972   0.623   5.694 -2.0378 -0.3513 -1.4945
24673SOL     OW76335   3.690   8.048   1.616  0.0341  0.3070  0.2665
24673SOL    HW176336   3.668   7.960   1.648  1.4514  0.4220  1.6801
24673SOL    HW276337   3.669   8.106   1.689 -0.6382  1.1368 -0.5659
24674SOL     OW76338   6.116   9.090   7.125  0.0950 -0.0091  0.2006
24674SOL    HW176339   6.034   9.048   7.101  0.1011  1.1500 -2.1291
24674SOL    HW276340   6.152   9.035   7.194 -1.2760 -2.1363 -0.6881
24675SOL     OW76341   7.618   8.882   1.512 -0.2084 -0.5565  0.2179
24675SOL    HW176342   7.704   8.917   1.487 -0.0772 -1.0105  0.0136
24675SOL    HW276343   7.555   8.944   1.475 -0.0887 -1.9359 -2.6054
24676SOL     OW76344   0.994   0.007   4.612 -0.0432  0.7290 -0.3602
24676SOL    HW176345   0.976  -0.059   4.679  1.8952  0.3541 -0.1433
24676SOL    HW276346   0.916   0.007   4.556 -1.1638  0.1339  1.1326
24677SOL     OW76347   4.146   0.697   0.485  0.0155 -0.2932  0.4476
24677SOL    HW176348   4.178   0.609   0.468  0.4734  0.3041 -2.3725
24677SOL    HW276349   4.206   0.733   0.550  0.9774 -1.4465  0.2296
24678SOL     OW76350   5.186   6.497   8.843 -0.3580 -0.0050 -0.0715
24678SOL    HW176351   5.208   6.439   8.770  0.7544 -1.4844  1.3569
24678SOL    HW276352   5.118   6.450   8.891 -1.1347  0.9870 -0.1811
24679SOL     OW76353   4.100   6.629   8.439 -0.0336 -0.3126  0.3361
24679SOL    HW176354   4.099   6.675   8.523 -0.3554 -2.9387  1.8738
24679SOL    HW276355   4.023   6.662   8.392  0.0403  1.0460  1.1295
24680SOL     OW76356   9.374   2.345   5.114 -0.1315  0.3705  0.0233
24680SOL    HW176357   9.351   2.405   5.185 -0.4830 -0.1941  0.3933
24680SOL    HW276358   9.468   2.332   5.123 -0.4422 -1.2184  1.6270
24681SOL     OW76359   6.093   9.285   7.560 -0.4513 -0.3814 -0.4099
24681SOL    HW176360   6.181   9.247   7.557  0.0707  0.8099 -2.0590
24681SOL    HW276361   6.089   9.342   7.483 -2.2935  0.4408  0.2267
24682SOL     OW76362   8.112   6.748   2.808  0.0230  0.1611  0.0517
24682SOL    HW176363   8.184   6.797   2.848  0.3372  1.1725 -1.6291
24682SOL    HW276364   8.051   6.732   2.879  1.3695  0.3044  1.2807
24683SOL     OW76365   6.081   4.061   1.962 -0.0490  0.2123  0.2677
24683SOL    HW176366   6.025   4.041   1.886 -3.6655  1.6050  2.3092
24683SOL    HW276367   6.096   3.975   2.003 -2.0782 -0.0964  0.4670
24684SOL     OW76368   5.921   2.625   3.726 -0.1037  0.0037 -0.4055
24684SOL    HW176369   6.015   2.633   3.713 -0.3872  0.7177 -2.4666
24684SOL    HW276370   5.903   2.676   3.805  1.4258 -1.6550  1.0817
24685SOL     OW76371   5.108   6.314   6.363  0.5498  0.3459 -0.3698
24685SOL    HW176372   5.116   6.224   6.395 -0.5656  0.0620 -0.8820
24685SOL    HW276373   5.121   6.368   6.441 -0.6790 -0.3102  0.3172
24686SOL     OW76374   5.253   7.731   3.244 -0.2089 -0.9421 -0.6338
24686SOL    HW176375   5.271   7.734   3.338 -0.2314 -1.1663 -0.6223
24686SOL    HW276376   5.211   7.646   3.230  0.1995 -1.1013 -0.9193
24687SOL     OW76377   5.163  10.237   8.059  0.6709 -0.0047 -0.0052
24687SOL    HW176378   5.190  10.157   8.104  0.0627 -0.4357 -0.3911
24687SOL    HW276379   5.162  10.213   7.966 -1.9351 -0.3042  0.0321
24688SOL     OW76380  10.590   2.311   9.928  0.0228 -0.5466  0.5994
24688SOL    HW176381  10.513   2.284   9.878 -0.0962  1.6522 -0.5582
24688SOL    HW276382  10.661   2.256   9.894 -0.5404 -0.7845 -0.2456
24689SOL     OW76383   5.636   7.922   8.642  0.1782 -0.1292 -0.0922
24689SOL    HW176384   5.649   7.972   8.561  2.3492 -0.5751 -0.0723
24689SOL    HW276385   5.724   7.913   8.679 -0.7097 -0.3932  2.0668
24690SOL     OW76386   8.801   3.466   5.476  0.1809  0.0374 -0.4808
24690SOL    HW176387   8.777   3.468   5.569  0.2604 -2.8076 -0.3194
24690SOL    HW276388   8.887   3.423   5.474 -1.0919 -2.7306 -1.9701
24691SOL     OW76389   0.725   4.126   9.129  0.0089 -0.5272 -0.0509
24691SOL    HW176390   0.700   4.164   9.045 -0.3170  0.5241  0.4987
24691SOL    HW276391   0.798   4.181   9.159 -0.3970 -0.3947  0.7159
24692SOL     OW76392   5.546   6.862   2.941 -0.3080  1.3560  0.3045
24692SOL    HW176393   5.574   6.806   3.013 -1.0420  1.8058  0.9502
24692SOL    HW276394   5.613   6.930   2.937  0.9606  0.1106 -0.9212
24693SOL     OW76395   0.899   3.319   6.557 -0.2579  0.6992  0.4053
24693SOL    HW176396   0.894   3.327   6.462 -1.4881  0.4187  0.4307
24693SOL    HW276397   0.988   3.287   6.573 -0.6086 -1.0341 -0.8015
24694SOL     OW76398   0.673   2.084   9.761  0.1742  0.5399 -0.0819
24694SOL    HW176399   0.719   2.155   9.806  1.2483  0.5495 -1.1431
24694SOL    HW276400   0.736   2.012   9.757  0.6902  1.0144 -2.7508
24695SOL     OW76401   1.301  10.492   1.910  0.0879 -0.2598 -0.1278
24695SOL    HW176402   1.344  10.493   1.996  1.2002  1.0210 -0.6619
24695SOL    HW276403   1.304  10.400   1.882 -0.2868 -0.6933  1.1733
24696SOL     OW76404   6.045   3.831   4.048 -0.1719 -0.6158 -0.1995
24696SOL    HW176405   6.079   3.866   3.966  0.9402  0.4043  0.6602
24696SOL    HW276406   6.111   3.768   4.077 -0.1023 -0.2917  0.3606
24697SOL     OW76407   2.965   9.103   4.990 -0.2421  0.4972  0.6520
24697SOL    HW176408   3.041   9.126   5.043  0.9844  0.5346 -1.0287
24697SOL    HW276409   2.899   9.169   5.012  0.9851  1.7985  0.5653
24698SOL     OW76410   8.674   6.983   5.486  0.3255 -0.2274  0.3213
24698SOL    HW176411   8.723   7.034   5.550 -0.3941  0.3899  0.3978
24698SOL    HW276412   8.593   7.033   5.472  0.0836 -0.7996 -0.4123
24699SOL     OW76413   9.642   9.499   9.761 -0.2369 -0.4193  0.2718
24699SOL    HW176414   9.720   9.495   9.816 -0.3899  2.5719  0.9079
24699SOL    HW276415   9.675   9.514   9.672 -0.0471  0.6964  0.5178
24700SOL     OW76416   3.914   2.978   8.602 -0.0229 -0.1789  0.2592
24700SOL    HW176417   3.893   3.010   8.689 -1.0028 -0.1693  0.0241
24700SOL    HW276418   3.921   3.057   8.548  1.4044 -0.1207  0.4797
24701SOL     OW76419   4.155   7.101   5.905 -0.6973 -0.3527  0.1551
24701SOL    HW176420   4.067   7.111   5.868 -0.5150 -1.4814 -0.6356
24701SOL    HW276421   4.158   7.011   5.936  0.5048 -0.6453 -0.7354
24702SOL     OW76422   1.322   5.237   3.282 -0.3957 -0.4451  0.0626
24702SOL    HW176423   1.272   5.210   3.205 -1.7742  2.6902 -0.3150
24702SOL    HW276424   1.361   5.321   3.257 -0.2019  0.2651  2.4802
24703SOL     OW76425   0.843   7.353   1.456  0.1015  0.2547  0.3958
24703SOL    HW176426   0.932   7.385   1.440 -0.5202  1.7364 -0.2575
24703SOL    HW276427   0.849   7.258   1.446  1.7827  0.2461  1.2197
24704SOL     OW76428   4.183   8.000   5.502  0.0364 -0.2626  0.1753
24704SOL    HW176429   4.141   7.954   5.429 -1.9020  0.3133  0.8546
24704SOL    HW276430   4.203   8.087   5.468  0.4728 -0.4548 -0.0731
24705SOL     OW76431   6.881   5.581   3.583  0.3120  0.3546 -0.7014
24705SOL    HW176432   6.954   5.556   3.526  1.4599 -1.0168  1.2428
24705SOL    HW276433   6.821   5.507   3.578  0.8595 -0.2118  0.4799
24706SOL     OW76434   0.173   5.083   3.958  0.4442 -0.0583  0.3389
24706SOL    HW176435   0.127   5.007   3.921  0.6330 -0.8199  1.5978
24706SOL    HW276436   0.168   5.150   3.890  1.5665 -1.6775 -1.4418
24707SOL     OW76437  10.575   8.198   6.697  0.2324  0.6123  0.5886
24707SOL    HW176438  10.495   8.186   6.646  0.9280 -0.9381 -0.2111
24707SOL    HW276439  10.593   8.292   6.690 -0.6822  0.7457 -0.4932
24708SOL     OW76440   8.935   6.414   0.136  0.9069  0.1213  0.0589
24708SOL    HW176441   8.892   6.500   0.134  3.4480  1.5037  0.4730
24708SOL    HW276442   8.894   6.368   0.209  1.5456  2.2084  1.8480
24709SOL     OW76443   5.528   9.321   3.523 -0.0027  0.1571 -0.0631
24709SOL    HW176444   5.613   9.365   3.531  0.0321  0.3381 -1.3523
24709SOL    HW276445   5.527   9.287   3.434 -0.5835 -1.3299  0.4822
24710SOL     OW76446   4.284   6.471   8.723  0.1228 -0.1303 -0.3320
24710SOL    HW176447   4.193   6.495   8.740  0.3424  0.1884  0.4215
24710SOL    HW276448   4.278   6.385   8.681 -0.4552 -0.9125  1.2805
24711SOL     OW76449   0.939   2.251   3.447  0.5763  1.1587  0.2812
24711SOL    HW176450   0.884   2.199   3.506  1.4664 -0.6172 -0.3806
24711SOL    HW276451   0.877   2.304   3.397 -0.7561 -1.6587 -1.3036
24712SOL     OW76452   9.904   4.099   1.064 -0.3130  0.0085 -0.5764
24712SOL    HW176453   9.896   4.138   1.151 -0.0587  0.5170 -0.7725
24712SOL    HW276454   9.993   4.065   1.060 -0.7706 -1.2950 -0.1360
24713SOL     OW76455   7.643   2.632   2.756 -0.0037 -0.3824 -0.5086
24713SOL    HW176456   7.618   2.553   2.709  0.2622  0.0938 -1.4989
24713SOL    HW276457   7.739   2.632   2.753 -0.0029 -0.0135 -0.5480
24714SOL     OW76458   3.198   4.302   2.227  0.4480  0.4384  0.2171
24714SOL    HW176459   3.123   4.264   2.180  0.8280  0.1390 -0.1509
24714SOL    HW276460   3.172   4.393   2.244 -0.4820  0.0328  1.1285
24715SOL     OW76461   4.380   2.314   5.152 -0.2256  0.2584 -0.2488
24715SOL    HW176462   4.309   2.367   5.117 -0.7362 -1.7217 -2.4869
24715SOL    HW276463   4.338   2.256   5.215 -0.7719 -1.1524 -1.8246
24716SOL     OW76464  10.170   4.438   8.590 -0.4511 -0.2791  0.0210
24716SOL    HW176465  10.161   4.496   8.665  0.0003  0.2603 -0.3380
24716SOL    HW276466  10.183   4.351   8.628 -2.0384 -0.3061  0.5532
24717SOL     OW76467   1.985   9.725  10.313 -0.3061 -0.0424 -0.0649
24717SOL    HW176468   1.934   9.802  10.342 -1.1714 -0.4469 -0.4721
24717SOL    HW276469   2.066   9.730  10.364 -0.0952  1.4571 -0.4948
24718SOL     OW76470   2.103   4.470   5.553 -0.0994  0.5836  0.4522
24718SOL    HW176471   2.130   4.410   5.622  0.5485  1.9645  1.4496
24718SOL    HW276472   2.173   4.465   5.488  0.1611  0.5677  0.7327
24719SOL     OW76473   0.072  10.194   3.692  0.4863 -0.2108  0.0016
24719SOL    HW176474   0.044  10.121   3.638 -0.8170  0.2566 -0.0057
24719SOL    HW276475   0.079  10.158   3.780  2.0334 -0.8344 -0.3414
24720SOL     OW76476   0.110   4.482   1.148 -0.2249  0.1446  0.0569
24720SOL    HW176477   0.055   4.461   1.073 -0.1376 -1.2311  0.3413
24720SOL    HW276478   0.091   4.413   1.212  0.5044  0.6643  0.8636
24721SOL     OW76479  10.252   5.409   4.481 -0.3898 -0.0090 -0.3676
24721SOL    HW176480  10.177   5.428   4.425 -0.3509  1.0239 -0.0926
24721SOL    HW276481  10.221   5.430   4.569 -0.8602 -2.7779  0.2097
24722SOL     OW76482   3.832   3.674   7.844  0.2474  0.5031  0.2863
24722SOL    HW176483   3.886   3.753   7.841 -0.0639  0.7268  0.4099
24722SOL    HW276484   3.830   3.650   7.937  0.5212  0.2236  0.2200
24723SOL     OW76485   2.308   8.810  10.119  0.1447  0.3115  0.3985
24723SOL    HW176486   2.241   8.874  10.143 -0.3408 -0.2551  0.5763
24723SOL    HW276487   2.321   8.823  10.025  1.1676  1.7077  0.7118
24724SOL     OW76488   2.311   3.641   8.998  0.1460 -0.0016  0.2799
24724SOL    HW176489   2.405   3.651   9.014  0.0397  1.6143  0.0939
24724SOL    HW276490   2.282   3.577   9.063  0.8300  1.8112  2.5002
24725SOL     OW76491   1.618   7.146   2.176 -0.1895 -0.1856  0.5571
24725SOL    HW176492   1.579   7.231   2.193 -0.3670 -0.0577 -0.4240
24725SOL    HW276493   1.688   7.138   2.241  0.3606  1.0714  0.1529
24726SOL     OW76494   9.793   6.988   3.280  0.0390  0.0101 -0.3224
24726SOL    HW176495   9.743   7.041   3.218 -1.1189 -2.2313 -1.4367
24726SOL    HW276496   9.849   7.051   3.325 -1.7617  2.2773 -0.9993
24727SOL     OW76497   1.494   0.877   0.690 -0.1954 -0.2506 -0.6624
24727SOL    HW176498   1.431   0.908   0.625 -0.4220  0.0466 -0.3049
24727SOL    HW276499   1.446   0.878   0.773 -0.0717 -1.1485 -0.5688
24728SOL     OW76500   8.667   0.986   3.521  0.0268 -0.3043 -0.4357
24728SOL    HW176501   8.601   0.959   3.457 -2.2427  1.4800  1.0443
24728SOL    HW276502   8.654   0.928   3.596  1.3205 -1.0387 -0.7412
24729SOL     OW76503   0.140   7.433   2.976 -0.4846 -0.1857 -0.2050
24729SOL    HW176504   0.153   7.461   2.885  2.8182 -0.4367  0.0416
24729SOL    HW276505   0.113   7.342   2.970  0.7185 -0.5115 -0.9821
24730SOL     OW76506   4.946   7.214   8.987  0.1758 -0.1604 -0.4744
24730SOL    HW176507   4.948   7.231   8.893 -2.9676  0.8748 -0.4626
24730SOL    HW276508   4.929   7.300   9.027  1.4577 -0.5731  1.1004
24731SOL     OW76509  10.321   8.410   1.182 -0.2947 -0.2774  0.3538
24731SOL    HW176510  10.357   8.364   1.106  0.9440 -0.4387  1.0123
24731SOL    HW276511  10.250   8.463   1.146  1.6376  1.3569 -1.3535
24732SOL     OW76512   4.053   7.367   0.247  0.1898  0.0282  0.3506
24732SOL    HW176513   3.968   7.395   0.213 -0.3682 -0.9891  0.8738
24732SOL    HW276514   4.037   7.280   0.283  2.2422 -1.9002 -2.9333
24733SOL     OW76515   9.404   8.929   4.528  0.0220  0.3658  0.0217
24733SOL    HW176516   9.407   8.924   4.432 -0.4941 -0.5378  0.0474
24733SOL    HW276517   9.494   8.911   4.555 -0.1017 -0.7384 -0.2493
24734SOL     OW76518   7.288   7.435   0.602  0.4115  0.2282 -0.2891
24734SOL    HW176519   7.230   7.378   0.653  0.7739 -0.7610 -0.9524
24734SOL    HW276520   7.260   7.524   0.625  0.1830 -0.1897  1.1791
24735SOL     OW76521   4.093   2.195   3.717 -0.0171 -0.1163  0.0750
24735SOL    HW176522   4.141   2.271   3.684 -0.1433 -0.5669 -1.2201
24735SOL    HW276523   4.006   2.203   3.677 -0.2178 -0.6176  0.4096
24736SOL     OW76524   3.524   8.293   4.216  0.4162  0.2006  0.4981
24736SOL    HW176525   3.499   8.201   4.206  0.2282  0.2298  0.7069
24736SOL    HW276526   3.443   8.338   4.237  0.5972  0.3386  0.9015
24737SOL     OW76527   5.496   7.297   5.997  0.3460  0.1503  0.3918
24737SOL    HW176528   5.553   7.243   6.051 -0.0140 -0.1867  0.4348
24737SOL    HW276529   5.488   7.250   5.915  0.7641  0.5853  0.0949
24738SOL     OW76530   5.175   0.195   5.160  0.0620 -0.4179 -0.2669
24738SOL    HW176531   5.083   0.219   5.169  0.0511  0.2176 -1.7873
24738SOL    HW276532   5.219   0.245   5.228 -0.4536  1.0376 -0.9615
24739SOL     OW76533   6.745   1.890   0.664 -0.0401  0.0252 -0.6720
24739SOL    HW176534   6.772   1.947   0.736  0.3685 -0.0528 -0.7625
24739SOL    HW276535   6.819   1.830   0.652  0.9491  1.5504 -2.7790
24740SOL     OW76536   3.122   7.643   6.993  0.0546 -0.6446  0.0559
24740SOL    HW176537   3.052   7.708   7.001  2.3593  1.9684  0.7050
24740SOL    HW276538   3.132   7.630   6.899  0.8028  1.5370 -0.2236
24741SOL     OW76539   0.714   4.024   7.860 -0.0075 -0.7610  0.1105
24741SOL    HW176540   0.777   3.956   7.835  0.3151 -0.2509 -0.4816
24741SOL    HW276541   0.765   4.105   7.864 -0.2255 -0.6545  1.5679
24742SOL     OW76542   7.758   3.984   2.620  0.1967 -0.0579 -0.3001
24742SOL    HW176543   7.699   3.991   2.544  0.8944 -1.6153 -1.0148
24742SOL    HW276544   7.807   4.066   2.619 -2.2931  1.5871  0.6673
24743SOL     OW76545   9.689  10.032   7.616 -0.1586 -0.2262 -0.1691
24743SOL    HW176546   9.643  10.050   7.698 -0.4859 -3.3177  0.4229
24743SOL    HW276547   9.632  10.069   7.549 -0.9089  0.5347  0.8394
24744SOL     OW76548   4.016   3.344   5.709 -0.9891  0.4992 -0.1729
24744SOL    HW176549   3.984   3.339   5.800  0.0351  1.2056  0.2395
24744SOL    HW276550   4.004   3.256   5.675 -1.8986  0.3567  0.4715
24745SOL     OW76551   1.374   4.834   3.967 -0.4219 -0.5304  0.0154
24745SOL    HW176552   1.356   4.868   3.880 -0.9283  2.3512  1.1474
24745SOL    HW276553   1.289   4.801   3.998 -1.1158  1.7443  0.7033
24746SOL     OW76554   4.686   5.925   8.770 -0.5118  0.2848  0.2469
24746SOL    HW176555   4.655   5.928   8.860  1.4642 -1.3213  1.0490
24746SOL    HW276556   4.699   6.016   8.746 -1.5238  0.7582  1.3890
24747SOL     OW76557   2.869   5.009   9.526 -0.0553 -0.4790 -0.0861
24747SOL    HW176558   2.851   4.934   9.469  1.0061  0.2477 -1.4458
24747SOL    HW276559   2.791   5.064   9.520  0.1399 -0.2947 -1.0630
24748SOL     OW76560   2.047   5.974   1.245 -0.9992 -0.4593 -0.5173
24748SOL    HW176561   2.127   5.983   1.194 -1.0564  0.4714 -0.4494
24748SOL    HW276562   2.065   6.018   1.328 -0.9782 -1.7886  0.2070
24749SOL     OW76563   0.732   0.971   7.902  0.0118 -0.1628  0.0270
24749SOL    HW176564   0.816   0.973   7.949  0.2382  2.9645 -0.2695
24749SOL    HW276565   0.677   0.912   7.954  1.1585  0.8480  2.6028
24750SOL     OW76566   3.592   5.044   9.555 -0.6353  0.6865  0.1085
24750SOL    HW176567   3.530   5.069   9.487  1.0581 -1.2689 -2.3124
24750SOL    HW276568   3.646   5.121   9.568 -1.0481  1.1201 -0.6760
24751SOL     OW76569   8.403   7.313   9.243  0.1440  0.1861  0.4382
24751SOL    HW176570   8.401   7.373   9.168  2.3055  1.5629  1.3888
24751SOL    HW276571   8.398   7.371   9.319  1.4324 -0.8903  1.3766
24752SOL     OW76572   1.346   6.053   2.250 -0.4137 -0.8929  0.0685
24752SOL    HW176573   1.394   5.971   2.262 -0.2497 -0.5366  2.1314
24752SOL    HW276574   1.375   6.110   2.321  0.1587  1.3370 -1.8042
24753SOL     OW76575   0.030   2.433   6.397 -0.1761 -0.4812 -0.4011
24753SOL    HW176576  -0.030   2.489   6.347 -0.7412 -0.9832 -0.2930
24753SOL    HW276577   0.114   2.441   6.351  0.2455  1.8641  0.6292
24754SOL     OW76578   9.714   8.847   7.777 -0.1061  0.2581 -0.3065
24754SOL    HW176579   9.706   8.797   7.859 -2.3611  1.1102  0.0714
24754SOL    HW276580   9.702   8.938   7.803  0.3969  0.6632 -1.4457
24755SOL     OW76581  10.434   1.753   6.528 -0.1450 -0.1560 -0.2897
24755SOL    HW176582  10.415   1.732   6.619  0.4019 -1.0300 -0.3734
24755SOL    HW276583  10.514   1.806   6.532  0.9614 -1.7472 -0.3643
24756SOL     OW76584   8.001   3.997   8.305 -0.1530  0.8214 -0.0803
24756SOL    HW176585   8.054   3.940   8.360 -0.4192 -0.4307 -1.0647
24756SOL    HW276586   7.983   3.944   8.227 -1.7990  1.6727 -0.3094
24757SOL     OW76587  10.429   7.731   9.695 -0.0310  0.3414 -0.1888
24757SOL    HW176588  10.389   7.815   9.673 -0.6901  0.3778  1.0568
24757SOL    HW276589  10.457   7.740   9.786  2.2213  0.0657 -0.7739
24758SOL     OW76590   3.768   9.315   4.470 -0.6981  0.0036  0.5633
24758SOL    HW176591   3.823   9.255   4.521 -2.1729 -2.1458 -0.1976
24758SOL    HW276592   3.828   9.355   4.408  0.1270 -2.0747 -0.0829
24759SOL     OW76593   5.512   0.971   7.146 -0.4032 -0.4988 -0.8096
24759SOL    HW176594   5.468   1.039   7.096  1.3294  1.4223  0.1646
24759SOL    HW276595   5.458   0.893   7.132 -3.1074  1.2814 -1.0649
24760SOL     OW76596   3.735   3.933   5.972  0.0076 -0.0899  0.6534
24760SOL    HW176597   3.648   3.914   5.938  0.6069 -0.4272 -0.7702
24760SOL    HW276598   3.765   4.008   5.920  0.2743  0.5354  1.6735
24761SOL     OW76599   5.410   5.662   5.470  0.5125  0.2475 -0.6438
24761SOL    HW176600   5.492   5.615   5.455 -0.0156 -1.1579  0.5076
24761SOL    HW276601   5.369   5.668   5.384  0.6995 -1.2892 -0.8708
24762SOL     OW76602   3.750   0.733   9.055 -0.1797  0.0638  0.0074
24762SOL    HW176603   3.804   0.753   9.132  1.7150  0.1985 -1.3033
24762SOL    HW276604   3.665   0.707   9.092  0.0980  1.7955  2.0800
24763SOL     OW76605   9.848   4.282  10.404 -0.0894  0.1109  0.3183
24763SOL    HW176606   9.899   4.362  10.412 -0.0232 -0.0417  1.6828
24763SOL    HW276607   9.887   4.235  10.331  0.8133  0.6558  0.4443
24764SOL     OW76608   8.336   0.573   3.180 -0.1006 -0.1529  0.3778
24764SOL    HW176609   8.395   0.511   3.224  1.5938 -2.0986 -4.0244
24764SOL    HW276610   8.394   0.637   3.140 -1.4388  0.8437 -0.0427
24765SOL     OW76611   1.730   6.468   9.336  0.2177  0.2666  0.3339
24765SOL    HW176612   1.702   6.559   9.339  0.5565  0.3882 -0.1508
24765SOL    HW276613   1.728   6.439   9.427 -2.3680 -0.0083  0.2710
24766SOL     OW76614   5.911   8.203   2.071  0.4686 -0.3373 -0.1117
24766SOL    HW176615   5.915   8.297   2.088  1.5145 -0.6290  1.5216
24766SOL    HW276616   5.818   8.182   2.070  0.2539  0.5479  0.5644
24767SOL     OW76617   3.540   2.183   2.895  0.4160 -0.0056 -0.0406
24767SOL    HW176618   3.521   2.170   2.988  1.5876  2.6730  0.6729
24767SOL    HW276619   3.455   2.203   2.856  0.0508 -0.2376  0.6251
24768SOL     OW76620   3.814   2.895   1.156  0.6857 -0.2237  0.1050
24768SOL    HW176621   3.851   2.917   1.241  1.5381  0.6094 -0.4633
24768SOL    HW276622   3.874   2.934   1.092  0.2095 -1.0434 -0.8914
24769SOL     OW76623   2.338   1.052   5.596 -0.6899  0.1944  0.0207
24769SOL    HW176624   2.330   1.146   5.617  0.8783 -0.0283  1.8630
24769SOL    HW276625   2.302   1.008   5.672  2.7888 -0.6602  1.3480
24770SOL     OW76626   5.986   5.200   9.945  0.2789  0.1396  0.1626
24770SOL    HW176627   5.985   5.295   9.931 -1.7850  0.0322 -0.8658
24770SOL    HW276628   6.065   5.170   9.902  0.3957  1.2879 -0.4639
24771SOL     OW76629   4.348   5.883   1.143  0.7551 -0.6773 -0.1568
24771SOL    HW176630   4.374   5.976   1.141  0.9564 -0.7304 -0.0977
24771SOL    HW276631   4.259   5.882   1.109  0.4893 -0.3681  0.5031
24772SOL     OW76632   9.042   7.315   5.260  0.2584 -0.1484 -0.3039
24772SOL    HW176633   9.050   7.249   5.191 -2.4227 -0.3532 -0.5258
24772SOL    HW276634   9.061   7.398   5.216  0.6080 -0.4652 -0.7678
24773SOL     OW76635   3.868   4.585   0.150  0.3750  0.1705 -0.1243
24773SOL    HW176636   3.802   4.619   0.089 -0.0232 -0.6613 -0.1778
24773SOL    HW276637   3.888   4.497   0.117  0.4137 -0.1521  0.7298
24774SOL     OW76638   6.755   4.349   9.335 -0.3831  0.2283 -0.6541
24774SOL    HW176639   6.813   4.287   9.292 -1.2007 -0.1821 -1.1931
24774SOL    HW276640   6.684   4.295   9.370 -2.8564  1.0375 -3.8901
24775SOL     OW76641   3.675   0.822   7.286 -0.9360  0.0746  0.1805
24775SOL    HW176642   3.752   0.790   7.238 -1.7866  0.0531 -1.2386
24775SOL    HW276643   3.618   0.745   7.293 -1.4530  0.4283 -0.0849
24776SOL     OW76644  10.303   2.604   5.534 -0.1481 -0.3344 -0.0953
24776SOL    HW176645  10.214   2.595   5.570 -0.5711  0.8629 -0.7973
24776SOL    HW276646  10.289   2.611   5.439  0.6760  0.1902 -0.1771
24777SOL     OW76647   1.393   0.490   5.136 -0.5547 -0.0740  0.3561
24777SOL    HW176648   1.437   0.513   5.054  1.5596  1.6795  1.8509
24777SOL    HW276649   1.334   0.419   5.113  1.7227 -1.3004 -2.2243
24778SOL     OW76650   5.651   3.910   6.282 -0.2650  0.2855 -0.5652
24778SOL    HW176651   5.713   3.865   6.225 -0.2213 -0.7072  0.2472
24778SOL    HW276652   5.676   3.883   6.371 -2.2698 -0.7111 -0.2496
24779SOL     OW76653   3.036   7.104  10.491 -0.1905  0.1014 -0.6307
24779SOL    HW176654   2.997   7.192  10.489  1.1964  0.7434 -0.2479
24779SOL    HW276655   3.129   7.119  10.478  0.1384 -1.2846  0.0196
24780SOL     OW76656   7.636   2.903   9.253 -0.0071 -0.2310 -0.4154
24780SOL    HW176657   7.582   2.933   9.327 -0.1883  0.3413 -0.7724
24780SOL    HW276658   7.715   2.869   9.294 -0.2135 -0.1555  0.0612
24781SOL     OW76659   0.812   4.195   6.091  0.0700 -0.2967 -0.5408
24781SOL    HW176660   0.768   4.279   6.076  2.0419  0.9840  0.3947
24781SOL    HW276661   0.873   4.187   6.017 -0.4401 -1.1777 -0.8841
24782SOL     OW76662   0.676   0.305   5.375  0.0209 -0.2992 -0.1518
24782SOL    HW176663   0.671   0.360   5.453 -0.1644  2.4842 -1.9898
24782SOL    HW276664   0.754   0.251   5.389 -0.0722  0.0497  1.9788
24783SOL     OW76665   9.399   0.399   4.465  0.1029  0.0734 -0.4541
24783SOL    HW176666   9.385   0.446   4.547 -1.3273 -0.6029 -0.2776
24783SOL    HW276667   9.452   0.323   4.489 -1.8433 -1.1286  0.2338
24784SOL     OW76668   7.066   9.624   8.987  0.1539 -0.3690 -0.7391
24784SOL    HW176669   7.066   9.713   8.952 -1.9423  0.4063  1.0367
24784SOL    HW276670   6.978   9.591   8.969  1.0794 -2.3757 -1.9081
24785SOL     OW76671   2.175   7.561   5.006 -0.0651  0.0345  0.1974
24785SOL    HW176672   2.224   7.610   4.940 -0.3495 -0.7653 -0.6276
24785SOL    HW276673   2.085   7.594   4.998 -0.4068 -1.0933 -0.8540
24786SOL     OW76674   9.713   1.795   0.996 -0.4756 -0.3633 -0.1405
24786SOL    HW176675   9.798   1.814   1.036 -0.5376 -0.6887  0.1482
24786SOL    HW276676   9.723   1.708   0.958 -0.9328 -0.7552  0.6162
24787SOL     OW76677   2.849   5.257   8.353 -0.6116  0.2752  0.4432
24787SOL    HW176678   2.912   5.186   8.368 -1.6362 -0.7252  0.1649
24787SOL    HW276679   2.891   5.313   8.287  0.9524  0.9140  1.8889
24788SOL     OW76680   5.051   8.799   1.941  0.1289 -0.1857 -0.0835
24788SOL    HW176681   4.956   8.808   1.940  0.1722  1.6424 -3.6809
24788SOL    HW276682   5.083   8.881   1.979  0.2462  0.2971 -1.1912
24789SOL     OW76683   4.755   9.497   3.221  0.2493 -0.1454 -0.1319
24789SOL    HW176684   4.750   9.519   3.314 -0.0013 -0.1032 -0.1532
24789SOL    HW276685   4.749   9.401   3.219  0.8357 -0.1893 -0.0708
24790SOL     OW76686   8.877   2.740   8.900 -0.6097 -0.4305  0.2721
24790SOL    HW176687   8.968   2.749   8.928 -0.0236 -0.1751 -1.5951
24790SOL    HW276688   8.837   2.824   8.921  0.1039  0.1440 -0.5945
24791SOL     OW76689  10.517   9.831   6.213 -0.1407  0.7466  0.7862
24791SOL    HW176690  10.574   9.811   6.288 -0.7132  2.1871  1.6497
24791SOL    HW276691  10.565   9.898   6.164  0.5950 -0.7390 -0.6383
24792SOL     OW76692   5.149   1.076   4.404 -0.0105  0.6046 -0.1191
24792SOL    HW176693   5.179   1.159   4.368 -2.2348  0.9279 -1.4114
24792SOL    HW276694   5.180   1.010   4.341 -0.1042  0.6892 -0.2537
24793SOL     OW76695   9.635   7.584   3.292 -0.2550 -0.4447  0.2769
24793SOL    HW176696   9.654   7.677   3.304  0.8795 -0.8810  2.3309
24793SOL    HW276697   9.544   7.575   3.320 -0.1644 -0.0603  0.7066
24794SOL     OW76698   3.610   7.863   6.833 -0.3823  0.3241 -0.3661
24794SOL    HW176699   3.685   7.877   6.774  1.1860  0.6489  1.5962
24794SOL    HW276700   3.535   7.895   6.784  0.7200 -0.0701 -2.4601
24795SOL     OW76701   8.942   8.980   4.357  0.5100  0.1712 -0.4335
24795SOL    HW176702   8.938   8.963   4.263  2.0127 -1.2260 -0.2743
24795SOL    HW276703   8.971   9.071   4.363  2.4904 -0.3338 -1.3680
24796SOL     OW76704  10.035   3.322   9.828  0.1283 -0.5165  0.0709
24796SOL    HW176705   9.989   3.383   9.770  0.4564 -1.2503 -1.0019
24796SOL    HW276706  10.069   3.377   9.899  0.0534  0.4824 -0.6420
24797SOL     OW76707   2.720   2.896   7.996 -0.4594  0.0318  0.0628
24797SOL    HW176708   2.684   2.841   7.926 -1.6098  0.9313 -0.0957
24797SOL    HW276709   2.793   2.845   8.032  1.8424  0.6016 -3.4251
24798SOL     OW76710   6.202   0.717   7.352  0.1216  0.4427  0.2578
24798SOL    HW176711   6.108   0.705   7.362  0.1956  0.4767  1.0720
24798SOL    HW276712   6.241   0.657   7.415  0.7130 -0.8829 -1.2853
24799SOL     OW76713   4.920   9.357   6.745 -0.2645 -0.6834 -0.3733
24799SOL    HW176714   4.857   9.371   6.674 -0.0635  1.6464 -0.1785
24799SOL    HW276715   4.987   9.299   6.706 -2.1884 -2.8098 -0.7177
24800SOL     OW76716   1.888   2.854   6.468 -0.1902  0.2582 -0.4202
24800SOL    HW176717   1.840   2.813   6.396  0.2036  0.1518 -0.6230
24800SOL    HW276718   1.881   2.792   6.540  1.1549 -0.5893 -0.9931
24801SOL     OW76719   2.564   0.784   3.105 -0.1071  0.1961  0.4738
24801SOL    HW176720   2.541   0.751   3.191 -0.3559  0.8946  0.6787
24801SOL    HW276721   2.590   0.706   3.055 -0.8111 -0.3185  0.9050
24802SOL     OW76722   5.094   8.668   6.560  0.3097  0.4194 -0.2900
24802SOL    HW176723   5.019   8.709   6.518 -0.2823 -0.2792  0.0698
24802SOL    HW276724   5.057   8.601   6.617  1.0880  1.3259  1.3564
24803SOL     OW76725   6.591   5.928   4.365 -0.1431 -0.1594 -0.1991
24803SOL    HW176726   6.575   5.833   4.364 -0.4929 -0.1046 -0.0101
24803SOL    HW276727   6.505   5.966   4.384  0.0631  0.1815  0.0434
24804SOL     OW76728   7.569   4.924   0.679 -0.1910 -0.5922 -0.1058
24804SOL    HW176729   7.618   4.961   0.606 -0.0559 -3.7819 -1.7668
24804SOL    HW276730   7.484   4.900   0.643 -0.7128 -0.7910  1.1824
24805SOL     OW76731   0.560   2.667   3.732  0.0736  0.3183 -0.1722
24805SOL    HW176732   0.636   2.725   3.739 -1.1888  2.1612 -1.0395
24805SOL    HW276733   0.583   2.606   3.662  1.5916 -0.5569  1.0303
24806SOL     OW76734   7.757   1.398   5.100 -0.2159 -0.1535  0.1896
24806SOL    HW176735   7.730   1.442   5.180  2.7241  0.6573  0.8379
24806SOL    HW276736   7.733   1.459   5.030 -0.3301  0.3869  0.6900
24807SOL     OW76737   0.381   4.656   8.325 -0.1841  0.4848  0.5907
24807SOL    HW176738   0.439   4.684   8.254  1.5108 -0.2948  1.6036
24807SOL    HW276739   0.331   4.734   8.347 -0.4672  0.8542 -1.1637
24808SOL     OW76740   1.371   5.460   2.929 -0.3231 -0.1625 -0.1972
24808SOL    HW176741   1.461   5.482   2.903 -0.2799  1.9328  1.4385
24808SOL    HW276742   1.333   5.543   2.956 -2.6744 -1.0655 -0.4707
24809SOL     OW76743   2.956   9.987   4.187 -0.0164  0.0123 -0.3545
24809SOL    HW176744   2.991  10.075   4.201 -1.1475  0.7659 -1.8991
24809SOL    HW276745   2.985   9.964   4.098 -0.9729 -0.5448 -0.5317
24810SOL     OW76746   7.324   3.572   2.334  0.1451 -0.5834  0.2960
24810SOL    HW176747   7.349   3.627   2.408  1.3850 -0.1154 -0.4263
24810SOL    HW276748   7.229   3.576   2.332  0.1034 -0.3809  1.6851
24811SOL     OW76749   6.246   0.428   5.447  0.0749  0.2985 -0.3310
24811SOL    HW176750   6.226   0.514   5.408  1.1608  1.2338  1.0770
24811SOL    HW276751   6.288   0.380   5.376 -0.0206  1.1392 -0.9843
24812SOL     OW76752   2.915   5.367   9.679  0.1579  0.3859  0.2966
24812SOL    HW176753   2.858   5.379   9.755  0.0961 -1.2043  0.5463
24812SOL    HW276754   2.861   5.392   9.604 -0.6042 -0.3181  0.5990
24813SOL     OW76755   4.261   0.870   5.352 -0.2563 -0.0454 -0.0466
24813SOL    HW176756   4.302   0.790   5.385 -0.1962  0.5582  1.3877
24813SOL    HW276757   4.331   0.915   5.305 -0.3113 -0.8542 -0.9270
24814SOL     OW76758   2.408   7.405   2.565  0.2685 -0.2562  0.0336
24814SOL    HW176759   2.412   7.401   2.661 -2.7322 -1.5398  0.2429
24814SOL    HW276760   2.391   7.314   2.539  1.7100 -0.0449 -1.8208
24815SOL     OW76761   5.775   7.932   6.606  0.4536 -0.5222  0.0887
24815SOL    HW176762   5.850   7.988   6.625 -0.9254  1.1964  0.7811
24815SOL    HW276763   5.719   7.984   6.548 -1.3341 -0.7298  1.5184
24816SOL     OW76764  10.457   4.307   1.162 -0.2065 -0.4695  0.3047
24816SOL    HW176765  10.416   4.343   1.083  0.8652  0.6733  0.2389
24816SOL    HW276766  10.466   4.382   1.221  1.7435 -0.6519  0.3209
24817SOL     OW76767   6.810  10.327   9.050  0.1116  0.2697  0.2005
24817SOL    HW176768   6.736  10.292   9.101  0.8738  1.1063  1.9761
24817SOL    HW276769   6.855  10.250   9.016 -1.2102 -0.2686 -0.3924
24818SOL     OW76770   1.072   9.340   6.362  0.6430 -0.2998  0.0462
24818SOL    HW176771   1.000   9.279   6.348  0.5093 -0.2309  0.4144
24818SOL    HW276772   1.088   9.378   6.276 -0.9801  1.0252  0.2504
24819SOL     OW76773   9.458   0.208   6.007 -0.5649  0.5575  0.0894
24819SOL    HW176774   9.506   0.204   6.090 -1.1687 -3.5976  0.4503
24819SOL    HW276775   9.366   0.211   6.033 -0.7427 -0.4741 -0.3640
24820SOL     OW76776  10.260   8.936   2.032 -0.4088 -0.2947 -0.0999
24820SOL    HW176777  10.285   8.844   2.029  1.8350  0.1653  1.6515
24820SOL    HW276778  10.342   8.983   2.047 -1.7418  1.8260  1.0594
24821SOL     OW76779   8.740   9.385   0.728  0.3140  0.3983  0.2986
24821SOL    HW176780   8.799   9.451   0.693  0.8443 -0.9696 -1.6008
24821SOL    HW276781   8.699   9.346   0.650 -0.9154 -0.6338  1.4115
24822SOL     OW76782   7.747   3.538   4.047 -0.0984  0.3074  0.0275
24822SOL    HW176783   7.738   3.614   4.104  2.1102 -0.2505  1.2882
24822SOL    HW276784   7.813   3.483   4.091  0.0795 -1.2302 -1.9779
24823SOL     OW76785   2.954   5.124   2.563  0.4946  0.4047  0.0930
24823SOL    HW176786   2.925   5.040   2.596 -0.0508  0.3967 -0.4029
24823SOL    HW276787   2.966   5.111   2.469 -0.1321  1.0282 -0.0776
24824SOL     OW76788   1.989   0.255   7.840  0.3011  0.3361 -0.1414
24824SOL    HW176789   2.025   0.203   7.912 -0.7478  0.8513  0.7825
24824SOL    HW276790   1.948   0.191   7.783 -0.7653  0.0933  0.8581
24825SOL     OW76791   5.509   7.649   0.846  0.1358 -0.2021 -0.3758
24825SOL    HW176792   5.458   7.707   0.789  0.6322 -0.0235 -0.6487
24825SOL    HW276793   5.513   7.566   0.799 -1.4104 -0.7816  0.4645
24826SOL     OW76794   9.173   7.270   2.600  0.4662  0.2712 -0.7026
24826SOL    HW176795   9.131   7.314   2.674 -1.8816 -1.1865 -1.0612
24826SOL    HW276796   9.199   7.184   2.634  2.0784  0.6653 -0.8468
24827SOL     OW76797   6.619   1.223   5.959 -0.2524  0.1524  0.1328
24827SOL    HW176798   6.541   1.270   5.987 -0.2740 -0.0318  0.3832
24827SOL    HW276799   6.593   1.182   5.876 -1.0662 -1.5079  1.1626
24828SOL     OW76800   0.726   3.326   1.552  0.0778  0.1239  0.1241
24828SOL    HW176801   0.631   3.322   1.564  0.0236  1.8524  0.6211
24828SOL    HW276802   0.737   3.376   1.471  0.5725 -2.8126 -1.7505
24829SOL     OW76803   3.292   5.908   5.128  0.5057 -0.3725  0.3240
24829SOL    HW176804   3.354   5.963   5.176  1.7327 -1.4593  0.0145
24829SOL    HW276805   3.240   5.865   5.196  0.5055  0.0598  0.6006
24830SOL     OW76806   0.855   8.294   3.578 -0.2841 -0.2228 -0.2920
24830SOL    HW176807   0.770   8.323   3.611  0.4087  0.8549  0.6012
24830SOL    HW276808   0.849   8.304   3.483 -1.0394  0.1674 -0.2041
24831SOL     OW76809   2.719   4.250   5.908 -0.0555  0.1872  0.0399
24831SOL    HW176810   2.702   4.295   5.826  0.5531  1.0399  0.3622
24831SOL    HW276811   2.636   4.255   5.956 -0.6813 -1.0890 -0.8531
24832SOL     OW76812   9.613  10.455   8.516 -0.0079  0.1825 -0.6001
24832SOL    HW176813   9.628  10.373   8.469  2.2291 -0.5720  1.2329
24832SOL    HW276814   9.568  10.429   8.597 -0.8942  1.0353 -0.7908
24833SOL     OW76815   1.155  10.023   8.518  0.2310  0.0514 -0.2930
24833SOL    HW176816   1.067  10.061   8.519  0.3325  0.2737  0.4207
24833SOL    HW276817   1.144   9.937   8.557  0.4465  0.3487  0.4373
24834SOL     OW76818   5.625  10.517   1.705  0.1906  0.0542  0.4358
24834SOL    HW176819   5.674  10.587   1.748  1.2352 -0.2644 -0.1752
24834SOL    HW276820   5.574  10.561   1.637 -0.2639  0.3800  0.9920
24835SOL     OW76821   3.302   8.669   0.711 -0.7186  0.3492 -0.1401
24835SOL    HW176822   3.289   8.588   0.661  0.0217  0.1584 -0.0408
24835SOL    HW276823   3.221   8.718   0.699 -0.9003 -0.0945 -0.7924
24836SOL     OW76824   8.737  10.480   0.131  0.3344  0.5631  0.6733
24836SOL    HW176825   8.826  10.501   0.105  0.6016 -1.2130  0.0090
24836SOL    HW276826   8.691  10.461   0.049  0.4452 -2.3768  1.1627
24837SOL     OW76827   1.923   2.209   6.089  0.0272  0.3900 -0.4201
24837SOL    HW176828   1.981   2.248   6.024  1.6396  1.1941  1.3833
24837SOL    HW276829   1.839   2.200   6.045  1.4238 -0.6078 -3.1019
24838SOL     OW76830   6.585   1.409   3.419 -0.1079  0.0789  0.1074
24838SOL    HW176831   6.631   1.328   3.443 -1.9232 -0.6294  1.4950
24838SOL    HW276832   6.537   1.433   3.499 -0.9040  1.6130 -0.7923
24839SOL     OW76833   1.631   9.786   9.814 -0.4641 -0.0230 -0.2797
24839SOL    HW176834   1.557   9.816   9.867  0.3474  0.9594  0.3352
24839SOL    HW276835   1.608   9.812   9.724 -1.1642 -0.3313 -0.1950
24840SOL     OW76836   1.439   2.895   5.557  0.3211 -0.1627 -0.1505
24840SOL    HW176837   1.416   2.836   5.485 -0.0696  0.6334 -0.6939
24840SOL    HW276838   1.441   2.839   5.635 -0.3984 -0.8256 -0.5988
24841SOL     OW76839   3.363   4.587   1.141 -0.1093 -0.1954  0.2425
24841SOL    HW176840   3.442   4.607   1.190  0.4326 -1.5737 -0.0276
24841SOL    HW276841   3.392   4.530   1.070 -1.2745 -0.3185 -0.1602
24842SOL     OW76842  10.099   4.786   6.217 -0.5036 -0.0733 -0.0633
24842SOL    HW176843  10.177   4.738   6.188 -0.1250  0.3392  0.2667
24842SOL    HW276844  10.026   4.737   6.180 -0.0732 -0.2324 -0.7197
24843SOL     OW76845  10.012   0.978   2.377 -0.4867  0.1099  0.4111
24843SOL    HW176846  10.019   0.883   2.386  0.8156  0.3319  2.6315
24843SOL    HW276847   9.948   1.004   2.444 -2.0694  0.6989 -1.2614
24844SOL     OW76848   4.524   1.076   4.519 -0.0728 -0.1846 -0.4501
24844SOL    HW176849   4.557   1.118   4.598  0.8141  0.6481 -1.2461
24844SOL    HW276850   4.459   1.137   4.485 -0.3113 -0.4549 -0.4941
24845SOL     OW76851   5.699   0.772   3.414 -0.3899  0.8767 -0.4014
24845SOL    HW176852   5.681   0.710   3.343 -1.4097  0.5712  0.1072
24845SOL    HW276853   5.706   0.857   3.370 -0.5000  0.6177 -0.9302
24846SOL     OW76854   2.834   7.034  10.096  0.0635  0.0631 -0.3134
24846SOL    HW176855   2.796   7.095  10.033 -2.4125  0.5218  1.4790
24846SOL    HW276856   2.815   6.947  10.059 -0.6774  0.3328 -0.5835
24847SOL     OW76857   4.016   3.936   5.549  0.6165  0.0274  0.5566
24847SOL    HW176858   4.085   3.998   5.574 -0.4158  0.7364  1.7742
24847SOL    HW276859   3.984   3.902   5.632  0.3097 -1.2042 -0.0521
24848SOL     OW76860   0.703   9.785   6.110 -0.9369  0.1141 -0.3039
24848SOL    HW176861   0.784   9.787   6.161 -1.4931  0.8720  0.5996
24848SOL    HW276862   0.674   9.694   6.116 -0.2699 -0.1172 -0.4574
24849SOL     OW76863   5.083   0.079   1.611  0.1415  0.1015  0.6717
24849SOL    HW176864   5.052   0.161   1.648 -0.2340  0.3239 -0.1186
24849SOL    HW276865   5.004   0.036   1.577  0.5734  0.2905 -0.6119
24850SOL     OW76866   2.425   4.052   9.198  0.1814  0.3205 -0.3494
24850SOL    HW176867   2.342   4.099   9.204 -0.0108 -0.0383 -0.2407
24850SOL    HW276868   2.422   3.987   9.268 -0.1431 -0.7865 -1.3680
24851SOL     OW76869   8.618   6.769  10.575  0.1302  0.5536 -0.2792
24851SOL    HW176870   8.592   6.682  10.544  0.5096 -0.3429  1.7890
24851SOL    HW276871   8.543   6.800  10.626 -0.0955  1.5790 -1.1886
24852SOL     OW76872   5.149   6.823   5.166  0.5884  0.4668 -0.3243
24852SOL    HW176873   5.241   6.832   5.191  0.8272  0.1436 -1.0852
24852SOL    HW276874   5.124   6.735   5.196  0.0533  1.1270  1.3283
24853SOL     OW76875   3.092   6.047   6.460  0.2496 -0.2521 -0.1263
24853SOL    HW176876   3.041   6.019   6.385 -0.1332  1.3887 -0.5212
24853SOL    HW276877   3.028   6.062   6.530  0.2529  1.0183 -0.3743
24854SOL     OW76878   5.130   9.590   6.636  0.2663 -0.3486 -0.2011
24854SOL    HW176879   5.148   9.662   6.697 -0.8195  1.2541 -1.6839
24854SOL    HW276880   5.086   9.524   6.690 -2.6781  1.9337  0.4589
24855SOL     OW76881   0.704   0.512   3.642 -0.1389 -0.6025  0.0051
24855SOL    HW176882   0.669   0.446   3.702 -1.1528  0.1549  0.2881
24855SOL    HW276883   0.799   0.505   3.650 -0.2509 -0.6992  1.5083
24856SOL     OW76884  10.086   8.126   5.020  0.0585 -0.2240  1.0302
24856SOL    HW176885  10.074   8.059   4.953  3.7400 -0.4472  0.3416
24856SOL    HW276886  10.128   8.081   5.093  0.2001  0.8259  1.6234
24857SOL     OW76887   8.662   8.244   3.397 -0.1348 -0.1416  0.1890
24857SOL    HW176888   8.571   8.266   3.378 -0.2725 -0.8239  0.0292
24857SOL    HW276889   8.658   8.191   3.477  0.2404  0.8489  0.8841
24858SOL     OW76890  10.267   9.076   1.379  0.4229 -0.2418  0.4342
24858SOL    HW176891  10.208   9.093   1.305  1.2850 -1.6444 -0.6269
24858SOL    HW276892  10.355   9.087   1.342  0.8706 -1.3212  1.1565
24859SOL     OW76893   2.233   7.605   7.915  0.0622 -0.5234 -0.1424
24859SOL    HW176894   2.176   7.562   7.852 -0.3397  1.5104 -1.2818
24859SOL    HW276895   2.175   7.633   7.986  0.2321 -1.3737  0.3374
24860SOL     OW76896   0.968   1.381   2.206  0.7422 -0.3737 -0.1517
24860SOL    HW176897   0.897   1.438   2.176  1.9656  1.2803 -0.0782
24860SOL    HW276898   0.934   1.292   2.197 -1.1670  0.3540 -0.5013
24861SOL     OW76899   5.956  10.022   7.510  0.1347  0.4102  0.2809
24861SOL    HW176900   5.873  10.015   7.465 -0.1203  0.1974  0.7704
24861SOL    HW276901   5.989   9.932   7.515  0.5356  0.5301 -0.1717
24862SOL     OW76902   7.328  10.489   0.696  0.2075  0.0088  0.3959
24862SOL    HW176903   7.257  10.502   0.759  0.1137  0.8422  0.1377
24862SOL    HW276904   7.406  10.518   0.742  0.0179  1.4450 -0.1391
24863SOL     OW76905   3.722   1.002   6.263  0.0147  0.6259 -0.2163
24863SOL    HW176906   3.746   0.910   6.253 -0.0057  0.8095 -2.4485
24863SOL    HW276907   3.721   1.017   6.357 -0.8171 -1.8630  0.2168
24864SOL     OW76908   4.593   6.064   1.132  0.6944  0.5841  0.2016
24864SOL    HW176909   4.603   6.156   1.108  0.2041  0.3130 -1.0791
24864SOL    HW276910   4.642   6.016   1.066 -1.3546 -0.2168 -0.8235
24865SOL     OW76911   0.749   9.655  10.164 -0.5322 -0.0949 -0.3028
24865SOL    HW176912   0.660   9.634  10.134 -0.7131 -1.6659  1.1825
24865SOL    HW276913   0.791   9.696  10.089 -1.4307 -2.4659 -2.2236
24866SOL     OW76914   8.351   2.355   2.883  0.0840 -0.3546  0.6798
24866SOL    HW176915   8.324   2.355   2.791  0.7680 -0.4161  0.4673
24866SOL    HW276916   8.434   2.404   2.883 -0.3918  0.4793  1.4193
24867SOL     OW76917   5.513   4.735   4.233  0.3829  0.4557  0.3324
24867SOL    HW176918   5.572   4.660   4.232 -1.6275 -1.2236  0.6335
24867SOL    HW276919   5.466   4.730   4.150 -1.5315 -0.1691  1.3970
24868SOL     OW76920   8.888   5.759   8.305 -0.8314 -0.2407  0.5837
24868SOL    HW176921   8.849   5.672   8.309  0.8096 -0.9812  1.4917
24868SOL    HW276922   8.982   5.743   8.291 -0.4006  1.3483  1.3865
24869SOL     OW76923   5.832   0.007   2.452 -0.4351  0.7231 -0.4418
24869SOL    HW176924   5.833   0.052   2.537 -0.8868  1.8227 -1.0027
24869SOL    HW276925   5.924  -0.013   2.434 -0.4095 -0.3346  0.7073
24870SOL     OW76926   1.606   3.300   5.296  0.6224  0.3226  0.4123
24870SOL    HW176927   1.613   3.275   5.203 -1.1694 -0.0416  0.3234
24870SOL    HW276928   1.607   3.217   5.343 -1.8179  0.1938  0.3974
24871SOL     OW76929   8.691  10.298   3.522 -0.7386 -0.3021 -0.0781
24871SOL    HW176930   8.752  10.334   3.458  1.8212 -3.6732  0.1308
24871SOL    HW276931   8.642  10.231   3.474 -0.9222 -0.8266  0.8085
24872SOL     OW76932   6.383  10.124   4.658  0.0724 -0.2621  0.2865
24872SOL    HW176933   6.329  10.048   4.676  1.4912 -1.4446 -0.2117
24872SOL    HW276934   6.450  10.123   4.727  1.0347 -0.4191 -0.6129
24873SOL     OW76935   4.642   8.235   6.811 -0.4545  0.3475  0.4082
24873SOL    HW176936   4.620   8.150   6.774  1.0816 -0.1680  0.5989
24873SOL    HW276937   4.575   8.294   6.776 -1.2425 -0.8274 -0.1433
24874SOL     OW76938   2.453   5.338   5.421  0.3054  0.1387  0.6610
24874SOL    HW176939   2.465   5.431   5.442 -0.4118  0.7218 -1.2414
24874SOL    HW276940   2.490   5.291   5.495  2.8887  1.9138  0.6131
24875SOL     OW76941   9.927   1.405   9.126 -0.3907 -0.3765 -0.6487
24875SOL    HW176942   9.978   1.325   9.114 -0.1424 -0.3783  0.2881
24875SOL    HW276943   9.844   1.375   9.163 -0.3014 -0.2092 -0.3082
24876SOL     OW76944   2.670   6.555  10.449 -0.1306 -0.5154 -0.4940
24876SOL    HW176945   2.593   6.526  10.401 -1.4656  0.1839  1.1064
24876SOL    HW276946   2.636   6.581  10.535  1.3462  2.9488 -0.7990
24877SOL     OW76947   8.633   1.175   6.267  0.1208  0.1763  0.5657
24877SOL    HW176948   8.702   1.238   6.247 -0.8564  1.0089 -0.2698
24877SOL    HW276949   8.608   1.195   6.358  0.5619  0.2642  0.6696
24878SOL     OW76950   8.483   8.958   6.692 -0.3155  0.5988  0.0811
24878SOL    HW176951   8.474   8.973   6.598  2.2605 -0.3074 -0.3877
24878SOL    HW276952   8.538   9.030   6.723 -2.6596  1.9832  1.3572
24879SOL     OW76953   6.718   6.009   9.915 -0.5487  0.0198 -0.3390
24879SOL    HW176954   6.767   6.035   9.993  0.2365 -0.8337 -0.5341
24879SOL    HW276955   6.752   6.065   9.845 -1.4443  0.9752 -0.0345
24880SOL     OW76956   3.967  10.106   0.029 -0.0043 -0.2036  0.3810
24880SOL    HW176957   3.921  10.154   0.098  0.9388 -0.5662  1.2989
24880SOL    HW276958   3.899  10.081  -0.033 -0.5538  2.1617 -0.0562
24881SOL     OW76959   2.416   1.395   8.177 -0.1105  0.0139 -0.0980
24881SOL    HW176960   2.364   1.414   8.099 -0.2734 -2.0309 -0.5438
24881SOL    HW276961   2.352   1.364   8.242  0.1566  0.6656  0.4890
24882SOL     OW76962   2.124   0.137   2.092 -0.3271 -0.6094 -0.4989
24882SOL    HW176963   2.142   0.051   2.053 -0.7818 -0.5759 -0.7772
24882SOL    HW276964   2.033   0.155   2.071  0.3437  0.9332 -2.3217
24883SOL     OW76965   1.499   2.225   2.563  0.1810 -0.0825  0.2480
24883SOL    HW176966   1.420   2.266   2.527 -0.4994 -1.1603  0.4738
24883SOL    HW276967   1.521   2.157   2.500  0.1891 -0.6140  0.8214
24884SOL     OW76968   4.816   6.851   0.989  0.4827 -0.7587 -0.3210
24884SOL    HW176969   4.847   6.812   0.907  1.2432 -4.7879  1.6640
24884SOL    HW276970   4.892   6.849   1.047 -0.4365  0.5731  1.0221
24885SOL     OW76971   2.814   6.970   3.619 -0.3391 -0.4422  0.3682
24885SOL    HW176972   2.818   7.058   3.581 -0.0822  0.4794  2.4463
24885SOL    HW276973   2.725   6.962   3.652 -0.0487 -0.5241  1.1538
24886SOL     OW76974   4.074   0.358   7.036  0.2117 -0.0084  0.5101
24886SOL    HW176975   4.161   0.333   7.069  0.0468  0.6058  1.4213
24886SOL    HW276976   4.087   0.445   6.998  0.4005 -0.6987 -1.0988
24887SOL     OW76977   9.354   7.405   8.774  0.6569 -0.2434  0.3997
24887SOL    HW176978   9.438   7.440   8.742 -1.1581  1.5058 -3.0514
24887SOL    HW276979   9.331   7.462   8.847  1.7403  0.2655  0.3741
24888SOL     OW76980   3.255   4.159   1.576 -0.2401 -0.0722  0.2739
24888SOL    HW176981   3.185   4.174   1.639 -0.4168  1.1912 -0.2107
24888SOL    HW276982   3.302   4.083   1.611 -2.4260 -1.6275  0.0846
24889SOL     OW76983   1.372   9.513   2.754 -0.2983 -0.2915 -0.0914
24889SOL    HW176984   1.354   9.462   2.675  0.1094 -1.7772  0.7389
24889SOL    HW276985   1.407   9.596   2.722  1.4208 -1.4769 -1.4641
24890SOL     OW76986   8.689   5.676   0.196  0.0611  0.3745 -0.2419
24890SOL    HW176987   8.734   5.720   0.268  0.1228 -0.5153  0.2855
24890SOL    HW276988   8.760   5.648   0.137  0.1582 -0.3663  0.2101
24891SOL     OW76989   2.474   8.554   5.812 -0.6420 -0.4699  0.5484
24891SOL    HW176990   2.532   8.490   5.853 -1.1588  0.2546  2.5461
24891SOL    HW276991   2.489   8.635   5.861 -2.2810  0.0993  0.1945
24892SOL     OW76992   6.891   3.741   5.556  0.4046 -0.7535  0.1007
24892SOL    HW176993   6.868   3.748   5.648 -0.2578  2.0009 -0.1993
24892SOL    HW276994   6.813   3.705   5.514 -0.5227  1.0568  0.2031
24893SOL     OW76995   3.314   0.365   2.022  0.3529  0.0677  0.3678
24893SOL    HW176996   3.261   0.321   1.955  2.6575 -0.2894 -1.3508
24893SOL    HW276997   3.286   0.326   2.104  0.5177 -2.8659 -0.8349
24894SOL     OW76998   3.340   1.379   4.120 -0.3690 -0.2494  0.0407
24894SOL    HW176999   3.345   1.474   4.121 -1.7549 -0.1517 -1.0493
24894SOL    HW277000   3.249   1.358   4.141 -0.5154 -1.2669 -1.4444
24895SOL     OW77001   1.046   5.765   6.520  0.2599  0.2922  0.2749
24895SOL    HW177002   1.055   5.829   6.450 -4.3443 -0.3579 -1.2294
24895SOL    HW277003   1.016   5.816   6.595  0.1775  0.3712  0.1886
24896SOL     OW77004   3.476   3.483   4.439 -0.0488  0.4341 -0.1940
24896SOL    HW177005   3.519   3.467   4.355 -1.5836 -0.6640 -0.8098
24896SOL    HW277006   3.388   3.513   4.416 -0.2532  0.8438  1.0329
24897SOL     OW77007   8.320   7.169   8.237  0.0302  0.4117 -0.1598
24897SOL    HW177008   8.337   7.106   8.307 -1.6356 -1.7446 -1.5448
24897SOL    HW277009   8.366   7.133   8.161  0.1635  1.6104 -0.6648
24898SOL     OW77010   1.899   5.673   3.037 -0.9715  0.3272 -0.0990
24898SOL    HW177011   1.904   5.580   3.056 -0.3209  0.8369  2.7015
24898SOL    HW277012   1.841   5.680   2.962 -1.4799 -2.2815 -0.0118
24899SOL     OW77013   7.762   1.852   5.766 -0.3876 -0.6701 -0.0729
24899SOL    HW177014   7.764   1.948   5.773 -0.3104 -0.7779  2.1382
24899SOL    HW277015   7.817   1.822   5.839 -2.8893 -2.4092  1.2234
24900SOL     OW77016   3.230   6.959   3.707  0.9134  0.5965  0.0290
24900SOL    HW177017   3.260   6.875   3.672  0.1869 -0.2278  1.3027
24900SOL    HW277018   3.260   7.023   3.643  0.9021 -0.6850 -1.3219
24901SOL     OW77019   1.308   7.074   6.168  0.0961 -0.3472 -0.3113
24901SOL    HW177020   1.346   7.146   6.117  0.3034 -1.1362 -1.3095
24901SOL    HW277021   1.214   7.081   6.151 -0.1589  1.0110  1.3800
24902SOL     OW77022   1.033   5.609   7.527 -0.1372  0.4480  0.0915
24902SOL    HW177023   1.018   5.699   7.498 -0.8032  0.3845  0.2143
24902SOL    HW277024   1.106   5.578   7.474 -0.6329  0.6960 -0.7558
24903SOL     OW77025   3.352   3.743   3.178 -0.6731  0.7776 -0.2798
24903SOL    HW177026   3.331   3.753   3.085  3.6135  0.3144 -1.4798
24903SOL    HW277027   3.406   3.819   3.198 -0.0597 -0.0425  1.3303
24904SOL     OW77028   0.884   6.882   5.425 -0.3207  0.1650  0.0446
24904SOL    HW177029   0.911   6.947   5.360  1.7331  0.2202  0.8739
24904SOL    HW277030   0.966   6.848   5.460 -1.3688 -1.2092  1.2925
24905SOL     OW77031   6.588   4.276   4.466  0.2619 -0.1363  0.0508
24905SOL    HW177032   6.672   4.273   4.511 -1.2926  0.6297  3.3394
24905SOL    HW277033   6.525   4.295   4.536 -2.7119 -1.1576 -2.1724
24906SOL     OW77034   8.901   5.508   2.956  0.1163  0.1741  0.0550
24906SOL    HW177035   8.830   5.516   3.021  1.6831 -1.9525  2.1670
24906SOL    HW277036   8.909   5.414   2.940  0.3922  0.5800 -2.6393
24907SOL     OW77037   2.750   8.137   8.021 -0.4338  0.0053 -0.4717
24907SOL    HW177038   2.842   8.161   8.011 -0.1282 -0.6566  0.6381
24907SOL    HW277039   2.709   8.166   7.939  0.6763  0.6633 -0.8159
24908SOL     OW77040   0.549   6.654   5.767  0.3069 -0.4179  0.0186
24908SOL    HW177041   0.598   6.573   5.756 -0.4472 -0.7273 -1.3885
24908SOL    HW277042   0.571   6.706   5.690 -1.7342 -0.6891 -0.8178
24909SOL     OW77043   7.482   2.770   1.962 -0.8165 -0.1472 -0.5757
24909SOL    HW177044   7.473   2.743   1.870  0.8932  1.4233 -1.2617
24909SOL    HW277045   7.471   2.865   1.960 -0.8330 -0.0979  0.8865
24910SOL     OW77046   8.320   5.918   4.260  0.3409  0.5421 -0.1392
24910SOL    HW177047   8.288   5.981   4.325 -2.0837 -1.8522  1.2159
24910SOL    HW277048   8.244   5.900   4.204  1.8353  1.0537 -2.4826
24911SOL     OW77049   4.118   3.774   8.770  0.4480  0.1734 -0.2482
24911SOL    HW177050   4.083   3.767   8.859  1.6271  0.8096  0.2911
24911SOL    HW277051   4.190   3.710   8.768 -0.9023 -1.3880 -1.4535
24912SOL     OW77052   2.814   1.649   7.565 -0.2269  0.1828  0.0454
24912SOL    HW177053   2.808   1.595   7.644  2.6382 -0.6480 -0.1595
24912SOL    HW277054   2.848   1.733   7.596  1.4414 -0.3241 -0.2623
24913SOL     OW77055   7.670   6.515   3.285 -0.0408  0.1258 -0.0259
24913SOL    HW177056   7.646   6.588   3.228  0.3261  0.6272  0.4566
24913SOL    HW277057   7.586   6.483   3.318 -0.1186  1.5767  1.2884
24914SOL     OW77058   1.228   9.329   2.934  0.0255  0.0915  0.2059
24914SOL    HW177059   1.143   9.315   2.892 -0.2992  1.6583  0.2960
24914SOL    HW277060   1.269   9.399   2.884 -0.5937  2.4075  2.7130
24915SOL     OW77061   7.960   1.188   8.907  0.0984 -0.3799  0.6494
24915SOL    HW177062   7.872   1.217   8.928 -0.3588 -1.6692  0.6419
24915SOL    HW277063   7.992   1.249   8.841 -1.4843 -0.9308 -0.6942
24916SOL     OW77064  10.221   7.066   5.803 -0.4608  0.6800 -0.1005
24916SOL    HW177065  10.292   7.116   5.763 -0.0486  1.8158  1.8912
24916SOL    HW277066  10.152   7.131   5.820 -1.0081  0.0583  0.1378
24917SOL     OW77067   5.449   9.952   6.623  0.3304 -0.3887  0.0469
24917SOL    HW177068   5.496   9.994   6.695 -1.0111 -0.1370  0.8099
24917SOL    HW277069   5.359   9.983   6.632  0.1025 -0.4449 -1.6832
24918SOL     OW77070   9.809   8.219   1.337 -0.2433  0.2712 -0.2652
24918SOL    HW177071   9.833   8.228   1.430  0.7953  2.5719 -0.6888
24918SOL    HW277072   9.880   8.263   1.290 -0.6972 -0.9411 -2.1867
24919SOL     OW77073   7.162   3.714  10.295  0.3592  0.2003 -0.1881
24919SOL    HW177074   7.069   3.720  10.317  0.1401 -1.4016 -0.5318
24919SOL    HW277075   7.177   3.786  10.233 -1.5682 -1.5773 -2.9760
24920SOL     OW77076   0.400   9.810   6.117 -0.1045  0.4843 -0.1962
24920SOL    HW177077   0.372   9.899   6.093 -1.0020 -0.3068 -2.2365
24920SOL    HW277078   0.494   9.809   6.097  0.2413  1.3804  1.2208
24921SOL     OW77079   9.566   9.070   1.872 -0.4533  0.0530  0.1945
24921SOL    HW177080   9.503   9.012   1.828 -0.0326  0.5484 -1.0963
24921SOL    HW277081   9.526   9.157   1.866  0.4479  0.4172 -0.8845
24922SOL     OW77082   0.273   6.668   5.808 -0.1052  0.4798  0.4865
24922SOL    HW177083   0.362   6.679   5.773 -1.0058  0.1969 -2.0629
24922SOL    HW277084   0.222   6.738   5.768 -1.2647 -0.0035  1.0768
24923SOL     OW77085   1.060   8.295  10.058  0.6963 -0.1712  0.0667
24923SOL    HW177086   0.966   8.279  10.053  0.5974  0.3308  0.2649
24923SOL    HW277087   1.078   8.357   9.988  0.6391  0.8103  0.9046
24924SOL     OW77088   0.394   8.215  10.234  0.4903  0.3049 -0.6097
24924SOL    HW177089   0.407   8.310  10.243  0.5410  0.4774 -2.1375
24924SOL    HW277090   0.317   8.196  10.286  1.3402  0.9102  0.9435
24925SOL     OW77091   6.702   6.813   0.426  0.1521  0.1014 -0.0832
24925SOL    HW177092   6.740   6.899   0.444  1.2223 -0.1029 -1.2543
24925SOL    HW277093   6.741   6.755   0.490  0.4269  0.2394 -0.1252
24926SOL     OW77094   4.774   4.833   5.108  0.5786  0.2620  0.0574
24926SOL    HW177095   4.837   4.795   5.169  0.5427  0.4838  0.2317
24926SOL    HW277096   4.767   4.768   5.037 -0.8229 -0.9236  1.2125
24927SOL     OW77097   4.901   3.371   7.332  0.6186 -0.3534  0.5880
24927SOL    HW177098   4.870   3.414   7.411 -0.6785 -1.0515  0.4802
24927SOL    HW277099   4.953   3.297   7.364  1.1206  0.0694  0.7699
24928SOL     OW77100   2.385  10.204   1.776 -0.2536  0.0718  0.1847
24928SOL    HW177101   2.410  10.283   1.728 -0.7463 -0.3096 -0.7253
24928SOL    HW277102   2.373  10.138   1.708 -1.9815 -0.2091  0.7230
24929SOL     OW77103   8.225   3.284   9.160 -0.4671  0.0113 -0.4857
24929SOL    HW177104   8.302   3.241   9.122 -0.7257 -1.3852  0.4772
24929SOL    HW277105   8.253   3.309   9.248 -0.6022  1.0594 -0.7273
24930SOL     OW77106   9.371   3.786   6.201  0.9169 -0.1710  0.1818
24930SOL    HW177107   9.331   3.703   6.227 -0.1355  0.2821  0.0701
24930SOL    HW277108   9.308   3.824   6.140  0.6610  1.3885  1.3543
24931SOL     OW77109   2.314   0.504   6.369 -0.2030  0.2204  0.4126
24931SOL    HW177110   2.358   0.564   6.429 -0.0235  1.0151 -0.4954
24931SOL    HW277111   2.268   0.442   6.427  1.7610 -0.4023  1.3892
24932SOL     OW77112   5.559   5.236   3.537  0.5130 -0.2642 -0.1444
24932SOL    HW177113   5.521   5.250   3.624 -0.0964 -1.4400 -0.1974
24932SOL    HW277114   5.652   5.256   3.548  0.1375  1.2934  0.3415
24933SOL     OW77115   0.603   5.364   4.755  0.5314 -0.3116  0.2779
24933SOL    HW177116   0.586   5.276   4.722 -2.5201  0.4001 -0.3126
24933SOL    HW277117   0.679   5.393   4.705  0.9484 -2.1901 -0.2827
24934SOL     OW77118   5.038   2.561   8.525  0.5143 -0.5697 -0.4016
24934SOL    HW177119   5.082   2.576   8.609 -0.8057  1.4604  0.0089
24934SOL    HW277120   4.963   2.506   8.546  0.6675 -0.7885 -0.4207
24935SOL     OW77121   8.630   5.799   9.250 -0.3024  0.1975 -0.0074
24935SOL    HW177122   8.693   5.866   9.275 -1.6704  1.7876 -0.6360
24935SOL    HW277123   8.590   5.772   9.333 -0.5757  1.0401  0.1458
24936SOL     OW77124   9.454  10.212   8.912 -0.3780  0.1525 -0.1152
24936SOL    HW177125   9.401  10.149   8.863 -0.3238 -0.0349  0.0672
24936SOL    HW277126   9.404  10.228   8.992 -0.7856  0.9526 -0.5204
24937SOL     OW77127   3.257   6.609   7.770  0.0311  0.1623 -0.2544
24937SOL    HW177128   3.253   6.559   7.688 -1.3371 -1.2399  0.6091
24937SOL    HW277129   3.279   6.544   7.837 -1.4710  0.7204  0.8589
24938SOL     OW77130   7.386   5.037   0.151  0.4494 -0.2136 -0.0159
24938SOL    HW177131   7.397   5.024   0.246 -1.1708  1.4760  0.4661
24938SOL    HW277132   7.385   4.948   0.115  1.8531 -0.8665  1.4361
24939SOL     OW77133   8.179   6.378   5.797  0.0790  0.1037  0.0647
24939SOL    HW177134   8.097   6.424   5.819 -1.4600 -2.3451 -0.1974
24939SOL    HW277135   8.189   6.313   5.866 -0.5584 -2.4321 -2.0933
24940SOL     OW77136   5.403   1.891   2.768 -0.1003  0.3106  0.5615
24940SOL    HW177137   5.435   1.802   2.775 -0.5779 -0.0040 -0.8079
24940SOL    HW277138   5.419   1.915   2.676  0.1767  1.6923  0.9493
24941SOL     OW77139   0.752   5.744   6.587  0.4268 -0.9963 -0.4406
24941SOL    HW177140   0.759   5.667   6.644  1.5793 -1.1157 -0.7284
24941SOL    HW277141   0.802   5.721   6.509  1.0280  0.1486 -0.4117
24942SOL     OW77142   7.592   4.372  10.587  0.4124 -0.0119  0.1665
24942SOL    HW177143   7.606   4.437  10.656  0.5442 -0.5443  0.6517
24942SOL    HW277144   7.562   4.423  10.511  0.9540  0.6588  0.3971
24943SOL     OW77145   4.296   6.790   1.587 -0.4215  0.1111  0.3012
24943SOL    HW177146   4.236   6.769   1.515  0.8032 -0.7519 -0.5061
24943SOL    HW277147   4.377   6.744   1.565  0.6570  1.4892  1.2077
24944SOL     OW77148   3.207   4.791   9.110  0.1616  0.6278  0.2360
24944SOL    HW177149   3.229   4.875   9.071 -0.6163 -0.6573 -3.3732
24944SOL    HW277150   3.122   4.804   9.150 -0.6373  1.2734 -1.5771
24945SOL     OW77151   8.743   8.858   5.856  0.1733 -0.2973  0.3807
24945SOL    HW177152   8.833   8.829   5.842  0.5221  0.8226  0.1819
24945SOL    HW277153   8.751   8.942   5.901 -0.7216  0.5064 -0.8687
24946SOL     OW77154   4.805   1.327   5.883 -0.1198 -0.5425 -0.1880
24946SOL    HW177155   4.773   1.417   5.876  1.0914 -0.1234 -0.8477
24946SOL    HW277156   4.883   1.326   5.826 -1.0174 -2.4443 -1.4837
24947SOL     OW77157   8.397   9.760   7.758  0.1065 -0.4249  0.5345
24947SOL    HW177158   8.425   9.832   7.815 -0.1711 -1.4089  1.9896
24947SOL    HW277159   8.356   9.697   7.818  2.1497 -2.7497 -0.3344
24948SOL     OW77160   5.204   4.111   6.220 -0.0402 -0.2996  0.1296
24948SOL    HW177161   5.253   4.135   6.141  0.4523 -0.2079  0.4575
24948SOL    HW277162   5.272   4.090   6.284 -0.4394 -0.4384  0.5082
24949SOL     OW77163   0.391   5.931   6.077 -0.1906 -0.6266 -0.4926
24949SOL    HW177164   0.303   5.944   6.112 -0.4152 -1.2852 -0.7863
24949SOL    HW277165   0.423   6.019   6.056  0.0910 -0.1575  1.6787
24950SOL     OW77166   4.025   4.594   9.288  0.3579  0.3928 -0.3262
24950SOL    HW177167   4.097   4.574   9.228 -0.9018 -0.0190 -1.7533
24950SOL    HW277168   3.957   4.633   9.233 -0.6616  0.4445  0.9129
24951SOL     OW77169  10.578   0.389   3.736 -0.2394  0.2516 -0.6139
24951SOL    HW177170  10.634   0.338   3.794  0.0009  1.1248 -0.0616
24951SOL    HW277171  10.504   0.332   3.719 -0.5797  0.1563  0.9893
24952SOL     OW77172   0.284   8.372   0.918 -0.1873 -0.7497  1.0731
24952SOL    HW177173   0.338   8.362   0.996 -0.1771 -1.1963  1.0114
24952SOL    HW277174   0.338   8.336   0.847  0.5989  1.3789  0.5159
24953SOL     OW77175   8.118   5.426   4.992  0.6971 -0.6325 -0.4987
24953SOL    HW177176   8.163   5.502   4.953  0.4421 -0.2844 -0.1226
24953SOL    HW277177   8.025   5.447   4.983  0.6314 -0.7791 -0.1520
24954SOL     OW77178   8.206   0.208   0.251 -0.0598 -0.3413  0.1272
24954SOL    HW177179   8.238   0.297   0.235  0.2636 -0.6045 -0.7366
24954SOL    HW277180   8.285   0.155   0.256 -0.2881 -0.7070 -0.1588
24955SOL     OW77181   8.955   0.798   0.525  0.0296 -0.1740 -0.0710
24955SOL    HW177182   8.992   0.711   0.541 -2.2160 -1.6649 -2.2027
24955SOL    HW277183   8.959   0.842   0.610  1.5722 -2.2065  0.9897
24956SOL     OW77184   8.936   8.438   5.446  0.2887 -0.0040 -0.3078
24956SOL    HW177185   8.976   8.378   5.509 -1.5433 -1.3225 -0.2978
24956SOL    HW277186   8.842   8.421   5.453 -0.5222  3.9203  0.7034
24957SOL     OW77187   4.352   2.120   4.930 -0.4799 -0.5451 -0.0181
24957SOL    HW177188   4.275   2.176   4.918  0.4316  0.3115 -2.3060
24957SOL    HW277189   4.380   2.137   5.019 -1.4160  1.1082 -0.0004
24958SOL     OW77190   9.237   4.896   7.956 -0.1038 -0.0911 -0.0899
24958SOL    HW177191   9.247   4.804   7.930 -0.4999  0.0309 -0.6848
24958SOL    HW277192   9.143   4.910   7.958 -0.0470  0.2427  0.2282
24959SOL     OW77193   6.615   0.657   9.381  0.0233  0.2895  0.0938
24959SOL    HW177194   6.566   0.630   9.303 -2.5078  1.6567  1.1147
24959SOL    HW277195   6.612   0.580   9.439 -0.2909  0.1271 -0.1371
24960SOL     OW77196   0.020   2.649   2.998  0.2130 -0.2594  0.9048
24960SOL    HW177197   0.070   2.629   3.077 -1.8889  0.6879  2.5739
24960SOL    HW277198  -0.013   2.564   2.968  0.6703 -0.5706  1.2760
24961SOL     OW77199   5.968   6.099   5.526 -0.1440  0.4655  0.0274
24961SOL    HW177200   5.898   6.131   5.583  0.2946  0.4094  0.6080
24961SOL    HW277201   6.030   6.172   5.522 -1.1219  1.2642 -2.0366
24962SOL     OW77202   8.380   4.552   4.866 -0.4560  0.3034  0.3390
24962SOL    HW177203   8.340   4.622   4.918 -0.1672  0.7891 -0.0861
24962SOL    HW277204   8.472   4.551   4.895  0.2475  1.9905 -1.5995
24963SOL     OW77205   6.191   8.223   3.823  0.8652 -0.1280 -1.0532
24963SOL    HW177206   6.208   8.228   3.729  0.3865 -0.6427 -1.1753
24963SOL    HW277207   6.096   8.234   3.831  1.0270  1.1038 -0.5235
24964SOL     OW77208   2.917   3.627   5.008 -0.3888 -0.2540  0.0463
24964SOL    HW177209   2.963   3.550   5.042 -1.0754 -0.8538 -0.3277
24964SOL    HW277210   2.893   3.678   5.085  0.4097 -0.2134  0.2745
24965SOL     OW77211   5.534   9.969  10.428 -0.1286  0.1594  0.1595
24965SOL    HW177212   5.482  10.047  10.406  2.7277  1.9414 -0.8692
24965SOL    HW277213   5.533   9.918  10.347 -1.0092 -0.3119  0.4519
24966SOL     OW77214   5.966   6.562   0.553 -0.5025  0.1491  0.1707
24966SOL    HW177215   5.908   6.611   0.495  1.5736  2.6313 -0.0278
24966SOL    HW277216   6.050   6.608   0.547  2.1467 -4.2306 -1.0384
24967SOL     OW77217   2.651  10.261   5.213  0.6750  0.1103 -0.2720
24967SOL    HW177218   2.619  10.171   5.217  0.0274  0.3522  0.1374
24967SOL    HW277219   2.705  10.272   5.291 -0.3678  0.4832  0.4236
24968SOL     OW77220   0.065   2.659   0.941 -0.1828 -0.3189 -0.2677
24968SOL    HW177221   0.048   2.614   0.858  0.5373  0.0415 -0.6111
24968SOL    HW277222   0.147   2.706   0.928 -0.0580 -0.2508  0.6503
24969SOL     OW77223   3.234   7.745   2.101  0.0702  0.1567 -0.2725
24969SOL    HW177224   3.238   7.840   2.093  0.8490  0.1252 -0.3972
24969SOL    HW277225   3.266   7.728   2.190 -0.3142  0.0255 -0.1595
24970SOL     OW77226   0.424   8.215   9.758 -0.1771 -0.1376  0.4339
24970SOL    HW177227   0.458   8.274   9.691 -0.0689 -1.1873 -0.4526
24970SOL    HW277228   0.338   8.251   9.779 -0.3405  0.0390 -0.4809
24971SOL     OW77229   5.281   0.004   2.253  0.7585  0.6145 -0.0824
24971SOL    HW177230   5.201   0.055   2.266 -0.2644 -1.0197  0.2599
24971SOL    HW277231   5.349   0.054   2.299  0.1687  2.5032 -1.1431
24972SOL     OW77232   4.161   4.238   6.917 -0.1079 -0.3955  0.4112
24972SOL    HW177233   4.092   4.206   6.860 -0.3075  0.8420 -0.0636
24972SOL    HW277234   4.224   4.166   6.922 -1.2796 -1.4188  0.6125
24973SOL     OW77235   5.355   1.414   7.406 -0.1206  0.5242  0.4954
24973SOL    HW177236   5.434   1.459   7.437 -0.9929  4.0000 -1.7018
24973SOL    HW277237   5.373   1.393   7.315 -1.5591  1.1297  0.0311
24974SOL     OW77238   3.464   5.093   2.154 -0.4882 -0.1706 -0.1143
24974SOL    HW177239   3.558   5.078   2.160 -0.3687  0.6041  0.1320
24974SOL    HW277240   3.427   5.041   2.225 -0.3199 -0.9696 -0.5920
24975SOL     OW77241   8.681   6.986   7.831 -0.1447  0.1010 -0.6028
24975SOL    HW177242   8.760   6.933   7.843 -0.7095 -0.6796 -0.2289
24975SOL    HW277243   8.712   7.076   7.828  0.8632 -0.2629 -1.4756
24976SOL     OW77244   6.183   2.358   2.792 -0.9619  0.1054  0.4177
24976SOL    HW177245   6.136   2.299   2.733 -2.5384  0.8358  0.8967
24976SOL    HW277246   6.161   2.446   2.761 -0.4291  0.4804  1.0623
24977SOL     OW77247   7.395  10.032   9.323 -0.0938 -0.1978 -0.7706
24977SOL    HW177248   7.329   9.987   9.375 -1.0449  1.4866 -0.4457
24977SOL    HW277249   7.395   9.987   9.239 -0.7766 -0.9826 -0.3576
24978SOL     OW77250   1.525   5.354   3.657 -0.0506 -0.1072 -0.0439
24978SOL    HW177251   1.537   5.381   3.566 -1.0807  0.2993 -0.0777
24978SOL    HW277252   1.449   5.296   3.655 -0.7814  0.7816  0.6980
24979SOL     OW77253   8.815   1.352  10.200 -0.6457  0.3278  0.7302
24979SOL    HW177254   8.793   1.286  10.265  0.7325 -0.4597  0.4292
24979SOL    HW277255   8.830   1.432  10.251 -1.5600  0.2283  1.1647
24980SOL     OW77256   7.987   4.525   4.100  0.0668  0.2372  0.1120
24980SOL    HW177257   7.979   4.620   4.102  2.2829  0.4692  0.2225
24980SOL    HW277258   8.013   4.505   4.010  2.9455  0.1244  0.8868
24981SOL     OW77259   7.944   3.061   1.364  0.2954 -0.0165  0.3323
24981SOL    HW177260   7.921   3.153   1.351  0.6244  0.0980  0.5516
24981SOL    HW277261   8.033   3.053   1.328  0.0960 -0.3484 -0.0934
24982SOL     OW77262   6.879   5.980   3.456  0.0119  0.0181  0.0957
24982SOL    HW177263   6.845   5.968   3.368  0.2895  0.0165 -0.0112
24982SOL    HW277264   6.964   6.021   3.444  0.2696 -0.4407  0.3389
24983SOL     OW77265   3.108   3.278   3.265  0.5596 -0.0128 -0.1840
24983SOL    HW177266   3.076   3.361   3.231  0.3097 -0.0418 -0.0167
24983SOL    HW277267   3.049   3.212   3.230 -1.4482  0.1814  2.4761
24984SOL     OW77268   7.762   2.231   3.453  0.9294  0.2894  0.0126
24984SOL    HW177269   7.807   2.168   3.509 -0.7499 -0.8222  0.1878
24984SOL    HW277270   7.703   2.178   3.400 -0.7271  1.7151  0.3400
24985SOL     OW77271   2.799   4.954   2.014  0.0822 -0.0141  0.3855
24985SOL    HW177272   2.719   4.921   2.057 -0.2631 -0.6788 -0.7329
24985SOL    HW277273   2.858   4.879   2.014  0.5409  0.3440  0.7868
24986SOL     OW77274   0.417   0.242   0.985 -0.0571 -0.2421  0.2498
24986SOL    HW177275   0.477   0.238   0.910 -0.7046 -0.5646 -0.2655
24986SOL    HW277276   0.337   0.281   0.950 -0.3717 -0.4067  0.7689
24987SOL     OW77277   0.271   3.994   2.479 -0.0380  0.0266  0.2421
24987SOL    HW177278   0.362   3.974   2.458 -0.0602 -0.6716  0.7605
24987SOL    HW277279   0.220   3.927   2.433 -0.3430  0.7958 -0.5677
24988SOL     OW77280   8.683   3.471   8.483  0.2110  0.3088 -0.1070
24988SOL    HW177281   8.712   3.489   8.573  2.1534  1.7320 -0.9571
24988SOL    HW277282   8.627   3.546   8.461 -1.5345 -0.7902  0.3791
24989SOL     OW77283   0.925   1.379   5.984 -0.1150  0.6240 -0.2444
24989SOL    HW177284   0.910   1.335   6.068 -1.9280  1.3168 -0.1626
24989SOL    HW277285   1.015   1.357   5.961 -0.0749 -0.8263  1.1402
24990SOL     OW77286   4.582   8.604   6.851 -0.1001 -0.4776 -0.6176
24990SOL    HW177287   4.591   8.650   6.934 -0.2842 -0.2592 -0.7187
24990SOL    HW277288   4.672   8.578   6.828  0.2357  1.1908 -1.3336
24991SOL     OW77289   8.003   7.370   3.363  0.1371 -0.2498 -0.6926
24991SOL    HW177290   8.031   7.299   3.421  0.7667 -1.0757 -1.9477
24991SOL    HW277291   7.986   7.444   3.421  1.9909 -0.6429  0.4280
24992SOL     OW77292   4.693   0.270   5.504 -0.0458 -0.8632 -0.0401
24992SOL    HW177293   4.606   0.253   5.467 -0.9829 -1.8764  2.4156
24992SOL    HW277294   4.744   0.192   5.483  0.3968 -0.1968 -1.6322
24993SOL     OW77295   5.462   0.626   4.012 -0.2044 -0.8828 -0.2536
24993SOL    HW177296   5.379   0.596   4.049 -0.5138 -0.4347 -0.5726
24993SOL    HW277297   5.458   0.600   3.920  0.0258 -0.8940 -0.2608
24994SOL     OW77298   3.364   8.331   9.705  0.4861  0.7301 -0.0272
24994SOL    HW177299   3.417   8.410   9.695 -0.7413  1.5107 -0.5518
24994SOL    HW277300   3.307   8.330   9.628 -0.1548 -0.1651  0.4402
24995SOL     OW77301   6.822   1.057   8.490  0.5280 -0.0242  0.7318
24995SOL    HW177302   6.884   1.095   8.428  0.3178 -1.8823 -0.7116
24995SOL    HW277303   6.765   1.130   8.515  2.7143  1.5349  1.4640
24996SOL     OW77304   7.503  10.317   0.475 -0.3873  0.0363  0.9444
24996SOL    HW177305   7.495  10.410   0.495  0.9985  0.7637 -1.4773
24996SOL    HW277306   7.594  10.306   0.448 -1.1183 -1.5076 -1.1104
24997SOL     OW77307   8.564   1.514   7.991  0.0565 -0.0139 -0.2554
24997SOL    HW177308   8.472   1.535   8.002  0.0419  0.3413 -0.9556
24997SOL    HW277309   8.597   1.582   7.931  1.0571  0.5689  0.9079
24998SOL     OW77310   8.428   0.927   9.386  0.4732 -0.5362  0.3562
24998SOL    HW177311   8.502   0.908   9.329  2.0099 -0.9266  2.3710
24998SOL    HW277312   8.408   0.843   9.429 -1.7549 -0.6640 -0.7563
24999SOL     OW77313   0.695   2.254   7.136  0.1689 -0.1018 -0.1841
24999SOL    HW177314   0.776   2.281   7.178  0.4059  0.8992 -1.2226
24999SOL    HW277315   0.660   2.186   7.192  2.8809 -2.2335 -0.8770
25000SOL     OW77316   2.188   1.729   7.870 -0.1349  0.2333 -0.5076
25000SOL    HW177317   2.114   1.690   7.915  0.9881 -0.4898  0.7602
25000SOL    HW277318   2.198   1.816   7.909 -0.7032  0.5921 -1.1414
25001SOL     OW77319   3.284   4.993   3.027  0.2304 -0.0825  0.5423
25001SOL    HW177320   3.196   5.023   3.051 -1.3000 -2.2977 -1.7624
25001SOL    HW277321   3.332   5.073   3.007 -2.9236  1.1755 -3.1951
25002SOL     OW77322   0.598  10.280   5.974  0.0806  0.3702 -0.4593
25002SOL    HW177323   0.557  10.315   5.895 -2.0936 -1.3784 -0.1966
25002SOL    HW277324   0.607  10.356   6.031  0.3560  1.4065 -1.8260
25003SOL     OW77325   2.070   0.311   7.140  1.1072  0.3240 -0.0830
25003SOL    HW177326   2.055   0.346   7.228 -0.2383  1.8254 -0.8460
25003SOL    HW277327   2.022   0.370   7.082 -0.4487 -2.2493 -1.6116
25004SOL     OW77328  10.199   2.936  10.347 -0.2135 -0.0617 -0.1045
25004SOL    HW177329  10.137   2.893  10.288 -0.0335 -0.8636  0.2774
25004SOL    HW277330  10.246   2.864  10.390  0.3329  0.5202  0.3017
25005SOL     OW77331   4.543   6.191   8.458  0.0376  0.4499  0.0145
25005SOL    HW177332   4.633   6.173   8.433 -0.4691 -1.3410 -0.6927
25005SOL    HW277333   4.538   6.165   8.550  0.8465  3.0770  0.8997
25006SOL     OW77334   0.072   3.752   3.346 -0.3444 -0.0102  0.3835
25006SOL    HW177335  -0.008   3.729   3.298  0.8511 -4.2519  0.0725
25006SOL    HW277336   0.140   3.757   3.279  0.5515 -1.7593  1.0949
25007SOL     OW77337   4.726   4.517   1.589 -0.2797 -0.3727  0.3418
25007SOL    HW177338   4.783   4.587   1.621 -0.3171 -0.6005  0.9166
25007SOL    HW277339   4.640   4.558   1.579 -0.5748 -0.6096  1.7911
25008SOL     OW77340   1.354   7.084  10.400  0.0404  0.4029 -0.3000
25008SOL    HW177341   1.404   7.143  10.343  0.2705  0.4858 -0.0122
25008SOL    HW277342   1.407   7.005  10.405  0.5532  0.7851  0.6591
25009SOL     OW77343   3.450   0.050   8.416  0.8576  0.0409 -0.1609
25009SOL    HW177344   3.381  -0.005   8.453  1.1331 -1.5355 -1.7994
25009SOL    HW277345   3.404   0.120   8.370  0.5126  1.6534  2.4757
25010SOL     OW77346   9.907   4.333   8.052  0.1764  0.1765 -0.1889
25010SOL    HW177347   9.871   4.260   8.002  0.1232  0.3532 -0.4095
25010SOL    HW277348  10.002   4.318   8.053  0.0107 -1.1326  1.7073
25011SOL     OW77349  10.026   8.007   1.633  0.5027  0.3236 -0.5372
25011SOL    HW177350  10.018   8.099   1.659  1.6451  0.5996 -1.1007
25011SOL    HW277351  10.020   7.959   1.716  0.1837  0.9184 -0.2037
25012SOL     OW77352   2.911   4.602   0.869  0.1732 -0.3458 -0.1816
25012SOL    HW177353   2.876   4.517   0.896 -0.0553 -0.0376  0.4981
25012SOL    HW277354   2.835   4.650   0.838  0.2304 -0.2181 -0.1233
25013SOL     OW77355   4.780   5.132  10.262  0.0531  0.4256 -0.0524
25013SOL    HW177356   4.871   5.150  10.288 -0.0137 -1.9336  2.1947
25013SOL    HW277357   4.785   5.116  10.168  1.9970  0.2291  0.0366
25014SOL     OW77358   0.161   5.877   0.404 -0.0341 -0.4653  0.5384
25014SOL    HW177359   0.158   5.952   0.463  1.3141 -0.0172  0.0614
25014SOL    HW277360   0.116   5.907   0.325 -0.3462 -0.4933  0.7043
25015SOL     OW77361   2.512   5.101   6.347 -0.4204  0.3701  0.1151
25015SOL    HW177362   2.569   5.177   6.351 -1.3552  1.1085 -0.4146
25015SOL    HW277363   2.552   5.044   6.281  1.7927 -0.9109  2.3755
25016SOL     OW77364   3.564   2.601  10.014 -0.0624  0.2368 -0.0853
25016SOL    HW177365   3.644   2.647   9.987 -1.1183  0.7231 -2.6603
25016SOL    HW277366   3.495   2.667  10.010 -1.1720 -0.9456 -1.2787
25017SOL     OW77367  10.150   5.982   4.468  0.0501 -0.2005  0.1753
25017SOL    HW177368  10.242   5.955   4.473  0.1018  0.0377  0.5616
25017SOL    HW277369  10.101   5.900   4.464  0.3222 -0.3258 -0.9047
25018SOL     OW77370   4.806   4.700   3.830  0.1762  0.9399 -0.4104
25018SOL    HW177371   4.887   4.728   3.787  0.6495  3.8934  2.0386
25018SOL    HW277372   4.750   4.777   3.827 -1.6028 -0.2703  0.1488
25019SOL     OW77373   1.173   3.288   6.566  0.0709 -0.0524 -0.0748
25019SOL    HW177374   1.206   3.369   6.527  0.3211  0.2344  0.7178
25019SOL    HW277375   1.186   3.299   6.660 -1.9694 -0.0704  0.2542
25020SOL     OW77376  10.552   4.007   7.967 -0.1226 -0.0725 -0.8361
25020SOL    HW177377  10.584   3.940   8.027 -0.3990  0.4652 -0.0816
25020SOL    HW277378  10.626   4.024   7.908  0.5204  0.1727  0.0285
25021SOL     OW77379   5.375   5.819   6.068 -0.8720 -0.9012 -0.0645
25021SOL    HW177380   5.301   5.761   6.088 -1.3742 -0.4287 -0.5177
25021SOL    HW277381   5.355   5.900   6.115 -0.2583 -1.0246  0.4256
25022SOL     OW77382   8.982   0.566   0.935 -0.8504 -0.1116  0.4985
25022SOL    HW177383   8.973   0.514   0.856  0.6429 -1.9099  1.4197
25022SOL    HW277384   9.059   0.621   0.919 -0.2844 -0.7900  0.8320
25023SOL     OW77385   0.685   9.846   9.533  0.3951 -0.4721  0.1186
25023SOL    HW177386   0.744   9.909   9.493  3.0833 -2.2195  1.0408
25023SOL    HW277387   0.688   9.866   9.626 -1.4266  0.0926  0.0948
25024SOL     OW77388  10.374   2.253   4.171  0.1032  0.2331 -0.3807
25024SOL    HW177389  10.329   2.247   4.256  0.8720  0.7167  0.0742
25024SOL    HW277390  10.434   2.327   4.182  1.7897 -1.0585 -0.6030
25025SOL     OW77391   7.370   7.429   7.066 -0.4163  0.3162  0.7665
25025SOL    HW177392   7.322   7.509   7.046  0.1724  0.7781  1.1473
25025SOL    HW277393   7.361   7.418   7.160 -0.8071 -0.2853  0.6688
25026SOL     OW77394  10.206   4.834   3.665  0.8071  0.2358 -0.2185
25026SOL    HW177395  10.188   4.828   3.572  1.3801 -1.2529 -0.2705
25026SOL    HW277396  10.296   4.866   3.671  1.2742 -1.0236 -0.2404
25027SOL     OW77397   9.343   6.832   5.145 -0.3214  0.4078  0.3728
25027SOL    HW177398   9.292   6.782   5.081  0.9624 -0.2547 -0.1635
25027SOL    HW277399   9.403   6.885   5.092  0.1943  0.4718  1.0030
25028SOL     OW77400   0.120   3.884   0.893  0.4385  0.6734 -0.1402
25028SOL    HW177401   0.185   3.890   0.823  0.7405  0.4598  0.1211
25028SOL    HW277402   0.107   3.975   0.921  0.3819  0.7497 -0.4123
25029SOL     OW77403   8.325   9.388  10.447 -0.2277 -0.1065 -0.0049
25029SOL    HW177404   8.348   9.297  10.464 -0.0083 -0.3891 -1.6742
25029SOL    HW277405   8.399   9.438  10.482  0.1627 -0.6455 -0.0472
25030SOL     OW77406   1.499   3.743   6.399  0.7972  0.2976 -0.1086
25030SOL    HW177407   1.468   3.802   6.468  1.1948  1.4732 -0.9094
25030SOL    HW277408   1.508   3.658   6.443  0.0461  0.7727  1.0275
25031SOL     OW77409   1.068   4.937   0.297 -0.0215  0.5695  0.4030
25031SOL    HW177410   1.121   4.860   0.317 -0.6343  0.0024 -0.1214
25031SOL    HW277411   0.982   4.902   0.274 -0.7950  1.4939  1.7386
25032SOL     OW77412   3.498   3.873   0.033  0.9806  0.4883  0.5236
25032SOL    HW177413   3.410   3.841   0.012  1.4722 -0.7139  0.2630
25032SOL    HW277414   3.503   3.958  -0.012 -0.1612  0.7501  0.8353
25033SOL     OW77415   9.837   2.380   2.639  0.1019  0.1396  0.2418
25033SOL    HW177416   9.890   2.334   2.574 -1.3326  1.6514 -2.1592
25033SOL    HW277417   9.755   2.330   2.643 -0.2589  0.6914 -0.0344
25034SOL     OW77418   3.478   3.490   2.577 -0.5172  0.8663 -0.0191
25034SOL    HW177419   3.458   3.397   2.592 -0.0850  0.3711 -2.1529
25034SOL    HW277420   3.501   3.524   2.663  1.1337 -1.4838  0.5776
25035SOL     OW77421   3.747   9.200   1.388 -0.3489 -0.1653  0.0670
25035SOL    HW177422   3.745   9.122   1.443 -2.5292  0.2214  0.6321
25035SOL    HW277423   3.680   9.185   1.322  0.1325  0.6780 -0.6400
25036SOL     OW77424   5.034   2.301  10.052  0.0940 -0.1727  0.8006
25036SOL    HW177425   4.994   2.287   9.966 -0.5692 -0.3521  1.1339
25036SOL    HW277426   5.112   2.245  10.053 -0.3464 -0.7862  0.6267
25037SOL     OW77427   5.381   2.701   9.111 -0.1017 -0.0836  0.2073
25037SOL    HW177428   5.333   2.766   9.061  1.2339 -1.0501 -2.5767
25037SOL    HW277429   5.450   2.750   9.155  0.7923  0.4791 -1.7262
25038SOL     OW77430   8.013   3.410   0.391  0.0525 -0.1387  0.4309
25038SOL    HW177431   8.003   3.363   0.309  0.2817 -0.8619  0.8098
25038SOL    HW277432   8.068   3.354   0.445  0.8425  0.8389  0.6880
25039SOL     OW77433   2.375   1.956   4.883  0.2488 -0.2751 -0.3160
25039SOL    HW177434   2.385   1.878   4.828  0.8091 -0.3787 -0.0714
25039SOL    HW277435   2.352   1.921   4.969 -1.2717 -0.0871 -0.6180
25040SOL     OW77436   9.359   4.142   0.926  0.3340 -0.0857 -0.1769
25040SOL    HW177437   9.310   4.096   0.995 -0.9513 -0.4648 -1.3128
25040SOL    HW277438   9.446   4.102   0.928 -0.5643 -2.1760 -0.7037
25041SOL     OW77439   0.986   7.590   1.619  0.2820 -0.4851 -0.0439
25041SOL    HW177440   0.985   7.500   1.652 -0.2214 -0.0283  1.2451
25041SOL    HW277441   1.074   7.622   1.636  1.1540 -1.4022 -2.4853
25042SOL     OW77442  10.595   1.155   3.845  0.5440  0.4400  0.1287
25042SOL    HW177443  10.568   1.207   3.769 -0.2014  0.6258  0.5159
25042SOL    HW277444  10.560   1.068   3.827  1.3320  0.1954 -0.2654
25043SOL     OW77445   4.554  10.162   1.351 -0.3437  0.1135  0.2005
25043SOL    HW177446   4.546  10.077   1.393 -0.2513 -0.3754 -0.7393
25043SOL    HW277447   4.629  10.153   1.292  1.5151  1.7363  2.1290
25044SOL     OW77448   0.557   5.985   5.197  0.3707  0.6140 -0.1100
25044SOL    HW177449   0.610   5.998   5.118  0.2235  0.4875 -0.2290
25044SOL    HW277450   0.582   5.898   5.228 -0.4634  0.1456 -0.7036
25045SOL     OW77451   3.960   3.484   3.019  0.2408  0.3491  0.5054
25045SOL    HW177452   4.012   3.501   2.940 -1.7240 -1.3923 -1.2736
25045SOL    HW277453   3.904   3.561   3.028  2.0893  1.6454  1.6881
25046SOL     OW77454   1.034   0.033   8.861  0.3067  0.1964  0.4097
25046SOL    HW177455   0.980   0.047   8.939 -0.1659  1.2569 -0.0960
25046SOL    HW277456   0.977   0.056   8.787  0.2606 -2.1088 -0.3739
25047SOL     OW77457   2.019   0.994   1.021 -0.2616 -0.5914  0.2638
25047SOL    HW177458   2.000   0.925   0.958 -0.7577  0.5821 -0.8995
25047SOL    HW277459   1.938   1.004   1.072 -0.6023 -0.0711 -0.3624
25048SOL     OW77460   2.601   0.961   0.170 -0.2565  0.0489  0.1542
25048SOL    HW177461   2.506   0.961   0.160 -0.5670 -2.9570  2.0371
25048SOL    HW277462   2.635   0.930   0.086 -0.9671  0.2958 -0.2267
25049SOL     OW77463   1.272   1.473   0.399  0.2855 -0.6166 -0.4588
25049SOL    HW177464   1.243   1.411   0.466  1.7130  0.9984  1.8031
25049SOL    HW277465   1.361   1.444   0.377  0.6592  0.1284  0.0273
25050SOL     OW77466   0.829  10.052   3.953 -0.3321 -0.0159  0.3245
25050SOL    HW177467   0.868   9.988   3.894  0.3121 -0.7400  1.4991
25050SOL    HW277468   0.810  10.128   3.898 -0.2818 -0.8800 -0.9120
25051SOL     OW77469   0.702   1.379   5.817  0.2518  0.1974 -0.0247
25051SOL    HW177470   0.691   1.473   5.805 -2.8156 -0.2457 -1.8050
25051SOL    HW277471   0.773   1.371   5.881  0.1572  3.7007  0.7235
25052SOL     OW77472   7.185   5.248   3.467  0.2880  0.4686 -0.3384
25052SOL    HW177473   7.116   5.314   3.467  1.6705  1.9897  0.8936
25052SOL    HW277474   7.206   5.234   3.375 -0.2826  1.4672 -0.6273
25053SOL     OW77475   6.545   2.416   7.190  0.1385 -0.9262 -0.0218
25053SOL    HW177476   6.466   2.415   7.135  0.6025 -1.6276 -0.6862
25053SOL    HW277477   6.540   2.500   7.237  0.2542  0.1667 -1.8763
25054SOL     OW77478   8.231   7.393  10.593  0.2761 -0.5619  0.2580
25054SOL    HW177479   8.292   7.417  10.523 -1.6127  1.9924 -0.6593
25054SOL    HW277480   8.288   7.360  10.663  2.9074  2.5150 -0.1459
25055SOL     OW77481   5.751   5.287   6.015 -0.0304 -0.8357 -0.4133
25055SOL    HW177482   5.712   5.325   6.093 -0.3550  0.0455 -0.9888
25055SOL    HW277483   5.726   5.195   6.018  1.1444 -1.1409  1.2379
25056SOL     OW77484   9.446   3.994   5.481 -0.3424  0.4318  0.1862
25056SOL    HW177485   9.467   4.081   5.515 -1.4855  1.1606 -0.9007
25056SOL    HW277486   9.418   4.009   5.391  1.2536 -1.2900 -0.6663
25057SOL     OW77487   0.772   7.623   9.752 -0.4249 -0.0644  0.8817
25057SOL    HW177488   0.714   7.690   9.788  0.8376  2.3616 -1.2590
25057SOL    HW277489   0.857   7.641   9.793 -0.0936 -0.4462  0.3714
25058SOL     OW77490   0.687   4.299   8.917  0.1524  0.4220 -0.0828
25058SOL    HW177491   0.637   4.287   8.835  1.3413 -1.1005 -0.6270
25058SOL    HW277492   0.633   4.360   8.968 -1.4721  0.0981 -1.2937
25059SOL     OW77493   7.996   5.186   6.394  0.2002 -0.2949 -0.2074
25059SOL    HW177494   7.944   5.123   6.444  0.0369 -2.2518 -2.6167
25059SOL    HW277495   8.047   5.131   6.334 -0.1564  1.8821 -2.6530
25060SOL     OW77496   0.523   4.675   0.814 -0.5592  0.4823  1.0876
25060SOL    HW177497   0.601   4.670   0.758  0.4028  0.0104  2.4148
25060SOL    HW277498   0.457   4.716   0.759  0.8138  1.4857  0.1102
25061SOL     OW77499   2.713   2.704   1.441  0.5080  0.3740  0.0703
25061SOL    HW177500   2.731   2.613   1.418 -1.0166  0.3312 -1.1094
25061SOL    HW277501   2.631   2.725   1.395  0.0160  1.8751  1.5410
25062SOL     OW77502   1.745   7.650   1.157  0.1357 -0.1454 -0.8209
25062SOL    HW177503   1.711   7.680   1.241  0.4138  1.0762 -1.1212
25062SOL    HW277504   1.840   7.655   1.166  0.1929 -1.1159 -0.8282
25063SOL     OW77505   3.358   6.185   6.270 -0.0397  0.2671 -0.8287
25063SOL    HW177506   3.405   6.186   6.187 -0.8576 -1.4869 -1.3691
25063SOL    HW277507   3.372   6.096   6.304  1.1368  1.2369  1.4580
25064SOL     OW77508   4.005   5.444   3.252  0.3152  0.1528  0.7193
25064SOL    HW177509   4.036   5.523   3.208  1.7742 -1.5853 -1.6125
25064SOL    HW277510   4.029   5.373   3.192 -2.6654 -1.9126  1.7813
25065SOL     OW77511   0.573   8.142  10.034  0.4448  0.1898 -0.2406
25065SOL    HW177512   0.521   8.136   9.954  2.8173 -1.6694 -1.7966
25065SOL    HW277513   0.509   8.159  10.103 -2.4467 -2.9849 -1.8212
25066SOL     OW77514   6.937   8.209   6.543  0.2649  0.0935  0.2028
25066SOL    HW177515   7.015   8.257   6.569  0.9593 -0.3890 -0.9123
25066SOL    HW277516   6.970   8.133   6.495 -0.8304 -1.0257  1.1099
25067SOL     OW77517   0.078   6.442   0.769 -0.0874 -0.9323 -0.4399
25067SOL    HW177518   0.019   6.452   0.844 -0.6015 -0.7932 -0.8625
25067SOL    HW277519   0.132   6.366   0.791  0.1641 -0.5445  0.3350
25068SOL     OW77520   7.400   3.357  10.449 -0.4130 -0.3047 -0.2320
25068SOL    HW177521   7.405   3.263  10.436 -0.5976 -0.5880  1.4911
25068SOL    HW277522   7.333   3.387  10.388 -0.9766 -1.4145 -0.1761
25069SOL     OW77523   4.981  10.325   4.420 -0.3815 -0.2779  0.3501
25069SOL    HW177524   4.973  10.269   4.343 -1.5715  0.7557 -0.3250
25069SOL    HW277525   5.072  10.355   4.419 -0.1790 -0.8865 -0.2205
25070SOL     OW77526   8.637   2.615   3.132 -0.3974 -0.2257  0.3889
25070SOL    HW177527   8.632   2.522   3.152 -0.6473  0.2892  3.0692
25070SOL    HW277528   8.689   2.653   3.204 -0.2910  1.7042 -0.6322
25071SOL     OW77529   2.939   0.099   8.711 -0.3119 -0.8258  0.3824
25071SOL    HW177530   2.985   0.179   8.737  2.1330 -1.6491 -1.0346
25071SOL    HW277531   2.998   0.028   8.737 -1.4251 -2.0251 -0.2842
25072SOL     OW77532   6.173   4.298   2.969 -0.4013 -0.3733  0.2306
25072SOL    HW177533   6.086   4.260   2.960  0.6200 -2.4323 -1.5921
25072SOL    HW277534   6.203   4.312   2.880  1.2084  0.1470  0.8181
25073SOL     OW77535  10.414   1.402  10.314  0.2744 -0.4120  0.0626
25073SOL    HW177536  10.474   1.386  10.387 -0.5527 -0.3192  0.7905
25073SOL    HW277537  10.470   1.412  10.238  1.1072 -1.7389  0.4667
25074SOL     OW77538   5.634   9.869   5.669  0.5084 -0.6674 -0.4396
25074SOL    HW177539   5.595   9.950   5.702 -0.5058 -1.4744  0.4044
25074SOL    HW277540   5.579   9.799   5.705  0.0857 -1.6678 -2.8364
25075SOL     OW77541   5.196   9.439   5.740  0.3007 -0.0935 -0.0101
25075SOL    HW177542   5.211   9.459   5.832 -0.1165 -0.8039  0.2270
25075SOL    HW277543   5.138   9.508   5.709  1.3174  0.7601 -0.0373
25076SOL     OW77544   7.482   0.747   0.557 -0.2309 -0.3326  0.0177
25076SOL    HW177545   7.457   0.736   0.649  0.0152 -1.7086 -0.0616
25076SOL    HW277546   7.560   0.693   0.547 -0.6484 -0.7448 -1.1678
25077SOL     OW77547   0.229   6.406   6.898  0.3727  0.0778 -0.1003
25077SOL    HW177548   0.177   6.325   6.895 -0.2427  0.4497  0.3393
25077SOL    HW277549   0.319   6.376   6.911  0.2263 -0.5615 -0.5117
25078SOL     OW77550   5.618   3.006   1.496 -0.4357  0.4981 -0.0897
25078SOL    HW177551   5.630   3.096   1.468 -1.6303  0.3295 -1.2558
25078SOL    HW277552   5.637   3.008   1.590 -2.4902  2.4461  0.3901
25079SOL     OW77553   1.087   3.618   2.202  0.0575 -0.5619 -0.4973
25079SOL    HW177554   1.058   3.590   2.115  0.5257 -0.3840 -0.7145
25079SOL    HW277555   1.182   3.613   2.198  0.2165  1.6910 -0.7596
25080SOL     OW77556   1.486   8.741   4.637  0.0826 -0.1083 -0.0724
25080SOL    HW177557   1.447   8.791   4.708  0.3007 -1.6376  1.1788
25080SOL    HW277558   1.558   8.796   4.606 -0.6950  1.0581  0.1423
25081SOL     OW77559   7.845   7.810   3.313  0.3057 -0.5444  0.2090
25081SOL    HW177560   7.814   7.757   3.240  0.7259 -1.4108  0.6469
25081SOL    HW277561   7.840   7.751   3.389 -1.0186  0.6058  1.0751
25082SOL     OW77562   9.431   2.046   8.440 -0.1294  0.3255  0.1611
25082SOL    HW177563   9.515   2.065   8.482  0.0218 -0.5517  0.2765
25082SOL    HW277564   9.386   2.130   8.437  0.4068  0.6469  0.8698
25083SOL     OW77565   8.044   4.326   2.347  0.3974  0.0470  0.4422
25083SOL    HW177566   8.008   4.386   2.283  1.0842 -0.2447 -0.2362
25083SOL    HW277567   8.101   4.268   2.296 -0.0225 -0.9864  1.1224
25084SOL     OW77568   0.979   0.905   4.449  0.0427  0.0972 -0.0860
25084SOL    HW177569   0.984   0.974   4.383 -1.0837  0.9354  0.6792
25084SOL    HW277570   1.063   0.909   4.494  0.8348 -0.4893 -1.4269
25085SOL     OW77571   8.817   0.711  10.461  0.2034 -0.1381  0.5908
25085SOL    HW177572   8.882   0.661  10.412  0.6136  0.0901  0.8886
25085SOL    HW277573   8.733   0.672  10.437  0.2403  0.8856 -1.3949
25086SOL     OW77574   6.050   3.520   9.310 -0.1174 -0.1315  0.0668
25086SOL    HW177575   6.096   3.581   9.252  0.1870  0.3560  0.8084
25086SOL    HW277576   5.997   3.466   9.251 -0.7839  1.1672 -0.5683
25087SOL     OW77577   5.113   4.594   3.067 -0.2462 -0.6914 -0.1861
25087SOL    HW177578   5.059   4.668   3.095 -0.8210 -1.7112  1.6220
25087SOL    HW277579   5.202   4.629   3.061 -0.4172  0.0415  1.1884
25088SOL     OW77580   7.392   1.225   4.588 -0.4597 -0.2943 -0.5311
25088SOL    HW177581   7.367   1.188   4.504  1.2688 -2.0839 -0.3446
25088SOL    HW277582   7.309   1.243   4.633 -1.3827 -0.3434 -2.1656
25089SOL     OW77583   9.284  10.588   2.859  0.1259 -0.2068 -0.0159
25089SOL    HW177584   9.257  10.675   2.828  0.6580  0.0485  0.2221
25089SOL    HW277585   9.226  10.527   2.812  1.6201  0.0857 -2.3890
25090SOL     OW77586  10.278   4.879   9.983  0.3755  0.0527  1.0500
25090SOL    HW177587  10.344   4.939   9.947 -0.1624 -0.1823 -0.3689
25090SOL    HW277588  10.206   4.936  10.011  0.0735  0.1224  0.1547
25091SOL     OW77589   6.639   2.052   8.301  0.4910  0.5415  0.5133
25091SOL    HW177590   6.622   2.127   8.358  1.2086  0.5407  0.7447
25091SOL    HW277591   6.665   2.091   8.218 -0.8965  0.5433  0.0638
25092SOL     OW77592   4.699  10.312   2.685  0.4795 -0.7678 -0.3761
25092SOL    HW177593   4.667  10.271   2.765  0.9455  0.2199  0.3372
25092SOL    HW277594   4.667  10.256   2.614 -1.4814 -0.6774  0.3938
25093SOL     OW77595   4.799   9.207   6.957  0.5181  0.1716  0.3236
25093SOL    HW177596   4.875   9.200   7.015  0.3888  0.9027  0.5910
25093SOL    HW277597   4.836   9.231   6.872  0.5875  0.5659  0.4630
25094SOL     OW77598   2.250   2.778   0.562 -0.2493 -0.1691  0.2439
25094SOL    HW177599   2.276   2.714   0.628  0.7211  1.2198  1.2634
25094SOL    HW277600   2.311   2.763   0.489  0.6837  0.2582  0.9087
25095SOL     OW77601  10.321   7.564   6.624 -0.1684  0.4554 -0.3021
25095SOL    HW177602  10.296   7.637   6.680  0.9800  1.3269 -0.8715
25095SOL    HW277603  10.403   7.592   6.583 -0.2604 -0.7158 -1.3682
25096SOL     OW77604   7.399   6.993   5.701  0.0095 -0.1130  0.6938
25096SOL    HW177605   7.353   6.910   5.689  0.5639 -0.6033  1.7651
25096SOL    HW277606   7.331   7.056   5.724 -0.5425 -0.0257 -1.0070
25097SOL     OW77607   3.163   4.123   3.550 -0.5470  0.0828  0.1147
25097SOL    HW177608   3.215   4.172   3.613  1.1493  0.0926 -1.2432
25097SOL    HW277609   3.139   4.187   3.483  1.9407 -0.8740 -1.8336
25098SOL     OW77610   2.276   1.379   2.708  0.4735  0.4480 -0.2988
25098SOL    HW177611   2.238   1.414   2.788  0.6050  1.9350 -0.8665
25098SOL    HW277612   2.345   1.320   2.738 -0.5114 -0.2468  0.6923
25099SOL     OW77613   9.902  10.359   9.128 -0.4559  0.3447  0.0776
25099SOL    HW177614   9.933  10.279   9.170 -0.2945  0.3817  0.0321
25099SOL    HW277615   9.982  10.400   9.093 -0.5089  0.6411  0.3009
25100SOL     OW77616   9.226   0.629   5.068 -0.3511  0.2479  0.1073
25100SOL    HW177617   9.258   0.546   5.032 -0.4766  0.4898 -0.5774
25100SOL    HW277618   9.213   0.612   5.161 -0.5489 -0.5495 -0.0641
25101SOL     OW77619   2.753   5.676   6.208 -0.3477 -0.5608 -0.2710
25101SOL    HW177620   2.825   5.664   6.146  0.2964  0.5637  0.2138
25101SOL    HW277621   2.792   5.661   6.294 -0.8657 -0.6322 -0.0440
25102SOL     OW77622   5.974   6.579   5.163 -0.8258  0.1861 -0.7105
25102SOL    HW177623   5.993   6.665   5.200  0.4883  0.1462 -1.2589
25102SOL    HW277624   6.035   6.520   5.207 -0.5012 -0.1616 -1.6163
25103SOL     OW77625   8.382   5.256   0.866 -0.4157  0.0678  0.6754
25103SOL    HW177626   8.378   5.342   0.908  0.9340  0.8755 -0.7482
25103SOL    HW277627   8.475   5.233   0.866 -0.6318 -0.8623  0.0059
25104SOL     OW77628   3.224   7.215   0.342 -0.1810  0.3684  0.0471
25104SOL    HW177629   3.145   7.266   0.357  0.3573  0.5605  2.5456
25104SOL    HW277630   3.288   7.251   0.403  1.3525 -0.8607 -0.7600
25105SOL     OW77631   9.564   0.486   0.828 -0.3976  0.5881  0.0353
25105SOL    HW177632   9.520   0.485   0.913 -0.6809 -2.7674 -0.0152
25105SOL    HW277633   9.500   0.452   0.767  0.9298 -0.5499 -0.7934
25106SOL     OW77634  10.332   6.523   7.193 -0.1806 -0.0668  0.1587
25106SOL    HW177635  10.299   6.553   7.278  0.5129 -0.9389  0.7541
25106SOL    HW277636  10.423   6.498   7.211 -0.4579 -1.6369 -0.5125
25107SOL     OW77637   2.040   1.594   9.328  0.1483 -0.4183 -0.7633
25107SOL    HW177638   2.111   1.557   9.275  1.1317 -0.2711  0.4101
25107SOL    HW277639   2.046   1.547   9.412  0.8874  1.7577  0.4791
25108SOL     OW77640   0.427   5.534   2.240 -0.9621  0.1913  0.0408
25108SOL    HW177641   0.482   5.456   2.246 -2.6895 -1.2015 -1.0400
25108SOL    HW277642   0.418   5.564   2.331 -0.2670 -0.8560  0.4771
25109SOL     OW77643   2.031   9.601   3.656  0.1617  0.0351 -0.4700
25109SOL    HW177644   1.992   9.683   3.628  2.7858  0.7178 -2.4673
25109SOL    HW277645   2.012   9.539   3.586  0.2883 -0.4034 -0.1293
25110SOL     OW77646   4.528   3.096   4.098  0.0642  0.1349 -0.5256
25110SOL    HW177647   4.460   3.104   4.164  1.4182 -0.9678  1.1094
25110SOL    HW277648   4.481   3.090   4.015 -1.8098 -0.4711  0.5182
25111SOL     OW77649  10.101   0.282   3.501 -0.4624 -0.0980  0.0584
25111SOL    HW177650  10.068   0.245   3.419  0.3381 -2.2057  0.6193
25111SOL    HW277651  10.034   0.259   3.566 -1.1709  1.6987  0.0275
25112SOL     OW77652   9.295   9.775   1.198  0.3472 -0.0342 -0.3368
25112SOL    HW177653   9.296   9.680   1.212 -1.1531 -0.2540 -1.4994
25112SOL    HW277654   9.238   9.809   1.267  2.0796  0.2466  1.0287
25113SOL     OW77655   2.331   2.573   2.878 -0.1564 -0.4805  0.4187
25113SOL    HW177656   2.396   2.611   2.936  0.4059 -0.7767 -0.0116
25113SOL    HW277657   2.278   2.647   2.849 -2.1374 -0.5807  3.3174
25114SOL     OW77658   1.998   3.841   9.220 -0.0650  0.1554  0.2181
25114SOL    HW177659   2.013   3.912   9.157 -0.0517  0.2000  0.2710
25114SOL    HW277660   2.013   3.882   9.305  0.1842  0.0220  0.2359
25115SOL     OW77661   1.845   2.307   4.319 -0.3041  0.4069 -0.1384
25115SOL    HW177662   1.897   2.229   4.333 -1.0363 -0.5735 -2.3779
25115SOL    HW277663   1.906   2.371   4.283 -0.1193  0.1079 -0.3630
25116SOL     OW77664   2.571   3.857   5.890  0.1956  0.1549  0.1090
25116SOL    HW177665   2.591   3.809   5.809  0.2317  1.5283 -0.7286
25116SOL    HW277666   2.642   3.920   5.898 -1.3394  2.0235 -0.4026
25117SOL     OW77667   4.664   1.706   1.050 -0.2814 -0.1379  0.6343
25117SOL    HW177668   4.575   1.703   1.016 -0.3944  0.4574  0.8754
25117SOL    HW277669   4.698   1.791   1.024 -0.6679  0.7215  2.7046
25118SOL     OW77670   4.739   5.435   8.364 -0.0092  0.2656  0.3748
25118SOL    HW177671   4.662   5.385   8.335 -1.0806  0.8268  2.1210
25118SOL    HW277672   4.706   5.524   8.378  1.3423  0.9124 -0.3764
25119SOL     OW77673   4.356   6.040   4.915 -0.2003  0.6992 -0.2906
25119SOL    HW177674   4.429   6.084   4.872 -0.1129 -0.8321 -1.7858
25119SOL    HW277675   4.332   5.968   4.857 -1.4278 -0.2367  1.2620
25120SOL     OW77676   9.501  10.110   4.747  0.2047  0.2272 -0.2266
25120SOL    HW177677   9.577  10.089   4.693 -0.7253 -0.3237 -1.3887
25120SOL    HW277678   9.480  10.201   4.723  0.4968  0.3820  0.1007
25121SOL     OW77679   5.722   3.246   1.386  0.4638 -0.4681  0.1578
25121SOL    HW177680   5.732   3.340   1.403 -0.5755 -0.5161  1.2199
25121SOL    HW277681   5.670   3.242   1.306  1.0938 -0.1479 -0.2727
25122SOL     OW77682   1.037   4.157   4.688  0.0894  0.1870  0.2765
25122SOL    HW177683   1.093   4.127   4.759  0.7961 -2.0568 -1.1277
25122SOL    HW277684   0.958   4.103   4.695  1.3868 -2.2899 -2.3059
25123SOL     OW77685   4.896   6.607   2.874 -0.2743 -0.8333 -0.4731
25123SOL    HW177686   4.818   6.658   2.851 -0.6225  0.2892  2.6548
25123SOL    HW277687   4.864   6.517   2.881 -1.4670 -0.3323  1.1662
25124SOL     OW77688   3.178   3.606   7.733  0.1258 -0.6692  0.3187
25124SOL    HW177689   3.083   3.599   7.721  0.0877 -0.0524  0.2031
25124SOL    HW277690   3.206   3.518   7.756 -0.4325 -0.9258  0.0443
25125SOL     OW77691   0.519   5.815   3.427 -0.2400 -0.3629 -0.2461
25125SOL    HW177692   0.597   5.854   3.467 -1.2726  1.6207 -0.0190
25125SOL    HW277693   0.553   5.756   3.360  1.5261  2.5804 -2.1640
25126SOL     OW77694  10.177   2.658  10.075  0.0812 -0.4102  0.2460
25126SOL    HW177695  10.254   2.694  10.030 -0.3888  0.5403  0.1852
25126SOL    HW277696  10.136   2.733  10.117 -1.6581 -0.6240 -0.9510
25127SOL     OW77697   0.847   4.639   8.522  0.0563  0.0597 -0.0071
25127SOL    HW177698   0.869   4.646   8.429 -0.4054  2.7525  0.0056
25127SOL    HW277699   0.759   4.677   8.529  1.1136  2.4586  1.8252
25128SOL     OW77700   5.550   8.907   7.318  0.1286 -0.0215 -0.5288
25128SOL    HW177701   5.617   8.895   7.385 -0.5321 -1.0014 -0.0185
25128SOL    HW277702   5.538   8.820   7.280 -2.3203 -0.3692  0.8527
25129SOL     OW77703   4.873   6.314   2.509  0.1455 -0.7809 -0.3967
25129SOL    HW177704   4.919   6.398   2.507 -1.3066  0.1052  1.2031
25129SOL    HW277705   4.786   6.334   2.473  0.1176 -1.8498 -0.9524
25130SOL     OW77706   8.268   2.789   3.037 -0.3529  0.0945  0.5605
25130SOL    HW177707   8.240   2.818   2.950  0.1634  1.4553  0.8089
25130SOL    HW277708   8.363   2.799   3.036 -0.4590  1.6328  1.7548
25131SOL     OW77709   9.450   1.281   7.565 -0.2839 -0.1265  0.2592
25131SOL    HW177710   9.413   1.348   7.508 -3.2333 -1.0820  0.8838
25131SOL    HW277711   9.427   1.309   7.654  0.6610 -0.7265  0.7174
25132SOL     OW77712   4.521   0.511   0.541  0.2461 -0.1925 -0.3047
25132SOL    HW177713   4.472   0.437   0.576  0.7461 -0.2474  0.2951
25132SOL    HW277714   4.578   0.473   0.474  1.8656 -0.6912  1.2774
25133SOL     OW77715   5.865   9.139   0.668 -0.3668 -0.0770 -0.6069
25133SOL    HW177716   5.880   9.094   0.751  1.5283  0.8590 -0.3973
25133SOL    HW277717   5.787   9.192   0.684 -1.8704 -2.2008 -0.4557
25134SOL     OW77718   9.504   4.233   1.925  0.0110  0.3401 -0.0504
25134SOL    HW177719   9.491   4.252   1.832 -0.8849 -2.0771 -0.5032
25134SOL    HW277720   9.455   4.301   1.971  0.5095  1.6092 -1.3120
25135SOL     OW77721   3.666   9.412  10.094  0.4780  0.2483  0.7047
25135SOL    HW177722   3.662   9.392  10.001 -2.8386 -0.6695  0.9188
25135SOL    HW277723   3.659   9.507  10.099  0.7669  0.3063  0.0384
25136SOL     OW77724   6.416   0.711   4.048  0.3579  0.2225  0.1997
25136SOL    HW177725   6.362   0.634   4.065  2.2148 -1.7890 -2.2815
25136SOL    HW277726   6.503   0.688   4.081  0.5470  2.0393  1.0801
25137SOL     OW77727   2.357   4.276   6.930  0.2655 -0.3394  0.5597
25137SOL    HW177728   2.273   4.283   6.975  0.2677 -1.7958  0.8510
25137SOL    HW277729   2.394   4.364   6.933 -1.2148  0.3070  0.4714
25138SOL     OW77730   9.855   4.715   7.122 -0.1143 -0.0260 -0.7214
25138SOL    HW177731   9.784   4.724   7.185 -0.0510  0.8280 -0.7668
25138SOL    HW277732   9.819   4.658   7.054 -0.7177  0.3120 -0.6905
25139SOL     OW77733   6.796   8.645   6.444 -0.4161  0.2536 -0.2887
25139SOL    HW177734   6.819   8.707   6.374  0.5191  0.4209  0.1588
25139SOL    HW277735   6.855   8.667   6.516  0.5683 -1.7193 -0.4227
25140SOL     OW77736   2.056   4.192   3.505  0.4709 -0.2511  0.5405
25140SOL    HW177737   2.077   4.159   3.592  1.8006  1.6201  0.9805
25140SOL    HW277738   1.998   4.266   3.519  1.3998  0.6277 -0.0689
25141SOL     OW77739   0.965   9.020   2.504 -0.0382  0.4368  0.3341
25141SOL    HW177740   0.876   9.047   2.484  0.3603  2.1196  0.6827
25141SOL    HW277741   0.956   8.966   2.583 -0.6950  1.0737  0.7047
25142SOL     OW77742   2.421   7.506  10.068  0.0492 -0.0728 -0.1411
25142SOL    HW177743   2.343   7.475  10.023  0.3437 -0.9291 -0.0662
25142SOL    HW277744   2.389   7.575  10.127 -0.1609  2.2834 -2.7623
25143SOL     OW77745   7.030   2.982   3.354 -0.2166  0.1111 -0.1995
25143SOL    HW177746   6.988   3.006   3.271 -0.0417  1.4312  0.0772
25143SOL    HW277747   6.998   2.893   3.372 -1.7065  0.5028 -0.7531
25144SOL     OW77748   9.161   7.111   3.328 -0.2559  0.4479  0.2167
25144SOL    HW177749   9.192   7.101   3.238 -0.0661  2.2698  0.0423
25144SOL    HW277750   9.238   7.094   3.382  0.7719  3.3939 -0.1596
25145SOL     OW77751   6.436   0.339   0.594  0.7891  0.2857 -0.2262
25145SOL    HW177752   6.352   0.371   0.625  0.5322  0.1914 -0.8004
25145SOL    HW277753   6.500   0.404   0.623  0.2889  1.3099 -1.3286
25146SOL     OW77754   7.337   8.230   1.047 -0.4339  0.0037 -0.2199
25146SOL    HW177755   7.394   8.299   1.014  0.1395  0.4502  1.6319
25146SOL    HW277756   7.298   8.266   1.127 -3.8280 -0.0456 -1.6803
25147SOL     OW77757   1.274   9.304   6.964 -0.0536  1.1272 -0.0726
25147SOL    HW177758   1.292   9.357   7.042  0.3580  0.1192  0.5385
25147SOL    HW277759   1.312   9.218   6.984 -0.2356  0.7516 -1.2532
25148SOL     OW77760   4.851   9.002   6.280 -0.5271 -0.6591 -0.5990
25148SOL    HW177761   4.835   9.096   6.278  1.3096 -0.2639  0.8961
25148SOL    HW277762   4.797   8.968   6.209  1.2873  1.9195 -3.4714
25149SOL     OW77763   1.808   2.410   0.927  0.4064  0.3124 -0.1165
25149SOL    HW177764   1.752   2.451   0.993  0.4790  0.1308  0.0587
25149SOL    HW277765   1.854   2.483   0.885 -0.2557  0.4972 -0.5363
25150SOL     OW77766   4.178   4.129   7.626 -0.3749 -0.2321 -0.0447
25150SOL    HW177767   4.194   4.141   7.720  1.5536  0.0444 -0.3854
25150SOL    HW277768   4.154   4.216   7.594  1.3501  0.2159 -0.2182
25151SOL     OW77769   9.758   3.001   3.538  0.0749 -0.8122  0.2177
25151SOL    HW177770   9.695   2.990   3.609  1.6269 -0.3229  1.7431
25151SOL    HW277771   9.726   2.943   3.469 -0.9177 -2.1482  1.7160
25152SOL     OW77772   2.116   2.965   3.977 -0.1704 -0.2230 -0.3915
25152SOL    HW177773   2.059   3.042   3.976 -1.4046 -0.9507  2.4049
25152SOL    HW277774   2.067   2.899   3.928 -0.7733 -0.1966  0.1485
25153SOL     OW77775   5.903   6.946   8.598  0.5708  0.0620 -0.4076
25153SOL    HW177776   5.840   6.927   8.529  1.3827  0.0210 -1.1433
25153SOL    HW277777   5.972   6.995   8.555  1.9752 -1.4995 -0.0134
25154SOL     OW77778  10.033   5.908  10.537 -0.1650 -0.0443  0.2878
25154SOL    HW177779  10.089   5.830  10.534 -0.2680 -0.1399  0.8616
25154SOL    HW277780   9.991   5.904  10.622 -0.7308  0.2525  0.0268
25155SOL     OW77781   3.867   9.664   6.478  0.1773 -0.6692  0.0359
25155SOL    HW177782   3.826   9.584   6.444 -0.7324 -0.5951  0.9151
25155SOL    HW277783   3.864   9.653   6.573  1.7385 -0.4083  0.1378
25156SOL     OW77784   7.592   4.517   5.529 -0.1003 -0.1295  0.6478
25156SOL    HW177785   7.545   4.459   5.469  0.8804 -2.1680  1.7445
25156SOL    HW277786   7.602   4.466   5.609  4.2970 -0.0703  0.3909
25157SOL     OW77787   1.550   5.036   1.485  0.2727 -0.0174  0.1324
25157SOL    HW177788   1.492   5.040   1.408  0.2059 -1.2766  0.0921
25157SOL    HW277789   1.530   5.115   1.534  0.2771  0.7968 -1.1195
25158SOL     OW77790   4.012   8.328   2.539 -0.2596 -0.2760  0.0100
25158SOL    HW177791   3.981   8.352   2.452 -1.6915  0.1893  0.6028
25158SOL    HW277792   4.028   8.411   2.583 -0.8608 -0.4633  0.6103
25159SOL     OW77793   7.684   6.888   0.557 -0.6687  0.5823 -0.6920
25159SOL    HW177794   7.666   6.910   0.466 -2.0161  0.3054 -0.5206
25159SOL    HW277795   7.634   6.951   0.608  0.1104  0.7662 -0.1322
25160SOL     OW77796   5.048   1.026   8.183  0.5886  0.4596 -0.2590
25160SOL    HW177797   4.992   1.094   8.145  0.8863  0.6328 -0.3936
25160SOL    HW277798   5.123   1.074   8.218 -0.6607  0.5745  2.4759
25161SOL     OW77799   3.934   0.857   5.857 -0.7982 -0.2723 -0.0052
25161SOL    HW177800   3.908   0.890   5.770  0.6126 -1.5402 -0.9693
25161SOL    HW277801   4.010   0.911   5.880 -0.2777 -0.8802 -0.2553
25162SOL     OW77802   9.229   1.531   3.081 -0.2955  0.0472  0.0311
25162SOL    HW177803   9.323   1.520   3.068 -0.0720  1.7000 -0.0588
25162SOL    HW277804   9.190   1.505   2.998  0.0060 -1.3180  0.3034
25163SOL     OW77805   7.520   5.346   4.597 -0.1020 -0.5839  0.6627
25163SOL    HW177806   7.603   5.394   4.602 -0.3319 -0.2667  1.4652
25163SOL    HW277807   7.546   5.257   4.575  0.3424 -0.1704 -0.6441
25164SOL     OW77808   7.443   5.979  10.410 -0.1322 -0.3695 -0.9518
25164SOL    HW177809   7.460   5.904  10.354  0.0041 -0.4978 -0.7373
25164SOL    HW277810   7.349   5.995  10.401 -0.0466 -0.1615 -1.5053
25165SOL     OW77811   3.638  10.209   4.483  0.4308  0.3595 -0.0008
25165SOL    HW177812   3.664  10.169   4.566  0.9448 -0.0225 -0.3391
25165SOL    HW277813   3.544  10.192   4.476  0.4484  0.1153  0.3504
25166SOL     OW77814   1.475   7.242   2.627  0.7279  0.1103  0.2076
25166SOL    HW177815   1.410   7.281   2.569  0.4003 -2.4582 -1.3468
25166SOL    HW277816   1.440   7.256   2.715 -0.5229  1.1724 -0.4171
25167SOL     OW77817   0.584   1.898   2.382  0.0771  0.4610  0.1766
25167SOL    HW177818   0.616   1.928   2.297 -0.1449 -1.1770 -0.5137
25167SOL    HW277819   0.513   1.959   2.403 -0.8089  0.0612 -1.4853
25168SOL     OW77820  10.518   9.757   0.857  0.3264 -0.8769  0.2745
25168SOL    HW177821  10.546   9.847   0.871  1.6584 -1.1530 -0.4245
25168SOL    HW277822  10.494   9.754   0.764 -0.9076 -0.9563  0.5794
25169SOL     OW77823   5.265   6.138   4.154  0.3241 -0.9682  0.0959
25169SOL    HW177824   5.257   6.118   4.248  1.3976 -0.3874  0.3238
25169SOL    HW277825   5.293   6.055   4.115  2.1947 -0.6474  0.6549
25170SOL     OW77826   1.438   4.534  10.505  0.2986  0.1907  0.1869
25170SOL    HW177827   1.503   4.600  10.531  0.2636  0.6232 -0.7796
25170SOL    HW277828   1.487   4.474  10.448  0.2217 -0.3773  0.7127
25171SOL     OW77829   8.931   1.738   8.272 -0.3716 -0.4314 -0.1306
25171SOL    HW177830   8.986   1.734   8.351  3.9009  0.0211 -2.7990
25171SOL    HW277831   8.884   1.821   8.279  0.1437 -0.2567  1.7342
25172SOL     OW77832   6.140   4.610   9.189 -0.1752  0.2466  0.2179
25172SOL    HW177833   6.111   4.611   9.098 -1.2639 -1.0312  0.5308
25172SOL    HW277834   6.063   4.636   9.240  0.1946  0.1829  0.8268
25173SOL     OW77835   0.249   0.605   0.098 -0.0594  0.3749 -0.1442
25173SOL    HW177836   0.302   0.547   0.153 -0.9307 -0.8185 -0.5229
25173SOL    HW277837   0.241   0.559   0.015  1.1692  2.1242 -1.2922
25174SOL     OW77838   4.817  10.572   0.099 -0.1978 -0.3281  0.5699
25174SOL    HW177839   4.811  10.634   0.171 -1.9735  0.3144 -0.0942
25174SOL    HW277840   4.805  10.486   0.141  0.8901 -0.1543  1.2931
25175SOL     OW77841   3.842   6.217   7.279  0.3643 -0.0227 -0.7104
25175SOL    HW177842   3.904   6.282   7.246  1.1761  0.8815  2.3502
25175SOL    HW277843   3.897   6.145   7.311 -0.2513 -0.1040  0.2016
25176SOL     OW77844   5.048  10.555   9.579  0.5177  0.6232  0.1764
25176SOL    HW177845   5.024  10.639   9.541 -0.5837  1.0752  1.7937
25176SOL    HW277846   4.994  10.491   9.533  1.4111  0.7484 -1.1073
25177SOL     OW77847   1.460   5.831   7.647  0.0143 -0.4070 -0.1155
25177SOL    HW177848   1.384   5.879   7.681  0.7412 -0.2680  1.3459
25177SOL    HW277849   1.524   5.833   7.718  0.6761 -2.1643 -0.6249
25178SOL     OW77850   6.489   7.470   5.527  0.1121 -0.1737 -0.1195
25178SOL    HW177851   6.463   7.539   5.588  0.4118  1.6355 -1.9503
25178SOL    HW277852   6.526   7.402   5.583 -0.0413  1.1989  1.7552
25179SOL     OW77853   0.566  10.589   3.022  0.0922  0.3322 -0.0364
25179SOL    HW177854   0.514  10.668   3.014 -0.7721 -0.2638 -0.4600
25179SOL    HW277855   0.561  10.547   2.936 -2.8037 -2.1631  1.1534
25180SOL     OW77856   1.698  10.379   7.315  0.2515  0.0232 -0.1690
25180SOL    HW177857   1.691  10.339   7.228 -0.0008  0.6763 -0.4556
25180SOL    HW277858   1.668  10.311   7.375 -1.8324  0.3200 -0.7869
25181SOL     OW77859   0.995   1.991   2.682 -0.2227 -0.5911  0.0626
25181SOL    HW177860   1.012   1.955   2.769 -0.6794  0.3777  0.5585
25181SOL    HW277861   1.013   2.084   2.690 -1.0798 -0.3493 -0.6609
25182SOL     OW77862   6.916  10.195   6.359 -0.0372 -0.3920  0.1081
25182SOL    HW177863   6.996  10.144   6.349  0.4056  0.1155  1.0008
25182SOL    HW277864   6.894  10.223   6.270  0.8785 -0.3772 -0.1159
25183SOL     OW77865   4.221   2.144   3.108 -0.0473 -0.1077  0.0547
25183SOL    HW177866   4.226   2.077   3.175  0.1402 -1.9234 -1.6967
25183SOL    HW277867   4.127   2.153   3.091 -0.2032  1.3340  1.4279
25184SOL     OW77868   9.464   6.225   8.613 -0.0103 -0.1660 -1.0540
25184SOL    HW177869   9.500   6.302   8.570  1.5195  1.3044  2.4299
25184SOL    HW277870   9.499   6.151   8.563  1.9457  1.3602 -2.0948
25185SOL     OW77871   4.720   3.028   2.567  0.6926  0.3286 -0.3016
25185SOL    HW177872   4.780   3.096   2.596  1.1838 -0.7663  1.3703
25185SOL    HW277873   4.715   2.967   2.641 -3.4017  0.9538  0.1394
25186SOL     OW77874  10.405   9.289   8.328 -0.3390  0.1260  0.3352
25186SOL    HW177875  10.492   9.298   8.366  0.2512 -1.0721 -0.6636
25186SOL    HW277876  10.357   9.237   8.392  0.4643 -1.3689 -0.2372
25187SOL     OW77877   1.600   3.940   5.536  0.4254 -0.7925 -0.1059
25187SOL    HW177878   1.560   3.877   5.595  0.9332  0.0298  1.1506
25187SOL    HW277879   1.684   3.901   5.510 -0.3775 -1.7448 -1.3780
25188SOL     OW77880   8.209   0.410   6.009 -0.5106 -0.0698 -0.0860
25188SOL    HW177881   8.115   0.404   6.023 -0.4233 -0.5983  0.2829
25188SOL    HW277882   8.233   0.495   6.047 -0.4480 -1.0216  2.1324
25189SOL     OW77883   4.388   0.910   2.735 -0.0906 -0.1841  0.0068
25189SOL    HW177884   4.317   0.874   2.682  0.2891 -0.6696 -0.1758
25189SOL    HW277885   4.389   1.003   2.713 -1.6175  0.1310  1.0985
25190SOL     OW77886   1.513   3.836   7.787  0.2791  0.3666  0.2105
25190SOL    HW177887   1.552   3.875   7.709  0.1434 -0.9486 -0.5450
25190SOL    HW277888   1.420   3.827   7.767  0.5137 -1.5858 -0.2222
25191SOL     OW77889   4.449   9.126   5.972 -0.2250  0.5370  0.0821
25191SOL    HW177890   4.483   9.196   5.917  0.0643  1.2668  1.1463
25191SOL    HW277891   4.369   9.162   6.010 -0.1779  0.2270  0.4854
25192SOL     OW77892   8.194   7.831   0.281  0.2046  0.2332 -0.1363
25192SOL    HW177893   8.105   7.844   0.313  0.2700  1.8736 -0.5575
25192SOL    HW277894   8.183   7.786   0.197 -0.1780 -0.1287  0.1006
25193SOL     OW77895   7.670   0.606   0.094 -0.2937 -0.2836 -0.0021
25193SOL    HW177896   7.582   0.586   0.063 -2.0070 -0.3171  4.3133
25193SOL    HW277897   7.667   0.698   0.117  1.5513  0.2635 -1.6218
25194SOL     OW77898   3.078   9.546   5.293 -0.5805  0.4039  0.2417
25194SOL    HW177899   3.151   9.485   5.284 -0.0311  1.1249 -0.3295
25194SOL    HW277900   3.002   9.499   5.259 -0.4807 -0.5039  1.2178
25195SOL     OW77901   8.772   2.623   6.674  0.0728 -0.2886  0.0300
25195SOL    HW177902   8.855   2.579   6.693 -0.8139 -2.1923 -0.2732
25195SOL    HW277903   8.790   2.716   6.687  1.7522 -0.8042  1.7939
25196SOL     OW77904   1.606   5.504   3.401  0.3611 -0.6109  0.5390
25196SOL    HW177905   1.664   5.438   3.364  0.9181  0.1526 -0.0080
25196SOL    HW277906   1.639   5.587   3.365  0.2123  0.0479  1.8488
25197SOL     OW77907   8.960   5.236   2.920  0.0387 -0.1347  0.3244
25197SOL    HW177908   8.977   5.281   2.837 -0.4382  1.2272  0.9386
25197SOL    HW277909   9.047   5.222   2.958  0.2941 -1.1708 -0.5823
25198SOL     OW77910   5.218   0.731   3.860  0.0581 -0.2656 -0.1279
25198SOL    HW177911   5.217   0.638   3.882 -1.1271 -0.5741 -1.3563
25198SOL    HW277912   5.141   0.767   3.905  1.0799  0.3514  1.1772
25199SOL     OW77913   6.645   8.249   2.519  0.4220  0.1351  0.6524
25199SOL    HW177914   6.654   8.156   2.501  1.6037  0.7926 -3.3477
25199SOL    HW277915   6.553   8.269   2.501  0.4994 -0.0611  0.0056
25200SOL     OW77916   3.543   7.580   4.811  1.0183  0.2583 -0.0935
25200SOL    HW177917   3.571   7.514   4.747 -0.1420 -1.1655  0.8156
25200SOL    HW277918   3.457   7.609   4.780  1.5071  1.3589 -0.4713
25201SOL     OW77919   2.705   4.620   6.863  0.7798 -0.8122 -0.1795
25201SOL    HW177920   2.730   4.686   6.798  2.3916 -1.0013  0.2079
25201SOL    HW277921   2.778   4.558   6.865 -0.4679 -2.3660 -0.1735
25202SOL     OW77922   4.093   4.955   9.249  0.0267  0.2507 -0.3878
25202SOL    HW177923   4.006   4.946   9.288 -0.0746 -1.2185 -0.8984
25202SOL    HW277924   4.113   5.048   9.257 -0.9275  0.3532  1.1402
25203SOL     OW77925   3.786   5.930   8.618 -0.1989  0.4145 -0.7835
25203SOL    HW177926   3.867   5.888   8.590 -0.4242 -1.7817  1.5187
25203SOL    HW277927   3.780   5.912   8.712 -3.0211  1.0807 -0.7298
25204SOL     OW77928   7.555   0.176   2.285  0.2661  0.2313 -0.2409
25204SOL    HW177929   7.617   0.169   2.213  0.5545  1.3009 -0.1196
25204SOL    HW277930   7.545   0.270   2.299 -1.1643  0.0762 -0.0607
25205SOL     OW77931   2.397   8.907   7.489  0.1965  0.2624  0.4251
25205SOL    HW177932   2.313   8.873   7.521 -0.2279 -0.1765 -1.0401
25205SOL    HW277933   2.381   8.922   7.395  1.2861  1.6722  0.4386
25206SOL     OW77934   0.862   9.790   5.702 -0.5438 -0.3077  0.0333
25206SOL    HW177935   0.914   9.828   5.773 -1.3561  0.5488  0.1986
25206SOL    HW277936   0.860   9.858   5.635  0.1254 -1.0717 -0.7866
25207SOL     OW77937   4.905   9.024   1.127  0.2375  0.3101 -0.2425
25207SOL    HW177938   4.988   9.052   1.088 -0.4189  1.9980 -0.5287
25207SOL    HW277939   4.887   9.090   1.194 -0.2848 -0.7293  0.6777
25208SOL     OW77940  10.350   0.995   8.071  0.1804 -0.0794  0.0945
25208SOL    HW177941  10.412   1.009   8.000 -0.5559  0.6847 -0.4136
25208SOL    HW277942  10.378   0.913   8.112  2.1621  0.7779  0.5544
25209SOL     OW77943   2.029   5.063   2.738 -0.3518  0.1475  0.0123
25209SOL    HW177944   2.077   5.015   2.806  0.7369  0.5781 -0.4328
25209SOL    HW277945   2.095   5.118   2.696 -0.6143 -1.3731 -2.5833
25210SOL     OW77946   6.982  10.210   5.418 -0.1903  0.5901 -0.1842
25210SOL    HW177947   6.965  10.122   5.452  2.3096  0.2206  0.3111
25210SOL    HW277948   6.953  10.205   5.327 -2.3282  0.0583  0.4538
25211SOL     OW77949   7.947   1.360   7.082  0.1718 -0.3913  0.2617
25211SOL    HW177950   7.976   1.406   7.004 -0.6613 -0.5726 -0.1699
25211SOL    HW277951   8.024   1.312   7.112  0.8893  0.8072  0.3908
25212SOL     OW77952   0.779   6.789   9.909 -0.2007  0.1988  0.1038
25212SOL    HW177953   0.820   6.823   9.988  0.2427  0.1933 -0.1222
25212SOL    HW277954   0.792   6.858   9.844  1.6183 -0.7943 -0.6526
25213SOL     OW77955   3.151   0.431   5.919  0.2920 -0.3120  0.3736
25213SOL    HW177956   3.061   0.403   5.936 -0.7569  1.6070 -1.6211
25213SOL    HW277957   3.175   0.480   5.997 -1.3681  1.3178 -0.0825
25214SOL     OW77958   6.694   0.246   3.836 -0.1704 -0.1751  0.1712
25214SOL    HW177959   6.654   0.215   3.755  0.6546 -0.7316 -0.0341
25214SOL    HW277960   6.653   0.193   3.905 -0.4467 -0.1046  0.0629
25215SOL     OW77961   5.286   3.376   1.295 -0.0326  0.1828  0.4173
25215SOL    HW177962   5.307   3.467   1.272  2.5332  0.0676  1.9483
25215SOL    HW277963   5.240   3.383   1.379 -2.9071  0.1719 -1.0367
25216SOL     OW77964   2.457   8.888   2.763 -0.0140  0.0084  0.0306
25216SOL    HW177965   2.531   8.832   2.739 -0.2348 -0.8230  1.2137
25216SOL    HW277966   2.484   8.930   2.844  0.5110  2.3769 -1.2817
25217SOL     OW77967   8.137   1.972   1.990 -0.1880 -0.1718  0.3681
25217SOL    HW177968   8.047   1.950   1.967  0.2928 -3.2068  0.9462
25217SOL    HW277969   8.130   2.015   2.075 -1.0659 -2.1016  1.3494
25218SOL     OW77970   8.961   7.902   9.526 -0.0963  0.1179  0.3731
25218SOL    HW177971   8.961   7.840   9.599 -0.4308 -0.4117 -0.0662
25218SOL    HW277972   9.010   7.858   9.457 -2.3508 -0.7070 -0.7870
25219SOL     OW77973   7.759   2.321   4.123  0.6106 -0.3588 -0.5528
25219SOL    HW177974   7.673   2.359   4.142  0.4253  0.0555 -2.1325
25219SOL    HW277975   7.775   2.261   4.196 -1.4827 -1.2366 -0.7545
25220SOL     OW77976   4.682   7.799   8.727 -0.2404 -0.0371  0.0166
25220SOL    HW177977   4.711   7.867   8.667 -1.4022  0.3342 -0.1491
25220SOL    HW277978   4.611   7.754   8.680  0.2489 -1.1046  0.2823
25221SOL     OW77979   8.519   9.525   1.447  0.0526  0.7430  0.3236
25221SOL    HW177980   8.590   9.492   1.503  0.3919  1.6875  0.4695
25221SOL    HW277981   8.466   9.448   1.427  2.1180 -0.3683 -1.2910
25222SOL     OW77982   2.179   1.886   6.203 -0.0791  0.5240  0.0268
25222SOL    HW177983   2.217   1.815   6.255  1.1720  1.0953 -0.0678
25222SOL    HW277984   2.139   1.944   6.267 -0.9741 -0.1780  0.1169
25223SOL     OW77985   8.839   9.465  10.218 -0.2744  0.1916 -0.2024
25223SOL    HW177986   8.824   9.560  10.211 -1.9849  0.0535  1.0341
25223SOL    HW277987   8.764   9.432  10.267  0.5436 -1.7552 -0.1622
25224SOL     OW77988   0.769   9.333   9.009  0.4792  0.2202 -0.4264
25224SOL    HW177989   0.768   9.280   9.088  0.2853 -0.8341 -1.1249
25224SOL    HW277990   0.843   9.299   8.958  0.5534  0.8399 -0.7442
25225SOL     OW77991   8.261   7.494   2.096 -0.0006 -0.6710 -0.2113
25225SOL    HW177992   8.238   7.427   2.161 -0.8861 -0.7630 -0.6060
25225SOL    HW277993   8.245   7.577   2.141  1.1122 -0.7146  0.2842
25226SOL     OW77994   2.300   0.350   4.433  1.0987  0.6330  0.0655
25226SOL    HW177995   2.231   0.286   4.415  0.2273  1.1181  1.5378
25226SOL    HW277996   2.255   0.434   4.435  1.6370  0.9177  1.4337
25227SOL     OW77997   1.593   3.229   3.059  0.0056 -0.1076 -0.2176
25227SOL    HW177998   1.606   3.262   2.971 -0.1233  1.0223  0.1741
25227SOL    HW277999   1.631   3.296   3.116 -1.1061 -0.1669  0.6364
25228SOL     OW78000  10.227   3.652   9.276 -0.1001 -0.1781  0.0002
25228SOL    HW178001  10.218   3.729   9.220  0.0112 -0.5228 -0.4898
25228SOL    HW278002  10.136   3.625   9.293 -0.1981  0.7401  1.1390
25229SOL     OW78003   5.077   7.540   1.132 -0.0849 -0.2425 -0.3119
25229SOL    HW178004   5.060   7.606   1.198 -0.2847 -1.9526  1.4377
25229SOL    HW278005   5.149   7.575   1.080  0.7578  0.7541  1.4443
25230SOL     OW78006   4.228   6.284   4.727  0.0106 -0.3783 -0.2645
25230SOL    HW178007   4.180   6.296   4.809  1.5299 -0.9190  0.7629
25230SOL    HW278008   4.241   6.189   4.721  2.0032 -0.1849  0.1867
25231SOL     OW78009   9.262   2.646   4.646  0.3063 -0.1654  0.3565
25231SOL    HW178010   9.205   2.612   4.577 -1.7410 -0.4332  2.0625
25231SOL    HW278011   9.312   2.570   4.675  0.3964 -0.2874 -0.1094
25232SOL     OW78012   4.203   8.625   9.810 -0.4637 -0.4343 -0.4676
25232SOL    HW178013   4.130   8.623   9.747 -0.9604 -0.0405  0.0835
25232SOL    HW278014   4.163   8.601   9.893  0.3992 -2.0669 -0.4796
25233SOL     OW78015   9.192   3.673   1.443  0.0447 -0.3117 -0.3087
25233SOL    HW178016   9.270   3.647   1.492  1.8573  1.8024 -1.8767
25233SOL    HW278017   9.210   3.763   1.415 -2.3890 -0.2309 -1.9025
25234SOL     OW78018   6.114   2.207   0.261 -0.4029 -0.3058  0.2306
25234SOL    HW178019   6.174   2.256   0.204 -0.0895  0.0362  0.8377
25234SOL    HW278020   6.107   2.262   0.339 -2.7333  0.4231 -0.4318
25235SOL     OW78021   7.580   3.061   6.298  0.2414  0.4883 -0.3254
25235SOL    HW178022   7.663   3.029   6.334  0.7024  0.1294 -1.6475
25235SOL    HW278023   7.542   2.984   6.255  0.0415  1.0473 -1.1719
25236SOL     OW78024   6.295   0.740   2.465  0.7093  0.0443  0.8481
25236SOL    HW178025   6.383   0.709   2.486  0.6187  0.2440  1.5329
25236SOL    HW278026   6.239   0.700   2.532  0.7452  2.6520  2.5850
25237SOL     OW78027   3.688   5.251   3.169 -1.0576 -0.5623  0.0277
25237SOL    HW178028   3.610   5.261   3.116  0.0700 -0.5227 -1.7061
25237SOL    HW278029   3.696   5.156   3.183  0.3320 -0.9578 -2.6964
25238SOL     OW78030   2.595   1.073   8.800  0.0318  0.1598  0.1411
25238SOL    HW178031   2.595   1.019   8.879 -1.4576 -0.7994 -0.4658
25238SOL    HW278032   2.683   1.063   8.764  0.4575 -0.0893  1.2144
25239SOL     OW78033   9.130  10.060   6.585  0.3933 -0.2052  0.2593
25239SOL    HW178034   9.047  10.080   6.542  0.0866  0.5496  1.1574
25239SOL    HW278035   9.194  10.055   6.514 -0.3343 -0.3551 -0.4009
25240SOL     OW78036   4.464   1.149   3.351  1.0851  0.2075 -0.0820
25240SOL    HW178037   4.531   1.089   3.383  0.8134 -1.5796 -2.5900
25240SOL    HW278038   4.381   1.111   3.380  0.9630  0.0204 -0.6745
25241SOL     OW78039   3.859   3.455   7.642  0.1932  0.4468 -0.4144
25241SOL    HW178040   3.794   3.440   7.573 -0.5065 -0.7307  0.4643
25241SOL    HW278041   3.827   3.532   7.688 -1.6127 -1.1197  1.1026
25242SOL     OW78042   0.642   2.150   7.725 -0.0543  0.5042  0.2006
25242SOL    HW178043   0.628   2.088   7.797 -0.5621  0.8309  0.3876
25242SOL    HW278044   0.631   2.236   7.764  1.9170  0.7964  0.2262
25243SOL     OW78045   6.952  10.368   7.959 -0.6820 -0.3247  0.2388
25243SOL    HW178046   7.012  10.425   7.910 -1.2070  0.2858  0.2949
25243SOL    HW278047   7.008  10.328   8.026 -0.5174  1.0689  0.9827
25244SOL     OW78048   3.851   5.794   7.516 -0.9288 -0.1238 -0.4627
25244SOL    HW178049   3.887   5.827   7.598 -0.1371 -0.9677 -0.4440
25244SOL    HW278050   3.788   5.860   7.488 -3.6889 -1.2872  2.4753
25245SOL     OW78051   0.767   0.632   8.322  0.1272 -0.1389  0.0893
25245SOL    HW178052   0.807   0.719   8.312  1.7674 -0.9229 -0.5244
25245SOL    HW278053   0.684   0.639   8.274  0.3209  1.0266 -0.1163
25246SOL     OW78054   5.259   6.411   4.711  0.2070  0.4860  0.2359
25246SOL    HW178055   5.335   6.355   4.727 -0.1098 -0.4956 -1.4600
25246SOL    HW278056   5.244   6.456   4.795  2.4862  0.5422  0.6762
25247SOL     OW78057  10.428   2.523   7.678  0.5740  0.7435 -0.7309
25247SOL    HW178058  10.391   2.467   7.610  3.2977 -1.8542 -0.3070
25247SOL    HW278059  10.367   2.517   7.751  1.2134 -2.7270 -0.3176
25248SOL     OW78060   3.902   3.440   9.476  0.1318  0.3592 -0.2410
25248SOL    HW178061   3.816   3.480   9.492 -0.1186  0.6882 -2.0871
25248SOL    HW278062   3.957   3.514   9.449  0.6128 -0.0425 -0.3552
25249SOL     OW78063   3.962   1.002   4.910 -0.1966 -0.5429  0.6168
25249SOL    HW178064   4.043   0.953   4.899 -0.2581 -0.5989  0.4118
25249SOL    HW278065   3.895   0.935   4.921 -0.3740 -0.5233 -0.2868
25250SOL     OW78066   0.649   8.837   9.818 -0.1498  0.4532  0.1619
25250SOL    HW178067   0.654   8.928   9.788  1.7036  0.2368 -0.3179
25250SOL    HW278068   0.676   8.786   9.742 -0.2655 -0.4414  0.7143
25251SOL     OW78069   3.800   0.158   2.965 -0.1315 -0.5478  0.5344
25251SOL    HW178070   3.729   0.099   2.938  1.5279 -1.9417 -1.0840
25251SOL    HW278071   3.803   0.224   2.896 -1.4433  1.0513  1.9200
25252SOL     OW78072   9.457   3.891   7.773 -0.0932 -0.1087 -0.6534
25252SOL    HW178073   9.496   3.880   7.686  0.2707 -3.8355 -0.1734
25252SOL    HW278074   9.474   3.808   7.818 -2.0515  0.9175  2.2912
25253SOL     OW78075   5.500   0.496  10.332  0.1269 -0.4875  0.2566
25253SOL    HW178076   5.471   0.511  10.422  2.3828  2.2957  0.6867
25253SOL    HW278077   5.488   0.580  10.288  2.2891 -0.7289 -0.9846
25254SOL     OW78078   8.280   9.848   8.878 -0.1436 -0.2557 -0.1459
25254SOL    HW178079   8.324   9.763   8.887 -0.4291 -0.5369 -1.2594
25254SOL    HW278080   8.346   9.912   8.907 -0.3383 -0.9035  1.9070
25255SOL     OW78081   8.337   0.628   8.986 -0.1782  0.0794 -0.1715
25255SOL    HW178082   8.292   0.662   9.063 -0.8851  0.5207 -0.7684
25255SOL    HW278083   8.402   0.566   9.021  0.2197  1.0466  0.8313
25256SOL     OW78084   5.725   9.771   3.677  0.0298 -0.3665 -0.3003
25256SOL    HW178085   5.722   9.866   3.680  0.0200 -0.3282 -1.2765
25256SOL    HW278086   5.719   9.749   3.584  1.6201 -1.2636 -0.2315
25257SOL     OW78087   5.004   1.297   3.105 -0.4437 -0.4170 -0.3185
25257SOL    HW178088   4.937   1.278   3.172 -0.5806  1.7573  0.2444
25257SOL    HW278089   5.083   1.253   3.137 -1.1509 -1.5647 -0.0885
25258SOL     OW78090   2.655   0.303   9.121  0.4548 -0.5756  0.7815
25258SOL    HW178091   2.729   0.324   9.178  0.3174  0.2397  0.6758
25258SOL    HW278092   2.667   0.358   9.044  0.0020 -0.7919  0.5495
25259SOL     OW78093   9.209   2.270  10.077 -0.0761 -0.6450 -0.0576
25259SOL    HW178094   9.182   2.358  10.050  0.1001 -0.2656  0.9744
25259SOL    HW278095   9.292   2.283  10.121 -1.0508 -1.0272  2.0033
25260SOL     OW78096   9.613   1.855   6.911 -0.0458  0.1922  0.1706
25260SOL    HW178097   9.579   1.766   6.898  0.4180 -0.5743  3.3609
25260SOL    HW278098   9.599   1.898   6.826 -2.4926 -2.1648 -0.7948
25261SOL     OW78099   9.265   8.846   1.758  0.8041 -0.2957  0.0748
25261SOL    HW178100   9.218   8.837   1.840  1.7521 -1.3264  0.5383
25261SOL    HW278101   9.237   8.771   1.706  1.3048 -0.4682  0.0447
25262SOL     OW78102   1.374   0.823   1.388 -0.3778 -0.0435  0.7845
25262SOL    HW178103   1.352   0.741   1.345 -0.2930  0.9379 -1.2629
25262SOL    HW278104   1.293   0.850   1.432 -0.1648 -1.5881  2.2256
25263SOL     OW78105   2.229   6.334   5.541 -0.1899 -0.2823 -0.5830
25263SOL    HW178106   2.154   6.321   5.599 -0.3659  0.5665 -0.6154
25263SOL    HW278107   2.237   6.429   5.530  0.1203 -0.3998 -1.5839
25264SOL     OW78108   1.867   5.333   3.602  0.2289  0.2062 -1.3243
25264SOL    HW178109   1.878   5.286   3.520  0.2153 -0.3342 -1.0207
25264SOL    HW278110   1.925   5.287   3.664 -1.8034 -1.1393 -0.3219
25265SOL     OW78111   6.477   7.759   8.119  0.3229 -0.4499 -0.1019
25265SOL    HW178112   6.410   7.808   8.072  0.5914 -0.3014 -0.3333
25265SOL    HW278113   6.504   7.691   8.057 -0.7036 -1.4894  0.5427
25266SOL     OW78114   4.220   8.370   2.836 -0.1334 -0.0846 -0.7787
25266SOL    HW178115   4.203   8.310   2.909 -0.8206 -0.7916 -1.5060
25266SOL    HW278116   4.136   8.414   2.822 -0.3307 -0.7682 -1.8553
25267SOL     OW78117   5.677   2.463   5.657 -0.6695 -0.8018 -0.4561
25267SOL    HW178118   5.588   2.481   5.688 -0.7278  0.6500 -1.3774
25267SOL    HW278119   5.667   2.449   5.563  0.1831  0.5404 -0.7809
25268SOL     OW78120   1.242   7.732   0.038  0.5151 -0.3134  0.2156
25268SOL    HW178121   1.300   7.720   0.113 -0.0425  0.0653  0.7226
25268SOL    HW278122   1.296   7.776  -0.027  1.1182 -0.9940  0.2430
25269SOL     OW78123   8.605   3.379   6.041 -0.3763 -0.4569 -0.0489
25269SOL    HW178124   8.550   3.364   5.964  0.5040 -1.1229 -0.5752
25269SOL    HW278125   8.613   3.474   6.048 -2.5862 -0.2837  0.7856
25270SOL     OW78126   5.765   6.831   4.675  0.2616  0.3333 -0.6059
25270SOL    HW178127   5.781   6.747   4.718 -0.4991  0.8604  0.7555
25270SOL    HW278128   5.677   6.823   4.639  0.4539  0.3112 -1.0811
25271SOL     OW78129   1.338   0.893   9.360  0.0856 -0.6066  0.1262
25271SOL    HW178130   1.293   0.809   9.365  0.5475 -0.7881  1.8095
25271SOL    HW278131   1.268   0.958   9.362 -0.1998 -0.9216  0.4260
25272SOL     OW78132   5.518   5.877   4.065 -0.1770  0.4506  0.1569
25272SOL    HW178133   5.494   5.792   4.029  0.7253  0.2757 -0.0516
25272SOL    HW278134   5.487   5.874   4.155 -0.1998 -0.0824  0.1372
25273SOL     OW78135   3.167   7.458   3.666  0.1999 -0.2738 -0.1147
25273SOL    HW178136   3.127   7.424   3.585  1.8047 -0.1783 -0.9810
25273SOL    HW278137   3.106   7.525   3.696 -0.6896 -0.6766 -0.9452
25274SOL     OW78138   2.042   4.613   9.631 -0.2163 -0.1814 -1.0167
25274SOL    HW178139   2.064   4.614   9.538  0.3768 -1.9040 -0.9279
25274SOL    HW278140   2.002   4.528   9.646  0.6054 -0.3396  0.5073
25275SOL     OW78141   1.525   9.528   6.121 -0.7313  0.0793  0.1714
25275SOL    HW178142   1.480   9.491   6.045 -0.7613  2.5268 -1.0971
25275SOL    HW278143   1.468   9.599   6.150  1.7698  2.6938 -0.9012
25276SOL     OW78144   7.107   8.483   5.022  0.2190 -0.2506  0.1485
25276SOL    HW178145   7.113   8.519   5.110 -0.7769 -0.7991  0.4628
25276SOL    HW278146   7.176   8.416   5.018 -0.8586 -1.4748  1.1525
25277SOL     OW78147   4.957   3.367   1.511  0.4478  0.5656 -0.2298
25277SOL    HW178148   5.033   3.425   1.520 -0.6509  1.9737  0.4876
25277SOL    HW278149   4.883   3.426   1.504 -0.7554 -0.7584  0.7055
25278SOL     OW78150   7.046   8.987   2.187  0.6442 -0.0623 -0.3002
25278SOL    HW178151   6.962   8.946   2.166  0.4569  0.4188 -0.5026
25278SOL    HW278152   7.061   9.050   2.116  0.0021  1.6039  0.9662
25279SOL     OW78153   3.622  10.265   0.983 -0.0051 -0.6539 -0.3089
25279SOL    HW178154   3.616  10.176   0.949 -1.4250 -0.8231  0.3345
25279SOL    HW278155   3.585  10.260   1.071  0.4706  0.4543 -0.0264
25280SOL     OW78156   2.444   0.877   4.992  0.3328  0.0347 -0.5723
25280SOL    HW178157   2.356   0.867   5.029  0.5905 -2.6190 -0.5128
25280SOL    HW278158   2.498   0.900   5.068 -0.1450  0.7407 -0.4360
25281SOL     OW78159   9.122   1.456   3.588 -0.0858 -0.3235 -0.1214
25281SOL    HW178160   9.056   1.502   3.641  0.3828  0.0257  0.1617
25281SOL    HW278161   9.118   1.499   3.502 -2.1445 -2.0706 -1.0130
25282SOL     OW78162   1.916   3.380   0.382  0.2505  0.4613  0.2992
25282SOL    HW178163   1.879   3.342   0.461  0.1500  1.0289  0.5353
25282SOL    HW278164   2.011   3.371   0.392  0.2712  1.1261  0.8060
25283SOL     OW78165   9.982   3.084   7.522 -0.1594 -0.7000 -0.3958
25283SOL    HW178166   9.911   3.059   7.581  0.9613 -0.3044  1.1961
25283SOL    HW278167   9.974   3.180   7.515 -0.6191 -0.7985 -1.3608
25284SOL     OW78168   4.312   1.778   7.944  0.3797  0.3800  0.5127
25284SOL    HW178169   4.218   1.770   7.928  0.7341  1.5621 -2.9769
25284SOL    HW278170   4.326   1.871   7.960  1.1790  0.5739 -1.1832
25285SOL     OW78171   7.907   5.861   9.315 -0.3758 -0.5597 -0.5521
25285SOL    HW178172   7.824   5.864   9.362  1.1660 -1.4566  2.5589
25285SOL    HW278173   7.905   5.778   9.267 -1.2959 -0.5143 -0.6060
25286SOL     OW78174   4.926   2.130   0.942  0.1600  0.4406 -0.1197
25286SOL    HW178175   4.993   2.116   1.009  0.6085  1.0030 -0.4431
25286SOL    HW278176   4.862   2.188   0.984  0.0742  0.2215  0.0555
25287SOL     OW78177   2.246   6.079  10.509  0.1737  0.1166 -0.1192
25287SOL    HW178178   2.239   6.121  10.423  1.5668 -1.5452 -1.1043
25287SOL    HW278179   2.338   6.056  10.518 -0.3672 -1.9730  0.7044
25288SOL     OW78180   4.399   3.365   5.671  0.3994 -1.1219  0.3278
25288SOL    HW178181   4.384   3.455   5.642  1.0261 -1.0874  0.1149
25288SOL    HW278182   4.387   3.369   5.766 -0.9914 -1.1063  0.1808
25289SOL     OW78183   4.531   2.608   3.443  0.0801  0.2711  0.2217
25289SOL    HW178184   4.548   2.702   3.441 -1.6347  0.6681  1.3042
25289SOL    HW278185   4.556   2.577   3.356  0.0354  1.8526 -0.3958
25290SOL     OW78186   6.220   8.558   4.915  0.1595  0.0653  0.2600
25290SOL    HW178187   6.301   8.602   4.893  0.6395 -0.9250  0.0245
25290SOL    HW278188   6.169   8.557   4.834  0.5542 -0.6603  0.0143
25291SOL     OW78189   1.654   6.543   8.906  0.2443 -0.1930 -0.3428
25291SOL    HW178190   1.575   6.503   8.942 -0.0087  0.7097  0.1516
25291SOL    HW278191   1.623   6.599   8.835  0.6629 -1.3485 -1.4794
25292SOL     OW78192   8.277   0.296   1.814  0.0222 -0.2935 -0.3498
25292SOL    HW178193   8.315   0.343   1.739  0.3292 -1.8368 -1.2210
25292SOL    HW278194   8.336   0.315   1.886  0.8277 -0.3160 -0.9826
25293SOL     OW78195   8.203   3.974   3.304  0.2465  0.0189  0.3612
25293SOL    HW178196   8.265   4.035   3.345  1.8962  0.0694 -1.9918
25293SOL    HW278197   8.255   3.896   3.286 -0.6102 -0.3273 -0.7467
25294SOL     OW78198   0.521   8.400   7.693  0.2047 -0.5217  0.0597
25294SOL    HW178199   0.521   8.321   7.747  0.9033 -0.6830 -0.1628
25294SOL    HW278200   0.584   8.381   7.623 -0.6029 -0.2865 -0.7622
25295SOL     OW78201   8.091  10.071   8.763 -0.3657  0.6635 -0.5103
25295SOL    HW178202   8.098   9.976   8.773  0.4621  0.5786 -1.7201
25295SOL    HW278203   8.154  10.106   8.826 -0.6459  0.4136 -0.0870
25296SOL     OW78204   2.153   1.345   2.252 -0.3616 -0.3029 -0.5422
25296SOL    HW178205   2.209   1.271   2.229  0.7355  0.1535  0.5601
25296SOL    HW278206   2.103   1.364   2.172  0.4127 -1.2890 -1.2708
25297SOL     OW78207   7.986   1.142   8.116  0.3702 -0.2258  0.0228
25297SOL    HW178208   8.074   1.119   8.087  1.0682 -0.0545  1.8733
25297SOL    HW278209   7.928   1.098   8.054  1.7539 -1.1839 -0.6339
25298SOL     OW78210   1.384   3.693   9.662 -0.6004  0.8208 -0.1488
25298SOL    HW178211   1.354   3.771   9.615  0.8618  0.6460 -1.4802
25298SOL    HW278212   1.425   3.639   9.594  1.7670  0.6211  1.3112
25299SOL     OW78213   0.670   0.721   5.639  0.1901 -0.4597 -0.0594
25299SOL    HW178214   0.635   0.635   5.663 -0.3027 -0.0409  0.7595
25299SOL    HW278215   0.673   0.769   5.722 -2.0386  1.2084 -0.8345
25300SOL     OW78216   5.738  10.411   1.388  0.5968  0.2123 -0.0131
25300SOL    HW178217   5.723  10.504   1.406  0.6457  0.3021 -0.4262
25300SOL    HW278218   5.653  10.370   1.404  0.5173  0.3625 -0.0495
25301SOL     OW78219   4.772  10.217   9.165  0.1428 -0.2251  0.4243
25301SOL    HW178220   4.741  10.252   9.081 -1.6475 -1.2585  0.5990
25301SOL    HW278221   4.859  10.183   9.146  0.0836  0.2375 -0.8171
25302SOL     OW78222   3.933   6.763   3.939 -0.3932  0.2788 -0.3246
25302SOL    HW178223   3.948   6.676   3.903 -0.0569  0.3691 -0.4008
25302SOL    HW278224   3.958   6.823   3.869 -0.4198  0.4426 -0.1943
25303SOL     OW78225   3.514   6.897   6.460  0.0947 -0.4456  0.3841
25303SOL    HW178226   3.602   6.933   6.472 -0.1462  0.5363 -0.6931
25303SOL    HW278227   3.456   6.964   6.495 -0.3100 -0.2364 -0.6607
25304SOL     OW78228  10.187   1.364   7.326 -0.0227 -0.0104  0.2925
25304SOL    HW178229  10.151   1.292   7.274 -0.4584  0.6262 -0.3125
25304SOL    HW278230  10.281   1.353   7.319 -0.0866 -0.6642  0.4055
25305SOL     OW78231   9.900   1.262   6.485 -0.6034 -0.2198 -0.3714
25305SOL    HW178232   9.949   1.194   6.439 -1.9113 -0.4542 -1.4777
25305SOL    HW278233   9.962   1.335   6.491  0.1862 -0.8182 -0.9224
25306SOL     OW78234   1.796   0.475   9.718 -0.4956  0.3296  0.1259
25306SOL    HW178235   1.870   0.531   9.740  0.2374 -0.7892  0.5602
25306SOL    HW278236   1.773   0.431   9.800 -0.0740 -1.1472 -0.5146
25307SOL     OW78237   3.561   8.827   7.175  0.1199  0.5365  0.3988
25307SOL    HW178238   3.485   8.827   7.233 -0.1493  1.6732  0.0566
25307SOL    HW278239   3.539   8.763   7.107  0.3838 -0.7066  1.4491
25308SOL     OW78240   8.528   4.134   4.741  0.2827  0.1292  0.5051
25308SOL    HW178241   8.487   4.201   4.686 -0.0120  0.4844  1.1463
25308SOL    HW278242   8.538   4.176   4.826  1.3434 -0.1847  0.5518
25309SOL     OW78243  10.142   6.796   3.112 -0.2681 -0.1984 -0.2084
25309SOL    HW178244  10.124   6.785   3.018  1.3603 -2.2805 -0.3378
25309SOL    HW278245  10.057   6.785   3.154 -0.5869 -2.3318 -1.2779
25310SOL     OW78246   8.497   2.456   9.462  0.9957  0.0881  0.0946
25310SOL    HW178247   8.483   2.362   9.445  2.1525  0.1632 -1.5461
25310SOL    HW278248   8.410   2.491   9.478  0.5658 -1.2948  0.9372
25311SOL     OW78249   2.275   7.202   1.897  0.2092  0.1701  0.0212
25311SOL    HW178250   2.269   7.113   1.933  0.2540 -0.4044 -1.3342
25311SOL    HW278251   2.186   7.224   1.871  0.0847  0.7914  0.9299
25312SOL     OW78252   3.428   9.245   7.072 -0.1188 -0.0264  0.5836
25312SOL    HW178253   3.472   9.327   7.049  1.3521 -0.7830  0.6400
25312SOL    HW278254   3.346   9.248   7.021  1.6331 -0.2468 -2.4845
25313SOL     OW78255   5.552   0.963   9.113 -0.4334  0.1875  0.4699
25313SOL    HW178256   5.646   0.980   9.112 -0.0696 -1.6331  0.2070
25313SOL    HW278257   5.532   0.941   9.204  0.2436 -3.2705 -0.0599
25314SOL     OW78258   2.031   0.517   7.876 -0.0341 -0.3310  0.3723
25314SOL    HW178259   1.998   0.427   7.874  1.4245 -0.8884  0.0797
25314SOL    HW278260   2.126   0.507   7.875  0.1447  1.2343 -0.0598
25315SOL     OW78261   4.848   4.304   9.263 -0.0056 -0.5013 -0.2334
25315SOL    HW178262   4.777   4.270   9.316 -0.5222 -1.9799 -1.7758
25315SOL    HW278263   4.812   4.309   9.174  0.6778  2.3068 -0.4642
25316SOL     OW78264   2.731   9.623   6.767 -0.0770  0.2789 -0.8153
25316SOL    HW178265   2.797   9.624   6.836 -1.0858  0.2882  0.1872
25316SOL    HW278266   2.755   9.695   6.710  0.0403  1.1245  0.2654
25317SOL     OW78267   3.503   5.226   9.024  0.3340  0.2770  0.0399
25317SOL    HW178268   3.577   5.202   8.968 -0.6983  1.3237 -1.8603
25317SOL    HW278269   3.524   5.314   9.055  0.7922 -0.2088  1.1861
25318SOL     OW78270   2.053   2.049   0.041  0.0454  0.8788 -0.7303
25318SOL    HW178271   2.115   1.979   0.063  0.3458  2.0260  2.6859
25318SOL    HW278272   2.043   2.043  -0.054  0.8610 -3.0645 -0.7589
25319SOL     OW78273   4.544   5.403   7.850 -0.1472  0.7172  0.3295
25319SOL    HW178274   4.472   5.466   7.857  0.3544  1.1872  1.5734
25319SOL    HW278275   4.596   5.417   7.929  2.0485  1.2706 -1.1343
25320SOL     OW78276   0.570   0.473   5.685 -0.0823  0.4919 -0.3143
25320SOL    HW178277   0.546   0.380   5.687  0.8021  0.2606  0.8196
25320SOL    HW278278   0.494   0.517   5.648  0.1740 -0.8740 -2.7084
25321SOL     OW78279   5.417   7.098   7.253  0.6909  0.3083 -0.4546
25321SOL    HW178280   5.413   7.186   7.216  0.6448  1.2802  1.7166
25321SOL    HW278281   5.413   7.040   7.177 -2.1941  2.0860 -1.8682
25322SOL     OW78282   7.747   1.691   2.187  0.0379  0.3174 -0.3987
25322SOL    HW178283   7.747   1.597   2.173  1.3458  0.2881 -0.2818
25322SOL    HW278284   7.701   1.726   2.110  1.0831 -0.3143 -1.3506
25323SOL     OW78285   3.189   0.622   8.775  0.2597 -0.4780  0.3732
25323SOL    HW178286   3.121   0.650   8.715  0.3782 -1.2792 -0.1508
25323SOL    HW278287   3.271   0.631   8.726  0.4079 -0.6716  0.5780
25324SOL     OW78288   2.834   2.145   4.521  0.2017  0.6601  0.6227
25324SOL    HW178289   2.784   2.126   4.442 -0.1193  1.4951  0.6192
25324SOL    HW278290   2.770   2.140   4.592  1.0088 -3.0825  1.2804
25325SOL     OW78291   3.286   4.197   2.492 -0.2069  0.3503 -0.0783
25325SOL    HW178292   3.258   4.194   2.401  1.8234  0.3717 -0.7503
25325SOL    HW278293   3.305   4.289   2.509 -0.1275  0.2775  0.2309
25326SOL     OW78294   5.716   8.747   5.417  0.5370  0.5089  0.3718
25326SOL    HW178295   5.637   8.722   5.464  2.3505 -1.4779  2.6795
25326SOL    HW278296   5.725   8.680   5.348  0.4495  0.4671  0.4012
25327SOL     OW78297   0.909   9.842  10.558  0.0313 -0.2178 -0.1038
25327SOL    HW178298   0.922   9.778  10.487  0.3843  0.1494 -0.3741
25327SOL    HW278299   0.955   9.804  10.632  0.5900 -0.0872 -0.3784
25328SOL     OW78300   2.425   0.783   0.413 -0.4446 -0.0091 -0.0809
25328SOL    HW178301   2.482   0.857   0.432  1.3586 -1.5147  0.6387
25328SOL    HW278302   2.342   0.823   0.387  0.3541  2.2429  0.6100
25329SOL     OW78303   2.483   0.028   8.091  0.2964  0.0217 -0.1976
25329SOL    HW178304   2.523   0.014   8.177  0.2622 -1.3582 -0.3853
25329SOL    HW278305   2.400  -0.019   8.095 -0.1081  0.6812 -0.7005
25330SOL     OW78306   9.048   5.135   8.607 -0.3119  0.4731  0.3397
25330SOL    HW178307   9.093   5.192   8.670  0.4927 -0.3233  0.5066
25330SOL    HW278308   8.973   5.100   8.656 -0.1717  0.5219  0.5904
25331SOL     OW78309   0.580   2.940   9.109  0.0829 -0.0293 -0.4713
25331SOL    HW178310   0.584   2.942   9.204  0.1136 -0.1302 -0.4706
25331SOL    HW278311   0.547   2.853   9.087  0.2902 -0.0870 -0.5587
25332SOL     OW78312   8.702   7.574   6.762 -0.3187  0.2337 -0.6768
25332SOL    HW178313   8.721   7.621   6.843 -1.4231 -0.1961 -0.1421
25332SOL    HW278314   8.614   7.603   6.737 -0.6457 -0.8440 -0.8329
25333SOL     OW78315   1.428   2.683   2.817  0.5002 -0.5090  0.6715
25333SOL    HW178316   1.416   2.594   2.850 -0.3878 -0.8020 -0.3721
25333SOL    HW278317   1.456   2.733   2.893  3.7476 -2.1785  0.7864
25334SOL     OW78318   4.418   6.103   0.675 -0.6338  0.1558 -0.1260
25334SOL    HW178319   4.452   6.093   0.586 -0.7920 -0.5640 -0.1112
25334SOL    HW278320   4.365   6.025   0.689  1.4659 -1.0967  1.5287
25335SOL     OW78321   4.260   6.539  10.015  0.3259  0.7397  0.4855
25335SOL    HW178322   4.340   6.568   9.970 -0.4485 -0.6316 -1.9326
25335SOL    HW278323   4.233   6.615  10.066  1.9433  1.9923 -0.4039
25336SOL     OW78324   4.018   1.509   0.604  0.6992  0.5517 -0.5485
25336SOL    HW178325   3.986   1.593   0.637  0.6132  0.2089  0.2611
25336SOL    HW278326   4.030   1.455   0.683 -2.5296 -1.3718 -1.1560
25337SOL     OW78327   4.643   4.341   5.418  0.1731  0.1551  0.4488
25337SOL    HW178328   4.604   4.418   5.459  0.3351 -0.3656  1.6055
25337SOL    HW278329   4.605   4.267   5.464  0.9411 -0.4256  0.1698
25338SOL     OW78330   0.618   1.801   6.955 -0.8108  0.5505 -0.0265
25338SOL    HW178331   0.610   1.745   6.877 -1.2174  0.6323 -0.0432
25338SOL    HW278332   0.624   1.890   6.920  2.6403  0.3926 -0.1789
25339SOL     OW78333   3.717   4.590   0.544  0.8421  0.0766  0.3734
25339SOL    HW178334   3.800   4.586   0.497  0.5668 -0.8819 -0.0771
25339SOL    HW278335   3.741   4.579   0.636  1.3361  1.3753  0.4166
25340SOL     OW78336   1.255   9.657   7.789  0.7971  0.3281  0.1450
25340SOL    HW178337   1.172   9.704   7.795  0.4737 -0.1624 -0.3901
25340SOL    HW278338   1.315   9.708   7.844  0.1046  0.5913  0.6723
25341SOL     OW78339   5.222   2.971   5.812  0.2230  0.1134  0.6145
25341SOL    HW178340   5.213   2.899   5.875  2.4604  1.1350  2.2653
25341SOL    HW278341   5.187   3.047   5.859 -1.6776  0.2801 -0.9328
25342SOL     OW78342   1.492   4.360   3.356 -0.3694  0.3214 -0.0338
25342SOL    HW178343   1.556   4.414   3.311 -0.1596  0.1205  0.0201
25342SOL    HW278344   1.410   4.374   3.308  0.0538 -0.6167 -1.0703
25343SOL     OW78345   4.817   8.975   9.278  0.4432  0.0301  0.2491
25343SOL    HW178346   4.805   8.915   9.204  1.6084  0.4966 -0.3499
25343SOL    HW278347   4.751   9.043   9.264 -0.9660 -1.1265  0.9971
25344SOL     OW78348   8.023  10.407   3.307 -0.2701  0.2177 -0.1675
25344SOL    HW178349   8.024  10.358   3.389 -0.3455 -0.8767 -0.8033
25344SOL    HW278350   8.115  10.429   3.291  0.0281 -1.3641 -0.8154
25345SOL     OW78351   0.564   7.476   0.490  0.3405  0.2220  0.1096
25345SOL    HW178352   0.654   7.507   0.482  0.5086  0.8390  3.1125
25345SOL    HW278353   0.568   7.383   0.469  2.0226 -0.0910  1.6017
25346SOL     OW78354   5.270   3.261   8.137 -0.1309 -0.3581  0.5501
25346SOL    HW178355   5.218   3.209   8.076 -3.0496 -0.1316  2.5975
25346SOL    HW278356   5.324   3.196   8.183 -1.2275 -1.1703  0.7456
25347SOL     OW78357   1.403   4.554   6.183  0.0736  0.7297  0.2900
25347SOL    HW178358   1.480   4.498   6.177 -0.9345 -0.5664 -1.6771
25347SOL    HW278359   1.437   4.643   6.171  1.2098  0.1112 -1.4288
25348SOL     OW78360   8.227   8.718   1.909 -0.1419  0.2891 -0.1594
25348SOL    HW178361   8.288   8.652   1.942  1.1378  1.6835  0.4085
25348SOL    HW278362   8.217   8.779   1.982 -1.1112  0.8505 -0.7485
25349SOL     OW78363   8.614   5.680   9.865  0.0947  0.2319  0.1174
25349SOL    HW178364   8.638   5.760   9.818 -0.8166  0.1951 -0.4297
25349SOL    HW278365   8.667   5.683   9.945 -1.4587  2.4963  1.1846
25350SOL     OW78366   3.825   4.304   3.951 -0.0962  0.3364  0.0252
25350SOL    HW178367   3.756   4.351   3.998  0.1746 -0.6343  1.4968
25350SOL    HW278368   3.906   4.342   3.983  0.1067 -0.6684  0.7724
25351SOL     OW78369   4.187   6.417   7.737 -0.1952 -0.4626 -0.2093
25351SOL    HW178370   4.102   6.408   7.779  0.0423 -0.6500  0.2377
25351SOL    HW278371   4.220   6.501   7.769  0.0697 -0.6959  0.1403
25352SOL     OW78372   1.647   2.431   8.386 -0.0807  0.1201  0.2423
25352SOL    HW178373   1.649   2.369   8.459  0.4810  0.1036  0.2205
25352SOL    HW278374   1.721   2.490   8.404  1.6804 -1.3776 -1.6173
25353SOL     OW78375   3.870   8.280   5.995 -0.5387  0.0544  0.3658
25353SOL    HW178376   3.819   8.255   5.918  0.9895 -1.2403 -0.2999
25353SOL    HW278377   3.931   8.346   5.962  0.0647 -0.4455  0.4603
25354SOL     OW78378  10.041   0.312   9.344  0.1800  0.1701 -0.1436
25354SOL    HW178379  10.044   0.361   9.262 -0.0938  0.1978 -0.1394
25354SOL    HW278380   9.993   0.232   9.323  1.6465 -0.6489 -0.4265
25355SOL     OW78381   5.950   6.254   1.063  0.3026  0.2424 -0.2561
25355SOL    HW178382   5.863   6.223   1.037  1.0114 -2.1241 -0.0560
25355SOL    HW278383   5.975   6.316   0.994 -1.9470  1.8857  0.2824
25356SOL     OW78384   9.285   4.900   8.509  0.0112  0.4215  0.4449
25356SOL    HW178385   9.312   4.885   8.418  0.1075  2.3258  0.1210
25356SOL    HW278386   9.210   4.959   8.502 -0.7488 -0.3548  1.5860
25357SOL     OW78387   8.707   6.661   4.611 -0.0770 -0.4627 -0.2985
25357SOL    HW178388   8.678   6.590   4.554  1.0163 -1.8877  0.8339
25357SOL    HW278389   8.758   6.718   4.553 -0.0312 -1.2023 -1.0164
25358SOL     OW78390   4.049   4.558   9.565  0.1302  0.2316  0.2503
25358SOL    HW178391   3.962   4.592   9.586 -0.0266 -0.1705  0.2555
25358SOL    HW278392   4.059   4.571   9.471  0.1473  0.4568  0.2814
25359SOL     OW78393   6.297   9.896   9.765 -0.2565  0.1429  0.8295
25359SOL    HW178394   6.242   9.960   9.810 -0.4716  0.2905  0.3622
25359SOL    HW278395   6.269   9.900   9.673  1.3462  1.0914  0.3437
25360SOL     OW78396   1.813   2.434   8.005  0.6659  0.0762  0.0144
25360SOL    HW178397   1.723   2.461   8.024  0.4268 -0.9553  0.4548
25360SOL    HW278398   1.816   2.341   8.031  2.2372  0.4552  1.3744
25361SOL     OW78399  10.184   8.825   0.986 -0.0526 -0.0638 -0.4552
25361SOL    HW178400  10.197   8.904   0.932  0.6641 -0.1671 -0.4435
25361SOL    HW278401  10.247   8.834   1.057 -2.3289  1.0669  1.5570
25362SOL     OW78402   4.951   5.137   2.991  0.1797 -0.3639  0.4585
25362SOL    HW178403   4.970   5.229   3.005  2.0507 -0.7252  0.5498
25362SOL    HW278404   4.958   5.097   3.078  1.0200 -0.8295  0.1956
25363SOL     OW78405   6.099   6.598   1.548 -0.1322  0.1684  0.0601
25363SOL    HW178406   6.031   6.536   1.523 -2.0833  2.5194 -0.9018
25363SOL    HW278407   6.160   6.597   1.475  0.1379 -0.9378  0.2824
25364SOL     OW78408   3.969   2.723   8.237  0.0418 -0.7306  0.3651
25364SOL    HW178409   4.000   2.812   8.219 -0.9633 -0.4140  0.1568
25364SOL    HW278410   4.009   2.701   8.321 -1.2669  0.6911  1.4177
25365SOL     OW78411   0.453   1.935   6.006  0.3782  0.8979 -0.5554
25365SOL    HW178412   0.372   1.985   5.996 -0.0207  0.1663 -1.1408
25365SOL    HW278413   0.472   1.937   6.099 -2.6598 -2.4430  0.3583
25366SOL     OW78414   7.968   9.858   2.191 -0.4720 -0.1204  0.2051
25366SOL    HW178415   8.023   9.887   2.118  0.1629  1.0690  1.1076
25366SOL    HW278416   8.007   9.775   2.219  0.2919  0.2291  0.2123
25367SOL     OW78417   3.476  10.073   0.843  0.2858  0.2155 -0.0870
25367SOL    HW178418   3.473  10.164   0.815  0.0136 -0.5807 -3.0478
25367SOL    HW278419   3.420  10.027   0.780  2.5158 -2.3323 -0.3889
25368SOL     OW78420   6.842   2.632   3.756  0.1005  0.3409 -0.3609
25368SOL    HW178421   6.824   2.540   3.735  0.3728  0.5529 -1.5520
25368SOL    HW278422   6.906   2.628   3.827 -0.6622 -0.3874  0.3047
25369SOL     OW78423   7.302   1.376   0.580 -0.5808 -0.4068 -0.4813
25369SOL    HW178424   7.298   1.281   0.565  0.9804 -0.8795  1.5401
25369SOL    HW278425   7.390   1.400   0.550 -0.4150  0.1053  0.4068
25370SOL     OW78426   1.912   7.755   5.407  0.2776  0.1191  0.1385
25370SOL    HW178427   1.828   7.726   5.443  0.7442 -1.2377  0.1989
25370SOL    HW278428   1.975   7.742   5.479  0.6688  0.4072 -0.1480
25371SOL     OW78429   7.173   7.649   3.190  0.6218 -0.1292 -0.1041
25371SOL    HW178430   7.166   7.743   3.174  2.4316  0.1387  0.4107
25371SOL    HW278431   7.250   7.641   3.246  1.5839 -2.0735 -1.6245
25372SOL     OW78432   6.327   0.615   7.829 -0.2793 -0.2659  0.0580
25372SOL    HW178433   6.237   0.629   7.860 -0.1488  1.2655 -0.1528
25372SOL    HW278434   6.361   0.545   7.883 -1.8440 -1.3943 -0.3561
25373SOL     OW78435   6.075   2.965   7.466  0.0046  0.7289 -0.2791
25373SOL    HW178436   6.105   3.000   7.550 -2.0942 -0.5134  1.0992
25373SOL    HW278437   6.152   2.967   7.410  1.7143  0.8155  1.9349
25374SOL     OW78438   1.753   8.529   3.611  0.5856  0.0466  0.0260
25374SOL    HW178439   1.809   8.565   3.543 -0.5520  0.5943 -0.6607
25374SOL    HW278440   1.750   8.598   3.678 -1.8466  1.5323 -1.4292
25375SOL     OW78441  10.377   8.845   8.439 -0.4320 -0.1640  0.6584
25375SOL    HW178442  10.442   8.915   8.438  0.2567 -0.7205 -2.4059
25375SOL    HW278443  10.293   8.890   8.429 -0.0847  0.3099 -0.1840
25376SOL     OW78444   1.010   1.425   3.980 -0.0497  0.2189  0.4095
25376SOL    HW178445   1.019   1.520   3.975  0.2080  0.1113 -2.1405
25376SOL    HW278446   0.933   1.412   4.036 -0.4468  1.9409  0.3379
25377SOL     OW78447   3.103   9.546   1.440 -0.0911 -0.7544 -0.1501
25377SOL    HW178448   3.060   9.530   1.357 -0.4752  0.3609 -0.1909
25377SOL    HW278449   3.037   9.526   1.506 -0.1741 -0.5377 -0.1638
25378SOL     OW78450   3.602   4.094   0.802  0.4340  0.7123  0.0256
25378SOL    HW178451   3.586   4.041   0.879 -0.2677  0.9299  0.0392
25378SOL    HW278452   3.679   4.055   0.760 -0.5491 -0.8233 -0.4131
25379SOL     OW78453   6.292   4.541   3.672 -0.1301  0.6173  0.1383
25379SOL    HW178454   6.226   4.476   3.650  1.5455 -1.0554 -0.1673
25379SOL    HW278455   6.260   4.580   3.754 -1.3695 -0.2796  0.1131
25380SOL     OW78456   4.540   3.980   7.319 -0.8803  0.1843  0.0186
25380SOL    HW178457   4.619   4.001   7.368  0.2852 -2.5577 -0.4881
25380SOL    HW278458   4.535   4.048   7.251  1.1467  0.3250 -0.0398
25381SOL     OW78459   3.287   1.205   2.737 -0.2941 -0.1273 -0.0447
25381SOL    HW178460   3.230   1.188   2.662 -0.3499 -1.0671  0.2024
25381SOL    HW278461   3.343   1.128   2.742 -2.1303 -1.4078  2.5701
25382SOL     OW78462   0.865   2.351   3.754  0.4682 -0.3261  0.1575
25382SOL    HW178463   0.859   2.385   3.843  0.3612 -0.6508  0.2762
25382SOL    HW278464   0.883   2.257   3.765  3.4935  0.1298 -0.1525
25383SOL     OW78465   1.513   4.927   3.023 -0.3129 -0.1459 -0.3872
25383SOL    HW178466   1.504   4.955   2.932  0.5578 -2.3458 -1.2232
25383SOL    HW278467   1.593   4.969   3.053 -1.0827  1.3118 -0.3246
25384SOL     OW78468   0.886   9.948   8.641 -0.4966 -0.0675  0.2171
25384SOL    HW178469   0.870   9.917   8.552 -1.3544 -0.0837  0.3655
25384SOL    HW278470   0.801   9.981   8.670 -0.0619  0.5997  0.7743
25385SOL     OW78471   3.564   4.507   9.268  0.0870 -0.0918  0.0910
25385SOL    HW178472   3.484   4.512   9.216  1.1110  1.7537 -1.4335
25385SOL    HW278473   3.535   4.513   9.359 -1.5970 -1.1078 -0.3376
25386SOL     OW78474   5.470   7.260   6.396 -0.9783 -0.1175 -0.1202
25386SOL    HW178475   5.480   7.178   6.444 -2.9838 -0.1217  0.3757
25386SOL    HW278476   5.529   7.321   6.441 -0.6751 -0.8573  0.5165
25387SOL     OW78477   5.860   2.836   9.744  0.0711  0.2287 -0.0072
25387SOL    HW178478   5.814   2.808   9.664  1.3692 -1.7210 -0.1504
25387SOL    HW278479   5.790   2.862   9.804 -1.0626 -0.2187 -1.0864
25388SOL     OW78480   3.205   1.820   5.147  0.2053 -0.0693 -0.8346
25388SOL    HW178481   3.259   1.845   5.222  2.8759  0.3560 -2.7536
25388SOL    HW278482   3.238   1.735   5.120 -1.1598 -0.5214 -1.1677
25389SOL     OW78483   2.416   4.904   5.636 -0.3989  0.2509  1.0574
25389SOL    HW178484   2.505   4.884   5.666 -0.6036 -0.1377  1.4322
25389SOL    HW278485   2.403   4.847   5.561 -0.0039  0.9823  0.4244
25390SOL     OW78486   0.486   2.521   8.475  0.2902 -0.2176 -0.5306
25390SOL    HW178487   0.544   2.461   8.428 -0.1518 -1.4524  0.4495
25390SOL    HW278488   0.417   2.542   8.413 -0.1959 -1.6916 -0.5174
25391SOL     OW78489   5.124   0.218   4.710  0.3967 -0.8863 -0.1737
25391SOL    HW178490   5.046   0.251   4.667  0.7619 -1.4462 -1.3057
25391SOL    HW278491   5.091   0.153   4.773 -0.3236  1.5042  2.0910
25392SOL     OW78492   9.577   0.183   4.521  0.0874 -0.5737  0.6433
25392SOL    HW178493   9.652   0.137   4.483  0.6370  0.7310  0.0684
25392SOL    HW278494   9.611   0.222   4.601 -0.2942 -0.9293  0.9805
25393SOL     OW78495   7.005   0.729   5.924  0.1855  0.7373  0.7796
25393SOL    HW178496   6.933   0.726   5.987 -1.1296 -0.1796 -0.6893
25393SOL    HW278497   6.962   0.726   5.838  1.9297  1.4889 -0.1694
25394SOL     OW78498   4.633   8.981   1.125 -0.4198 -0.6380  0.0128
25394SOL    HW178499   4.630   8.939   1.039  0.8679 -0.6588 -0.0372
25394SOL    HW278500   4.726   8.997   1.141 -0.8086  1.6742  0.2844
25395SOL     OW78501   2.081  10.375   9.117  0.2713 -0.2673 -0.7095
25395SOL    HW178502   2.020  10.418   9.177 -0.0853 -0.9504 -0.5721
25395SOL    HW278503   2.027  10.347   9.043  0.2230 -1.7603 -0.1310
25396SOL     OW78504   3.916   5.381   4.605 -0.2672 -0.2162  0.2133
25396SOL    HW178505   3.884   5.337   4.683  0.6523 -0.3948  0.5055
25396SOL    HW278506   3.863   5.461   4.598  1.1856  1.0499  2.3941
25397SOL     OW78507   9.260   0.600   5.330 -0.0420 -0.0070  0.2141
25397SOL    HW178508   9.241   0.686   5.367  0.8601  1.2346 -2.0192
25397SOL    HW278509   9.355   0.591   5.337 -0.1051 -0.7343  0.2290
25398SOL     OW78510   2.746   3.895   4.852 -0.3993  0.6558 -0.3638
25398SOL    HW178511   2.814   3.827   4.852 -0.8460  0.0332  2.8324
25398SOL    HW278512   2.667   3.850   4.824 -0.2200  0.4414 -0.5249
25399SOL     OW78513   6.815   5.983   1.282  0.1280 -0.4012 -0.2131
25399SOL    HW178514   6.870   5.911   1.313 -0.3532 -1.2516 -1.2960
25399SOL    HW278515   6.738   5.941   1.244 -0.6977  0.7322  0.1353
25400SOL     OW78516   4.892   8.279   3.542  0.1423  0.0594  0.5040
25400SOL    HW178517   4.953   8.264   3.470 -2.2366 -0.9819 -1.4351
25400SOL    HW278518   4.947   8.309   3.614  2.8376 -0.2903 -1.2650
25401SOL     OW78519   6.285   0.329   9.502 -0.0703 -0.7734  0.0883
25401SOL    HW178520   6.249   0.398   9.446 -0.2776 -0.4309  0.6385
25401SOL    HW278521   6.334   0.376   9.569  2.1076 -1.2281 -1.0637
25402SOL     OW78522   8.343   1.354   5.984  0.2646  0.4017  0.1243
25402SOL    HW178523   8.316   1.445   5.969 -0.3093 -0.0093 -1.5828
25402SOL    HW278524   8.436   1.359   6.004  0.4040  1.3259 -0.6740
25403SOL     OW78525   1.237   4.730   9.235 -0.2688 -0.1969  0.8575
25403SOL    HW178526   1.237   4.653   9.178  0.4706  1.9280 -2.3119
25403SOL    HW278527   1.163   4.716   9.294  0.7488 -3.9616  1.5282
25404SOL     OW78528   7.435   1.699   8.454  0.7119  0.2352  0.4510
25404SOL    HW178529   7.420   1.730   8.365  1.5968 -2.1256 -0.5952
25404SOL    HW278530   7.350   1.706   8.497 -0.3837 -1.0121 -1.4142
25405SOL     OW78531   0.061   2.117   9.588 -0.6933 -0.1839  0.4462
25405SOL    HW178532   0.087   2.208   9.606  0.2141 -0.7134  2.0235
25405SOL    HW278533   0.025   2.086   9.671 -2.0749 -0.9438 -0.4005
25406SOL     OW78534   7.371   3.569   7.063  0.1250  0.2892  0.4041
25406SOL    HW178535   7.412   3.600   7.143 -0.2532  0.2014  0.6346
25406SOL    HW278536   7.441   3.524   7.015  0.7562  1.6977 -0.0583
25407SOL     OW78537   6.183   8.687   4.651  0.0554 -0.1603 -0.0014
25407SOL    HW178538   6.250   8.754   4.665 -0.7831  0.4156  1.5108
25407SOL    HW278539   6.145   8.708   4.566  1.3960 -0.1541 -0.6158
25408SOL     OW78540   5.890   5.888   1.337 -0.2352  0.1977 -0.4017
25408SOL    HW178541   5.916   5.900   1.246  0.3781  0.9996 -0.1359
25408SOL    HW278542   5.795   5.896   1.336 -0.1004  2.3858 -0.6987
25409SOL     OW78543   0.212   7.048   1.019 -0.2512  0.4025  0.0830
25409SOL    HW178544   0.147   7.019   1.083 -0.8425 -1.0217 -1.1071
25409SOL    HW278545   0.167   7.117   0.969 -0.3659  0.3646  0.1335
25410SOL     OW78546   4.450   4.230   5.583  0.3216 -0.4761  0.0329
25410SOL    HW178547   4.464   4.151   5.634  3.9699  0.5581  0.9173
25410SOL    HW278548   4.422   4.295   5.647  3.2597  0.3861  0.5849
25411SOL     OW78549   8.787   5.390   6.151  0.2103 -0.1178  0.2135
25411SOL    HW178550   8.773   5.407   6.057 -0.4623 -1.8372 -0.0426
25411SOL    HW278551   8.771   5.474   6.193 -1.7148  0.1998 -1.0133
25412SOL     OW78552   8.127   2.648   0.050 -0.4485 -0.2326  0.0823
25412SOL    HW178553   8.114   2.659   0.144  1.1492  0.4389  0.2448
25412SOL    HW278554   8.181   2.570   0.041  0.4617  0.4141 -0.1866
25413SOL     OW78555   2.483   5.337   0.963  0.4509 -0.1879  0.7936
25413SOL    HW178556   2.394   5.309   0.984  0.6107  0.5447  2.7061
25413SOL    HW278557   2.483   5.350   0.868 -0.9079 -2.0519  0.4832
25414SOL     OW78558   1.260   4.583   6.798 -0.3022  0.3022  0.3060
25414SOL    HW178559   1.167   4.589   6.820  0.3725  2.7525  3.1632
25414SOL    HW278560   1.286   4.673   6.779  1.1689 -0.5829 -2.4634
25415SOL     OW78561   4.708   5.553   9.556  0.1894 -0.0041 -0.1037
25415SOL    HW178562   4.675   5.484   9.498  0.0933 -1.0055  1.1009
25415SOL    HW278563   4.792   5.519   9.589 -0.7345 -0.4335  1.9602
25416SOL     OW78564   1.263   7.673   1.737  0.0767 -0.0465 -0.3374
25416SOL    HW178565   1.209   7.727   1.795 -0.0889 -0.4698 -0.0923
25416SOL    HW278566   1.342   7.724   1.724 -0.1715  0.3549 -0.2872
25417SOL     OW78567   0.863   5.061   2.319 -0.0668  0.3956  0.1273
25417SOL    HW178568   0.899   4.974   2.299 -0.4621 -0.1427  1.6069
25417SOL    HW278569   0.916   5.121   2.267  3.1483 -0.3476  2.2291
25418SOL     OW78570   3.554   2.260   8.895  0.0005  0.3172  0.1899
25418SOL    HW178571   3.547   2.165   8.885  1.7545  0.1687  0.0819
25418SOL    HW278572   3.471   2.286   8.935  0.6157 -1.6497  2.9787
25419SOL     OW78573   9.713   3.114   4.370  0.4896  0.3856  0.3462
25419SOL    HW178574   9.628   3.071   4.384  0.1597  1.6067  2.5429
25419SOL    HW278575   9.762   3.052   4.316 -2.0708  0.0383 -1.8630
25420SOL     OW78576  10.031   4.498  10.377 -0.1355  0.4462 -0.4643
25420SOL    HW178577  10.111   4.522  10.424  1.5205 -2.4160 -1.5657
25420SOL    HW278578  10.015   4.573  10.319  0.9880  1.6349  0.6610
25421SOL     OW78579   3.536   8.350   0.327 -0.0510  0.1710  0.0008
25421SOL    HW178580   3.563   8.355   0.236  1.9331 -1.6200  0.4103
25421SOL    HW278581   3.516   8.258   0.342  0.3015  0.3073  1.5392
25422SOL     OW78582   7.683   2.421   9.047 -0.3860  0.5920 -0.7981
25422SOL    HW178583   7.608   2.363   9.050  0.0697  0.0213  2.4899
25422SOL    HW278584   7.648   2.507   9.071  0.0471  0.1816  1.4743
25423SOL     OW78585   4.632   3.955   7.871 -0.2948 -0.6637 -0.7597
25423SOL    HW178586   4.676   3.928   7.790  0.4100 -0.9947 -0.2791
25423SOL    HW278587   4.695   3.934   7.940 -1.2544 -1.2487 -0.0360
25424SOL     OW78588  10.332   6.434   3.483 -0.0435  0.0043  0.2847
25424SOL    HW178589  10.247   6.420   3.441  0.5228 -0.5268 -0.7371
25424SOL    HW278590  10.370   6.508   3.435  0.7448 -0.8104 -0.3864
25425SOL     OW78591   4.368   5.779   9.341 -0.2513 -0.2878 -0.4757
25425SOL    HW178592   4.315   5.831   9.401  2.7396  0.3847  1.8888
25425SOL    HW278593   4.339   5.689   9.356 -1.3101  0.1244  0.0476
25426SOL     OW78594   6.337   4.432   3.143  0.6950  0.0199  0.2492
25426SOL    HW178595   6.272   4.389   3.088  0.1957 -0.0281  0.8746
25426SOL    HW278596   6.330   4.389   3.228 -1.5548  2.8891  1.6673
25427SOL     OW78597   1.927   2.344   2.015  0.3630 -0.7494 -0.4523
25427SOL    HW178598   1.899   2.285   1.945 -3.2370  0.3909 -0.1488
25427SOL    HW278599   1.887   2.428   1.993  0.0286 -0.0721  2.3990
25428SOL     OW78600   5.121   1.512   0.511  0.0099 -0.1277 -0.0720
25428SOL    HW178601   5.091   1.593   0.470  0.3181  0.2479  0.4179
25428SOL    HW278602   5.052   1.489   0.573 -0.0824 -0.2444 -0.2187
25429SOL     OW78603   2.488   8.247   3.266 -0.1825  0.0088 -0.5603
25429SOL    HW178604   2.571   8.199   3.274 -0.3887 -0.1616  0.7326
25429SOL    HW278605   2.514   8.336   3.240  0.3693 -0.2057 -0.7454
25430SOL     OW78606   8.956   2.926   8.580 -0.2831  0.0928  0.3029
25430SOL    HW178607   8.966   2.831   8.592  1.4238  0.2171  0.1529
25430SOL    HW278608   8.960   2.939   8.485  2.3546  0.5114  0.3901
25431SOL     OW78609   5.301   5.935   4.687  0.4247 -0.1740 -0.3004
25431SOL    HW178610   5.233   5.975   4.742  2.0622  1.1515  0.8512
25431SOL    HW278611   5.316   5.849   4.726 -0.8937 -0.6946 -0.8683
25432SOL     OW78612   1.025   3.019   5.686 -0.2228  0.2823 -0.0528
25432SOL    HW178613   1.054   3.038   5.775 -0.9034  0.3317  0.1580
25432SOL    HW278614   0.932   3.041   5.685 -0.4999 -0.8705 -0.4470
25433SOL     OW78615   5.194   2.775   0.218 -0.1171 -0.1582  0.0849
25433SOL    HW178616   5.262   2.833   0.183  1.1881 -1.2444  0.7190
25433SOL    HW278617   5.211   2.691   0.176 -1.3977 -0.3266 -0.1132
25434SOL     OW78618   7.119   0.698   0.457  0.3046 -0.5165  0.4045
25434SOL    HW178619   7.126   0.603   0.449  0.1010 -0.6156  1.3194
25434SOL    HW278620   7.103   0.713   0.550  2.2186  0.5153  0.6094
25435SOL     OW78621   9.069   7.397   2.367  0.3388  0.2132 -0.1860
25435SOL    HW178622   9.123   7.360   2.437 -0.6345  0.4952  0.7380
25435SOL    HW278623   8.979   7.380   2.394 -0.1497  2.7701  0.0151
25436SOL     OW78624  10.167   5.388   6.975 -0.3435 -0.3777 -0.0887
25436SOL    HW178625  10.115   5.401   7.055 -0.6761  0.8429 -0.4793
25436SOL    HW278626  10.258   5.398   7.004 -0.3318 -1.8473  0.4731
25437SOL     OW78627   1.500   7.124   1.565  0.5503 -0.0542  0.0338
25437SOL    HW178628   1.440   7.176   1.619  1.6721  0.8549  0.4580
25437SOL    HW278629   1.514   7.176   1.486 -0.2862 -0.9082 -0.6950
25438SOL     OW78630   1.821   1.700   5.279  0.2105  0.1800 -0.6546
25438SOL    HW178631   1.763   1.624   5.280  1.1539 -0.5702  1.0986
25438SOL    HW278632   1.880   1.684   5.205  0.3735 -0.7883 -0.3304
25439SOL     OW78633  10.549   3.271   6.517 -0.3062 -0.1616 -0.1294
25439SOL    HW178634  10.609   3.251   6.589  0.6070 -0.6791 -1.0058
25439SOL    HW278635  10.583   3.353   6.481 -0.1158 -0.4596 -0.6317
25440SOL     OW78636   5.036   3.212   3.057  0.4440 -0.0532  0.3518
25440SOL    HW178637   4.955   3.237   3.014  0.6765  0.7395  0.3645
25440SOL    HW278638   5.105   3.237   2.995  0.6880 -0.5880  0.4004
25441SOL     OW78639   6.365   1.118   2.198  0.0676 -0.5020 -0.8455
25441SOL    HW178640   6.431   1.127   2.129  1.9067  0.3833  0.9133
25441SOL    HW278641   6.411   1.075   2.270 -1.7198 -1.1823 -0.0451
25442SOL     OW78642   2.952  10.365   6.210 -0.0067  0.6801 -0.4272
25442SOL    HW178643   2.877  10.414   6.245  0.3681  1.8884 -1.2686
25442SOL    HW278644   3.027  10.398   6.260 -0.0589 -0.9209  0.8018
25443SOL     OW78645   9.910   3.522   2.895  0.7702 -0.0527  0.3782
25443SOL    HW178646   9.982   3.585   2.900 -1.7647  3.1757 -0.0984
25443SOL    HW278647   9.915   3.487   2.806 -0.0471  2.7153 -0.8801
25444SOL     OW78648   5.797   4.220   7.026  0.3664 -0.2991 -0.0827
25444SOL    HW178649   5.825   4.233   6.935  1.0515 -0.1748  0.1415
25444SOL    HW278650   5.812   4.127   7.042  0.4578 -0.2725 -0.0192
25445SOL     OW78651   5.481   4.874   5.822  0.4372 -0.5586  0.0792
25445SOL    HW178652   5.480   4.901   5.730 -1.7673 -1.5134 -0.2513
25445SOL    HW278653   5.483   4.779   5.819 -0.3781 -0.6238  0.9665
25446SOL     OW78654   7.175   1.456   7.636  0.5368  0.0454 -0.1161
25446SOL    HW178655   7.129   1.415   7.563  1.1064  0.8229 -0.9402
25446SOL    HW278656   7.150   1.548   7.632  0.2446  0.0252  0.9376
25447SOL     OW78657   3.703   0.655   5.240  0.3435  0.5175 -0.5413
25447SOL    HW178658   3.767   0.700   5.186 -0.7626  2.1251 -0.5668
25447SOL    HW278659   3.619   0.672   5.198 -0.2306 -0.7225  0.0398
25448SOL     OW78660   6.765   1.403   6.247  0.1190  0.1984  0.3159
25448SOL    HW178661   6.730   1.329   6.297  1.7262 -0.0427  1.1440
25448SOL    HW278662   6.778   1.472   6.312  0.9565  0.3486  0.0058
25449SOL     OW78663   1.634   7.336   4.454 -0.6338  0.0922  0.2792
25449SOL    HW178664   1.605   7.265   4.397  0.3811 -0.0813 -0.0480
25449SOL    HW278665   1.684   7.293   4.523 -1.4609  0.3455  1.0626
25450SOL     OW78666   1.228   1.220   5.523 -0.3404  1.1118 -0.3097
25450SOL    HW178667   1.259   1.248   5.609  1.3489  2.8564 -1.4044
25450SOL    HW278668   1.215   1.126   5.531  1.6318  0.9234  1.3366
25451SOL     OW78669   3.745   9.402   1.667 -0.1896 -0.0587  0.3473
25451SOL    HW178670   3.811   9.461   1.703 -0.9965 -0.1507  2.0777
25451SOL    HW278671   3.705   9.452   1.595  0.9941  0.4229  0.0105
25452SOL     OW78672   3.644   8.487   0.107 -0.0475 -0.0798 -0.3098
25452SOL    HW178673   3.658   8.491   0.012 -1.3559  0.1864 -0.5191
25452SOL    HW278674   3.702   8.555   0.143  0.1379  0.1108 -0.9584
25453SOL     OW78675   2.259   0.359   3.492 -0.5847 -0.0624  0.7024
25453SOL    HW178676   2.334   0.303   3.473 -1.2816 -1.4183  1.8264
25453SOL    HW278677   2.187   0.299   3.512 -1.9869  1.1943 -0.2948
25454SOL     OW78678  10.520   5.026   2.849 -0.2913 -0.5349  0.7691
25454SOL    HW178679  10.493   5.051   2.761 -1.1175  0.0232  1.1735
25454SOL    HW278680  10.443   4.981   2.886 -0.3611  0.2527  1.6082
25455SOL     OW78681   0.891   4.090   1.042  0.2494  0.7880  0.0531
25455SOL    HW178682   0.887   4.185   1.049  0.7233  0.9118 -1.0805
25455SOL    HW278683   0.882   4.072   0.948  0.5334 -0.2565  0.2054
25456SOL     OW78684   9.747   1.365   0.661  0.1134 -0.0413 -0.0890
25456SOL    HW178685   9.826   1.312   0.669 -0.3608 -0.6907  0.3530
25456SOL    HW278686   9.730   1.369   0.566  2.6276  3.0660 -0.5866
25457SOL     OW78687   6.709   4.895  10.180  0.4885 -0.2391 -0.3669
25457SOL    HW178688   6.744   4.820  10.131 -0.1092  0.1981 -1.4905
25457SOL    HW278689   6.676   4.954  10.113 -0.0964  0.5132  0.5647
25458SOL     OW78690   3.786   4.084   7.868 -0.1395 -0.3481  0.0787
25458SOL    HW178691   3.868   4.036   7.882  0.5384  0.6621 -0.3128
25458SOL    HW278692   3.737   4.030   7.807  0.5674 -0.5963 -0.2868
25459SOL     OW78693   5.300   2.645   6.837  0.0012 -0.2166  0.0341
25459SOL    HW178694   5.223   2.588   6.831 -0.1373  0.0754 -1.4036
25459SOL    HW278695   5.372   2.592   6.803  0.3624 -0.3341  0.9535
25460SOL     OW78696   1.051   4.859   8.805 -0.3573  0.2058 -0.0498
25460SOL    HW178697   1.106   4.897   8.873  0.5432  0.5099 -0.9209
25460SOL    HW278698   0.999   4.793   8.850  0.8610 -0.2207  0.7650
25461SOL     OW78699   4.485   1.692  10.220 -0.0787 -0.2586  0.0451
25461SOL    HW178700   4.430   1.749  10.166 -0.9449  0.0624  1.2028
25461SOL    HW278701   4.428   1.668  10.293  0.3166 -2.4931 -0.3173
25462SOL     OW78702   6.038   8.442   4.710 -0.3724 -0.9596  0.0275
25462SOL    HW178703   6.124   8.400   4.698 -0.4890 -1.2051  0.0587
25462SOL    HW278704   6.033   8.504   4.637  0.0824 -0.5266  0.3566
25463SOL     OW78705   5.249   1.485   4.308 -0.3855  0.1675  0.0249
25463SOL    HW178706   5.240   1.579   4.293 -2.3158  0.0257  0.0093
25463SOL    HW278707   5.243   1.446   4.221 -0.8007 -0.0324  0.1405
25464SOL     OW78708   4.510   8.280   1.618  0.2078  0.1880  0.1146
25464SOL    HW178709   4.562   8.322   1.687  0.0316 -1.0644  1.0626
25464SOL    HW278710   4.436   8.339   1.605  0.3445  0.5416  0.8650
25465SOL     OW78711   6.005   5.941   4.742  0.2931 -0.4647  0.0026
25465SOL    HW178712   6.055   5.861   4.755  1.2572 -0.2558 -2.0687
25465SOL    HW278713   6.021   5.966   4.651 -2.5831  0.3276 -0.4072
25466SOL     OW78714   8.636   3.225   9.904  0.3448  0.3247 -0.0128
25466SOL    HW178715   8.620   3.141   9.861  0.9265  0.6193 -0.8177
25466SOL    HW278716   8.570   3.229   9.973  0.1440 -0.6776 -0.1312
25467SOL     OW78717   4.159   3.355   6.236  0.8290  0.4810 -0.2928
25467SOL    HW178718   4.182   3.447   6.221 -1.2444  0.9820 -0.7432
25467SOL    HW278719   4.101   3.357   6.312 -0.8623 -0.1430 -1.4974
25468SOL     OW78720   9.871   5.571   1.645  0.1118 -0.4984 -0.7774
25468SOL    HW178721   9.880   5.613   1.730  1.9377  0.3796 -1.3518
25468SOL    HW278722   9.901   5.481   1.659  1.1028 -0.1538 -0.6327
25469SOL     OW78723   0.716   6.746   1.001 -0.0115 -0.1694  0.2873
25469SOL    HW178724   0.663   6.741   1.081  1.9828 -0.6310  1.6487
25469SOL    HW278725   0.735   6.840   0.992 -0.6401 -0.0573  0.0524
25470SOL     OW78726   3.722   5.856   6.832 -0.0206  0.5387 -0.6612
25470SOL    HW178727   3.694   5.938   6.792 -2.9347  0.2387  0.5024
25470SOL    HW278728   3.655   5.792   6.806  1.3294 -1.1249 -0.2874
25471SOL     OW78729   2.669   2.259   7.753 -0.6322 -0.1228 -0.7101
25471SOL    HW178730   2.697   2.175   7.718  0.1984 -0.0462 -0.2422
25471SOL    HW278731   2.675   2.320   7.679  0.6434 -0.0658 -0.5726
25472SOL     OW78732   2.673   8.877   6.301  0.0283  0.2678  0.3876
25472SOL    HW178733   2.678   8.892   6.395 -0.6946 -1.0389  0.6513
25472SOL    HW278734   2.754   8.916   6.266  0.7161  0.0014  1.6399
25473SOL     OW78735   6.849   3.104   8.114  0.1633 -0.1296  0.1982
25473SOL    HW178736   6.903   3.073   8.187  1.6115 -0.7184 -1.0902
25473SOL    HW278737   6.779   3.039   8.108  1.9334 -2.0415 -1.0564
25474SOL     OW78738   8.062   2.876   6.556  0.0011 -0.1699 -0.2113
25474SOL    HW178739   8.106   2.952   6.517 -0.4888  0.7894  1.0405
25474SOL    HW278740   8.132   2.811   6.567  0.8560  0.8459  0.5621
25475SOL     OW78741   6.699   0.529   6.897  0.3361 -0.6000 -0.2627
25475SOL    HW178742   6.659   0.477   6.827  0.2648 -2.9102  1.3694
25475SOL    HW278743   6.783   0.559   6.860 -0.3511 -0.4955 -1.8047
25476SOL     OW78744   6.579   3.642   7.468 -0.1032  0.0659  0.0711
25476SOL    HW178745   6.619   3.613   7.385 -0.6721 -1.6697  0.3664
25476SOL    HW278746   6.631   3.719   7.493  0.9656 -0.1911 -1.1915
25477SOL     OW78747   9.516   8.804   5.713  0.4152 -0.1734 -0.8623
25477SOL    HW178748   9.510   8.712   5.684 -0.6693 -0.0510 -1.0884
25477SOL    HW278749   9.484   8.802   5.803 -0.0784  0.0467 -1.0283
25478SOL     OW78750   7.766   3.256   2.363 -0.5038 -0.1819  0.5498
25478SOL    HW178751   7.823   3.189   2.326 -0.3156  0.0914  0.3467
25478SOL    HW278752   7.823   3.331   2.379 -0.7108 -0.0716  0.7900
25479SOL     OW78753   4.305   4.996   7.760 -0.2303  0.0060 -1.1955
25479SOL    HW178754   4.375   5.057   7.782  0.7831 -1.1902 -0.9944
25479SOL    HW278755   4.235   5.016   7.823  0.1214  0.8753 -1.0676
25480SOL     OW78756   2.913   5.061   3.385 -0.2388 -0.1177  1.0734
25480SOL    HW178757   2.904   5.105   3.469  0.4791  0.1962  0.9893
25480SOL    HW278758   2.978   4.993   3.400  0.1843  0.1926  0.6830
25481SOL     OW78759   7.449  10.190   7.460  0.3104 -0.2405 -0.3137
25481SOL    HW178760   7.404  10.142   7.390 -0.6973 -0.9982  0.7918
25481SOL    HW278761   7.378  10.227   7.513  0.9786 -0.9479  1.1431
25482SOL     OW78762   0.379   2.118   9.347  0.1952 -0.4728 -0.8041
25482SOL    HW178763   0.433   2.044   9.321 -1.5548 -1.5709 -1.5641
25482SOL    HW278764   0.375   2.174   9.269  1.0127  0.1292 -0.4289
25483SOL     OW78765   6.840  10.248   1.465  0.2775 -0.1333  0.2511
25483SOL    HW178766   6.827  10.233   1.559  1.6678  1.0826  0.6634
25483SOL    HW278767   6.931  10.224   1.449  0.4344  0.9218 -0.5140
25484SOL     OW78768   5.889   1.867   2.212  0.5198  0.3982  0.1381
25484SOL    HW178769   5.822   1.851   2.278 -0.1717 -1.1343 -0.8765
25484SOL    HW278770   5.859   1.944   2.165  0.2148  0.5648  0.5939
25485SOL     OW78771   5.162   1.412   7.863  0.1529  0.1244  0.1501
25485SOL    HW178772   5.074   1.414   7.826  0.3770  0.7197 -0.3797
25485SOL    HW278773   5.195   1.325   7.842 -0.5809 -0.3721  1.0209
25486SOL     OW78774   1.806   3.178   4.798  0.2867  0.1683  0.4896
25486SOL    HW178775   1.788   3.129   4.718 -0.4228 -1.1553  1.4293
25486SOL    HW278776   1.822   3.267   4.768 -0.6482 -0.1501 -1.0742
25487SOL     OW78777   2.450   5.258   5.890  0.4360 -0.2078  0.3474
25487SOL    HW178778   2.509   5.215   5.828  0.2175 -2.9612  1.8589
25487SOL    HW278779   2.375   5.286   5.838  1.4717  0.0784 -1.0330
25488SOL     OW78780   4.293   4.009   8.158  0.0344  0.1461  0.2922
25488SOL    HW178781   4.347   4.085   8.179  0.3864  0.0071 -0.0877
25488SOL    HW278782   4.341   3.935   8.195 -0.5516  0.1525  1.0902
25489SOL     OW78783   7.117   4.446   1.222  0.1112  0.3261  0.1475
25489SOL    HW178784   7.066   4.374   1.186 -0.5209  0.1520  1.3576
25489SOL    HW278785   7.108   4.516   1.156  1.3600 -0.8945 -1.4095
25490SOL     OW78786   3.343   1.175   7.961 -0.4408  0.0121 -0.5544
25490SOL    HW178787   3.362   1.132   7.878  3.5260  0.9778 -0.3700
25490SOL    HW278788   3.371   1.266   7.949  0.0487  0.2393  1.7130
25491SOL     OW78789   9.942   8.513   0.017  0.2917 -0.0197  0.2219
25491SOL    HW178790   9.874   8.516   0.084 -0.3608  0.3397 -0.4473
25491SOL    HW278791  10.001   8.444   0.047 -1.0259 -1.2032  0.2080
25492SOL     OW78792   0.255   3.382   1.075 -0.3074 -0.5343 -0.0962
25492SOL    HW178793   0.165   3.414   1.072 -0.6449 -1.5119 -1.1290
25492SOL    HW278794   0.298   3.436   1.141 -1.6435 -0.0378  0.3941
25493SOL     OW78795   9.730   9.384   1.770  0.2819 -0.0973 -0.6773
25493SOL    HW178796   9.643   9.398   1.807  1.0089  1.0121  0.7279
25493SOL    HW278797   9.751   9.293   1.793 -0.2184 -0.1480 -0.4026
25494SOL     OW78798   2.845   0.478   2.934  0.2233 -0.0842  1.1476
25494SOL    HW178799   2.893   0.533   2.996  0.0277  0.9036  0.4408
25494SOL    HW278800   2.777   0.535   2.899  0.3453 -0.6151  0.0003
25495SOL     OW78801   4.156   2.812   1.550 -0.9222 -0.4306 -0.0830
25495SOL    HW178802   4.215   2.882   1.523 -2.0974  0.1480 -1.2582
25495SOL    HW278803   4.130   2.836   1.639 -0.8082  0.2779 -0.2344
25496SOL     OW78804   8.024   2.878   9.169 -0.2944 -0.2560  0.0813
25496SOL    HW178805   8.034   2.784   9.187  2.2034 -1.1689 -4.4780
25496SOL    HW278806   7.950   2.883   9.109 -0.6195  0.7745  0.5451
25497SOL     OW78807   5.701   7.463   5.907 -0.2043  0.8506 -0.3987
25497SOL    HW178808   5.711   7.395   5.840  1.0423  1.5086 -0.9202
25497SOL    HW278809   5.612   7.452   5.939  0.4539 -2.1774  0.7755
25498SOL     OW78810   5.282   2.958   9.761  0.0765 -0.6109 -0.0129
25498SOL    HW178811   5.249   3.000   9.840  1.2219 -0.3757  0.3628
25498SOL    HW278812   5.275   3.026   9.693 -2.8842 -1.4592 -0.6792
25499SOL     OW78813  10.421   4.464   1.635 -0.6098 -1.0735  0.0228
25499SOL    HW178814  10.465   4.538   1.677 -1.4971 -0.5473  0.0428
25499SOL    HW278815  10.359   4.432   1.700 -2.3493  0.0591 -1.0096
25500SOL     OW78816   9.856   2.724   8.622 -0.1973 -0.5889 -0.1591
25500SOL    HW178817   9.769   2.740   8.658  0.2953 -0.9154  1.2219
25500SOL    HW278818   9.868   2.629   8.629  0.6855 -0.4326  0.6729
25501SOL     OW78819   0.424   7.206   5.113 -0.4958 -0.2919 -0.1241
25501SOL    HW178820   0.358   7.244   5.056 -0.6386  0.6551  0.6357
25501SOL    HW278821   0.500   7.265   5.104 -1.1191  0.9626  1.9731
25502SOL     OW78822   3.658   7.113   5.897 -0.2302 -0.0409  0.5171
25502SOL    HW178823   3.597   7.054   5.851  0.3012 -0.4921  0.3902
25502SOL    HW278824   3.610   7.196   5.903 -0.7635 -0.3188  0.1917
25503SOL     OW78825   2.015   7.495   5.336  0.1638 -0.3039 -0.1046
25503SOL    HW178826   2.038   7.586   5.354  0.0637 -0.7584  2.7793
25503SOL    HW278827   1.930   7.482   5.379  0.2530 -1.7822 -0.3112
25504SOL     OW78828   3.339   6.276   7.104 -0.0130  0.4807 -0.0734
25504SOL    HW178829   3.404   6.304   7.040  0.4924  1.4651  0.8359
25504SOL    HW278830   3.271   6.232   7.053  2.3747 -2.5867 -0.8712
25505SOL     OW78831   0.827   9.322   1.503 -0.2403 -0.5246  0.5402
25505SOL    HW178832   0.917   9.333   1.536 -0.6375 -0.9125  1.7934
25505SOL    HW278833   0.772   9.335   1.580 -1.2828 -0.0904 -0.2678
25506SOL     OW78834   2.847   1.057   8.719  0.2693  0.2013  0.2650
25506SOL    HW178835   2.939   1.073   8.741  0.9192 -1.9715 -0.5626
25506SOL    HW278836   2.835   1.100   8.634  0.7342 -0.0887  0.0480
25507SOL     OW78837   5.467   5.303   4.573 -0.5193 -0.7169  0.0260
25507SOL    HW178838   5.424   5.273   4.652  1.3285  0.4578  1.5784
25507SOL    HW278839   5.491   5.394   4.592 -3.8203  1.1638 -3.5463
25508SOL     OW78840  10.325   0.343   0.317 -0.0512  0.1744 -0.8706
25508SOL    HW178841  10.407   0.391   0.303  0.3262 -0.5064 -1.0410
25508SOL    HW278842  10.341   0.289   0.393 -0.5270  0.4179 -0.5922
25509SOL     OW78843   4.061   3.366  10.505 -0.5308 -0.2364  0.3378
25509SOL    HW178844   4.119   3.400  10.573 -1.4175 -1.7540  1.9268
25509SOL    HW278845   3.983   3.422  10.510 -1.0136 -0.9747  1.3026
25510SOL     OW78846   0.804   1.440   7.556  0.0486  0.0170  0.0314
25510SOL    HW178847   0.758   1.427   7.473  0.5377 -0.2964 -0.1955
25510SOL    HW278848   0.740   1.417   7.623  0.3562 -2.0352 -0.3137
25511SOL     OW78849   3.294   2.429   0.440 -0.1313  0.4748 -0.1198
25511SOL    HW178850   3.354   2.487   0.392  0.2103 -0.3024 -0.6388
25511SOL    HW278851   3.215   2.427   0.386  0.6924 -1.3914 -1.3538
25512SOL     OW78852   3.578   7.224   3.162 -0.3284  0.5150 -0.4207
25512SOL    HW178853   3.622   7.144   3.134 -0.2404  1.4583 -3.3081
25512SOL    HW278854   3.492   7.195   3.192  0.4720 -0.8301  0.7101
25513SOL     OW78855   3.949   5.320   2.542 -0.1292  0.2936 -0.1766
25513SOL    HW178856   3.989   5.397   2.582  0.2694 -0.3328  0.6754
25513SOL    HW278857   3.881   5.293   2.605  0.0616 -0.3265 -0.2322
25514SOL     OW78858   3.750   0.265   2.255  0.0051 -0.5024  0.2430
25514SOL    HW178859   3.668   0.256   2.303 -0.3131  1.5293  0.1457
25514SOL    HW278860   3.810   0.307   2.318  0.2253  0.2290 -0.4394
25515SOL     OW78861   7.498   7.844   9.509 -0.4796 -0.3213  0.7098
25515SOL    HW178862   7.542   7.776   9.560 -1.1004 -0.4268  1.1195
25515SOL    HW278863   7.434   7.882   9.569  0.3641  1.1580  0.7342
25516SOL     OW78864  10.058   8.054   1.987 -0.6402 -0.7544 -0.2851
25516SOL    HW178865  10.022   8.064   2.076  0.8520 -0.0076  0.2781
25516SOL    HW278866  10.006   7.984   1.948 -2.4189  0.0001  0.5951
25517SOL     OW78867   7.137   2.255   7.861 -0.0134 -0.6093 -0.4300
25517SOL    HW178868   7.166   2.228   7.774  1.1007  0.2719 -0.3647
25517SOL    HW278869   7.218   2.260   7.912 -0.4333  0.6841  0.1378
25518SOL     OW78870   6.990   3.453   9.920  0.3343  0.3483  0.0831
25518SOL    HW178871   7.013   3.388   9.854  0.4330  0.4099  0.0569
25518SOL    HW278872   7.073   3.477   9.961  0.6477  2.0894 -1.4173
25519SOL     OW78873   8.556   1.588   3.310  0.0471 -0.3572  0.6048
25519SOL    HW178874   8.472   1.546   3.326 -1.2126  1.3831 -0.9161
25519SOL    HW278875   8.613   1.558   3.381 -1.8284 -1.6275  1.6437
25520SOL     OW78876   7.965   5.401   0.604  0.1855  0.2843 -0.4025
25520SOL    HW178877   8.044   5.347   0.610 -0.6523 -1.1753 -1.6912
25520SOL    HW278878   7.897   5.350   0.649 -0.2541  1.0422 -0.1903
25521SOL     OW78879   4.191   8.382   0.646 -0.1488 -0.0734  0.7681
25521SOL    HW178880   4.162   8.328   0.720 -0.9467 -0.5129  0.1533
25521SOL    HW278881   4.181   8.472   0.676  0.5829 -0.2532  1.5815
25522SOL     OW78882   5.619   1.482   7.472 -0.3978  0.3294  0.0069
25522SOL    HW178883   5.695   1.478   7.531 -0.7762  2.1321  0.6938
25522SOL    HW278884   5.644   1.430   7.397 -0.0806 -2.5516  1.9479
25523SOL     OW78885   9.261   6.992   3.060 -0.0370  0.4944 -0.0803
25523SOL    HW178886   9.352   7.020   3.051 -0.3579  1.2987 -0.9039
25523SOL    HW278887   9.267   6.905   3.100  1.1337  0.1049 -1.0577
25524SOL     OW78888   0.073   0.033   3.534  0.0424  0.4892  0.2478
25524SOL    HW178889   0.136   0.050   3.605  1.0266  0.7072 -0.6486
25524SOL    HW278890   0.074  -0.062   3.524  2.0284  0.6090 -1.2928
25525SOL     OW78891   8.206   1.598   2.341 -0.0806 -0.0051  0.0487
25525SOL    HW178892   8.201   1.557   2.254  1.6324 -0.4637  0.1334
25525SOL    HW278893   8.286   1.563   2.379  2.4660  4.5435 -0.4604
25526SOL     OW78894  10.019   4.201   3.719 -1.0417 -0.2762  0.1784
25526SOL    HW178895  10.103   4.233   3.752 -1.4412  1.6312 -0.5454
25526SOL    HW278896   9.958   4.274   3.731 -2.2476 -1.0931 -0.6561
25527SOL     OW78897   4.544   5.543   8.831  0.1097 -0.4924 -0.5387
25527SOL    HW178898   4.531   5.524   8.924 -1.1406 -1.2573 -0.8469
25527SOL    HW278899   4.458   5.569   8.799  1.0414  2.4573 -0.9303
25528SOL     OW78900  10.465   3.647   9.746  0.8030 -0.2295  0.1880
25528SOL    HW178901  10.426   3.734   9.730 -0.3178 -0.7245  0.1109
25528SOL    HW278902  10.488   3.648   9.839 -1.2390 -0.5888  0.7505
25529SOL     OW78903   8.523   2.662  10.441  0.5793 -0.1380 -0.1184
25529SOL    HW178904   8.578   2.667  10.363  0.1875  2.1635 -0.3270
25529SOL    HW278905   8.563   2.725  10.501 -0.2459 -0.4743  0.7962
25530SOL     OW78906   3.071   8.257  10.256 -0.1083 -0.1626  1.0268
25530SOL    HW178907   3.065   8.289  10.166 -0.2389  0.1011  1.1274
25530SOL    HW278908   3.008   8.185  10.260  0.8051 -1.0183  0.5607
25531SOL     OW78909   8.955   3.192   8.400 -0.2992  0.3223  0.4227
25531SOL    HW178910   9.025   3.196   8.465 -0.2516 -1.0855  0.4955
25531SOL    HW278911   8.974   3.113   8.350 -1.6215  0.1200  0.2063
25532SOL     OW78912   0.886   0.841   5.374  0.7452  0.3374  0.1097
25532SOL    HW178913   0.793   0.827   5.359  0.1955  2.2210  1.3619
25532SOL    HW278914   0.896   0.833   5.469  1.5107  1.8244  0.1845
25533SOL     OW78915   9.281   3.580   8.283 -0.1690 -0.4559  0.8121
25533SOL    HW178916   9.320   3.590   8.196 -1.6806 -1.7258 -0.0670
25533SOL    HW278917   9.353   3.599   8.344  1.2888 -0.8071 -0.7192
25534SOL     OW78918   3.208   2.956   4.394  0.1720  0.8951  0.0843
25534SOL    HW178919   3.174   2.930   4.308 -1.2647  0.5923  0.7120
25534SOL    HW278920   3.177   3.046   4.405  2.2908  1.7743 -0.6505
25535SOL     OW78921   0.102   7.929   8.780 -0.1926 -0.4775 -0.5756
25535SOL    HW178922   0.095   7.842   8.741 -2.7856 -0.7130  0.2045
25535SOL    HW278923   0.119   7.912   8.873  1.9114 -0.0226 -0.8259
25536SOL     OW78924   1.438   2.607   9.651  0.1064 -0.2010  0.1966
25536SOL    HW178925   1.361   2.656   9.679 -1.1818 -2.0372  0.0271
25536SOL    HW278926   1.505   2.630   9.715 -0.3354  1.9375 -0.0248
25537SOL     OW78927   6.172   8.924   5.980 -0.4811 -0.0878 -0.5376
25537SOL    HW178928   6.138   8.967   6.058  0.3975  0.5017 -0.4568
25537SOL    HW278929   6.132   8.837   5.981 -1.7488  0.4773 -0.3248
25538SOL     OW78930   5.975   2.202   0.663  0.1541 -0.7097 -0.2673
25538SOL    HW178931   5.881   2.199   0.684 -0.1324 -0.2748 -1.4311
25538SOL    HW278932   5.985   2.141   0.591  0.6246 -0.1495 -0.6818
25539SOL     OW78933   6.415   1.134   5.062 -0.0914 -0.2923  0.2570
25539SOL    HW178934   6.481   1.204   5.055  0.6816 -1.0453 -0.1331
25539SOL    HW278935   6.442   1.084   5.139 -0.1379 -0.6708  0.0272
25540SOL     OW78936   2.695   6.228   0.028  0.0381  0.0945 -0.4458
25540SOL    HW178937   2.615   6.246  -0.022 -0.1148  0.2730 -0.1376
25540SOL    HW278938   2.673   6.152   0.081  0.5439 -0.7487 -1.4261
25541SOL     OW78939   8.757   7.208   8.090 -0.7720 -0.4394 -0.0778
25541SOL    HW178940   8.666   7.232   8.073 -1.3422 -0.4824  2.4736
25541SOL    HW278941   8.807   7.259   8.027 -2.2657  3.5675  1.6063
25542SOL     OW78942   1.528   8.707   6.843  0.0763  0.3582 -0.4423
25542SOL    HW178943   1.474   8.638   6.880  0.8717 -1.3815 -2.3277
25542SOL    HW278944   1.604   8.711   6.901 -0.0980 -0.1726 -0.1664
25543SOL     OW78945  10.148   1.243   0.397 -0.8589  0.4125  0.1427
25543SOL    HW178946  10.091   1.318   0.385  0.8104  1.5871 -1.0258
25543SOL    HW278947  10.113   1.176   0.338 -1.2127  1.0077 -0.3357
25544SOL     OW78948   3.555   0.374   3.594  0.4805 -0.0131 -0.4023
25544SOL    HW178949   3.516   0.375   3.682  0.5186 -1.1556 -0.3572
25544SOL    HW278950   3.605   0.456   3.590 -0.1380  0.4233  0.3512
25545SOL     OW78951   1.421   5.683   6.835  0.3873  0.0518 -0.6947
25545SOL    HW178952   1.446   5.590   6.838  0.7556  0.1667 -0.0079
25545SOL    HW278953   1.414   5.703   6.741  3.9538  0.2849 -1.0470
25546SOL     OW78954   1.749   6.751  10.194  0.0379  0.8015  0.8078
25546SOL    HW178955   1.815   6.819  10.199 -0.1140  1.1488 -1.0157
25546SOL    HW278956   1.728   6.745  10.100 -1.4210 -0.3328  1.1614
25547SOL     OW78957   8.896   7.836   2.698  0.2874 -0.2235  0.6075
25547SOL    HW178958   8.879   7.927   2.721 -1.5358 -0.5473  0.7013
25547SOL    HW278959   8.851   7.823   2.615 -0.5090 -1.3284  1.1815
25548SOL     OW78960   5.900   5.592   6.585 -0.5074  0.4149  0.6307
25548SOL    HW178961   5.891   5.550   6.499  2.1540 -1.5805  1.1866
25548SOL    HW278962   5.945   5.675   6.566  3.0027 -1.3892  0.1641
25549SOL     OW78963   1.078   6.471   7.972 -0.3963 -0.3296 -0.0102
25549SOL    HW178964   1.125   6.433   7.897  2.5638  1.1288  0.9314
25549SOL    HW278965   1.002   6.415   7.984 -0.6194 -1.0247 -3.6505
25550SOL     OW78966   0.785   4.426   6.445  0.5049  0.4494 -0.6147
25550SOL    HW178967   0.755   4.454   6.359 -0.2517  0.9554 -0.2062
25550SOL    HW278968   0.717   4.364   6.475  0.7723  0.2580 -0.3972
25551SOL     OW78969   2.948   8.511   7.576 -0.3238  1.0106  0.1945
25551SOL    HW178970   2.897   8.576   7.624  0.0311  0.4236  1.3963
25551SOL    HW278971   3.036   8.519   7.612 -0.3846 -0.4559  0.7107
25552SOL     OW78972   9.958   5.404   8.899  0.3998 -0.3735  0.2214
25552SOL    HW178973   9.923   5.398   8.988 -2.0008  3.3197 -0.2263
25552SOL    HW278974   9.885   5.380   8.842  0.8550  0.4722 -0.7654
25553SOL     OW78975   0.664   6.893   7.730  0.7903  0.2649  0.1150
25553SOL    HW178976   0.642   6.985   7.738  3.8282  1.1534 -0.3998
25553SOL    HW278977   0.588   6.846   7.764 -1.9975  2.8289 -2.0557
25554SOL     OW78978   3.279  10.381   0.041  0.2409  0.2125 -0.1714
25554SOL    HW178979   3.235  10.340   0.116 -0.1419 -0.6678 -0.8590
25554SOL    HW278980   3.321  10.308  -0.005  0.7569  0.7867 -0.6313
25555SOL     OW78981   8.176   6.316   2.081  0.3369  0.2765  0.3476
25555SOL    HW178982   8.264   6.349   2.068 -0.3538  2.2255  0.2048
25555SOL    HW278983   8.145   6.294   1.993  0.5059  0.0516  0.3434
25556SOL     OW78984   9.957   5.686   7.325  0.0630 -0.5762 -0.2907
25556SOL    HW178985   9.909   5.610   7.292  0.9667 -1.8076  1.1220
25556SOL    HW278986   9.907   5.714   7.402  0.4138 -0.5291 -0.0780
25557SOL     OW78987   1.179   7.464   9.350 -0.2346  0.2021 -0.0113
25557SOL    HW178988   1.266   7.425   9.364 -1.0530 -1.1016  1.7770
25557SOL    HW278989   1.158   7.442   9.259  0.8319 -0.4277 -0.1332
25558SOL     OW78990   0.399   1.595  10.478  0.4733 -0.7561 -0.0378
25558SOL    HW178991   0.398   1.590  10.383 -1.4646  0.0996 -0.0999
25558SOL    HW278992   0.471   1.654  10.499 -0.2601  0.5261 -1.0729
25559SOL     OW78993   7.761   0.359   5.177  0.2778 -0.2854  0.0910
25559SOL    HW178994   7.796   0.286   5.125  1.2364  0.3426 -0.1755
25559SOL    HW278995   7.670   0.336   5.192  0.5364 -1.5073 -0.0575
25560SOL     OW78996  10.100   4.253   2.971 -0.1933  0.7725  0.3139
25560SOL    HW178997  10.153   4.280   2.896 -1.3868  1.9724 -0.1438
25560SOL    HW278998  10.044   4.329   2.990 -2.0649 -0.5705  0.4805
25561SOL     OW78999   9.450   4.626   6.064  0.1039  0.2005  0.5454
25561SOL    HW179000   9.508   4.626   6.139 -2.1779 -1.5176  2.4888
25561SOL    HW279001   9.374   4.677   6.092 -0.0383  1.1121 -1.3251
25562SOL     OW79002   6.649   7.456  10.488 -0.3944  0.2393 -0.1313
25562SOL    HW179003   6.630   7.513  10.413 -0.1362 -1.2504 -1.3885
25562SOL    HW279004   6.721   7.499  10.533 -1.2639  1.7190 -0.0951
25563SOL     OW79005   5.346   6.411   1.151 -0.4070 -0.0116 -0.2011
25563SOL    HW179006   5.315   6.383   1.064  0.4074 -1.1877 -0.1396
25563SOL    HW279007   5.331   6.335   1.207 -1.3778  0.9011  0.8403
25564SOL     OW79008   2.560   1.627   4.892 -0.0496 -0.3534 -0.1309
25564SOL    HW179009   2.475   1.658   4.923 -1.0897 -3.8794  1.0215
25564SOL    HW279010   2.622   1.652   4.961 -0.6957 -0.2881  0.4319
25565SOL     OW79011  10.492   2.928   1.256  0.1806 -0.5298  0.4071
25565SOL    HW179012  10.413   2.885   1.290  0.7751 -0.8517  1.4317
25565SOL    HW279013  10.562   2.900   1.316  0.9101  0.4518  0.0381
25566SOL     OW79014   9.503   5.723   9.875  0.0397 -0.4776 -0.1193
25566SOL    HW179015   9.551   5.771   9.808  1.7538  1.2297  2.1916
25566SOL    HW279016   9.415   5.711   9.838  0.2874  2.2322 -1.8327
25567SOL     OW79017   4.474   0.634   4.447 -0.4051  0.1547  0.0528
25567SOL    HW179018   4.496   0.627   4.354 -1.4020 -0.7011 -0.1438
25567SOL    HW279019   4.556   0.659   4.490 -0.3407  2.4603 -1.2547
25568SOL     OW79020   0.568   7.818   9.438  0.5024  0.0669 -0.2064
25568SOL    HW179021   0.524   7.863   9.509 -0.4365 -0.5340 -0.3883
25568SOL    HW279022   0.507   7.749   9.411  0.9384  0.1305 -1.4317
25569SOL     OW79023   9.899   3.631   8.979 -0.2853 -0.4574  0.1045
25569SOL    HW179024   9.912   3.613   9.072  0.5504  0.9651  0.2884
25569SOL    HW279025   9.988   3.632   8.942 -0.6956 -3.2054 -1.1880
25570SOL     OW79026   7.580   1.019   9.276 -0.8751 -0.0784  0.1865
25570SOL    HW179027   7.630   1.083   9.328  0.3790 -1.4687  0.7758
25570SOL    HW279028   7.497   1.009   9.323 -0.9721  0.8918  0.2424
25571SOL     OW79029  10.455   8.031   8.403  0.1689 -0.4893  0.4697
25571SOL    HW179030  10.429   7.992   8.320  0.8298  0.9601 -0.4556
25571SOL    HW279031  10.471   7.956   8.461 -0.8018 -1.5026 -0.5423
25572SOL     OW79032   7.990   1.902   3.921  0.3133 -0.6104 -0.3991
25572SOL    HW179033   7.949   1.870   3.841  0.7219 -1.0749 -0.4315
25572SOL    HW279034   8.048   1.830   3.948  0.7573 -0.1530 -0.1139
25573SOL     OW79035   2.136   8.069   1.690  0.1559  0.0788  0.0073
25573SOL    HW179036   2.120   8.002   1.624 -0.5136  1.0350 -0.8326
25573SOL    HW279037   2.221   8.106   1.667  0.4442 -0.3406  0.3681
25574SOL     OW79038   0.212   0.555   4.104  0.2990 -0.5152  0.4034
25574SOL    HW179039   0.136   0.537   4.160 -0.9774  1.8384 -0.4226
25574SOL    HW279040   0.206   0.649   4.086  2.9221 -0.4412 -0.4537
25575SOL     OW79041   1.500   4.190   6.014  0.1941 -0.3283 -0.8046
25575SOL    HW179042   1.500   4.166   6.106 -1.2597 -1.2238 -0.9996
25575SOL    HW279043   1.538   4.114   5.970 -0.9494 -0.7557 -1.0942
25576SOL     OW79044   8.202   7.141   0.457  0.1490 -0.7107  0.0131
25576SOL    HW179045   8.223   7.100   0.373 -0.1423  1.3360 -1.1063
25576SOL    HW279046   8.106   7.145   0.458  0.1701 -0.1750  0.1557
25577SOL     OW79047   9.090   2.699   0.697 -0.2846  0.3769 -0.4819
25577SOL    HW179048   9.089   2.771   0.634 -0.3108  0.0573 -0.8499
25577SOL    HW279049   9.098   2.742   0.782 -1.0218  0.8495 -0.6440
25578SOL     OW79050   0.158   7.355   2.277 -0.0339 -0.1406 -0.4420
25578SOL    HW179051   0.212   7.429   2.252 -0.3696  1.8185  3.8223
25578SOL    HW279052   0.220   7.283   2.291  0.5751  0.0197 -2.0847
25579SOL     OW79053   7.709   6.836   4.262 -0.4976 -0.3053 -0.5389
25579SOL    HW179054   7.682   6.902   4.198 -0.2952 -1.5106 -1.9113
25579SOL    HW279055   7.687   6.753   4.222  0.3002 -1.1292  0.6625
25580SOL     OW79056   4.491   0.187   3.589 -0.2432  0.5718 -0.0919
25580SOL    HW179057   4.451   0.171   3.503 -0.2331 -0.6110  0.1186
25580SOL    HW279058   4.521   0.102   3.618 -1.2451  0.7611  1.6008
25581SOL     OW79059   3.611   4.710   4.204 -0.2868  0.0746  1.1032
25581SOL    HW179060   3.598   4.805   4.208 -0.1253  0.2018 -0.7597
25581SOL    HW279061   3.547   4.675   4.267 -1.2047  1.3458  0.9296
25582SOL     OW79062   6.351   2.640   2.134  0.0065 -0.2181  0.3069
25582SOL    HW179063   6.422   2.654   2.196  0.9877 -0.6779 -0.6669
25582SOL    HW279064   6.395   2.637   2.048 -1.4472  1.8210 -0.5775
25583SOL     OW79065   8.268   1.932   7.216 -0.0859 -0.3122  0.1412
25583SOL    HW179066   8.217   1.950   7.295  0.4404  0.6219  0.2760
25583SOL    HW279067   8.296   2.018   7.185  0.6485 -0.7499 -0.4468
25584SOL     OW79068   5.821   5.353   1.660  0.0683  0.5038 -0.5826
25584SOL    HW179069   5.790   5.378   1.747  0.3217 -0.0916 -0.3154
25584SOL    HW279070   5.857   5.433   1.623 -2.5705  1.4633 -1.2613
25585SOL     OW79071   8.252   4.320   4.920 -0.1246  0.4287 -0.4274
25585SOL    HW179072   8.290   4.402   4.889  1.5575 -0.6962 -1.5070
25585SOL    HW279073   8.262   4.323   5.015  0.3747  1.2512 -0.5023
25586SOL     OW79074   0.848  10.226   6.659 -0.0934 -0.2343  0.2646
25586SOL    HW179075   0.852  10.209   6.565 -0.8137  0.5215  0.0883
25586SOL    HW279076   0.757  10.250   6.676  0.4695  1.7771  0.7508
25587SOL     OW79077   3.969   4.570   0.989 -0.2343 -0.0805 -0.2157
25587SOL    HW179078   3.917   4.608   0.919 -0.5258  0.5625  0.3481
25587SOL    HW279079   4.024   4.504   0.945 -0.4264  0.3008 -1.0377
25588SOL     OW79080   8.858   7.391   3.731 -0.0514  0.0513 -0.0740
25588SOL    HW179081   8.911   7.424   3.804  1.4450 -0.5925 -0.8296
25588SOL    HW279082   8.921   7.374   3.661 -0.9709 -2.6198 -0.3686
25589SOL     OW79083   5.676   0.286   6.724 -0.1993  0.5054 -0.3292
25589SOL    HW179084   5.581   0.287   6.712 -0.1568  1.7426 -0.6913
25589SOL    HW279085   5.703   0.377   6.711  1.0137  0.2081 -0.0174
25590SOL     OW79086   7.498   0.271   1.892 -0.2101 -0.4425 -0.1584
25590SOL    HW179087   7.479   0.351   1.844  1.5865  0.6671  0.8632
25590SOL    HW279088   7.579   0.238   1.852  0.2384 -0.5526  0.8201
25591SOL     OW79089   7.578   3.892   6.646 -0.1156 -0.1585 -0.4657
25591SOL    HW179090   7.489   3.924   6.661  0.4002  0.9288  0.4544
25591SOL    HW279091   7.609   3.942   6.570 -0.1039 -0.1105 -0.4302
25592SOL     OW79092   3.554   7.700   4.473  0.1583 -0.3244 -0.5536
25592SOL    HW179093   3.514   7.784   4.494 -0.6819 -0.3712 -1.8384
25592SOL    HW279094   3.601   7.674   4.553  0.6863  1.4903 -0.2386
25593SOL     OW79095   1.603  10.107   4.987 -0.5124 -0.3564  0.1870
25593SOL    HW179096   1.629  10.121   4.896  2.6088 -0.6449  0.9333
25593SOL    HW279097   1.547  10.029   4.984 -0.2599 -0.5021 -1.4547
25594SOL     OW79098   4.599  10.512   8.748 -0.1010 -0.1312  0.2684
25594SOL    HW179099   4.526  10.568   8.772  0.7348  0.4422  1.6077
25594SOL    HW279100   4.598  10.510   8.653 -1.0182  0.9917  0.2378
25595SOL     OW79101   7.139   9.345   5.635 -0.2312 -0.4280  0.2913
25595SOL    HW179102   7.170   9.353   5.725  0.3522  0.5668  0.0243
25595SOL    HW279103   7.135   9.435   5.603  0.1400 -0.8047 -0.8634
25596SOL     OW79104   8.260   9.069   9.719 -0.2775 -0.3590 -0.4646
25596SOL    HW179105   8.303   8.984   9.717 -0.9136 -0.6975  0.1624
25596SOL    HW279106   8.216   9.076   9.634 -0.2071 -0.6407 -0.5237
25597SOL     OW79107   1.491   8.437   0.641 -0.8189  0.0172  0.1578
25597SOL    HW179108   1.566   8.427   0.583 -0.1529 -4.0098  1.4029
25597SOL    HW279109   1.519   8.501   0.706  0.7116  0.1142 -0.5606
25598SOL     OW79110   8.212   4.012   9.257 -0.0058  0.7166  0.0879
25598SOL    HW179111   8.223   4.077   9.187  0.1256 -0.4772 -1.0586
25598SOL    HW279112   8.297   3.967   9.261 -0.9049 -1.2804 -1.2022
25599SOL     OW79113   1.973   4.473   4.511  0.1721  0.1284  0.0463
25599SOL    HW179114   2.061   4.466   4.475 -0.1631  0.9039 -1.0047
25599SOL    HW279115   1.955   4.567   4.510 -0.8771 -0.0603 -0.3303
25600SOL     OW79116   3.086   7.399   8.668 -0.3388 -0.5658  0.3573
25600SOL    HW179117   3.089   7.303   8.666  0.1496 -0.5430 -0.5629
25600SOL    HW279118   3.137   7.426   8.592 -0.1714  0.4388  0.8129
25601SOL     OW79119   4.426   8.948   5.292  0.4649  0.2243 -0.4527
25601SOL    HW179120   4.496   9.007   5.265  0.1326  1.5906  1.5119
25601SOL    HW279121   4.347   8.986   5.255  0.1887  1.3418  1.1916
25602SOL     OW79122   0.215   4.372   0.452  0.0502  0.2647  0.4872
25602SOL    HW179123   0.214   4.416   0.367 -0.6685 -0.2222  0.2380
25602SOL    HW279124   0.125   4.381   0.485 -0.2460 -1.4151  0.2222
25603SOL     OW79125   6.594   0.930   9.797  0.1483  0.0180  0.2293
25603SOL    HW179126   6.536   0.913   9.722  0.8670 -0.6961 -0.1777
25603SOL    HW279127   6.602   0.845   9.840  0.5273  0.2183  0.5576
25604SOL     OW79128   2.031   2.587  10.490 -0.6582 -0.4767  0.3616
25604SOL    HW179129   2.114   2.544  10.512  0.8155  2.0532  0.1241
25604SOL    HW279130   2.024   2.579  10.395 -0.2899 -0.0807  0.2962
25605SOL     OW79131   7.555   0.335   0.214 -0.2394  0.1291  0.1422
25605SOL    HW179132   7.562   0.325   0.309 -1.3059  1.6990  0.4215
25605SOL    HW279133   7.509   0.418   0.202  3.5773  2.2719 -1.7789
25606SOL     OW79134   5.121   9.086   8.340  0.0278 -0.1044  0.2523
25606SOL    HW179135   5.107   9.058   8.249 -0.6481 -0.5748  0.4976
25606SOL    HW279136   5.073   9.022   8.393  0.7266 -0.0512  0.9644
25607SOL     OW79137   5.894   5.875   8.530 -0.2516  0.3847  0.5050
25607SOL    HW179138   5.927   5.884   8.619  0.6370  1.5027  0.0843
25607SOL    HW279139   5.965   5.831   8.483 -0.2681  0.7835  0.1048
25608SOL     OW79140  10.101   1.465   7.736  0.7236 -0.1032  0.0893
25608SOL    HW179141  10.029   1.522   7.765  0.1808 -1.2721  1.1262
25608SOL    HW279142  10.162   1.464   7.810  1.2002 -0.1075 -0.3015
25609SOL     OW79143   9.814   0.707   5.346 -0.2525 -0.3683 -0.4984
25609SOL    HW179144   9.851   0.795   5.343 -1.0694  0.0991  1.4726
25609SOL    HW279145   9.890   0.650   5.355  0.2388  0.2003 -0.9442
25610SOL     OW79146   1.433   2.948   9.524 -0.1380 -0.4688 -0.4103
25610SOL    HW179147   1.361   2.900   9.484 -0.6357 -0.6379  0.6335
25610SOL    HW279148   1.392   3.027   9.560  0.4351  0.0737 -0.9496
25611SOL     OW79149   8.781   4.633   4.147  0.4219 -0.3582 -0.5332
25611SOL    HW179150   8.847   4.686   4.103  0.8084 -0.0291  0.4253
25611SOL    HW279151   8.730   4.595   4.076  0.4966  0.8426 -1.2514
25612SOL     OW79152   1.466   0.394   7.243 -0.0071 -0.0638 -0.4720
25612SOL    HW179153   1.524   0.429   7.311 -0.0665 -1.4488  0.3328
25612SOL    HW279154   1.524   0.345   7.185 -0.0535  0.5512 -1.0455
25613SOL     OW79155   4.056   9.618   0.779 -0.0174 -0.3143 -0.9280
25613SOL    HW179156   3.969   9.630   0.819  1.1478  1.2590  1.3360
25613SOL    HW279157   4.097   9.549   0.831 -0.0501 -1.4431 -2.3375
25614SOL     OW79158   2.578   3.952   4.543  0.9015  0.3742 -0.0748
25614SOL    HW179159   2.526   3.897   4.484 -0.2427  2.5991 -1.2475
25614SOL    HW279160   2.590   3.898   4.621  0.1435 -1.6487 -1.2780
25615SOL     OW79161   2.926   4.986   8.805 -0.1026 -0.1254 -0.2877
25615SOL    HW179162   2.954   5.053   8.743  0.3851  0.6655  0.7594
25615SOL    HW279163   2.854   5.027   8.854 -0.8059 -0.9092 -0.6301
25616SOL     OW79164   4.049   7.441  10.012  0.3371  0.0287 -0.0786
25616SOL    HW179165   4.052   7.447  10.108 -0.5370  0.2785 -0.0561
25616SOL    HW279166   3.956   7.427   9.992  0.6506 -1.0737 -0.8422
25617SOL     OW79167   1.491   5.571  10.465  0.7054  0.1548 -0.3231
25617SOL    HW179168   1.583   5.595  10.454  0.9916 -1.0373 -0.6846
25617SOL    HW279169   1.492   5.495  10.523 -0.0720  0.2544 -0.1593
25618SOL     OW79170   7.611  10.053   8.123  0.8028 -0.2968  0.0991
25618SOL    HW179171   7.689  10.104   8.148  0.3124 -0.1160  1.2941
25618SOL    HW279172   7.623   9.969   8.166 -0.5429  0.3662  1.9017
25619SOL     OW79173   6.155   0.099   3.483  0.6361  0.6687 -0.1259
25619SOL    HW179174   6.065   0.121   3.505  0.8514 -0.1275  1.7089
25619SOL    HW279175   6.172   0.017   3.529  1.6021 -0.4067 -2.2727
25620SOL     OW79176   0.602   6.703   2.280  0.5290  0.3338 -0.9815
25620SOL    HW179177   0.631   6.672   2.365 -1.4638  0.3084 -0.2534
25620SOL    HW279178   0.565   6.789   2.297  1.1280  0.8199 -2.0422
25621SOL     OW79179   0.018   4.927   3.635  0.1005  0.4262  0.0663
25621SOL    HW179180   0.021   4.832   3.619  3.4259  0.4223 -0.1058
25621SOL    HW279181  -0.031   4.936   3.717 -0.4337 -1.4257 -0.0074
25622SOL     OW79182   8.196   1.927   6.289  0.3209 -0.6405 -0.7365
25622SOL    HW179183   8.247   1.995   6.245  0.8792 -0.6444 -0.1148
25622SOL    HW279184   8.119   1.973   6.322  0.1500 -0.5370 -1.2784
25623SOL     OW79185   0.585   8.815   2.284 -0.3189  0.7463 -0.5919
25623SOL    HW179186   0.618   8.763   2.211  1.7266  0.0761  0.7117
25623SOL    HW279187   0.493   8.789   2.294  0.6474 -2.8822  0.1222
25624SOL     OW79188   0.066   8.933   2.776  0.0632 -0.0811 -0.1637
25624SOL    HW179189   0.131   8.995   2.741  1.9465 -1.2939  0.9647
25624SOL    HW279190   0.022   8.898   2.699  1.1570  0.3691 -1.0278
25625SOL     OW79191   9.409  10.249   6.141  0.1659  0.5866 -0.4304
25625SOL    HW179192   9.456  10.177   6.100 -0.9345  0.2799 -1.1865
25625SOL    HW279193   9.322  10.215   6.159 -0.2643  1.6032 -0.4771
25626SOL     OW79194   4.285   0.549   8.301  0.1721  0.3504  0.2486
25626SOL    HW179195   4.289   0.546   8.397 -1.0397  0.8575  0.3360
25626SOL    HW279196   4.318   0.636   8.279  1.7748 -0.2722  0.0944
25627SOL     OW79197   4.805   9.701   6.857 -0.3888  0.0279  0.1185
25627SOL    HW179198   4.714   9.682   6.879 -0.4759  0.1772 -0.1082
25627SOL    HW279199   4.854   9.629   6.897 -0.5946 -0.0000  0.3261
25628SOL     OW79200  10.433   4.890   5.996  0.1280 -0.3631 -0.4203
25628SOL    HW179201  10.450   4.804   6.035 -1.3059 -0.4004  0.1879
25628SOL    HW279202  10.489   4.950   6.044 -0.8541 -0.5702  1.0605
25629SOL     OW79203   2.192   5.768   9.977 -0.2432  0.5129  0.3725
25629SOL    HW179204   2.182   5.685  10.023 -0.1363 -0.9628 -2.0697
25629SOL    HW279205   2.138   5.830  10.026 -0.9660 -1.1817  1.8203
25630SOL     OW79206  10.096   9.886   9.023 -0.3799 -0.0979  0.1124
25630SOL    HW179207  10.178   9.934   9.018  0.8776 -2.1100  0.2969
25630SOL    HW279208  10.050   9.907   8.941  1.1021 -0.2518 -0.7840
25631SOL     OW79209   2.710   5.154   8.836 -0.1187  0.5451  0.5220
25631SOL    HW179210   2.678   5.153   8.746  1.1835 -0.2529  0.0394
25631SOL    HW279211   2.638   5.118   8.888 -0.2129 -0.7493 -0.4611
25632SOL     OW79212   0.071   5.090   7.351  0.3076  0.1991  0.3782
25632SOL    HW179213   0.040   4.999   7.348  2.1841 -0.5544  1.9642
25632SOL    HW279214   0.010   5.137   7.294 -0.3417 -2.1436 -1.0168
25633SOL     OW79215   3.901   5.445   4.167  0.4098  0.0407  0.8021
25633SOL    HW179216   3.972   5.384   4.189  1.9811  1.5605  0.1810
25633SOL    HW279217   3.930   5.487   4.086 -1.1836  0.7817  0.5778
25634SOL     OW79218   3.152   1.399   0.074  0.0576 -0.4601 -0.2923
25634SOL    HW179219   3.125   1.322   0.123 -0.4360  0.0920  0.3265
25634SOL    HW279220   3.139   1.472   0.135 -1.3718  0.3494 -1.5063
25635SOL     OW79221   5.003   7.567   8.777 -0.0342 -0.1041 -0.1374
25635SOL    HW179222   4.973   7.517   8.702  1.6438 -2.2975  0.5382
25635SOL    HW279223   4.928   7.570   8.836 -0.0658 -2.3680  0.0135
25636SOL     OW79224   9.455   6.454   0.138  0.4029 -0.1367  0.3437
25636SOL    HW179225   9.476   6.548   0.143 -0.1953  0.1270 -1.5039
25636SOL    HW279226   9.360   6.452   0.123  0.1423 -1.1130  1.9100
25637SOL     OW79227   1.834   3.200   2.505  0.0550 -0.3834  0.1652
25637SOL    HW179228   1.792   3.143   2.441  1.3632  0.4265 -1.5169
25637SOL    HW279229   1.768   3.215   2.572 -1.1884 -1.7235 -0.7164
25638SOL     OW79230   3.617  10.497   5.441 -0.0477  0.1108 -0.1171
25638SOL    HW179231   3.691  10.444   5.411  0.3443  0.7928 -0.3787
25638SOL    HW279232   3.544  10.436   5.445  0.4884 -0.5362 -0.0261
25639SOL     OW79233   9.057  10.050   3.947  0.0578  0.3022  0.2676
25639SOL    HW179234   9.076   9.968   3.901 -0.9719  0.7322 -0.9842
25639SOL    HW279235   9.138  10.071   3.994  1.2354 -0.0908 -1.4944
25640SOL     OW79236   5.347   1.331   2.843 -0.3777 -0.0883  0.3029
25640SOL    HW179237   5.272   1.313   2.900 -0.7231 -1.0785 -0.4215
25640SOL    HW279238   5.412   1.373   2.899 -1.6555  1.2263  0.8315
25641SOL     OW79239   3.931   9.455  10.548  0.0880  0.4854  0.0321
25641SOL    HW179240   3.918   9.389  10.616  1.8504  0.0304 -0.0283
25641SOL    HW279241   4.009   9.426  10.501  0.5018  2.2461 -0.4312
25642SOL     OW79242   2.677   1.385  10.112  0.1417 -0.2470  0.0575
25642SOL    HW179243   2.623   1.324  10.163  0.9032 -1.2640 -0.3250
25642SOL    HW279244   2.627   1.400  10.032  0.3323 -1.0746 -0.2335
25643SOL     OW79245   5.897   6.557   5.928 -0.0024 -0.3642  0.4362
25643SOL    HW179246   5.857   6.523   6.008 -0.6867 -0.0847  0.2256
25643SOL    HW279247   5.866   6.648   5.922  0.8979 -0.0465  0.4079
25644SOL     OW79248   1.156   9.616   9.190  0.8395 -0.3293 -0.1080
25644SOL    HW179249   1.206   9.633   9.269 -0.5492  0.9375  0.5407
25644SOL    HW279250   1.069   9.589   9.221  0.4205 -0.2914 -1.1872
25645SOL     OW79251  10.537   6.891   0.606  0.4553  0.5302 -0.1282
25645SOL    HW179252  10.602   6.940   0.554  1.3194 -0.5685 -0.1258
25645SOL    HW279253  10.540   6.803   0.570  0.1154  0.0712  0.9389
25646SOL     OW79254  10.273   3.922   9.134  0.2644  0.2306  0.8114
25646SOL    HW179255  10.276   3.934   9.039  2.4138 -0.2442  0.7782
25646SOL    HW279256  10.363   3.932   9.163 -0.2006 -0.5577  2.7028
25647SOL     OW79257   0.967  10.407   6.295  0.3835 -0.0760  0.0317
25647SOL    HW179258   0.967  10.334   6.233 -1.1791  0.0502 -0.1370
25647SOL    HW279259   0.875  10.419   6.319  0.8992 -0.0363  2.2910
25648SOL     OW79260   6.347   2.134   9.847 -0.2183 -0.1724 -0.4988
25648SOL    HW179261   6.413   2.170   9.905 -0.9383  2.5339 -1.2501
25648SOL    HW279262   6.299   2.072   9.902  0.0028  1.2689  1.4140
25649SOL     OW79263   8.741   0.411   5.441 -0.3726 -0.1886  0.5210
25649SOL    HW179264   8.743   0.320   5.412  0.0914  0.2752 -0.9688
25649SOL    HW279265   8.784   0.410   5.526  0.1639 -1.2621  0.2503
25650SOL     OW79266   0.127   6.388  10.234  0.0094  0.0889  0.2167
25650SOL    HW179267   0.154   6.318  10.294 -1.7763  0.1542  1.1540
25650SOL    HW279268   0.079   6.450  10.289  0.9307  1.7392 -0.7329
25651SOL     OW79269   9.835   2.176   8.128 -0.2516 -0.5333  0.1483
25651SOL    HW179270   9.924   2.207   8.147 -0.6764 -0.1194  1.6472
25651SOL    HW279271   9.821   2.105   8.190 -1.1933 -0.1534  0.3857
25652SOL     OW79272   6.790   8.437   6.095 -0.2193  0.2873 -0.2241
25652SOL    HW179273   6.810   8.406   6.183  1.8278  0.2322 -0.6536
25652SOL    HW279274   6.757   8.360   6.049 -0.8825  0.2144  0.3693
25653SOL     OW79275   4.756   6.011   0.470  0.4234 -0.0264 -0.2661
25653SOL    HW179276   4.785   5.922   0.488  2.0446  0.2000 -1.4982
25653SOL    HW279277   4.723   6.009   0.381  1.8873  0.8609 -0.8814
25654SOL     OW79278   7.759   6.545   6.121  0.1417 -0.3055  0.5818
25654SOL    HW179279   7.666   6.523   6.128 -0.4480  1.7159 -0.3509
25654SOL    HW279280   7.766   6.599   6.042  2.4552 -1.9826 -0.4730
25655SOL     OW79281   5.513   9.877  10.161  0.4252  0.2774  0.3590
25655SOL    HW179282   5.489   9.831  10.080  3.2676 -1.1123  0.1916
25655SOL    HW279283   5.508   9.970  10.139 -0.1408 -0.0569 -0.9928
25656SOL     OW79284   8.854   0.745   5.092  0.1779  0.2709 -0.0545
25656SOL    HW179285   8.781   0.688   5.068 -1.9150  1.9804  1.6875
25656SOL    HW279286   8.885   0.711   5.175 -0.4782  1.0441  0.5358
25657SOL     OW79287  10.449   2.439   0.080  0.1914 -0.5568 -0.2423
25657SOL    HW179288  10.488   2.364   0.035 -0.2269 -0.8796 -0.0740
25657SOL    HW279289  10.376   2.465   0.024  0.8157  0.2380 -0.7138
25658SOL     OW79290  10.365   9.969   9.080 -0.0953  0.0108  0.4730
25658SOL    HW179291  10.433   9.918   9.037 -1.1538 -0.2640 -0.9668
25658SOL    HW279292  10.404   9.998   9.163  1.8998  0.2329 -0.4977
25659SOL     OW79293   7.143   8.417   3.005  0.0328  0.0011  0.2155
25659SOL    HW179294   7.187   8.500   3.020 -0.2969 -0.2767  3.1803
25659SOL    HW279295   7.201   8.352   3.045 -0.4709 -1.0289 -0.6790
25660SOL     OW79296   7.282   3.039   6.069  0.4978 -0.6760  0.1189
25660SOL    HW179297   7.226   2.980   6.119  0.2227 -0.0830  0.5313
25660SOL    HW279298   7.267   3.016   5.978 -1.3200  0.2448  0.1542
25661SOL     OW79299   3.444   0.212   9.379  0.5218  0.1542  0.0548
25661SOL    HW179300   3.407   0.198   9.466 -0.2822  0.5171 -0.2175
25661SOL    HW279301   3.478   0.301   9.381 -1.5739  1.0512 -0.6829
25662SOL     OW79302  10.515   7.551  10.241 -0.1306  0.1095 -0.6419
25662SOL    HW179303  10.507   7.646  10.239 -1.4656  0.0227 -0.9280
25662SOL    HW279304  10.575   7.531  10.170 -0.4843  0.7081 -1.1270
25663SOL     OW79305   2.206   7.394   9.935  0.0829  0.6460 -0.4789
25663SOL    HW179306   2.279   7.373   9.877  2.8749 -0.1788  2.9649
25663SOL    HW279307   2.171   7.309   9.962 -0.5563  0.9910 -0.1949
25664SOL     OW79308  10.592   8.533   8.487  0.1845 -0.3046 -0.0468
25664SOL    HW179309  10.499   8.542   8.508  0.6726  1.0187  1.8350
25664SOL    HW279310  10.603   8.441   8.467 -1.6312 -0.3872 -0.8498
25665SOL     OW79311   0.375   6.651   9.524 -0.0373  0.2142  0.3556
25665SOL    HW179312   0.433   6.662   9.599  0.6669 -1.2088  0.0622
25665SOL    HW279313   0.431   6.668   9.448  0.1195 -1.4407  0.0553
25666SOL     OW79314   0.718   0.069   3.678  0.1136  0.0152 -0.1254
25666SOL    HW179315   0.707   0.138   3.612  2.1422  0.9043  0.3965
25666SOL    HW279316   0.687  -0.010   3.634 -3.1363  1.3229 -0.4416
25667SOL     OW79317   5.966   5.598   5.632  0.0240 -0.2736  0.5593
25667SOL    HW179318   5.892   5.610   5.692 -0.0677 -0.0927  0.4107
25667SOL    HW279319   6.037   5.565   5.688  0.1321  0.4940  0.8849
25668SOL     OW79320   6.462   1.426   7.205 -0.3943  0.2055 -0.0575
25668SOL    HW179321   6.463   1.518   7.233  2.1646 -0.0194  0.8972
25668SOL    HW279322   6.421   1.379   7.278 -0.3504  0.4314  0.1152
25669SOL     OW79323   1.130   7.535   2.645  0.3521  0.1273  0.5765
25669SOL    HW179324   1.158   7.579   2.726  1.2250  0.2154  0.2422
25669SOL    HW279325   1.046   7.575   2.623  0.1949  0.2274  1.3422
25670SOL     OW79326   3.026  10.081   7.808  0.8796  0.0308 -0.2944
25670SOL    HW179327   3.046  10.050   7.719  1.3637  0.5760 -0.3766
25670SOL    HW279328   3.024  10.176   7.801 -0.7314  0.0442 -0.0612
25671SOL     OW79329   2.544   4.243   9.447 -0.1703  0.0062  0.0575
25671SOL    HW179330   2.639   4.230   9.448 -0.0929  0.5781  0.1367
25671SOL    HW279331   2.509   4.165   9.490  0.3245  0.2858  0.9827
25672SOL     OW79332   1.929   4.946   5.258  0.2977 -0.1345  0.4323
25672SOL    HW179333   1.973   4.961   5.342  1.5102  0.7538 -0.3273
25672SOL    HW279334   1.904   5.033   5.228  0.5095 -0.3614 -0.4437
25673SOL     OW79335   3.699   3.049   2.428 -0.0567 -0.1958 -0.5362
25673SOL    HW179336   3.633   3.031   2.495  1.0558 -1.1569  0.3506
25673SOL    HW279337   3.769   3.095   2.474  0.9515 -1.3087 -0.8905
25674SOL     OW79338   8.192   3.827   2.722  0.2549  0.1989 -0.4588
25674SOL    HW179339   8.179   3.859   2.811 -0.4161  0.6470 -0.7127
25674SOL    HW279340   8.195   3.906   2.668 -1.1109 -0.1245 -1.0592
25675SOL     OW79341   3.622   1.957   2.404  0.0519  0.2614  0.7578
25675SOL    HW179342   3.600   1.910   2.485  1.0268  0.1520  0.9699
25675SOL    HW279343   3.541   1.956   2.353 -0.7702  0.8761  1.9920
25676SOL     OW79344   9.505   3.895   4.194 -0.7175 -0.6401  0.4333
25676SOL    HW179345   9.581   3.856   4.238 -1.3318 -0.1512  1.9995
25676SOL    HW279346   9.431   3.842   4.223 -1.0499 -0.8600 -0.7539
25677SOL     OW79347   1.443   6.246  10.176  1.4757 -0.2401 -0.4390
25677SOL    HW179348   1.355   6.228  10.144  1.0116 -1.1189  1.1849
25677SOL    HW279349   1.431   6.315  10.241  1.8096 -1.0875  0.5451
25678SOL     OW79350   8.950   9.152   0.462 -0.1211 -0.9198  0.0580
25678SOL    HW179351   8.856   9.154   0.476 -0.0399  0.5894  0.5298
25678SOL    HW279352   8.987   9.150   0.551  0.3221 -4.0770 -0.0666
25679SOL     OW79353   6.809   0.013   2.494  0.5607 -0.7684  0.0147
25679SOL    HW179354   6.881   0.016   2.558  0.5732 -0.5638 -0.0084
25679SOL    HW279355   6.736  -0.026   2.542  0.0436  0.9373  0.6820
25680SOL     OW79356   0.236  10.455   7.714 -0.0965 -0.7734 -0.1166
25680SOL    HW179357   0.271  10.391   7.776  0.8387 -1.0510 -0.9074
25680SOL    HW279358   0.145  10.467   7.740  0.1715 -1.1805  1.0608
25681SOL     OW79359   4.141   7.131   6.732 -0.4451 -0.5460  0.0471
25681SOL    HW179360   4.079   7.071   6.693 -2.0529  1.0574  0.0059
25681SOL    HW279361   4.089   7.207   6.757  1.6023  1.3082 -0.8831
25682SOL     OW79362   1.659   1.606   7.626  0.1528  0.2975 -0.0645
25682SOL    HW179363   1.687   1.588   7.715  1.0779 -0.2762 -0.4486
25682SOL    HW279364   1.578   1.557   7.616  0.1685  0.1748  0.3893
25683SOL     OW79365   9.853   1.714   7.588 -0.0787  0.0163  0.5823
25683SOL    HW179366   9.781   1.758   7.633  0.2624  0.8784  0.3019
25683SOL    HW279367   9.931   1.739   7.638  0.4343  1.7930 -1.0029
25684SOL     OW79368  10.156   9.618   8.993 -0.2816 -0.4271  0.4335
25684SOL    HW179369  10.191   9.698   9.032  0.9260 -0.3179 -0.7842
25684SOL    HW279370  10.084   9.593   9.050  0.8957  0.1449  2.2468
25685SOL     OW79371   8.975   2.329   7.422 -0.3344 -0.8172 -0.2555
25685SOL    HW179372   8.900   2.283   7.459  1.2799 -2.3522  1.3622
25685SOL    HW279373   9.010   2.380   7.495  1.1812 -1.5220 -0.4490
25686SOL     OW79374   3.438   2.936   3.741 -0.4285  0.1610  0.2007
25686SOL    HW179375   3.504   3.005   3.744  1.6020 -1.6955  1.0042
25686SOL    HW279376   3.421   2.922   3.648 -0.2617  1.1688  0.0142
25687SOL     OW79377   4.649   7.379  10.259 -0.1172  0.4006  0.3657
25687SOL    HW179378   4.699   7.319  10.204 -0.1496  0.4550  0.2777
25687SOL    HW279379   4.610   7.323  10.326  0.5069  0.4287  0.7594
25688SOL     OW79380   6.161   5.813   8.708 -0.1270  0.2782  0.4744
25688SOL    HW179381   6.180   5.823   8.801 -0.7019 -1.1596  0.7752
25688SOL    HW279382   6.089   5.750   8.705 -0.3386  0.5569 -0.9311
25689SOL     OW79383   1.020   1.672   6.401  0.4284  0.7485 -0.2777
25689SOL    HW179384   0.986   1.588   6.371  0.5530 -0.1093  1.7957
25689SOL    HW279385   0.967   1.737   6.354 -0.6804 -0.4984 -0.8262
25690SOL     OW79386   7.458  10.043   8.534 -0.1289 -0.7245 -0.0031
25690SOL    HW179387   7.388  10.107   8.525  0.3660 -0.1815  0.0070
25690SOL    HW279388   7.536  10.094   8.552  0.2051 -1.3501  0.3793
25691SOL     OW79389   5.084   2.457   7.267 -0.1119  0.0295  0.4742
25691SOL    HW179390   5.073   2.552   7.266 -0.1165  0.0277  0.2243
25691SOL    HW279391   5.166   2.442   7.220 -0.0795 -0.0875  0.5667
25692SOL     OW79392   9.748   0.053   0.700 -0.2905  0.5663 -0.1938
25692SOL    HW179393   9.683   0.015   0.760  0.7641  0.7314  1.0927
25692SOL    HW279394   9.814  -0.015   0.690  0.0870  0.9460 -0.2960
25693SOL     OW79395   4.832   2.885   7.437  0.5183 -0.0430 -0.6059
25693SOL    HW179396   4.745   2.919   7.413 -0.0664 -1.1832 -0.1916
25693SOL    HW279397   4.814   2.801   7.479  1.7800  0.0841  0.2578
25694SOL     OW79398   3.090   9.785   1.283  0.0925  0.2875 -0.5089
25694SOL    HW179399   3.152   9.857   1.292  0.1577  0.5678 -2.7861
25694SOL    HW279400   3.128   9.714   1.335  0.7325  1.4120  0.6205
25695SOL     OW79401  10.452   2.267   3.228  0.4784  0.0548  0.0688
25695SOL    HW179402  10.440   2.205   3.300 -1.9556  0.9086  0.5027
25695SOL    HW279403  10.363   2.296   3.207  1.2873  1.1628 -2.1159
25696SOL     OW79404   5.236   7.733   7.093 -0.0278 -0.6509  0.1599
25696SOL    HW179405   5.290   7.694   7.025  1.4766  2.3287 -0.5301
25696SOL    HW279406   5.192   7.807   7.049 -1.1674 -0.2956  1.7979
25697SOL     OW79407   5.582   8.020   1.716 -0.0529  0.4534 -0.0814
25697SOL    HW179408   5.582   7.966   1.795  1.0042  0.6891  0.0864
25697SOL    HW279409   5.657   8.078   1.726  1.3451 -0.8485 -2.1857
25698SOL     OW79410  10.139   0.667  10.338  0.8287  0.6871 -0.4568
25698SOL    HW179411  10.052   0.684  10.303  0.5238  0.0708 -0.0314
25698SOL    HW279412  10.199   0.699  10.271  0.2758  1.2073 -0.7104
25699SOL     OW79413   2.497  10.346   2.306 -0.1443 -0.4841  0.4829
25699SOL    HW179414   2.421  10.292   2.328  0.1713 -1.0264  0.2751
25699SOL    HW279415   2.526  10.312   2.221  1.3385 -1.4261  1.3343
25700SOL     OW79416   0.053   5.403   3.243 -0.0653  0.0932  0.4573
25700SOL    HW179417   0.023   5.352   3.168  1.6580  0.4055 -0.4878
25700SOL    HW279418   0.062   5.492   3.210  0.2230  0.3406  1.1849
25701SOL     OW79419   1.050   5.978   1.690 -0.3569 -0.5303 -0.3306
25701SOL    HW179420   1.121   6.002   1.750 -0.0030 -0.9769 -0.5630
25701SOL    HW279421   1.054   5.883   1.687  0.5274 -0.4680 -2.1311
25702SOL     OW79422   6.596   7.649   2.278 -0.4447 -0.1378  0.5594
25702SOL    HW179423   6.625   7.567   2.318 -0.4173 -1.0728 -1.2604
25702SOL    HW279424   6.501   7.644   2.279 -0.4422 -0.2287  0.3843
25703SOL     OW79425   9.927   1.607   6.662 -0.6235 -0.3659 -0.4044
25703SOL    HW179426   9.891   1.664   6.594 -0.2901  0.3869  0.0327
25703SOL    HW279427   9.980   1.666   6.716 -0.2493 -1.1026  0.0426
25704SOL     OW79428   1.336   3.524   8.418 -0.3223  0.2042  0.1887
25704SOL    HW179429   1.405   3.472   8.460 -1.2746  0.4723  2.2529
25704SOL    HW279430   1.380   3.604   8.389  0.1249  0.8742  2.4801
25705SOL     OW79431   3.663   7.111   0.130 -0.4661 -0.2214 -0.4011
25705SOL    HW179432   3.647   7.094   0.222  0.3549 -1.1155 -0.4106
25705SOL    HW279433   3.634   7.202   0.117 -1.2601 -0.3172  0.5552
25706SOL     OW79434   0.861   2.191   1.226 -0.1291 -0.1307  0.1411
25706SOL    HW179435   0.797   2.143   1.174  1.1438 -2.3356  0.4855
25706SOL    HW279436   0.936   2.132   1.231  0.6337  0.9412  2.5855
25707SOL     OW79437   5.818   4.724   2.593  1.1075  0.1894 -0.1663
25707SOL    HW179438   5.746   4.698   2.650  1.3136 -1.3812 -0.5720
25707SOL    HW279439   5.797   4.813   2.566  1.3181  1.2534  2.8150
25708SOL     OW79440  10.024   1.774   9.866 -0.7075 -0.4138 -0.1521
25708SOL    HW179441   9.985   1.789   9.953  0.8691 -2.4445  0.9925
25708SOL    HW279442  10.074   1.693   9.876 -0.3585 -0.6285 -2.9614
25709SOL     OW79443   4.630   1.869   2.307 -0.0150 -0.4808  0.2548
25709SOL    HW179444   4.719   1.878   2.340  0.4598  0.2284 -1.1741
25709SOL    HW279445   4.575   1.887   2.384  1.0520  0.6782  0.7738
25710SOL     OW79446   2.539   6.417   3.595  0.0467  0.1410  0.1536
25710SOL    HW179447   2.553   6.334   3.550  0.9765 -0.1480  0.9545
25710SOL    HW279448   2.511   6.393   3.683  1.7424  0.6201  0.8579
25711SOL     OW79449   1.896   4.699   1.544  0.0456 -0.4727 -0.7189
25711SOL    HW179450   1.836   4.771   1.564 -0.4856 -1.2124  0.4472
25711SOL    HW279451   1.977   4.742   1.516 -0.3044  0.5756 -0.1718
25712SOL     OW79452   8.592   1.818   4.282  0.0933  0.1009 -0.6509
25712SOL    HW179453   8.574   1.843   4.191 -0.9574  2.0548  0.0308
25712SOL    HW279454   8.643   1.891   4.318  0.4792 -0.6288  0.3272
25713SOL     OW79455   5.315   4.823   2.881 -0.0684 -0.1454  0.0869
25713SOL    HW179456   5.315   4.805   2.787  0.5469  0.9651 -0.1425
25713SOL    HW279457   5.246   4.889   2.894  1.4203  1.4996  0.0108
25714SOL     OW79458   6.403  10.164   8.704  0.4572  0.1634 -0.6801
25714SOL    HW179459   6.484  10.123   8.731  0.8287  1.2444 -0.0935
25714SOL    HW279460   6.422  10.258   8.702 -0.2298  0.3075 -2.4206
25715SOL     OW79461   3.368   7.357   3.011 -0.2757 -0.4181  0.2460
25715SOL    HW179462   3.462   7.341   3.014 -0.3585 -0.8047  0.9570
25715SOL    HW279463   3.354   7.398   2.926  0.7343  1.0130  0.7385
25716SOL     OW79464   8.998   0.919   9.420 -0.0098  0.4197  0.2196
25716SOL    HW179465   9.068   0.976   9.388 -0.3418  0.1488 -1.0233
25716SOL    HW279466   8.920   0.973   9.419 -0.2299  0.1046 -0.4925
25717SOL     OW79467   5.066   8.868   2.425 -0.5345  0.0110  0.6188
25717SOL    HW179468   5.106   8.791   2.465 -1.8008 -0.7866  0.3865
25717SOL    HW279469   5.140   8.925   2.403  0.3972 -1.0277  0.9929
25718SOL     OW79470   4.065   1.687   7.933  0.2022  0.3715 -0.2264
25718SOL    HW179471   4.019   1.713   8.013  2.1770  0.5988  0.8964
25718SOL    HW279472   4.006   1.712   7.862 -1.0801  1.2744  1.1053
25719SOL     OW79473   5.454   7.009   1.707  0.2609  0.1972 -0.1978
25719SOL    HW179474   5.535   6.960   1.722  0.2091  0.0140 -0.5124
25719SOL    HW279475   5.384   6.948   1.727  0.1973  0.3687  0.1117
25720SOL     OW79476   5.782   7.614   2.622 -0.4944  0.5655  0.0068
25720SOL    HW179477   5.848   7.605   2.552 -1.9012 -0.4149 -1.2653
25720SOL    HW279478   5.698   7.617   2.576 -1.4332  0.6254  1.6396
25721SOL     OW79479   5.806   3.861   5.084 -0.3272  0.5566  0.0340
25721SOL    HW179480   5.812   3.841   4.990  3.3580  1.9751 -0.1956
25721SOL    HW279481   5.851   3.788   5.127 -0.6187  0.6887  0.5702
25722SOL     OW79482   4.486   3.747   4.991 -0.0313 -0.2855  0.7651
25722SOL    HW179483   4.505   3.826   4.941 -0.5102 -0.5260  0.1887
25722SOL    HW279484   4.561   3.737   5.050  0.2274  0.3666  0.5555
25723SOL     OW79485   8.555   0.085   0.203 -0.1451 -0.1028  0.5689
25723SOL    HW179486   8.571   0.153   0.269  0.6354  0.2699  0.0061
25723SOL    HW279487   8.636   0.035   0.199  0.1915  0.5170 -0.8369
25724SOL     OW79488   3.288   7.378   8.190  0.0576 -0.1979  0.5616
25724SOL    HW179489   3.360   7.421   8.144  0.9576 -1.4179  0.7872
25724SOL    HW279490   3.331   7.320   8.253 -1.1149 -1.3558  0.3272
25725SOL     OW79491   6.661   0.175   2.321  0.1882 -0.3861  0.0533
25725SOL    HW179492   6.645   0.269   2.331 -3.2827 -0.8336  0.1786
25725SOL    HW279493   6.708   0.150   2.400 -0.8482  0.9221  1.1409
25726SOL     OW79494   3.427   9.311   0.749 -0.1463  0.1949 -0.1398
25726SOL    HW179495   3.419   9.241   0.684 -0.2050 -0.5592  0.6640
25726SOL    HW279496   3.521   9.329   0.754 -0.2424  1.3553 -1.5374
25727SOL     OW79497   6.958   7.402   0.277 -0.4550  0.3591 -0.3326
25727SOL    HW179498   6.952   7.307   0.264 -2.6593  0.4401 -0.2999
25727SOL    HW279499   6.904   7.439   0.206 -1.2596  1.4771  0.8193
25728SOL     OW79500   8.541   6.858   7.623 -0.6736 -0.0812 -0.2353
25728SOL    HW179501   8.582   6.916   7.687  0.1659  0.6812 -1.4230
25728SOL    HW279502   8.544   6.771   7.664  0.8412  0.1995  0.3069
25729SOL     OW79503   0.635   3.204   7.832 -0.2450  0.0938  0.2514
25729SOL    HW179504   0.717   3.252   7.842  0.0843 -0.4326  0.0952
25729SOL    HW279505   0.601   3.195   7.921  0.5988 -0.9530  0.4864
25730SOL     OW79506   8.662   0.888   3.806 -0.1881  0.6152  0.2993
25730SOL    HW179507   8.631   0.898   3.896  1.2485  0.2217  0.8547
25730SOL    HW279508   8.691   0.797   3.800 -1.8646  0.1171 -1.1012
25731SOL     OW79509   0.068  10.018   7.560  0.1691  0.5210  0.2282
25731SOL    HW179510   0.087   9.933   7.520 -0.2274  0.2979  0.5031
25731SOL    HW279511   0.035   9.997   7.647  3.3875  1.0885  1.7246
25732SOL     OW79512   7.125   3.790   8.355  0.3485  0.2922 -0.1867
25732SOL    HW179513   7.120   3.884   8.375 -1.3863  0.1364  0.2856
25732SOL    HW279514   7.164   3.787   8.268  0.1819  1.4768 -0.3281
25733SOL     OW79515   7.255   4.724   1.692 -0.2751  0.2214  0.3961
25733SOL    HW179516   7.204   4.804   1.708 -1.4629 -0.2001 -1.0586
25733SOL    HW279517   7.190   4.653   1.697  0.3038 -0.4087 -0.7059
25734SOL     OW79518   3.982   7.732   9.635 -0.1543  0.3557 -0.1230
25734SOL    HW179519   3.963   7.726   9.728 -0.0962 -1.1448 -0.1812
25734SOL    HW279520   4.056   7.793   9.630 -0.5086  0.8792  0.7421
25735SOL     OW79521   3.022   3.908   0.462 -0.2446 -0.2276 -0.1861
25735SOL    HW179522   3.039   3.984   0.407  2.2277  0.5206  1.3988
25735SOL    HW279523   3.082   3.841   0.428 -0.6078 -0.6326 -0.0323
25736SOL     OW79524   5.220   5.052   4.901  0.0088 -0.4618 -0.3297
25736SOL    HW179525   5.131   5.071   4.873  0.1711 -0.5407 -0.9085
25736SOL    HW279526   5.272   5.127   4.871  0.2779 -0.8043 -0.7237
25737SOL     OW79527   3.708   1.072   0.120 -0.8261 -0.1729 -0.0023
25737SOL    HW179528   3.776   1.050   0.184 -1.1921  0.0098  0.4560
25737SOL    HW279529   3.717   1.166   0.106 -0.1505 -0.3633 -0.9266
25738SOL     OW79530   3.923   2.989   4.374 -0.0052  0.0723  0.0159
25738SOL    HW179531   3.859   3.006   4.443 -0.6587 -1.1497 -0.2538
25738SOL    HW279532   4.003   3.033   4.403 -0.2551 -0.4571  1.5727
25739SOL     OW79533   5.054   2.865   6.616 -0.2209 -0.4360  0.3343
25739SOL    HW179534   5.123   2.852   6.681  1.0100 -0.0125 -0.8172
25739SOL    HW279535   5.004   2.939   6.649  1.7253  1.2206 -0.1874
25740SOL     OW79536   7.091   2.707   8.629 -0.4553 -0.0825  0.0866
25740SOL    HW179537   7.178   2.714   8.666 -1.0387  0.8562  1.3267
25740SOL    HW279538   7.059   2.622   8.660  0.6042 -1.2344 -1.7685
25741SOL     OW79539   0.669   8.008   6.566  0.1106  0.0048 -0.5315
25741SOL    HW179540   0.687   7.993   6.474 -2.7545  1.1522 -1.3752
25741SOL    HW279541   0.575   8.026   6.570 -0.6228 -3.2416  3.0065
25742SOL     OW79542   9.747   2.744   0.966 -0.1016 -0.5354 -0.0158
25742SOL    HW179543   9.682   2.702   1.022 -0.9227 -2.0747 -1.9705
25742SOL    HW279544   9.822   2.684   0.966  0.9207  0.6740  1.3229
25743SOL     OW79545   4.971   1.501  10.071 -0.3201  0.2072 -0.3981
25743SOL    HW179546   4.914   1.438  10.029  0.3449  0.2155 -1.3437
25743SOL    HW279547   5.024   1.449  10.132 -1.4205  0.2269  0.6092
25744SOL     OW79548   3.373   2.752   1.529  0.0685 -0.4248  0.1055
25744SOL    HW179549   3.407   2.841   1.540 -0.4249 -0.1249 -0.7310
25744SOL    HW279550   3.451   2.698   1.515  0.4054 -0.2130  1.0525
25745SOL     OW79551   6.947   2.448   8.766  0.0069 -0.4575 -0.4023
25745SOL    HW179552   6.941   2.353   8.760 -0.1632 -0.3654 -2.6623
25745SOL    HW279553   6.858   2.479   8.750  0.4382  0.1138 -1.8248
25746SOL     OW79554   1.143   8.398   1.598  0.4472 -0.0100 -0.2019
25746SOL    HW179555   1.131   8.355   1.683  0.5705  2.8603  1.4151
25746SOL    HW279556   1.055   8.411   1.565  0.3697 -0.5838 -0.2333
25747SOL     OW79557   2.764   8.260  10.434 -0.2993  0.5406  0.2133
25747SOL    HW179558   2.790   8.340  10.389  1.2427  0.2939  0.5955
25747SOL    HW279559   2.845   8.228  10.473 -1.0003 -0.9220  0.5176
25748SOL     OW79560   5.485   2.594   4.557  0.2856 -0.8018 -0.2546
25748SOL    HW179561   5.451   2.611   4.645 -0.1061 -2.8055  0.0244
25748SOL    HW279562   5.536   2.672   4.536 -2.0608  1.0419  0.4952
25749SOL     OW79563   9.792   0.497   9.217  0.3742 -0.1943 -0.0126
25749SOL    HW179564   9.713   0.552   9.223 -0.8066 -1.7771 -0.4727
25749SOL    HW279565   9.798   0.476   9.124  1.6765  0.3302 -0.0638
25750SOL     OW79566   9.770   3.578   8.283 -0.0654  0.6394 -0.7872
25750SOL    HW179567   9.857   3.555   8.315  0.5105  1.2269 -1.8709
25750SOL    HW279568   9.739   3.646   8.342  0.1405  0.3113 -0.3008
25751SOL     OW79569   7.557   8.432   2.838  0.1778 -0.1142 -0.0425
25751SOL    HW179570   7.600   8.365   2.891 -0.9856  0.9525  2.4315
25751SOL    HW279571   7.614   8.508   2.846 -1.3102  0.8735  2.0758
25752SOL     OW79572   9.035   6.323   1.963  0.2775  0.3943  0.3292
25752SOL    HW179573   8.953   6.333   1.914  0.8095  1.6401 -0.3617
25752SOL    HW279574   9.092   6.274   1.904  0.9464  1.9666 -0.3799
25753SOL     OW79575   4.158   4.016   6.093  0.1255 -0.2095 -0.2152
25753SOL    HW179576   4.081   4.068   6.070 -0.5383 -0.3452  1.5288
25753SOL    HW279577   4.123   3.928   6.109  0.8628 -0.6037 -0.7540
25754SOL     OW79578   5.956   3.542   5.838  0.4491  0.2781  0.1320
25754SOL    HW179579   5.971   3.510   5.749  0.8254 -0.0929  0.3244
25754SOL    HW279580   5.908   3.624   5.827 -1.8135 -1.0060 -0.3510
25755SOL     OW79581   7.131   8.217   2.167 -0.2522 -0.2963  1.0566
25755SOL    HW179582   7.104   8.280   2.235  1.8684 -1.4004  3.0647
25755SOL    HW279583   7.161   8.141   2.216 -0.0666 -1.7824 -1.2380
25756SOL     OW79584   0.669   6.628   8.581 -0.0035 -0.0625  0.3106
25756SOL    HW179585   0.713   6.690   8.639 -1.5474 -0.2297  1.7569
25756SOL    HW279586   0.716   6.635   8.498  0.4338  2.3764  0.6865
25757SOL     OW79587   4.547   1.344   6.174 -0.0977 -0.3605  0.5631
25757SOL    HW179588   4.560   1.408   6.244 -0.1097  0.9595 -0.5847
25757SOL    HW279589   4.456   1.318   6.181 -0.4192  0.6542  0.3413
25758SOL     OW79590   6.393   0.341   8.618  0.2393  0.7319 -0.0944
25758SOL    HW179591   6.467   0.295   8.658 -0.6143 -0.0815  0.5903
25758SOL    HW279592   6.319   0.280   8.626 -0.8140  2.0211  0.3596
25759SOL     OW79593   8.031   1.608   3.787 -0.2013  0.1702 -0.2704
25759SOL    HW179594   7.998   1.602   3.877 -0.2831  1.1767 -0.2237
25759SOL    HW279595   8.095   1.537   3.781 -1.2968 -0.8824  0.0950
25760SOL     OW79596   1.376   2.644   5.056  0.1475 -0.6991 -0.0910
25760SOL    HW179597   1.457   2.657   5.007 -0.6683 -2.4519 -2.0792
25760SOL    HW279598   1.335   2.568   5.014 -0.6831 -2.3024  3.3272
25761SOL     OW79599   7.269   1.257   8.365  0.4767 -0.0201  0.1592
25761SOL    HW179600   7.288   1.293   8.452 -0.6681 -0.3376  0.5590
25761SOL    HW279601   7.349   1.272   8.315  0.3036  2.4382  0.4998
25762SOL     OW79602   6.203   9.733   7.266  0.0687 -0.0579 -0.1537
25762SOL    HW179603   6.189   9.824   7.290 -1.9765 -0.2927 -0.3062
25762SOL    HW279604   6.224   9.735   7.173  3.5037  0.4635  0.4763
25763SOL     OW79605   0.510   5.687   6.131  0.4863  0.4267  0.0869
25763SOL    HW179606   0.588   5.713   6.181  0.2496  1.5066 -0.0949
25763SOL    HW279607   0.465   5.769   6.112  0.3273 -0.0001 -1.5091
25764SOL     OW79608   6.878   8.941   8.048 -0.5666  0.1052  0.8611
25764SOL    HW179609   6.952   8.928   7.989  2.0012  0.0806  3.7877
25764SOL    HW279610   6.863   9.036   8.048 -1.6185 -0.0311 -0.8761
25765SOL     OW79611   9.700   6.162   6.966  0.1172  0.1412 -0.1039
25765SOL    HW179612   9.667   6.243   7.004  0.2882  0.4671 -0.6409
25765SOL    HW279613   9.793   6.161   6.990 -0.2899 -0.9236  1.6689
25766SOL     OW79614   2.107   0.321   9.089  0.1116 -0.1538 -0.1643
25766SOL    HW179615   2.042   0.262   9.052  0.7845 -0.5063 -0.8291
25766SOL    HW279616   2.108   0.396   9.030 -0.7938  0.5615  0.7220
25767SOL     OW79617   7.274   3.177   7.344 -0.3776 -0.3237  0.0249
25767SOL    HW179618   7.220   3.241   7.298 -0.2897 -0.4738 -0.2888
25767SOL    HW279619   7.212   3.121   7.390 -0.4404  0.3363  0.7760
25768SOL     OW79620  10.164   2.821   8.400 -0.3193 -0.1833  0.1879
25768SOL    HW179621  10.139   2.737   8.440 -2.0483  1.4555  2.9369
25768SOL    HW279622  10.258   2.815   8.388 -0.4261 -2.5987  0.0049
25769SOL     OW79623   7.540   8.618   9.665  0.2984  0.1184 -0.1894
25769SOL    HW179624   7.631   8.611   9.638  0.3635 -1.8518  0.3612
25769SOL    HW279625   7.492   8.630   9.583  1.0930  2.6599 -0.3788
25770SOL     OW79626   1.439   6.356   2.264 -0.6100 -0.1957  0.3693
25770SOL    HW179627   1.495   6.296   2.215  0.7624  0.0851  1.5532
25770SOL    HW279628   1.441   6.323   2.354  0.1019  1.5482  1.0327
25771SOL     OW79629   1.714   2.356   7.530  0.2120  0.7843  0.2731
25771SOL    HW179630   1.658   2.297   7.581  2.3235 -1.5641  0.0724
25771SOL    HW279631   1.789   2.373   7.588  1.7923 -0.4990 -1.2862
25772SOL     OW79632   5.674   3.622   2.196  0.0529  0.2195  0.1162
25772SOL    HW179633   5.717   3.539   2.177 -0.0640 -0.2731  1.8290
25772SOL    HW279634   5.737   3.689   2.168  0.5306 -0.4516 -0.4411
25773SOL     OW79635   2.352   6.701   1.559  0.1720 -0.3505 -0.7250
25773SOL    HW179636   2.417   6.631   1.548  1.4908 -0.1176  3.7006
25773SOL    HW279637   2.393   6.778   1.520  1.3510 -0.8412 -0.5025
25774SOL     OW79638   5.700   1.411   2.423 -0.1112 -1.1097  0.2894
25774SOL    HW179639   5.760   1.363   2.367 -1.0327 -1.4454 -0.4377
25774SOL    HW279640   5.622   1.425   2.369 -0.7630 -0.8450  1.2604
25775SOL     OW79641  10.099   7.004   9.676 -0.1093 -0.0072 -1.1007
25775SOL    HW179642  10.122   7.047   9.594 -2.1784  0.5851 -1.4285
25775SOL    HW279643  10.006   6.985   9.668 -0.7162  1.3170  1.6723
25776SOL     OW79644   2.055   8.705   3.863 -0.2656 -0.3919 -0.5369
25776SOL    HW179645   2.040   8.787   3.817 -0.8046 -0.5514 -0.6526
25776SOL    HW279646   2.136   8.719   3.912  1.3994 -0.8616 -3.0119
25777SOL     OW79647   8.565   7.148   0.766  0.0317  0.4688  0.3395
25777SOL    HW179648   8.584   7.226   0.819 -0.3057  0.3485  0.6376
25777SOL    HW279649   8.507   7.095   0.821 -1.5058  1.0024 -0.6885
25778SOL     OW79650   3.943   5.665   9.913 -0.2508  0.1545 -0.4091
25778SOL    HW179651   3.956   5.707   9.828  0.4423  0.6067 -0.0917
25778SOL    HW279652   3.927   5.738   9.973  0.5940 -0.0561  0.0833
25779SOL     OW79653   4.354   1.645   1.740 -0.5010 -0.1192 -0.3649
25779SOL    HW179654   4.348   1.626   1.834 -1.0354  1.3928 -0.0634
25779SOL    HW279655   4.283   1.594   1.701 -0.3797 -0.6349  0.0816
25780SOL     OW79656   5.620   5.882   1.260 -0.4921  0.0635 -0.1722
25780SOL    HW179657   5.540   5.845   1.297  0.2658 -1.7505 -0.2497
25780SOL    HW279658   5.627   5.843   1.173  1.2830 -1.1289  0.4472
25781SOL     OW79659   9.307   0.566   7.784 -0.1801  0.1838  1.0185
25781SOL    HW179660   9.348   0.639   7.831 -2.0035  3.5158 -2.0907
25781SOL    HW279661   9.222   0.556   7.825 -0.7682  1.3705  0.1604
25782SOL     OW79662   3.012   4.769   2.825 -0.2657  0.0179  1.1008
25782SOL    HW179663   2.993   4.694   2.768 -1.4057 -0.0202  1.4980
25782SOL    HW279664   2.942   4.832   2.806  1.4554  1.6494 -0.2840
25783SOL     OW79665   6.266   9.247   9.579  0.1520  0.8876 -0.0463
25783SOL    HW179666   6.212   9.213   9.651 -0.7389 -0.0370 -1.1185
25783SOL    HW279667   6.256   9.342   9.584 -0.6761  0.7804  0.4625
25784SOL     OW79668   1.653   2.531   5.343 -0.4860 -0.1988 -0.1689
25784SOL    HW179669   1.579   2.587   5.369  0.9579  1.5420  0.4001
25784SOL    HW279670   1.615   2.468   5.282 -2.6092  0.0648  0.8013
25785SOL     OW79671   0.197   0.871   8.768 -0.0793 -0.1606 -0.0978
25785SOL    HW179672   0.197   0.818   8.688  2.3131 -0.7460  0.2158
25785SOL    HW279673   0.212   0.807   8.838 -1.6210  0.4173  0.8155
25786SOL     OW79674   9.402   8.072   6.924 -0.4342 -0.4923 -0.6069
25786SOL    HW179675   9.409   8.144   6.986  3.1751  0.7717 -2.2308
25786SOL    HW279676   9.428   7.995   6.974  0.8081  0.2324 -0.0949
25787SOL     OW79677  10.570   9.335   5.903 -0.0311  0.0143  0.0820
25787SOL    HW179678  10.518   9.276   5.848  1.1241 -0.5460 -0.4263
25787SOL    HW279679  10.510   9.408   5.921 -0.7582 -0.2466 -1.1145
25788SOL     OW79680   0.509   4.958   5.573  0.3296  0.3126  0.4980
25788SOL    HW179681   0.489   5.020   5.503 -1.2145 -1.5239 -0.7979
25788SOL    HW279682   0.569   4.895   5.532  0.4502 -0.0657  1.2327
25789SOL     OW79683   8.111  10.558   0.022 -0.1184 -0.3713 -0.3099
25789SOL    HW179684   8.109  10.626   0.090  0.4426 -0.7451  0.1009
25789SOL    HW279685   8.030  10.570  -0.027  0.0647  0.7194 -0.3722
25790SOL     OW79686   8.439   3.117   1.586 -0.0625 -0.2669  0.3161
25790SOL    HW179687   8.502   3.047   1.604  0.7568 -0.2726 -2.2284
25790SOL    HW279688   8.448   3.134   1.493 -2.4791  1.1149  0.2562
25791SOL     OW79689   9.279   4.956   4.548 -0.0432  0.2030 -0.3847
25791SOL    HW179690   9.346   5.016   4.579 -0.9850  1.4061 -0.6227
25791SOL    HW279691   9.316   4.916   4.470  0.2267  1.1956 -0.7733
25792SOL     OW79692   4.524   0.878   4.869 -0.2823  0.0976 -0.4123
25792SOL    HW179693   4.612   0.848   4.846 -0.5864 -2.3514  1.2094
25792SOL    HW279694   4.469   0.846   4.798  0.2098  2.8705 -2.1815
25793SOL     OW79695   2.433   5.154   7.346  0.3241  0.2295  0.3161
25793SOL    HW179696   2.525   5.156   7.374  0.6162  0.3528 -0.6106
25793SOL    HW279697   2.409   5.062   7.349  0.2757  0.2655  1.1830
25794SOL     OW79698   5.927   5.551   1.486 -0.0096 -0.1212  0.1613
25794SOL    HW179699   5.922   5.533   1.392 -2.7618  1.8856 -0.1854
25794SOL    HW279700   5.973   5.635   1.492  0.3246 -0.3320  0.6551
25795SOL     OW79701   1.931   9.136   6.340 -0.2130 -0.1612 -0.2267
25795SOL    HW179702   1.952   9.106   6.252 -0.3486 -0.5528 -0.1278
25795SOL    HW279703   1.948   9.060   6.397 -0.3170  0.0243  0.0575
25796SOL     OW79704   9.412   6.925   6.541  0.6230 -0.6243 -0.3013
25796SOL    HW179705   9.358   7.005   6.538  0.2399 -0.8615  0.0495
25796SOL    HW279706   9.373   6.873   6.611  2.3841 -0.0417  1.1892
25797SOL     OW79707   4.409   4.868   1.424  0.5956 -0.3644 -0.3161
25797SOL    HW179708   4.466   4.838   1.353  0.6892 -1.0733  0.0571
25797SOL    HW279709   4.320   4.855   1.391  0.5990  1.4117 -1.1909
25798SOL     OW79710   3.020   8.659   6.607  0.3068  0.4189  0.1221
25798SOL    HW179711   2.980   8.745   6.613  1.7243  1.0660  0.7677
25798SOL    HW279712   2.980   8.609   6.678 -1.8019 -0.0604 -1.3058
25799SOL     OW79713   4.060   6.404   6.653 -0.0203  0.0771  0.7676
25799SOL    HW179714   4.155   6.413   6.651 -0.0594  0.7220  1.4547
25799SOL    HW279715   4.027   6.490   6.628 -0.4518 -0.6640 -1.3803
25800SOL     OW79716   1.228  10.235   0.186 -0.2356 -0.1337  0.0779
25800SOL    HW179717   1.296  10.185   0.232 -1.1600 -0.5638  1.0033
25800SOL    HW279718   1.146  10.201   0.220 -0.9493 -0.0287 -1.4623
25801SOL     OW79719   5.696   9.516   0.113  0.2697 -0.2824  0.1705
25801SOL    HW179720   5.708   9.464   0.192 -0.0649  1.3910  1.3735
25801SOL    HW279721   5.724   9.458   0.042  2.8131 -1.0802  1.6709
25802SOL     OW79722   9.426   7.488   2.208 -0.7364  0.3292 -0.1079
25802SOL    HW179723   9.468   7.528   2.131 -0.2303  1.8911  0.9465
25802SOL    HW279724   9.342   7.532   2.215 -0.5934  0.5132  0.4885
25803SOL     OW79725   5.753   1.448   0.935  0.0345 -0.3263 -0.5058
25803SOL    HW179726   5.667   1.451   0.976  0.3945 -2.3181  0.5457
25803SOL    HW279727   5.737   1.414   0.847 -0.3334  0.0685 -0.5906
25804SOL     OW79728   8.610   7.303   2.256  0.0152  0.4705 -0.2474
25804SOL    HW179729   8.638   7.329   2.169  0.0535  0.8826 -0.1121
25804SOL    HW279730   8.571   7.381   2.294 -0.0108  0.2927  0.1021
25805SOL     OW79731   5.165   4.062   8.773  0.2818 -0.0679  0.3029
25805SOL    HW179732   5.110   4.131   8.810 -0.5758 -0.3367 -0.4157
25805SOL    HW279733   5.197   4.013   8.848  0.0444  0.4847  0.7700
25806SOL     OW79734   9.111   3.961   3.707 -0.1057 -0.0890 -0.2595
25806SOL    HW179735   9.101   3.998   3.620  1.2234  0.9414  0.0009
25806SOL    HW279736   9.107   4.037   3.766  1.1498 -0.5062  0.3987
25807SOL     OW79737   5.025   9.072   4.301  0.9012  0.1862  0.2764
25807SOL    HW179738   4.939   9.062   4.343  1.0615 -0.6493  0.4218
25807SOL    HW279739   5.084   9.021   4.356  1.2403 -0.3658 -0.5862
25808SOL     OW79740   6.627   5.216   2.388  0.0568 -0.2501 -0.4527
25808SOL    HW179741   6.684   5.142   2.408  1.1754  0.6326 -0.2860
25808SOL    HW279742   6.539   5.183   2.407  0.5173 -1.5422 -0.4200
25809SOL     OW79743  10.238  10.355   4.742 -0.3252  0.0790 -0.0868
25809SOL    HW179744  10.303  10.316   4.801 -0.3416 -0.3397 -0.3425
25809SOL    HW279745  10.208  10.282   4.688 -2.4023 -0.1645  1.2928
25810SOL     OW79746   0.652   2.608   9.758 -0.8001 -0.1462  0.1997
25810SOL    HW179747   0.621   2.630   9.845 -0.6000 -0.3076  0.3124
25810SOL    HW279748   0.585   2.642   9.699 -1.3051 -0.7117  0.4532
25811SOL     OW79749  10.560   6.970   7.383  0.5733 -0.0155 -0.4880
25811SOL    HW179750  10.608   7.051   7.401  0.3088 -0.3629  2.2882
25811SOL    HW279751  10.627   6.910   7.351  0.8952  1.0765 -1.9475
25812SOL     OW79752   8.550   2.709   8.644 -0.1764  0.0077 -0.5309
25812SOL    HW179753   8.609   2.785   8.645  1.5826 -1.3048 -0.2140
25812SOL    HW279754   8.483   2.730   8.708  0.9285  0.8328  0.4066
25813SOL     OW79755   2.657   7.511   2.250  0.7541  0.1717  0.3746
25813SOL    HW179756   2.623   7.600   2.240  0.8348  0.2996  1.1212
25813SOL    HW279757   2.681   7.506   2.343 -0.1564 -0.9497  0.5700
25814SOL     OW79758   7.550   2.615  10.270  0.6736  0.1365 -0.0597
25814SOL    HW179759   7.458   2.609  10.244  0.1152  1.4569  1.4190
25814SOL    HW279760   7.554   2.571  10.355  0.9352  1.8408  0.8562
25815SOL     OW79761   6.397   1.843   2.206  0.2167  0.1563 -0.5584
25815SOL    HW179762   6.449   1.815   2.131  1.1382 -0.2343  0.2048
25815SOL    HW279763   6.328   1.777   2.213 -2.0559  2.0334 -3.1375
25816SOL     OW79764   8.809   0.120   1.375  0.4661  0.4515  0.4512
25816SOL    HW179765   8.877   0.077   1.322  0.5151 -0.0033  0.8777
25816SOL    HW279766   8.772   0.186   1.317  0.3595 -0.1968 -0.2325
25817SOL     OW79767   2.168   2.703   3.250 -0.9044  0.0713  0.2040
25817SOL    HW179768   2.096   2.641   3.263 -0.1907 -0.8634 -0.1432
25817SOL    HW279769   2.244   2.658   3.287 -0.8148  1.8269  2.3167
25818SOL     OW79770   5.542   4.021   6.618  0.3130 -0.0442 -0.1442
25818SOL    HW179771   5.521   3.965   6.694 -0.3750  0.2192 -0.1314
25818SOL    HW279772   5.608   3.971   6.569 -1.7337 -1.8625 -1.2252
25819SOL     OW79773   3.930   6.722   0.379 -0.0139 -0.1522  0.6546
25819SOL    HW179774   3.992   6.742   0.449  2.2491 -1.8865 -0.6901
25819SOL    HW279775   3.946   6.630   0.358 -1.6442 -0.1032 -1.1568
25820SOL     OW79776   3.737   3.574   2.193  0.6107 -0.5409 -0.1366
25820SOL    HW179777   3.794   3.522   2.138  0.6849 -2.1287  1.3456
25820SOL    HW279778   3.736   3.528   2.277 -0.2241  1.2566  0.9063
25821SOL     OW79779   1.368   8.030   1.234  0.0362  0.5629  0.4376
25821SOL    HW179780   1.373   8.125   1.238  0.4788  0.5976 -0.5483
25821SOL    HW279781   1.379   8.009   1.141 -0.4910 -0.4262  0.5750
25822SOL     OW79782   8.468   9.540   5.957  0.1641  0.1238 -0.2902
25822SOL    HW179783   8.474   9.629   5.994 -1.2068  1.9314 -3.9509
25822SOL    HW279784   8.377   9.514   5.970  0.1862 -0.1005 -0.5762
25823SOL     OW79785   9.250   2.237   0.221 -0.3057 -0.6522  0.1420
25823SOL    HW179786   9.213   2.256   0.135  0.0347 -0.6300 -0.0032
25823SOL    HW279787   9.285   2.321   0.251 -1.4595 -0.3992  0.8227
25824SOL     OW79788   0.245   6.340   6.539 -0.2493  0.5178  1.2004
25824SOL    HW179789   0.164   6.389   6.557 -1.4096  0.1558 -2.2108
25824SOL    HW279790   0.308   6.407   6.512 -0.9976  0.4905 -0.8119
25825SOL     OW79791   8.203   7.733   7.798  0.0510  0.2039 -0.6370
25825SOL    HW179792   8.270   7.758   7.862 -0.4393 -0.1487  0.0271
25825SOL    HW279793   8.234   7.769   7.715  1.1185 -0.0433 -0.3586
25826SOL     OW79794   1.383   3.162   4.049 -0.2797  0.3984  0.4061
25826SOL    HW179795   1.376   3.242   3.998 -1.1140  0.6735  0.9321
25826SOL    HW279796   1.327   3.177   4.125 -0.2699 -0.5972  0.6243
25827SOL     OW79797   4.058   8.297   8.908 -0.1883 -0.4521  0.4752
25827SOL    HW179798   4.103   8.337   8.834 -1.7395 -0.5010 -0.5536
25827SOL    HW279799   4.082   8.205   8.905 -0.7356 -0.5803 -0.3901
25828SOL     OW79800   8.809   1.345   2.621 -0.2849 -0.1263 -0.4258
25828SOL    HW179801   8.721   1.352   2.658 -0.4361 -1.0985 -0.5625
25828SOL    HW279802   8.810   1.410   2.551 -0.2703  1.1505  0.7234
25829SOL     OW79803   8.533   0.487   0.244 -0.1826 -0.2255  0.6334
25829SOL    HW179804   8.444   0.475   0.212  0.8610 -2.7707 -1.6642
25829SOL    HW279805   8.550   0.581   0.232 -2.0077  0.0197 -0.3695
25830SOL     OW79806   3.536   7.404   0.145  0.0075 -0.8631  0.2401
25830SOL    HW179807   3.495   7.401   0.231 -3.0159 -0.8153 -1.0916
25830SOL    HW279808   3.504   7.485   0.106 -0.1858 -1.7931 -1.6158
25831SOL     OW79809   6.141   5.922   2.497 -0.3287  0.5941  0.6911
25831SOL    HW179810   6.180   5.905   2.412 -1.3286  1.7910 -0.0395
25831SOL    HW279811   6.086   5.999   2.483 -2.6002 -0.7479  1.7551
25832SOL     OW79812  10.298   1.859   6.308  0.5284  0.3349 -0.6353
25832SOL    HW179813  10.342   1.831   6.388  0.3991  1.5487 -0.1181
25832SOL    HW279814  10.369   1.879   6.247  0.6244 -0.7721 -0.9207
25833SOL     OW79815   6.219  10.541   6.153  0.0350  0.5044  0.9966
25833SOL    HW179816   6.293  10.509   6.204  0.3888  0.3945  0.4184
25833SOL    HW279817   6.221  10.490   6.073  0.3049  1.6034  0.2762
25834SOL     OW79818   6.651   7.909   5.613 -0.3340  0.1376  0.3196
25834SOL    HW179819   6.557   7.890   5.603 -0.5557  1.8723 -1.7960
25834SOL    HW279820   6.677   7.942   5.527  1.9651  0.7811  1.2056
25835SOL     OW79821   9.910   1.203  10.351 -0.0848  0.6911 -0.7693
25835SOL    HW179822   9.989   1.192  10.403 -0.5142  1.6188  0.1137
25835SOL    HW279823   9.855   1.261  10.403 -1.8755 -0.9172 -0.8085
25836SOL     OW79824   2.925   6.078   9.557  0.6860 -0.1795 -0.3396
25836SOL    HW179825   2.982   6.062   9.633 -0.0220 -0.8720  0.0676
25836SOL    HW279826   2.944   6.168   9.531  1.3082 -0.0998  0.3475
25837SOL     OW79827   1.243   2.630   2.604  0.2622  0.1348 -0.1979
25837SOL    HW179828   1.176   2.698   2.604  0.6095  0.5422  2.0820
25837SOL    HW279829   1.303   2.655   2.674  0.4654 -2.4699  0.6670
25838SOL     OW79830   0.714   0.634   1.947  0.0992  0.4213  0.6672
25838SOL    HW179831   0.667   0.551   1.951  0.2156  0.3402  0.4339
25838SOL    HW279832   0.661   0.695   1.997  0.6085 -0.0735  1.8468
25839SOL     OW79833   3.824   2.089   4.447  0.1737  0.2411 -0.3619
25839SOL    HW179834   3.809   2.016   4.387  0.5952  0.9506 -1.3667
25839SOL    HW279835   3.887   2.056   4.511  2.3430  0.4254 -2.2638
25840SOL     OW79836   0.992   5.717   6.096  0.1322  0.2677 -1.2746
25840SOL    HW179837   1.074   5.753   6.130 -0.9307  1.3357  0.2853
25840SOL    HW279838   0.972   5.771   6.020 -1.1167  2.7443  0.6673
25841SOL     OW79839   0.100   1.125   3.319  0.0451  0.2802  0.1867
25841SOL    HW179840   0.113   1.092   3.230 -1.3213  0.7648 -0.2032
25841SOL    HW279841   0.158   1.070   3.373  2.3670  1.2430 -1.2103
25842SOL     OW79842   9.720   5.825   9.223  0.2560 -0.5453  0.1485
25842SOL    HW179843   9.639   5.875   9.234  0.5304  0.3706 -1.6430
25842SOL    HW279844   9.788   5.891   9.216  1.2397 -1.3105  1.8169
25843SOL     OW79845   8.638   6.431   7.533 -0.0521  0.5802 -0.1230
25843SOL    HW179846   8.707   6.382   7.578 -0.8620  0.0009  0.5237
25843SOL    HW279847   8.652   6.411   7.440 -0.1422 -0.6060  0.1002
25844SOL     OW79848   6.127   8.944   3.689  0.0506  0.4522  0.3056
25844SOL    HW179849   6.178   8.897   3.755 -1.5881 -0.2499  1.1370
25844SOL    HW279850   6.155   9.035   3.698 -0.4685  0.4695  2.3684
25845SOL     OW79851   4.628   9.893   3.776  0.4647 -0.2826 -0.4958
25845SOL    HW179852   4.716   9.870   3.746 -0.0279 -1.2324 -1.2395
25845SOL    HW279853   4.577   9.813   3.766  0.1140 -0.5200  2.3331
25846SOL     OW79854   8.841   3.756   8.044 -0.1318 -0.2087  0.3447
25846SOL    HW179855   8.753   3.765   8.007  0.0005  2.3769  0.4798
25846SOL    HW279856   8.827   3.725   8.133 -0.6939 -2.4146 -0.4463
25847SOL     OW79857   0.301   8.707   0.748  0.1143  0.3194 -0.1414
25847SOL    HW179858   0.231   8.729   0.810  1.8434  4.0879  0.7831
25847SOL    HW279859   0.361   8.653   0.799 -0.9041 -0.8901 -0.1847
25848SOL     OW79860   8.377   0.066   8.643 -0.2623  0.1852  0.7962
25848SOL    HW179861   8.297   0.083   8.691  0.5454  2.8014  1.3822
25848SOL    HW279862   8.437   0.136   8.670  1.5411 -0.5043 -1.1062
25849SOL     OW79863   4.304   6.023   6.222  0.2437 -0.2506 -0.0354
25849SOL    HW179864   4.314   6.027   6.127  1.3134  0.2305  0.0755
25849SOL    HW279865   4.357   5.948   6.248 -1.2993 -1.3480  0.0579
25850SOL     OW79866   9.923   2.661   4.978 -0.3341 -0.0837 -0.2448
25850SOL    HW179867   9.972   2.599   5.032 -1.8675 -0.4275  0.8137
25850SOL    HW279868   9.831   2.644   4.998 -0.9321  0.4720 -2.2327
25851SOL     OW79869   9.797   8.300   6.487 -0.0099 -0.3716  0.6122
25851SOL    HW179870   9.868   8.248   6.526  0.2748 -0.2362  0.2773
25851SOL    HW279871   9.828   8.390   6.491 -0.0897 -0.3298  0.3095
25852SOL     OW79872   5.640   6.139   7.944  0.2249 -0.5271 -0.4136
25852SOL    HW179873   5.583   6.074   7.983 -3.3570  1.7663 -1.3324
25852SOL    HW279874   5.662   6.198   8.016  0.7138 -0.9122 -0.2416
25853SOL     OW79875   4.163   4.725   3.763  0.0835  0.1740  0.0949
25853SOL    HW179876   4.210   4.794   3.717  1.7011  0.7439  2.4251
25853SOL    HW279877   4.137   4.765   3.846  1.8219 -2.1420  1.8979
25854SOL     OW79878  10.525   9.242   4.556 -0.3152 -0.1257  0.1895
25854SOL    HW179879  10.528   9.171   4.620  2.1635 -0.5133 -0.2575
25854SOL    HW279880  10.561   9.318   4.603  0.0120 -0.0024 -0.2540
25855SOL     OW79881   2.679   5.245   9.544 -0.0339  0.0900  0.2514
25855SOL    HW179882   2.660   5.221   9.635 -1.8524 -1.1214 -0.3971
25855SOL    HW279883   2.593   5.261   9.505  0.6952  0.3127 -1.3200
25856SOL     OW79884   4.339   2.721   5.906  0.1385 -0.4112 -0.6916
25856SOL    HW179885   4.335   2.743   5.999  0.8200 -1.3666 -0.4078
25856SOL    HW279886   4.274   2.777   5.864 -1.4263 -1.1812  0.6014
25857SOL     OW79887   0.804   3.994   2.121  0.3030 -0.4311 -0.8285
25857SOL    HW179888   0.708   3.988   2.123  0.3301 -1.0538  1.1710
25857SOL    HW279889   0.822   4.087   2.134 -0.0361 -0.3380 -1.0004
25858SOL     OW79890   1.817   2.818   5.939  0.1019 -0.1314 -0.3407
25858SOL    HW179891   1.745   2.757   5.928 -0.1704  0.1883 -0.3443
25858SOL    HW279892   1.802   2.887   5.874  0.7423 -0.3720 -0.7564
25859SOL     OW79893   2.773   1.691   9.870 -0.6855 -0.4048 -0.1786
25859SOL    HW179894   2.731   1.773   9.845 -0.3552 -0.4156 -0.7898
25859SOL    HW279895   2.739   1.672   9.958  0.7968  1.4363  0.8410
25860SOL     OW79896   6.717   2.567   5.805 -0.8417 -0.0831 -0.3961
25860SOL    HW179897   6.798   2.615   5.782 -0.6509  0.5046  1.3488
25860SOL    HW279898   6.670   2.560   5.722 -0.3822  2.2360 -0.9469
25861SOL     OW79899   3.304   8.820   2.493 -0.2899  0.0892 -0.4180
25861SOL    HW179900   3.254   8.895   2.522 -0.0952  0.3475 -0.7438
25861SOL    HW279901   3.393   8.852   2.483  0.0584 -0.4920  0.6575
25862SOL     OW79902   4.998   2.331   9.088 -0.2363 -0.1131  0.4387
25862SOL    HW179903   5.083   2.306   9.053 -0.2295  1.6755 -0.9465
25862SOL    HW279904   4.995   2.292   9.175  1.8607 -0.4670  0.3887
25863SOL     OW79905   4.312   7.894  10.195 -0.2516  0.1811 -0.6372
25863SOL    HW179906   4.234   7.934  10.157 -0.9736 -0.3876  0.2054
25863SOL    HW279907   4.290   7.802  10.206  0.1036  0.2274  0.6640
25864SOL     OW79908   4.114   2.014   1.125  0.0094 -0.2194 -0.0456
25864SOL    HW179909   4.061   2.050   1.196  0.0213  0.9179 -0.6036
25864SOL    HW279910   4.158   1.938   1.165 -1.5618 -0.8354  0.5808
25865SOL     OW79911   0.778   2.155   1.723  0.4015 -0.2029 -0.4143
25865SOL    HW179912   0.793   2.119   1.811 -1.0716 -0.7421 -0.3552
25865SOL    HW279913   0.713   2.223   1.736  0.9476  0.4348 -0.9645
25866SOL     OW79914   7.214   8.439   7.133  0.3601 -0.2928  0.2754
25866SOL    HW179915   7.180   8.357   7.169  2.3819 -0.9008  0.9151
25866SOL    HW279916   7.262   8.413   7.054  0.4293  0.3683  0.0932
25867SOL     OW79917   7.869   9.441   3.703  0.5162  0.4860  0.0348
25867SOL    HW179918   7.779   9.414   3.685 -0.1043  1.8285  0.9806
25867SOL    HW279919   7.867   9.470   3.794  1.9389  0.4663  0.0936
25868SOL     OW79920   9.870   7.292   9.593 -0.5977 -0.2617  0.0691
25868SOL    HW179921   9.900   7.205   9.569 -2.1012 -0.4725 -1.2250
25868SOL    HW279922   9.932   7.352   9.552 -0.3546 -0.7013 -0.2077
25869SOL     OW79923   2.640   7.742   5.032  0.4717 -0.3068  0.1436
25869SOL    HW179924   2.552   7.761   5.064 -0.4964  0.1315 -2.4663
25869SOL    HW279925   2.691   7.820   5.053 -0.1743  0.0584  0.3589
25870SOL     OW79926   9.250   1.051   9.066  0.5710 -1.3239 -0.6721
25870SOL    HW179927   9.323   1.034   9.007  1.6302  1.6187 -0.3920
25870SOL    HW279928   9.172   1.051   9.009  0.8186 -3.5981 -1.1162
25871SOL     OW79929   1.682   3.671   2.955  0.1172  0.1497 -0.2107
25871SOL    HW179930   1.715   3.700   2.870  0.6634  0.9148  0.2512
25871SOL    HW279931   1.634   3.746   2.990  0.0829 -0.0783  0.2495
25872SOL     OW79932   6.331   5.547   0.005  0.3341 -0.1338  0.0420
25872SOL    HW179933   6.259   5.498   0.045  1.8215 -2.5520 -0.0561
25872SOL    HW279934   6.362   5.605   0.074 -0.5153 -0.4012  0.6684
25873SOL     OW79935   8.955   6.003  10.385  0.0768  0.1959  0.5953
25873SOL    HW179936   9.022   5.969  10.445 -0.8231 -1.5941  0.6573
25873SOL    HW279937   8.890   6.043  10.443  0.4427  0.7788  0.6171
25874SOL     OW79938   3.378   3.001   7.327 -0.8529  0.2425  0.0516
25874SOL    HW179939   3.363   2.907   7.313 -0.9630  0.4746 -1.4569
25874SOL    HW279940   3.331   3.020   7.408  0.4893 -1.3222  1.2797
25875SOL     OW79941   4.913   3.135   5.358 -0.2157  0.3217 -0.2623
25875SOL    HW179942   4.850   3.205   5.343  0.6836  0.8765 -1.6364
25875SOL    HW279943   4.934   3.141   5.451 -1.4353  0.7467  0.0040
25876SOL     OW79944   7.849   8.076   7.979 -0.2776 -0.5468  0.5652
25876SOL    HW179945   7.926   8.094   7.925 -0.1770 -1.7038  0.2894
25876SOL    HW279946   7.781   8.054   7.916 -0.8822  0.5595  0.8036
25877SOL     OW79947   4.234   2.694   7.601  0.3534  0.3279  0.0027
25877SOL    HW179948   4.329   2.691   7.603  0.3799 -0.5867  3.1254
25877SOL    HW279949   4.207   2.602   7.612 -0.8404  0.6959  0.3678
25878SOL     OW79950   2.289   4.950   6.920 -0.4786  0.0362  0.5752
25878SOL    HW179951   2.275   4.989   6.833 -2.0084  0.6217  1.0454
25878SOL    HW279952   2.243   4.867   6.917  1.4569 -1.0684  0.0930
25879SOL     OW79953   6.732   3.848   0.037  0.0358  0.7234 -0.0545
25879SOL    HW179954   6.679   3.836   0.115  1.0296 -0.3337  0.4776
25879SOL    HW279955   6.669   3.863  -0.033 -1.0075 -0.9563  0.4820
25880SOL     OW79956  10.195   4.378   0.651  0.6826 -0.3476  0.2718
25880SOL    HW179957  10.128   4.432   0.610  0.9078 -1.3012 -1.4166
25880SOL    HW279958  10.267   4.439   0.670  1.3483 -0.1233 -2.5047
25881SOL     OW79959   9.557   0.642   5.335  0.5023  0.2513 -0.5537
25881SOL    HW179960   9.652   0.649   5.345  0.5184  0.8746 -1.0594
25881SOL    HW279961   9.535   0.706   5.267 -0.2517 -0.0444 -0.6040
25882SOL     OW79962   4.414   5.928   0.369 -0.6360 -0.3489  0.3333
25882SOL    HW179963   4.402   6.019   0.341  0.9535  0.4284  1.9836
25882SOL    HW279964   4.463   5.887   0.297 -0.2787  0.4590  0.1068
25883SOL     OW79965   6.913   4.242   2.698  0.1897 -0.1244  0.4554
25883SOL    HW179966   6.905   4.171   2.761 -0.4103  1.2796  2.0512
25883SOL    HW279967   6.832   4.239   2.647  0.9575 -1.6665 -0.7663
25884SOL     OW79968   2.214   6.788   7.820 -0.2488  0.2626  0.1090
25884SOL    HW179969   2.176   6.828   7.898 -0.6920  2.1584 -1.0191
25884SOL    HW279970   2.275   6.723   7.854 -2.0248 -0.5319  1.9968
25885SOL     OW79971   4.600   6.381   7.023  0.4025 -0.5915 -0.6239
25885SOL    HW179972   4.643   6.326   7.088 -0.9744  1.1685  1.9227
25885SOL    HW279973   4.535   6.323   6.983  0.8052 -1.5302  0.0224
25886SOL     OW79974   5.025   4.583   6.383 -0.4814  0.2912  0.3577
25886SOL    HW179975   5.010   4.508   6.440  1.8365  0.4688  1.3098
25886SOL    HW279976   4.942   4.632   6.384 -1.2054 -0.9073  1.7395
25887SOL     OW79977   3.482   4.794   6.059  0.0927 -0.2610 -0.0258
25887SOL    HW179978   3.458   4.752   6.141  1.3985 -2.5201 -0.7279
25887SOL    HW279979   3.577   4.800   6.062  0.0205  1.7839 -0.4192
25888SOL     OW79980   6.742   2.610   4.361  0.4589  0.9174 -0.5308
25888SOL    HW179981   6.666   2.557   4.339 -0.7949  2.3554  0.1729
25888SOL    HW279982   6.775   2.640   4.276 -0.3518  1.0825 -0.7941
25889SOL     OW79983   9.745   0.738   0.318  0.0092  0.2115  0.0362
25889SOL    HW179984   9.807   0.752   0.390  0.4619  0.9355 -0.4751
25889SOL    HW279985   9.768   0.652   0.283  0.6658  0.4190 -0.0707
25890SOL     OW79986   1.671   7.860  10.184  0.1301  0.1905 -0.0378
25890SOL    HW179987   1.694   7.930  10.123 -0.9726  0.4920 -0.1346
25890SOL    HW279988   1.752   7.811  10.197  0.5618  0.6020 -1.1215
25891SOL     OW79989   9.846   7.943   1.218  0.2749  0.2927 -0.2263
25891SOL    HW179990   9.837   8.005   1.291 -2.2898  0.6103 -0.7102
25891SOL    HW279991   9.869   7.860   1.260  1.5720  1.0549  0.6435
25892SOL     OW79992   5.438   8.753   3.739 -0.2494 -0.1827 -0.3438
25892SOL    HW179993   5.520   8.717   3.772 -0.6302 -0.0276  0.8177
25892SOL    HW279994   5.465   8.821   3.678  0.5182  0.5833  0.8069
25893SOL     OW79995   4.350   0.127   9.652 -0.4661 -0.0497  0.0202
25893SOL    HW179996   4.325   0.106   9.742  0.2487  0.4330  0.3419
25893SOL    HW279997   4.432   0.176   9.661 -0.3331 -0.0888 -0.9009
25894SOL     OW79998   5.982   8.547   8.503  0.2961 -0.2343  0.4382
25894SOL    HW179999   5.900   8.551   8.551 -0.5443  0.9744 -1.0048
25894SOL    HW280000   6.049   8.563   8.569 -0.6803 -0.3706  1.4927
25895SOL     OW80001   4.917   4.851   7.255  0.7480 -0.4977  0.9188
25895SOL    HW180002   4.894   4.758   7.246  1.7548 -0.7983  1.2813
25895SOL    HW280003   4.836   4.898   7.236  0.2588 -1.4480  0.5953
25896SOL     OW80004   9.033   0.696   4.872  0.3920 -0.0892  0.5588
25896SOL    HW180005   8.955   0.713   4.925 -0.5333 -0.6217 -0.5952
25896SOL    HW280006   9.102   0.681   4.936 -0.1768  1.4662  1.6171
25897SOL     OW80007   9.789   1.321   1.717  0.7659  0.3050  0.1317
25897SOL    HW180008   9.716   1.311   1.656  1.3419  1.9773 -0.8913
25897SOL    HW280009   9.752   1.372   1.790  0.0381 -1.8183  1.3504
25898SOL     OW80010   5.552   4.551  10.399  0.2644 -0.1809  0.1411
25898SOL    HW180011   5.558   4.565  10.494  3.1644 -0.3641  0.1008
25898SOL    HW280012   5.507   4.467  10.390 -2.9585  1.2999  1.1182
25899SOL     OW80013   2.606   8.852   5.410 -0.5534  0.2957  0.3628
25899SOL    HW180014   2.527   8.798   5.401 -0.5768  0.3805  0.0452
25899SOL    HW280015   2.638   8.862   5.320 -1.2007  1.7682  0.2704
25900SOL     OW80016   3.801   7.397   2.926 -0.3251 -0.5117 -0.0504
25900SOL    HW180017   3.752   7.467   2.882  0.3929  0.7132  1.0328
25900SOL    HW280018   3.893   7.419   2.912 -0.0567 -2.3210 -1.3292
25901SOL     OW80019   9.013   0.013   0.886 -0.2415  0.3114 -0.0783
25901SOL    HW180020   8.984   0.096   0.848 -0.6489 -0.2020 -0.9220
25901SOL    HW280021   8.957  -0.053   0.845 -0.0324 -0.3680  0.7031
25902SOL     OW80022   0.234   3.474   0.728  0.0881 -0.2199 -0.3326
25902SOL    HW180023   0.149   3.495   0.765 -0.4022 -1.9260 -0.4040
25902SOL    HW280024   0.215   3.416   0.654  1.2220  0.8340 -1.4963
25903SOL     OW80025   1.869   8.069   4.616 -0.2426 -0.4073 -1.4203
25903SOL    HW180026   1.900   8.109   4.535 -1.3709 -1.1024 -2.2247
25903SOL    HW280027   1.806   8.132   4.651  0.7587  0.2148 -0.6929
25904SOL     OW80028   5.110   8.408   4.203  0.1051 -0.4851  0.3681
25904SOL    HW180029   5.060   8.472   4.254 -0.3954  0.3689 -1.1592
25904SOL    HW280030   5.050   8.334   4.191  0.1677 -0.6199  0.8581
25905SOL     OW80031   5.813  10.136   0.311  0.4377  0.4690 -0.0227
25905SOL    HW180032   5.742  10.139   0.375  1.1164  0.8577  0.7252
25905SOL    HW280033   5.806  10.218   0.264  0.8502  0.8485  0.5659
25906SOL     OW80034   1.891   2.231   0.610 -0.9554  0.3680  0.4514
25906SOL    HW180035   1.873   2.172   0.683  0.6268 -0.4328  0.2411
25906SOL    HW280036   1.875   2.318   0.646 -0.7873 -0.0448  1.5974
25907SOL     OW80037   0.487   0.781   1.006 -0.0990 -0.2586  0.0256
25907SOL    HW180038   0.573   0.788   1.047  0.6239  0.5474 -1.5195
25907SOL    HW280039   0.495   0.831   0.925 -1.8924 -0.5590 -0.3892
25908SOL     OW80040   4.398   2.384   6.697 -0.1597 -0.4756 -0.1810
25908SOL    HW180041   4.405   2.478   6.709 -2.4340 -0.1724 -0.7710
25908SOL    HW280042   4.411   2.370   6.603 -1.4629 -0.5341 -0.3643
25909SOL     OW80043   9.448   5.839   7.455  0.5069  0.2537 -0.2567
25909SOL    HW180044   9.419   5.748   7.457  2.1904 -0.3671 -1.8560
25909SOL    HW280045   9.375   5.886   7.413  0.4703 -0.7309 -1.3374
25910SOL     OW80046  10.475   4.021  10.054  0.0278  0.4062  0.5653
25910SOL    HW180047  10.541   4.085  10.026 -0.1508  0.6860  0.7796
25910SOL    HW280048  10.525   3.953  10.100  0.3796 -0.2739 -0.7759
25911SOL     OW80049   7.621   8.928   9.479  0.5713 -0.3522 -0.1799
25911SOL    HW180050   7.606   8.846   9.432 -1.1884 -1.6421  2.3716
25911SOL    HW280051   7.569   8.993   9.433 -2.3981 -1.9068  0.7143
25912SOL     OW80052   1.888   6.859   9.505  0.5482  0.0088  0.1546
25912SOL    HW180053   1.964   6.814   9.469  1.2227  0.7363  0.6309
25912SOL    HW280054   1.884   6.941   9.456  0.1833  0.0592  0.2644
25913SOL     OW80055   9.471   0.703   7.317  0.5481 -0.0338  0.1802
25913SOL    HW180056   9.463   0.737   7.406  0.8596  0.5457 -0.0045
25913SOL    HW280057   9.565   0.693   7.304  0.6266  1.4377 -0.6318
25914SOL     OW80058   7.202   0.328   5.042 -0.0605 -0.0711 -0.0150
25914SOL    HW180059   7.259   0.396   5.006 -0.0595  1.1528  2.1591
25914SOL    HW280060   7.113   0.358   5.022 -0.0672 -1.4867 -2.5268
25915SOL     OW80061   0.132   3.053   5.211 -0.2362 -0.2060 -0.1453
25915SOL    HW180062   0.116   3.067   5.118 -0.0246  1.7671  0.0797
25915SOL    HW280063   0.084   3.124   5.254 -0.3205 -1.0849  1.2520
25916SOL     OW80064   3.904   6.895  10.413  0.4589  0.2520  0.2042
25916SOL    HW180065   3.901   6.800  10.423 -0.5885  0.0663 -1.4649
25916SOL    HW280066   3.997   6.916  10.412  0.6901 -0.6687  1.2606
25917SOL     OW80067   7.069   5.162   5.680 -0.4159 -0.0657  0.0381
25917SOL    HW180068   7.140   5.160   5.616 -0.5899 -0.9619 -0.1338
25917SOL    HW280069   7.057   5.255   5.698  1.1426  0.0811  0.4699
25918SOL     OW80070   8.137   8.838   4.324  0.0256  0.7425 -0.2230
25918SOL    HW180071   8.053   8.828   4.278 -0.8365  1.8068  1.0374
25918SOL    HW280072   8.165   8.927   4.304  1.0954  0.2517 -0.9789
25919SOL     OW80073   2.016  10.108   4.987  0.4013  0.4377  0.2384
25919SOL    HW180074   2.104  10.121   4.950  0.6675 -0.7074  0.4137
25919SOL    HW280075   2.002  10.184   5.043  0.3756  1.7465 -1.4530
25920SOL     OW80076  10.517   6.445   0.539  1.3104 -0.4913  0.1824
25920SOL    HW180077  10.585   6.428   0.603  2.2916 -2.1341 -1.2115
25920SOL    HW280078  10.501   6.361   0.497 -2.1167 -0.3286  0.8858
25921SOL     OW80079   0.633   2.394   2.420 -0.4236 -0.0506 -0.5407
25921SOL    HW180080   0.626   2.365   2.511 -0.0214  0.4308 -0.3544
25921SOL    HW280081   0.580   2.474   2.415 -0.8918 -0.3760 -0.8639
25922SOL     OW80082   3.179   8.838   1.473 -0.2163  0.0341  0.4639
25922SOL    HW180083   3.103   8.782   1.458 -0.3895  0.1920  0.7558
25922SOL    HW280084   3.182   8.896   1.397  0.1126 -0.5339  0.0318
25923SOL     OW80085   5.167   9.616  10.339 -0.2934 -0.2229  0.1661
25923SOL    HW180086   5.249   9.567  10.330  1.2494  1.1194  4.4881
25923SOL    HW280087   5.101   9.559  10.300  2.3884 -2.0539 -2.1594
25924SOL     OW80088   9.764   5.570   9.635  0.0444  0.0897 -0.0955
25924SOL    HW180089   9.692   5.546   9.693 -0.6321  1.3703 -0.3758
25924SOL    HW280090   9.725   5.576   9.548  1.0604 -1.8534 -0.7511
25925SOL     OW80091   5.656   1.885   4.362  0.0411 -0.4826  0.1412
25925SOL    HW180092   5.680   1.911   4.451  1.0664 -0.8346 -0.0256
25925SOL    HW280093   5.708   1.941   4.305  0.6449 -1.4018 -0.2261
25926SOL     OW80094   1.051   4.241   8.346  0.3835  0.0561 -0.0658
25926SOL    HW180095   0.989   4.177   8.381  0.2624  0.1710 -0.0724
25926SOL    HW280096   1.092   4.279   8.423 -1.5800  2.0322  0.0817
25927SOL     OW80097   9.413   8.900   1.044  1.0275  0.2897 -0.4127
25927SOL    HW180098   9.351   8.972   1.056  1.3552  0.5934 -0.5335
25927SOL    HW280099   9.447   8.882   1.132  2.3274  1.5279 -0.6317
25928SOL     OW80100   5.080   3.035   2.685 -0.4272  0.0176  0.3964
25928SOL    HW180101   5.062   2.961   2.626 -0.7462  0.6782 -0.3499
25928SOL    HW280102   5.018   3.103   2.658  0.7095  1.0234  0.2245
25929SOL     OW80103   0.052   3.812   5.243  0.5756 -0.7438  0.2348
25929SOL    HW180104  -0.025   3.866   5.226  0.6281 -0.1044  1.8629
25929SOL    HW280105   0.019   3.736   5.291  0.7831 -1.1798 -0.2955
25930SOL     OW80106   1.149   3.746  10.028  0.4789  0.5813  0.6533
25930SOL    HW180107   1.079   3.756   9.965  2.0527  1.2831 -1.0625
25930SOL    HW280108   1.179   3.835  10.046  0.5664  0.3402  1.8469
25931SOL     OW80109   3.193   1.308   3.058  0.1962  0.2349  0.3627
25931SOL    HW180110   3.129   1.303   2.986 -0.6973  0.1101  1.1417
25931SOL    HW280111   3.278   1.294   3.016 -0.4062 -0.9322 -0.5196
25932SOL     OW80112   2.583   2.445   6.567  0.3983  0.4885  0.2807
25932SOL    HW180113   2.527   2.510   6.524  0.2241 -0.5484 -1.1462
25932SOL    HW280114   2.523   2.374   6.591  0.5808  0.8363  1.8622
25933SOL     OW80115   0.416   6.437   2.687 -0.3077 -0.7618 -0.5505
25933SOL    HW180116   0.363   6.405   2.760  0.8644 -1.9969 -0.1830
25933SOL    HW280117   0.469   6.361   2.661  1.1481  0.3437 -1.0029
25934SOL     OW80118   4.644   1.143   2.861  0.7601 -0.3034 -0.1171
25934SOL    HW180119   4.581   1.104   2.922 -1.9096  2.8298 -0.6003
25934SOL    HW280120   4.710   1.183   2.917 -0.3280  0.4309  0.6842
25935SOL     OW80121   2.816   7.416   7.111 -0.2878 -0.5080  0.6718
25935SOL    HW180122   2.846   7.327   7.093  0.1959  0.1586 -2.2863
25935SOL    HW280123   2.800   7.417   7.206  3.3712 -2.6095  1.4804
25936SOL     OW80124   6.881   0.953   3.372  0.8632 -0.0062  0.0139
25936SOL    HW180125   6.826   0.875   3.376  1.2295 -0.4773 -2.5058
25936SOL    HW280126   6.930   0.951   3.454  0.0238 -1.7779  0.5378
25937SOL     OW80127   9.748   2.021  10.004 -0.1891 -0.0519  0.3339
25937SOL    HW180128   9.770   2.095  10.060 -1.7295  0.5942  0.1334
25937SOL    HW280129   9.775   1.944  10.054  0.7661  0.5992  0.8601
25938SOL     OW80130   2.266   4.393   7.848 -0.0601 -0.2036 -0.6506
25938SOL    HW180131   2.204   4.460   7.821  0.0899 -0.5034 -1.7663
25938SOL    HW280132   2.212   4.322   7.884 -0.3252 -0.1937 -1.0267
25939SOL     OW80133   0.233   0.043   3.751 -0.1965 -0.0578  0.4015
25939SOL    HW180134   0.170   0.071   3.818 -0.7702 -1.4442  0.4781
25939SOL    HW280135   0.318   0.072   3.784 -0.8569  3.5822 -0.6048
25940SOL     OW80136   2.730   5.924   0.863  0.2642 -0.5312 -0.2323
25940SOL    HW180137   2.668   5.921   0.790 -0.8546  2.1307  0.4855
25940SOL    HW280138   2.811   5.956   0.825 -0.4980  1.4686 -0.2998
25941SOL     OW80139  10.263   9.825   6.329  0.3177  0.3704  0.4332
25941SOL    HW180140  10.266   9.856   6.420 -0.3122  1.0100  0.2442
25941SOL    HW280141  10.355   9.822   6.302  0.4877  0.5527  0.9643
25942SOL     OW80142   9.852   4.473   6.628 -0.5448 -0.6861  0.5535
25942SOL    HW180143   9.757   4.462   6.619 -0.4569 -3.2113  1.7985
25942SOL    HW280144   9.889   4.397   6.582  0.9838  0.9610 -1.0710
25943SOL     OW80145   2.018   1.750  10.486 -0.1212 -0.1321 -0.3483
25943SOL    HW180146   2.090   1.769  10.546 -1.3210 -2.2339  1.9641
25943SOL    HW280147   2.060   1.722  10.405  1.6233 -0.1330  0.5085
25944SOL     OW80148   2.871   9.149   7.430 -0.3582 -0.0429  0.2634
25944SOL    HW180149   2.783   9.181   7.409 -0.7782 -0.6925  1.0217
25944SOL    HW280150   2.924   9.175   7.354 -0.8832  1.5831  0.4018
25945SOL     OW80151   0.061   8.861   3.288  0.0125 -0.3158  0.6452
25945SOL    HW180152  -0.003   8.922   3.252  0.4780  0.0688  0.4606
25945SOL    HW280153   0.135   8.915   3.315 -0.6430 -0.4939  2.9847
25946SOL     OW80154   5.619   3.114  10.261  0.3877 -0.3454 -0.0810
25946SOL    HW180155   5.618   3.191  10.318 -2.9935 -0.1591 -0.2349
25946SOL    HW280156   5.689   3.059  10.297  2.7531  2.5607  0.1900
25947SOL     OW80157   1.077   1.675   2.201 -0.3765 -0.7830 -0.4342
25947SOL    HW180158   1.135   1.676   2.277 -1.5520 -1.6527  0.5364
25947SOL    HW280159   1.132   1.645   2.129  0.9267  0.7008 -0.0957
25948SOL     OW80160   1.407   9.443  10.049 -0.0258  0.5432  0.0511
25948SOL    HW180161   1.352   9.520  10.061  0.0178  1.0483 -2.4798
25948SOL    HW280162   1.346   9.371  10.034 -0.0648  0.7305 -0.7642
25949SOL     OW80163   2.692   5.075   5.903  0.2437 -0.2418  0.1917
25949SOL    HW180164   2.738   4.998   5.870  0.0212 -0.0252 -0.6733
25949SOL    HW280165   2.647   5.110   5.826 -1.7269 -0.6850  1.0765
25950SOL     OW80166   5.978   9.059   2.578 -0.4548 -0.2051 -0.2011
25950SOL    HW180167   6.015   9.115   2.508 -1.2980 -0.6236 -0.9965
25950SOL    HW280168   6.019   9.092   2.658  1.4484 -0.4628 -1.0002
25951SOL     OW80169   1.298   8.866   8.561 -0.5889 -0.8146 -0.7121
25951SOL    HW180170   1.256   8.809   8.497  0.1505  0.4133 -2.3637
25951SOL    HW280171   1.262   8.953   8.544  1.9914  0.1491 -1.7363
25952SOL     OW80172   0.502   6.588   1.117  0.0675 -0.2819  0.2273
25952SOL    HW180173   0.458   6.642   1.051  0.3411 -0.9522 -0.5207
25952SOL    HW280174   0.449   6.600   1.196 -1.9325 -1.5948 -0.8158
25953SOL     OW80175   9.757   2.978  10.478  0.8527 -0.2775 -0.7303
25953SOL    HW180176   9.811   3.057  10.471 -0.5596  0.6925 -1.1833
25953SOL    HW280177   9.797   2.928  10.549  2.0085  0.6651 -0.6822
25954SOL     OW80178   5.745   5.944   4.844 -0.1193  0.1407 -0.9831
25954SOL    HW180179   5.828   5.929   4.800 -0.4961 -0.0565 -1.6497
25954SOL    HW280180   5.698   6.005   4.786 -1.2650 -1.3576 -1.7055
25955SOL     OW80181   7.152   5.363   2.840  0.5273 -0.3761  0.0779
25955SOL    HW180182   7.057   5.362   2.826  0.4418  0.0802  0.5775
25955SOL    HW280183   7.179   5.452   2.818  1.0209 -0.8141 -1.1329
25956SOL     OW80184   2.552   8.805   9.843 -0.8779  0.1275 -0.4750
25956SOL    HW180185   2.633   8.813   9.793  0.5487  0.8826  1.8423
25956SOL    HW280186   2.509   8.728   9.805  0.1540  0.5751 -2.7355
25957SOL     OW80187   0.991   3.721   0.992  0.2845 -0.1346  0.5895
25957SOL    HW180188   0.913   3.754   1.037  0.9519  0.2632  1.4772
25957SOL    HW280189   0.969   3.630   0.971 -0.5135  0.0445  0.5964
25958SOL     OW80190  10.185   5.551   5.163 -0.1111 -0.6123 -0.3158
25958SOL    HW180191  10.278   5.571   5.158  0.0544 -1.4248 -0.6006
25958SOL    HW280192  10.143   5.614   5.105  0.0134  1.1793  1.4471
25959SOL     OW80193   7.003   7.047   6.614 -0.1489 -0.5476 -0.0435
25959SOL    HW180194   6.911   7.037   6.588 -0.0006  1.9624 -1.9004
25959SOL    HW280195   7.051   6.988   6.556 -0.4188 -0.1200 -0.7146
25960SOL     OW80196   7.802   0.647   3.362 -0.1264  0.0066  0.1702
25960SOL    HW180197   7.786   0.702   3.285 -0.5569  0.5805  0.6545
25960SOL    HW280198   7.897   0.646   3.371 -0.0574 -0.2804 -0.5163
25961SOL     OW80199   5.374   2.175   3.041 -0.3956 -0.1087  0.5058
25961SOL    HW180200   5.428   2.097   3.036 -1.4165 -0.7901 -0.2188
25961SOL    HW280201   5.430   2.241   3.082  1.3130 -0.4869 -1.1476
25962SOL     OW80202   1.946   6.951   5.172  0.2085 -0.1513 -0.0176
25962SOL    HW180203   1.920   7.042   5.173 -0.2714 -0.2924  0.4615
25962SOL    HW280204   2.042   6.953   5.182  0.1212  0.2730  0.8368
25963SOL     OW80205  10.438   3.569   4.224  0.7289 -0.2785 -0.0363
25963SOL    HW180206  10.521   3.617   4.220 -0.2064  1.4655 -3.5869
25963SOL    HW280207  10.461   3.479   4.201  1.9291 -0.5256  1.9535
25964SOL     OW80208   8.263   6.595   1.743 -0.1387  0.5970 -0.4517
25964SOL    HW180209   8.183   6.646   1.754 -0.4887  0.1732 -1.0220
25964SOL    HW280210   8.334   6.658   1.757 -0.5653  0.9466  0.1726
25965SOL     OW80211   4.057   0.631  10.068  0.0066 -0.7220  0.5831
25965SOL    HW180212   4.078   0.560  10.007  1.2317 -0.6428  0.8866
25965SOL    HW280213   4.130   0.692  10.059 -1.2323  0.7124  0.0349
25966SOL     OW80214   5.761  10.135   7.086 -0.6666  0.1434  0.2461
25966SOL    HW180215   5.724  10.168   7.168 -0.3049  1.7911 -0.2050
25966SOL    HW280216   5.833  10.196   7.066  0.9460 -1.7286  0.0169
25967SOL     OW80217   0.257   1.304   7.239  0.0392  0.2977 -0.3433
25967SOL    HW180218   0.184   1.352   7.200  0.4177  1.3292  0.1796
25967SOL    HW280219   0.283   1.357   7.314  0.0231 -1.1040  0.6821
25968SOL     OW80220   3.397   1.609   4.711 -0.0100 -0.0466 -0.6315
25968SOL    HW180221   3.349   1.656   4.643  0.5162  2.1746  0.4440
25968SOL    HW280222   3.445   1.541   4.663 -0.6417  0.6277 -2.3075
25969SOL     OW80223   8.340   3.132   4.981  0.2791 -0.4129 -0.6630
25969SOL    HW180224   8.418   3.188   4.980 -0.3382  0.6377  1.6405
25969SOL    HW280225   8.365   3.059   5.039 -1.0151  1.0435  1.9308
25970SOL     OW80226   1.824   8.864   1.134  0.3213 -0.0567 -0.2096
25970SOL    HW180227   1.731   8.854   1.113  0.3178 -1.3214  0.2855
25970SOL    HW280228   1.867   8.872   1.049 -0.3372  1.8738 -0.4116
25971SOL     OW80229   9.531   8.348   3.916 -0.5374 -0.2010  0.9814
25971SOL    HW180230   9.472   8.367   3.843 -0.3956  0.4014  1.0181
25971SOL    HW280231   9.619   8.364   3.881 -0.5246  1.4351  1.6546
25972SOL     OW80232   8.030   3.399   3.695 -0.1699  0.4600  0.2001
25972SOL    HW180233   8.019   3.307   3.720  1.3094 -0.1598 -1.1836
25972SOL    HW280234   8.043   3.396   3.600  1.2933  1.9398  0.3147
25973SOL     OW80235   7.735   7.022   3.311 -0.3847  0.3400 -0.1191
25973SOL    HW180236   7.818   6.991   3.345 -0.8859 -0.6204  0.2501
25973SOL    HW280237   7.669   6.969   3.355 -1.1941  0.9966 -0.5014
25974SOL     OW80238   5.259   0.826   8.366 -0.0313 -0.0519 -0.2977
25974SOL    HW180239   5.319   0.847   8.437 -2.4667  2.2350  1.2745
25974SOL    HW280240   5.196   0.765   8.405  0.3742 -1.2492 -1.4648
25975SOL     OW80241   6.432   1.084   6.620  0.4421 -0.1486  0.5565
25975SOL    HW180242   6.522   1.089   6.655  1.1934  0.0003 -1.2975
25975SOL    HW280243   6.402   0.996   6.644 -0.6114  1.1459  4.9300
25976SOL     OW80244   8.093   6.209   4.742  0.2543  0.1997  0.9238
25976SOL    HW180245   8.136   6.267   4.679  0.4378 -0.0400  0.8247
25976SOL    HW280246   8.133   6.123   4.726 -1.6863 -0.5032 -0.5945
25977SOL     OW80247  10.325   3.071   0.873  0.2254 -0.4719 -0.0391
25977SOL    HW180248  10.248   3.044   0.822  0.3371 -0.7900 -0.0457
25977SOL    HW280249  10.345   2.995   0.928  0.7324 -0.5170 -0.2783
25978SOL     OW80250   6.252   2.025   2.033 -0.6786  0.4646 -0.0574
25978SOL    HW180251   6.301   2.067   1.962  0.2211  1.9951  1.3973
25978SOL    HW280252   6.318   1.979   2.084 -1.1529  0.3082  0.4290
25979SOL     OW80253   8.759   3.421  10.054 -0.6013 -1.1292  0.1589
25979SOL    HW180254   8.691   3.352  10.055 -2.0060  0.1397  2.7146
25979SOL    HW280255   8.841   3.373  10.063 -1.2911 -2.5976 -0.8231
25980SOL     OW80256   3.805   1.193   4.513  0.5623 -0.0131  0.3235
25980SOL    HW180257   3.743   1.139   4.464 -0.5327  2.4458 -1.2284
25980SOL    HW280258   3.862   1.230   4.446  2.6475 -0.8230  1.5592
25981SOL     OW80259   5.841   0.186   7.157 -0.4398 -0.5925  0.2982
25981SOL    HW180260   5.857   0.107   7.106 -1.2334 -0.2261 -0.5495
25981SOL    HW280261   5.864   0.162   7.247 -1.7327 -2.1580  0.2581
25982SOL     OW80262   7.055   1.190   6.192 -0.3004  0.5055  0.3633
25982SOL    HW180263   6.978   1.210   6.139 -0.2064 -0.5395 -0.1978
25982SOL    HW280264   7.127   1.187   6.130  0.3050  1.9443  0.9505
25983SOL     OW80265   9.042   6.739   0.039 -0.6743  0.2090 -0.1268
25983SOL    HW180266   8.992   6.808  -0.004 -2.9035 -1.4073 -0.3080
25983SOL    HW280267   8.977   6.673   0.063  1.2010 -1.3604  1.0068
25984SOL     OW80268   1.094   5.955   8.233  0.2756 -0.7269  0.4093
25984SOL    HW180269   1.184   5.985   8.241 -0.0852  0.4825  0.2239
25984SOL    HW280270   1.044   6.035   8.212 -0.9566 -1.2147  1.3859
25985SOL     OW80271   3.691   4.188   3.233 -0.2264 -0.5497  0.1070
25985SOL    HW180272   3.750   4.112   3.233 -1.1141 -1.2674  0.7671
25985SOL    HW280273   3.711   4.234   3.152  0.0469 -1.7239 -0.5187
25986SOL     OW80274   6.827   7.590   0.096  0.3314 -0.3103 -0.4198
25986SOL    HW180275   6.886   7.584   0.021  1.6962  0.6922  0.5217
25986SOL    HW280276   6.836   7.680   0.127 -0.5931 -0.5551  0.6226
25987SOL     OW80277   9.680   7.852   7.833 -0.3397 -0.0182  0.2423
25987SOL    HW180278   9.585   7.844   7.836 -0.3869 -1.7976 -2.6491
25987SOL    HW280279   9.708   7.842   7.924 -2.6642 -4.6043  0.7463
25988SOL     OW80280   9.229   5.735   8.292  0.0444  0.6732 -0.2313
25988SOL    HW180281   9.314   5.694   8.274 -0.6941 -0.5256 -1.1635
25988SOL    HW280282   9.250   5.812   8.345  1.5663 -0.4901  0.9286
25989SOL     OW80283   7.725   0.579   6.475  0.2636 -0.2857 -0.0424
25989SOL    HW180284   7.683   0.656   6.514  0.6750  0.2395 -0.6267
25989SOL    HW280285   7.653   0.523   6.448 -0.0369 -0.2103  0.5756
25990SOL     OW80286   2.064   6.197   3.276  0.5240 -0.8963  0.0182
25990SOL    HW180287   1.999   6.194   3.207  0.0944  0.2393  0.3461
25990SOL    HW280288   2.033   6.134   3.342  0.3316 -1.1421 -0.3069
25991SOL     OW80289   1.211   5.427   4.713 -0.1068 -0.0313  0.3409
25991SOL    HW180290   1.247   5.351   4.667 -0.1356  0.4838 -0.5599
25991SOL    HW280291   1.288   5.471   4.750 -0.0410 -0.2188  0.4298
25992SOL     OW80292   0.153   2.759   5.168 -0.1562  0.3107  0.1172
25992SOL    HW180293   0.215   2.743   5.239 -1.9469  1.6667  2.0936
25992SOL    HW280294   0.129   2.851   5.176 -1.9364  0.0082 -0.9720
25993SOL     OW80295   5.375   0.023   0.881  0.1950 -0.0000 -1.1575
25993SOL    HW180296   5.307  -0.009   0.941  0.4080  0.4785 -0.6459
25993SOL    HW280297   5.426  -0.054   0.859 -1.4089 -0.6502 -2.7527
25994SOL     OW80298   0.941   8.253  10.376  0.2160 -0.4186  0.2203
25994SOL    HW180299   1.032   8.228  10.356  1.3762  1.2817  2.7945
25994SOL    HW280300   0.942   8.348  10.378 -1.4045 -0.3832  1.2406
25995SOL     OW80301   5.470   0.102   4.157 -0.1894 -0.1144 -0.0333
25995SOL    HW180302   5.404   0.052   4.206  0.2758 -2.7528 -1.8633
25995SOL    HW280303   5.419   0.159   4.099 -0.8148 -0.4305  0.1962
25996SOL     OW80304   9.306  10.086   4.046 -0.0826  0.3926 -0.2868
25996SOL    HW180305   9.393  10.106   4.012 -0.0174 -0.5498 -0.7350
25996SOL    HW280306   9.321  10.051   4.133 -0.0666  0.7916 -0.1278
25997SOL     OW80307   5.480   4.276   2.167 -0.2508 -0.8872  0.4333
25997SOL    HW180308   5.393   4.275   2.207 -0.3596 -1.2297  0.1972
25997SOL    HW280309   5.500   4.183   2.152  0.4542 -0.8480  1.1159
25998SOL     OW80310   9.975   1.493   1.131 -0.3686 -0.2195 -0.0292
25998SOL    HW180311  10.000   1.471   1.221  1.8852 -2.0104 -1.0015
25998SOL    HW280312  10.031   1.568   1.109  0.7215 -1.1706 -0.6104
25999SOL     OW80313   2.419   6.930   0.206 -0.7398  0.2142  0.0972
25999SOL    HW180314   2.398   6.881   0.126 -0.2696  0.4790 -0.1917
25999SOL    HW280315   2.417   7.021   0.178  0.0205  0.2757  0.2498
26000SOL     OW80316   6.401   3.188  10.495 -0.4509 -0.2296 -0.1515
26000SOL    HW180317   6.372   3.277  10.479 -0.4359 -0.0894  0.5586
26000SOL    HW280318   6.496   3.191  10.486 -0.1832  0.3849  2.2447
26001SOL     OW80319   9.746   3.775   4.871  0.6502 -0.3298 -0.8106
26001SOL    HW180320   9.765   3.847   4.932  0.2366 -0.2511 -0.7679
26001SOL    HW280321   9.830   3.756   4.829  1.1238 -0.9156  0.3456
26002SOL     OW80322   1.198   8.395   0.701  0.3018 -0.2538 -0.0771
26002SOL    HW180323   1.289   8.419   0.682 -0.2039  1.7610 -0.2153
26002SOL    HW280324   1.146   8.450   0.642 -1.0788  1.0312  2.1841
26003SOL     OW80325   5.401   0.002   5.669  0.7120 -0.8814 -0.2342
26003SOL    HW180326   5.434  -0.008   5.580 -0.1099  0.2829 -0.7031
26003SOL    HW280327   5.313  -0.036   5.666  0.9225 -1.4315  0.2664
26004SOL     OW80328   4.746   1.626   5.305  0.6965 -0.2260  0.2195
26004SOL    HW180329   4.700   1.593   5.228 -0.4542  1.8362 -0.0618
26004SOL    HW280330   4.693   1.594   5.379  0.1054  0.2239  0.0000
26005SOL     OW80331   8.262   3.834   6.283 -0.2350 -0.2219  0.4230
26005SOL    HW180332   8.185   3.882   6.251 -0.8018  0.5614  2.8074
26005SOL    HW280333   8.225   3.761   6.332  0.5132  0.2414  1.7046
26006SOL     OW80334   2.569   9.687   8.467  1.0166  0.4151 -0.2246
26006SOL    HW180335   2.523   9.652   8.391 -2.4296  0.7967  1.4794
26006SOL    HW280336   2.534   9.776   8.478  1.9079  0.6106  1.4209
26007SOL     OW80337   6.475   3.357   7.925 -0.3019 -0.3772 -0.2445
26007SOL    HW180338   6.427   3.432   7.890 -1.3124 -0.9633 -0.1559
26007SOL    HW280339   6.530   3.327   7.853  0.3474  0.6308 -0.1837
26008SOL     OW80340   6.111   1.422   0.794  0.9891 -0.1882  0.0959
26008SOL    HW180341   6.027   1.377   0.783  0.4957  0.0707  2.2740
26008SOL    HW280342   6.173   1.370   0.743 -0.3699 -0.7047 -1.1186
26009SOL     OW80343   5.658   3.575   1.165 -0.2062  0.6877  0.0249
26009SOL    HW180344   5.707   3.493   1.160  1.6457  1.8473 -1.9479
26009SOL    HW280345   5.722   3.641   1.192 -1.1532  1.8894 -0.5507
26010SOL     OW80346   4.845   8.931   8.335  0.0133 -0.1750 -0.2899
26010SOL    HW180347   4.864   8.976   8.418  0.0129 -1.4875  0.4492
26010SOL    HW280348   4.803   8.849   8.361 -0.5898 -0.3250 -1.6330
26011SOL     OW80349   7.654   0.108   5.653  0.2455  0.5702  0.7735
26011SOL    HW180350   7.651   0.071   5.741  0.6127  0.8888  0.9232
26011SOL    HW280351   7.748   0.117   5.634  0.2013 -0.2993  0.0080
26012SOL     OW80352   8.822   9.873   4.377 -0.5057  0.3030 -0.4408
26012SOL    HW180353   8.728   9.866   4.362 -0.4827 -1.2097 -0.0293
26012SOL    HW280354   8.861   9.811   4.316  0.0892 -0.4103  0.6325
26013SOL     OW80355   8.800   0.855   8.499  0.3883 -0.2098  0.8216
26013SOL    HW180356   8.790   0.760   8.505 -0.2405 -0.1370  1.0554
26013SOL    HW280357   8.746   0.889   8.571 -2.3952  0.4660 -1.3943
26014SOL     OW80358   1.923   9.318   9.528 -0.4162  0.1051 -0.3928
26014SOL    HW180359   1.880   9.297   9.611 -0.2567  0.3028 -0.2605
26014SOL    HW280360   2.014   9.290   9.541 -0.4215  0.0102 -0.5499
26015SOL     OW80361   0.091   0.661   6.519 -0.0778  0.2244 -0.0540
26015SOL    HW180362   0.062   0.575   6.548  0.3630  0.0085 -0.2607
26015SOL    HW280363   0.029   0.722   6.560 -2.0849 -0.3458 -2.0585
26016SOL     OW80364   7.764   7.646   3.094 -0.2479  0.1712  0.1890
26016SOL    HW180365   7.846   7.631   3.047 -0.5084 -0.0855 -0.1877
26016SOL    HW280366   7.714   7.565   3.082 -0.8029  0.5492 -0.0847
26017SOL     OW80367   7.973   6.692   1.265 -0.5583  0.1126 -0.0761
26017SOL    HW180368   7.900   6.730   1.217 -0.8121 -0.2506  0.0161
26017SOL    HW280369   8.031   6.766   1.283 -0.1456  0.1586 -1.4922
26018SOL     OW80370   1.032   5.874   9.234  0.1979 -0.6461 -0.3621
26018SOL    HW180371   1.128   5.878   9.232  0.2029 -0.1172  0.4209
26018SOL    HW280372   1.006   5.866   9.142  1.0393 -2.1111 -0.5069
26019SOL     OW80373   0.140   0.752   6.197 -0.2877  0.3341  0.0449
26019SOL    HW180374   0.175   0.696   6.128  2.4744  1.7082  0.1846
26019SOL    HW280375   0.173   0.714   6.278 -0.6543  0.6381  0.3389
26020SOL     OW80376   4.874   4.308   0.207 -0.2526  0.4498  0.2309
26020SOL    HW180377   4.903   4.217   0.213  0.0869  0.5764  0.5710
26020SOL    HW280378   4.839   4.328   0.295 -0.4111  0.6185  0.1308
26021SOL     OW80379   6.347   4.741   9.597  0.0818 -0.4059  0.1303
26021SOL    HW180380   6.408   4.684   9.643 -0.0848 -0.5835  0.1344
26021SOL    HW280381   6.364   4.725   9.504 -0.5761 -1.1288  0.1285
26022SOL     OW80382  10.083  10.588  10.435 -0.0019  0.4771  0.3145
26022SOL    HW180383  10.007  10.559  10.385  0.8444 -0.4626 -0.4802
26022SOL    HW280384  10.060  10.676  10.467 -1.4386  0.1580  0.1847
26023SOL     OW80385   7.344   4.165   6.408 -0.6958  0.3483  0.3602
26023SOL    HW180386   7.337   4.070   6.401  0.2285  0.3301 -0.7598
26023SOL    HW280387   7.282   4.199   6.343  0.2490  0.4435 -0.5287
26024SOL     OW80388   0.690   9.741   3.464  0.0962  0.2206  0.4364
26024SOL    HW180389   0.784   9.746   3.481  0.2903 -0.3368 -0.4113
26024SOL    HW280390   0.684   9.703   3.377 -0.9236  0.1579  0.5296
26025SOL     OW80391  10.596   5.062   6.989  0.1959 -0.2214 -0.1990
26025SOL    HW180392  10.567   5.127   7.053 -1.6135 -0.1170 -1.0509
26025SOL    HW280393  10.541   4.986   7.006  1.9068 -1.3712  0.4227
26026SOL     OW80394   6.469   3.048   1.706 -0.6416  0.1341  0.3937
26026SOL    HW180395   6.465   3.000   1.789  3.7559 -0.2046  0.6423
26026SOL    HW280396   6.406   3.003   1.649 -0.5135 -2.6192  2.2139
26027SOL     OW80397   6.129   7.935   2.556  0.9749  0.2082 -0.2933
26027SOL    HW180398   6.102   7.980   2.636  0.9793 -0.3935  0.0547
26027SOL    HW280399   6.048   7.922   2.507  0.6480 -1.2007  0.5449
26028SOL     OW80400   1.534   7.006   8.626  0.8906  0.6142  0.1580
26028SOL    HW180401   1.611   6.954   8.605  0.3601 -0.4584  0.7748
26028SOL    HW280402   1.474   6.990   8.553  1.3307  1.6648 -0.4600
26029SOL     OW80403   0.957   9.743   3.468  0.1848  0.0422 -0.4503
26029SOL    HW180404   0.956   9.693   3.387  1.4424  0.1367 -0.5430
26029SOL    HW280405   1.050   9.755   3.488 -0.0988  0.9703  0.4129
26030SOL     OW80406   2.711  10.493   4.496  0.2901 -0.2706 -0.2628
26030SOL    HW180407   2.695  10.528   4.408 -1.4148 -0.4129 -0.0545
26030SOL    HW280408   2.701  10.569   4.553  2.4885  0.0450 -0.2464
26031SOL     OW80409   5.330   3.003   2.106 -0.0754  0.5128 -0.1713
26031SOL    HW180410   5.312   2.971   2.194 -0.2783  2.8198  0.6792
26031SOL    HW280411   5.362   3.092   2.118  1.1453  0.4581 -2.3660
26032SOL     OW80412   9.986   4.374   7.608  0.1716  0.2381  0.1912
26032SOL    HW180413  10.012   4.311   7.675  1.5189  0.8257  0.2351
26032SOL    HW280414   9.894   4.394   7.628  0.4557  0.1523  1.6463
26033SOL     OW80415   0.447  10.097   2.217  0.0651  0.3825  0.0200
26033SOL    HW180416   0.455  10.002   2.222 -1.7348  0.1970 -0.0062
26033SOL    HW280417   0.533  10.127   2.185  0.0933 -1.3770 -1.7627
26034SOL     OW80418   1.532   5.374   8.770  0.3090 -0.7042 -0.4741
26034SOL    HW180419   1.618   5.348   8.802  0.3678  0.8023  0.6756
26034SOL    HW280420   1.549   5.449   8.714 -0.3521  0.6318  1.0385
26035SOL     OW80421   7.959   4.189   2.615  0.2418  0.1538 -0.3630
26035SOL    HW180422   7.962   4.215   2.523 -0.6085  0.2510 -0.3674
26035SOL    HW280423   7.998   4.263   2.662  0.6394  0.1219 -0.6394
26036SOL     OW80424   6.484   7.298   4.413  0.2172  0.6695  0.1149
26036SOL    HW180425   6.532   7.362   4.359  1.4692 -0.7094 -0.4828
26036SOL    HW280426   6.552   7.246   4.455 -0.7658 -0.5927  0.2062
26037SOL     OW80427   2.759   8.204   3.188 -0.5099 -0.2642  0.0462
26037SOL    HW180428   2.784   8.133   3.129  2.0683 -0.7677  1.5701
26037SOL    HW280429   2.741   8.160   3.271 -1.0838  0.6950  0.4382
26038SOL     OW80430   8.808   4.077   6.592 -0.6448 -0.0539 -0.4034
26038SOL    HW180431   8.839   4.149   6.646 -2.0899  1.8958 -2.0451
26038SOL    HW280432   8.713   4.079   6.601 -0.7159 -1.9272 -0.3284
26039SOL     OW80433   1.131   9.697   6.664 -0.0792  0.0456 -0.2477
26039SOL    HW180434   1.168   9.628   6.718  1.2136  1.4007  0.6932
26039SOL    HW280435   1.126   9.660   6.576  0.1200 -1.3753  0.3270
26040SOL     OW80436   9.095  10.454   2.490 -0.3234  0.4961 -0.2664
26040SOL    HW180437   9.095  10.536   2.441  0.2572  1.1165  0.7487
26040SOL    HW280438   9.153  10.396   2.440  2.3483  1.9421  0.9744
26041SOL     OW80439   5.180   6.522   0.829 -0.3386 -0.0379  0.0072
26041SOL    HW180440   5.249   6.456   0.823 -0.8949 -0.7690  1.2800
26041SOL    HW280441   5.109   6.479   0.876 -0.5754  1.5750  1.2421
26042SOL     OW80442   7.485   7.611  10.261  0.0113  1.0241 -0.1941
26042SOL    HW180443   7.494   7.524  10.222 -3.4154  0.4508  0.0207
26042SOL    HW280444   7.555   7.615  10.326 -0.0470 -1.8075  0.1664
26043SOL     OW80445   6.934   6.561   5.808 -0.0123 -0.0831 -0.0630
26043SOL    HW180446   6.896   6.649   5.806 -1.3871 -0.6702 -0.6749
26043SOL    HW280447   6.973   6.550   5.722 -0.2597 -0.2562 -0.1517
26044SOL     OW80448   5.513   7.368   3.169 -0.0875 -0.1589 -0.0797
26044SOL    HW180449   5.537   7.276   3.153  0.3630 -0.1151  0.3053
26044SOL    HW280450   5.464   7.365   3.251  0.4800  0.0214  0.2692
26045SOL     OW80451   8.080   7.480   0.300 -0.1542 -0.3411  0.3993
26045SOL    HW180452   8.141   7.553   0.290 -2.5621  1.6817 -0.6678
26045SOL    HW280453   8.115   7.411   0.244  1.4145  0.5184  0.2642
26046SOL     OW80454   7.904   3.377   2.748  0.0559  0.1925  0.0377
26046SOL    HW180455   7.900   3.468   2.721  0.5076 -0.4236 -2.2627
26046SOL    HW280456   7.813   3.347   2.748  0.0978 -0.0932 -2.0910
26047SOL     OW80457  10.316  10.299   7.199  0.0995  0.2082 -0.3021
26047SOL    HW180458  10.308  10.372   7.137 -0.5639 -1.3073 -2.0693
26047SOL    HW280459  10.228  10.288   7.234  0.0340 -0.1949 -0.5869
26048SOL     OW80460   5.419   4.667   5.206  0.0127 -0.3821  0.2751
26048SOL    HW180461   5.468   4.650   5.126 -1.0695 -0.2700 -0.4351
26048SOL    HW280462   5.339   4.711   5.177 -2.1776 -3.5208  0.9355
26049SOL     OW80463   2.646   9.890   1.078  0.0755 -0.0264  0.5079
26049SOL    HW180464   2.625   9.811   1.129  1.2152 -1.0493 -0.5335
26049SOL    HW280465   2.739   9.904   1.095  0.1621  0.3784 -0.2722
26050SOL     OW80466   1.631   3.430   4.511 -0.0072 -0.2951 -0.0044
26050SOL    HW180467   1.573   3.427   4.587 -0.1253 -0.9728 -0.1158
26050SOL    HW280468   1.573   3.420   4.436  0.2856 -1.3692 -0.0996
26051SOL     OW80469   2.925   3.923   1.351 -0.2003 -0.2953  0.3791
26051SOL    HW180470   2.851   3.970   1.389 -0.4951 -0.3428 -0.1204
26051SOL    HW280471   2.885   3.859   1.293  0.2326 -0.3298  0.1148
26052SOL     OW80472  10.409   0.022   3.462 -0.5357  0.5639  0.1486
26052SOL    HW180473  10.355  -0.032   3.520 -1.9451  2.0575  0.2947
26052SOL    HW280474  10.499   0.007   3.491 -0.5311 -3.4622 -1.2963
26053SOL     OW80475   6.864   7.547   0.757  0.3813  0.1738 -0.2599
26053SOL    HW180476   6.869   7.482   0.687 -0.7077  0.7766 -0.9148
26053SOL    HW280477   6.799   7.513   0.818  2.1512 -0.9323  1.1334
26054SOL     OW80478   4.698   4.003   1.172  0.5633 -0.1410  0.9141
26054SOL    HW180479   4.723   4.089   1.139  0.7536 -0.3637  0.4723
26054SOL    HW280480   4.781   3.958   1.189  0.5069 -0.9013 -0.6086
26055SOL     OW80481   8.298   7.165   3.684 -0.2200 -0.1700 -0.1994
26055SOL    HW180482   8.257   7.195   3.765 -0.6277 -1.8651  0.2702
26055SOL    HW280483   8.364   7.102   3.712 -0.6077 -1.0527 -1.1673
26056SOL     OW80484   4.767   7.327   5.098  0.6050  0.0251  0.2792
26056SOL    HW180485   4.799   7.275   5.025 -2.7767 -2.2333  0.2236
26056SOL    HW280486   4.817   7.295   5.174  4.1966  2.4431 -0.7654
26057SOL     OW80487   6.913   3.759   3.037 -0.1486  0.3022  0.3476
26057SOL    HW180488   6.950   3.763   2.949 -1.2040 -0.2281 -0.1477
26057SOL    HW280489   6.988   3.750   3.095  0.7818  3.3643 -0.2381
26058SOL     OW80490   7.995   2.218  10.274  0.0544 -0.4061 -0.0974
26058SOL    HW180491   8.083   2.243  10.246 -0.0671 -0.2499 -0.3479
26058SOL    HW280492   7.985   2.254  10.362  0.7289 -1.5569  0.4760
26059SOL     OW80493   7.743   8.337   1.494  0.1662  0.2813 -0.5159
26059SOL    HW180494   7.684   8.336   1.419  0.0242 -2.5195 -0.4756
26059SOL    HW280495   7.684   8.343   1.570 -0.1653 -2.3205 -0.4833
26060SOL     OW80496   2.976  10.361   9.077  0.1659 -0.5121 -0.3839
26060SOL    HW180497   3.038  10.434   9.075 -0.4243  0.1480  2.1491
26060SOL    HW280498   2.895  10.399   9.043  0.1487 -0.2874 -0.0977
26061SOL     OW80499   0.248   2.329  10.360  0.7737  0.3329 -0.2030
26061SOL    HW180500   0.177   2.351  10.301  2.1129  1.7479 -1.3835
26061SOL    HW280501   0.299   2.410  10.368  2.1559 -0.5765  0.7327
26062SOL     OW80502   0.984   6.894   5.816  0.5415  0.1642 -0.8049
26062SOL    HW180503   1.059   6.871   5.871  0.4179  0.1369 -0.6461
26062SOL    HW280504   1.023   6.926   5.735  0.7247 -0.4784 -0.9802
26063SOL     OW80505   2.544  10.119   1.180  0.3600  0.1112  0.7122
26063SOL    HW180506   2.566  10.114   1.273 -1.6234 -1.6075  1.1724
26063SOL    HW280507   2.594  10.048   1.139  1.7526  1.2843  0.2894
26064SOL     OW80508   7.607   3.341   8.989  0.4411 -0.0179 -0.3265
26064SOL    HW180509   7.657   3.363   8.911  0.3004  1.5609 -0.0086
26064SOL    HW280510   7.516   3.359   8.966  0.6211  3.3749  1.0214
26065SOL     OW80511   4.591   7.485   4.923 -0.0388 -0.4728  0.2679
26065SOL    HW180512   4.596   7.396   4.958  1.0987 -0.6151 -0.2350
26065SOL    HW280513   4.679   7.521   4.936 -0.7637  0.9795  1.4849
26066SOL     OW80514   6.768   2.598   1.914 -0.1827 -0.0145  0.3898
26066SOL    HW180515   6.838   2.644   1.962  0.7089  0.8589 -1.6336
26066SOL    HW280516   6.716   2.668   1.875  0.0959 -0.6537 -1.2246
26067SOL     OW80517   2.231   1.579   4.039  0.2005  0.4543  0.6881
26067SOL    HW180518   2.159   1.593   3.978  0.3062  0.7469  0.6315
26067SOL    HW280519   2.301   1.542   3.984  0.1676  0.3719  0.7017
26068SOL     OW80520   4.728   0.322   8.679 -0.0811  0.1569  0.1824
26068SOL    HW180521   4.715   0.309   8.773  3.3175  1.1144  0.9500
26068SOL    HW280522   4.750   0.415   8.671 -0.4049  0.1137 -1.6012
26069SOL     OW80523   5.773   3.799   8.473 -0.6080 -0.4263 -0.0766
26069SOL    HW180524   5.771   3.886   8.514  0.3379 -0.0227 -0.8355
26069SOL    HW280525   5.823   3.813   8.393 -0.3952 -1.6950 -0.1714
26070SOL     OW80526   5.822   0.849   3.052  0.0011  0.4433  0.4346
26070SOL    HW180527   5.884   0.888   2.991  0.0689  1.5863  1.2040
26070SOL    HW280528   5.737   0.860   3.010  0.1276  0.5350  0.2033
26071SOL     OW80529   9.093  10.332   9.795  0.0163  0.1377  0.9154
26071SOL    HW180530   9.172  10.303   9.750 -0.2694  0.0111  0.4840
26071SOL    HW280531   9.093  10.427   9.785  0.3889  0.1907  1.3854
26072SOL     OW80532   3.922   1.352  10.098 -0.1911 -0.1121  0.1586
26072SOL    HW180533   3.842   1.309  10.130 -0.0512 -0.5829 -0.1166
26072SOL    HW280534   3.989   1.325  10.160 -0.0668 -0.4450 -0.1144
26073SOL     OW80535   0.026   6.517   6.206  0.0445 -0.5878  0.1264
26073SOL    HW180536  -0.038   6.551   6.143 -1.3037 -1.2683  1.0742
26073SOL    HW280537  -0.027   6.488   6.280  1.6435  1.6532  2.3207
26074SOL     OW80538   1.493   0.919   6.154  0.5071 -0.3789 -0.1372
26074SOL    HW180539   1.410   0.877   6.135  0.9313 -0.7057 -1.4170
26074SOL    HW280540   1.471   1.011   6.168 -0.0388 -0.4025 -0.8097
26075SOL     OW80541   1.735   9.914   1.435  0.2414 -0.1927 -0.0165
26075SOL    HW180542   1.704   9.880   1.519  0.7184 -1.2743 -0.2617
26075SOL    HW280543   1.747  10.008   1.450  0.1627 -0.3407  1.0668
26076SOL     OW80544   7.769   7.833   1.505 -0.2142  0.0884 -0.1966
26076SOL    HW180545   7.836   7.778   1.545 -1.4239  0.3499  2.3858
26076SOL    HW280546   7.686   7.789   1.523 -0.9707  1.1418 -0.9105
26077SOL     OW80547   4.747   4.640   9.100 -0.4558  0.1776  0.0051
26077SOL    HW180548   4.772   4.703   9.032 -1.5693  1.5763  0.8412
26077SOL    HW280549   4.802   4.664   9.175  1.4385 -1.9436 -0.6169
26078SOL     OW80550   1.442   6.973   2.652 -0.2077  0.3282 -0.1473
26078SOL    HW180551   1.470   7.064   2.642 -0.6571  0.3125 -1.7538
26078SOL    HW280552   1.461   6.932   2.567 -1.8717 -0.5544 -0.1377
26079SOL     OW80553   9.168   0.115   5.379  0.7198 -0.1365  0.4438
26079SOL    HW180554   9.079   0.145   5.362  0.0643 -1.9490  0.4879
26079SOL    HW280555   9.216   0.137   5.299 -0.1848 -0.6262 -0.2600
26080SOL     OW80556   1.756   7.451   3.668 -0.6196  0.2734 -0.0070
26080SOL    HW180557   1.697   7.492   3.605 -0.9287  0.9888  0.7289
26080SOL    HW280558   1.719   7.472   3.753 -0.1926 -0.6578  0.4267
26081SOL     OW80559   3.002   2.784   9.269  0.2500 -0.1825  0.3895
26081SOL    HW180560   3.021   2.727   9.195  3.0508  0.4681  0.4983
26081SOL    HW280561   2.929   2.838   9.240 -0.0374 -1.2992 -1.0941
26082SOL     OW80562   2.491   6.690   7.078 -0.2942 -0.1933  0.1984
26082SOL    HW180563   2.516   6.743   7.154  0.5113  0.1178 -0.2584
26082SOL    HW280564   2.404   6.657   7.098 -1.7598  2.9952 -0.3313
26083SOL     OW80565   8.658   4.424   6.852  0.5329 -0.5417  0.6039
26083SOL    HW180566   8.690   4.485   6.918 -0.3068 -0.0610  0.5834
26083SOL    HW280567   8.574   4.460   6.825  1.3248 -0.1272 -1.5203
26084SOL     OW80568   4.677   4.259   1.669  0.0616  0.3378  0.0358
26084SOL    HW180569   4.680   4.339   1.617 -3.2510  1.0400  0.6872
26084SOL    HW280570   4.665   4.289   1.759  0.2295 -0.8770  0.4832
26085SOL     OW80571   1.550   0.773   2.800  0.2175 -0.1866  0.2832
26085SOL    HW180572   1.575   0.768   2.707 -0.3485  0.6085  0.0798
26085SOL    HW280573   1.616   0.829   2.840 -0.4448  0.8104  0.0173
26086SOL     OW80574   3.794   1.611   4.798 -0.0590 -0.2490  0.5642
26086SOL    HW180575   3.743   1.685   4.832 -1.4115 -0.8011 -0.1689
26086SOL    HW280576   3.785   1.543   4.865 -1.3562 -0.7702 -0.1048
26087SOL     OW80577   9.283   6.773   4.843  0.1078  0.8959 -0.6086
26087SOL    HW180578   9.207   6.827   4.867 -1.2336 -0.8967 -0.5945
26087SOL    HW280579   9.247   6.705   4.786  1.1989 -1.3969  1.2276
26088SOL     OW80580   2.239   9.494   5.052 -0.1509  0.4015  0.3548
26088SOL    HW180581   2.179   9.513   4.980  0.6541  1.2693 -0.1020
26088SOL    HW280582   2.187   9.506   5.131 -1.3010 -1.4150 -0.0504
26089SOL     OW80583   2.065   9.475   2.231  0.1553  0.2429  0.5910
26089SOL    HW180584   2.124   9.549   2.216 -0.7819  0.8405 -0.2818
26089SOL    HW280585   2.093   9.408   2.168  0.9638 -0.1437  1.3384
26090SOL     OW80586   2.334   4.690   2.802  0.1756  0.0159  0.2617
26090SOL    HW180587   2.249   4.693   2.847 -0.1169 -0.6119 -0.2292
26090SOL    HW280588   2.393   4.651   2.866 -0.0005  0.0720  0.4619
26091SOL     OW80589   1.219   0.699   7.530 -0.4508  1.0786  0.4614
26091SOL    HW180590   1.163   0.681   7.454 -0.9039  0.8558  0.8460
26091SOL    HW280591   1.160   0.695   7.605 -0.3460  2.9124  0.7017
26092SOL     OW80592  10.054   1.696   0.101  0.2927  0.3202  0.1847
26092SOL    HW180593  10.038   1.693   0.196  0.1491 -1.5701  0.1230
26092SOL    HW280594  10.131   1.641   0.088  0.5843  0.9318 -0.7762
26093SOL     OW80595   6.278   2.975  10.379  0.3884  0.0098 -0.6148
26093SOL    HW180596   6.316   3.046  10.430 -1.0087  0.9695 -0.8539
26093SOL    HW280597   6.188   2.967  10.412 -0.1131 -0.2499 -1.9727
26094SOL     OW80598   5.534   8.074   3.645  0.2588  0.2321 -0.4551
26094SOL    HW180599   5.592   8.060   3.720 -1.1244 -0.1886  0.5753
26094SOL    HW280600   5.472   8.141   3.675 -0.2775  0.0963 -1.2355
26095SOL     OW80601   5.467   0.984   7.808  0.5772 -0.0011 -0.1826
26095SOL    HW180602   5.414   0.917   7.850  1.4814  0.2560  1.4295
26095SOL    HW280603   5.489   0.947   7.722  0.3971 -1.4140  0.3596
26096SOL     OW80604   3.849   8.416   1.459 -0.2317  0.0709  0.7458
26096SOL    HW180605   3.767   8.466   1.459 -0.6048 -0.4586 -1.3863
26096SOL    HW280606   3.915   8.477   1.430 -0.4287 -0.2644 -0.4466
26097SOL     OW80607   9.350   1.573   9.914 -0.0714 -0.0368 -0.4733
26097SOL    HW180608   9.287   1.569   9.842 -0.8857 -0.4404  0.2359
26097SOL    HW280609   9.400   1.653   9.898 -2.4316  1.6858  0.2433
26098SOL     OW80610   2.644   5.190   9.195  0.0044 -0.1420 -0.2508
26098SOL    HW180611   2.599   5.165   9.115  0.3186 -1.2899 -0.0911
26098SOL    HW280612   2.575   5.204   9.259 -0.1800 -0.6850 -0.3316
26099SOL     OW80613   1.809   0.195   8.834  0.2692 -0.0044  0.5774
26099SOL    HW180614   1.736   0.215   8.893  1.1017  0.9662  1.3037
26099SOL    HW280615   1.850   0.117   8.873  1.7213  1.4839  2.1967
26100SOL     OW80616   3.727   7.522   7.905 -0.2636  0.1969 -0.0461
26100SOL    HW180617   3.821   7.530   7.889 -0.5651 -0.3329 -2.3555
26100SOL    HW280618   3.714   7.429   7.923 -0.3099  0.3538  0.7984
26101SOL     OW80619   3.476   8.718   1.106  0.3078 -0.1888  0.3515
26101SOL    HW180620   3.501   8.801   1.147 -0.3865 -0.9712  2.5165
26101SOL    HW280621   3.386   8.731   1.076 -0.1817 -0.4249  1.6338
26102SOL     OW80622   7.841   2.026   2.619 -0.2425  0.0376 -0.2769
26102SOL    HW180623   7.862   1.954   2.679  0.9467  0.6583  0.0842
26102SOL    HW280624   7.749   2.013   2.598  0.2834 -2.4744 -1.4072
26103SOL     OW80625   5.962   3.658   2.163  0.2554  0.1748  0.4335
26103SOL    HW180626   6.007   3.737   2.133  0.6032 -0.0658  0.3119
26103SOL    HW280627   6.020   3.621   2.229 -1.2713  1.6134  2.7430
26104SOL     OW80628  10.356   6.541   1.485 -0.3581  0.1091 -0.0986
26104SOL    HW180629  10.398   6.579   1.407 -0.7882  0.6612 -0.0714
26104SOL    HW280630  10.378   6.602   1.556 -1.3494  0.5211 -0.1249
26105SOL     OW80631   9.938   4.442   9.901 -0.3248 -0.1014  0.6341
26105SOL    HW180632   9.919   4.408   9.813  2.6733  0.1780 -0.2172
26105SOL    HW280633   9.938   4.537   9.890  0.1090 -0.0695  0.9193
26106SOL     OW80634   0.746   4.899   8.902 -0.5899  0.2967 -0.2927
26106SOL    HW180635   0.760   4.807   8.879 -2.5035 -0.0266 -0.3539
26106SOL    HW280636   0.804   4.914   8.977  0.9156 -0.4833 -1.2446
26107SOL     OW80637   6.825   2.550   3.320  0.9229 -0.0658  0.8935
26107SOL    HW180638   6.787   2.633   3.348  0.5023  0.3036 -0.6873
26107SOL    HW280639   6.853   2.566   3.230 -1.0484 -2.2241 -0.1808
26108SOL     OW80640   0.496   8.380   5.516  0.3243 -0.4534  0.3422
26108SOL    HW180641   0.413   8.401   5.559  0.5421  0.1541  0.4655
26108SOL    HW280642   0.519   8.293   5.549 -0.3343 -0.6925  0.1919
26109SOL     OW80643   3.256   3.097   6.177  0.1146  0.1799  0.1148
26109SOL    HW180644   3.286   3.114   6.266 -0.0102  1.5262 -0.0782
26109SOL    HW280645   3.333   3.115   6.122  0.3748 -1.2526 -0.0201
26110SOL     OW80646   9.594   2.895   2.834 -0.3067 -0.4593 -0.5792
26110SOL    HW180647   9.588   2.943   2.751 -2.0177 -0.6965 -0.6314
26110SOL    HW280648   9.571   2.805   2.811  0.6297 -0.8407 -0.0819
26111SOL     OW80649  10.171   7.037   6.869  0.0959 -0.2949 -0.3575
26111SOL    HW180650  10.122   6.963   6.834  0.7249 -0.4963 -0.8461
26111SOL    HW280651  10.105   7.100   6.895 -0.4261 -0.7129 -0.6539
26112SOL     OW80652   3.798   9.957   3.968  0.2272  0.2464  0.0963
26112SOL    HW180653   3.801  10.012   4.046  0.3821 -0.8997  0.9142
26112SOL    HW280654   3.755   9.877   3.996  2.1191 -1.0211 -0.4435
26113SOL     OW80655   9.217   3.521   4.118 -0.0132 -0.9955 -0.3864
26113SOL    HW180656   9.269   3.592   4.157  0.2289  0.4950 -3.1790
26113SOL    HW280657   9.281   3.451   4.102 -0.0493 -1.4877  1.4052
26114SOL     OW80658   7.279   2.520  10.459 -0.5416 -0.0462 -0.0760
26114SOL    HW180659   7.236   2.587  10.512  0.9800 -0.4086  1.7537
26114SOL    HW280660   7.311   2.456  10.524  3.7827  0.8130 -1.0911
26115SOL     OW80661   9.426   6.525   5.058  0.6281  0.2302  0.1921
26115SOL    HW180662   9.333   6.537   5.078  0.6623  0.5881  0.1380
26115SOL    HW280663   9.428   6.482   4.973  0.4462 -2.2017  1.3334
26116SOL     OW80664   9.845   9.025   2.699 -0.1809  0.1256 -0.8271
26116SOL    HW180665   9.855   9.048   2.792  0.5129 -0.5637 -0.7200
26116SOL    HW280666   9.794   8.944   2.699  1.7929 -1.1889 -0.8823
26117SOL     OW80667   3.976  10.356   0.694 -0.6104  0.4834  0.8013
26117SOL    HW180668   3.885  10.359   0.725 -0.8888  0.4238  0.0250
26117SOL    HW280669   3.968  10.339   0.600  0.1950  0.7838  0.6711
26118SOL     OW80670   3.226   3.838   3.455 -0.0012 -0.1238  0.7795
26118SOL    HW180671   3.242   3.929   3.478  0.6736  0.5244 -1.9545
26118SOL    HW280672   3.199   3.840   3.363 -0.5662 -2.6430  0.8060
26119SOL     OW80673   2.738   0.484  10.043  0.1743  0.4507 -0.2097
26119SOL    HW180674   2.805   0.544  10.012  2.7914 -1.7434  0.7592
26119SOL    HW280675   2.707   0.522  10.125 -0.7752  2.1026 -1.2747
26120SOL     OW80676   5.867   0.263   5.509  0.2316  0.5582 -0.5296
26120SOL    HW180677   5.824   0.345   5.486 -0.5068  0.3278 -0.0232
26120SOL    HW280678   5.872   0.264   5.605  0.4089  0.1067 -0.5263
26121SOL     OW80679   9.796   6.485   0.058  0.1172 -0.2126 -0.1315
26121SOL    HW180680   9.802   6.529   0.143  0.4126  0.2450 -0.3887
26121SOL    HW280681   9.703   6.491   0.035 -0.2030 -1.4130  0.7183
26122SOL     OW80682   4.080   6.448   5.288 -0.0858 -0.0167  0.1292
26122SOL    HW180683   4.073   6.493   5.372 -0.9489 -0.6671  0.4239
26122SOL    HW280684   4.134   6.505   5.234 -0.5444  0.9987  0.7303
26123SOL     OW80685   4.156   6.409   4.960  0.1931  0.3386 -0.0732
26123SOL    HW180686   4.066   6.440   4.948  0.2734  0.0574 -1.5466
26123SOL    HW280687   4.195   6.473   5.020 -0.0635  2.3201 -1.9050
26124SOL     OW80688   2.647   2.884   0.324  0.3910 -0.5679 -0.0635
26124SOL    HW180689   2.719   2.944   0.346 -0.2127  0.8535 -1.7000
26124SOL    HW280690   2.576   2.942   0.296 -0.6373 -2.0289 -0.5653
26125SOL     OW80691   9.712   0.715   4.929 -0.9713  0.3569 -0.3981
26125SOL    HW180692   9.646   0.748   4.990  0.0457 -1.2748  1.7266
26125SOL    HW280693   9.718   0.621   4.948 -0.1307 -0.1058 -2.6109
26126SOL     OW80694   0.742   1.909   1.657  0.0958 -0.6619  0.2340
26126SOL    HW180695   0.763   1.995   1.694  0.9671 -0.9465  0.4335
26126SOL    HW280696   0.646   1.906   1.655  0.0287  0.8593 -1.0875
26127SOL     OW80697   5.398   8.474   8.978 -0.2190  0.5276 -0.3807
26127SOL    HW180698   5.307   8.470   9.009 -0.4914 -0.1322 -1.2307
26127SOL    HW280699   5.416   8.568   8.970  0.8366  0.9800  4.4285
26128SOL     OW80700   8.907   4.552   8.944  0.0308 -0.4490 -0.6114
26128SOL    HW180701   8.866   4.637   8.927 -0.9672 -0.7430  0.2102
26128SOL    HW280702   8.998   4.564   8.918  0.2191  1.2703  0.6388
26129SOL     OW80703   6.719   2.584  10.013  0.2955 -0.0013 -0.2567
26129SOL    HW180704   6.762   2.667  10.033  0.4111 -0.0822 -0.1667
26129SOL    HW280705   6.767   2.519  10.065 -0.2647 -0.0190  0.2556
26130SOL     OW80706   9.312   6.070   6.979 -0.5071 -0.0874  0.1549
26130SOL    HW180707   9.261   6.149   6.995  0.4584  0.2038  2.1864
26130SOL    HW280708   9.379   6.071   7.047  1.4038 -1.1257 -1.5952
26131SOL     OW80709   7.946   4.622   1.647  0.5834  0.4041  0.4016
26131SOL    HW180710   7.972   4.649   1.736  0.6688  0.1684  0.4497
26131SOL    HW280711   7.996   4.679   1.589  0.4758  0.6064  0.5065
26132SOL     OW80712   7.332   8.237  10.588  0.2047  0.0399 -0.0250
26132SOL    HW180713   7.274   8.231  10.663  0.5012 -1.7114  0.1136
26132SOL    HW280714   7.384   8.156  10.591  1.5274  0.8018 -1.0464
26133SOL     OW80715   5.845  10.416   9.566  0.2418 -0.3851 -0.5093
26133SOL    HW180716   5.782  10.370   9.621  0.4880 -1.4064 -1.0508
26133SOL    HW280717   5.815  10.399   9.476  0.8162 -0.1859 -0.7450
26134SOL     OW80718   8.016   4.304   5.650 -0.0375 -0.6233  0.2639
26134SOL    HW180719   8.024   4.376   5.713  1.5358  0.3225 -0.9378
26134SOL    HW280720   7.934   4.322   5.604  0.6749  0.8392 -0.5037
26135SOL     OW80721   8.316   5.393   6.130 -0.4503 -0.5710 -0.0719
26135SOL    HW180722   8.353   5.477   6.103  2.0499 -1.6377 -0.2728
26135SOL    HW280723   8.336   5.333   6.058  2.5114 -2.4598  2.0603
26136SOL     OW80724   6.758   5.632   4.821  0.3648  0.3732 -0.1870
26136SOL    HW180725   6.713   5.549   4.804  0.7136  0.4393 -1.5347
26136SOL    HW280726   6.758   5.640   4.916  0.2172 -1.1142 -0.0366
26137SOL     OW80727   6.216   7.190   7.189  0.6638  0.4923 -0.9286
26137SOL    HW180728   6.255   7.228   7.267 -1.0987  0.2838  0.1099
26137SOL    HW280729   6.169   7.262   7.148 -0.0852  0.1703 -0.6657
26138SOL     OW80730   1.903   2.589   1.924 -0.2608 -0.1599  0.0865
26138SOL    HW180731   1.945   2.651   1.985  1.0748 -0.0556 -0.8858
26138SOL    HW280732   1.841   2.642   1.875  0.2513  0.2369 -0.1439
26139SOL     OW80733   3.336   7.293   7.117  0.4452  0.3284 -0.3706
26139SOL    HW180734   3.314   7.386   7.120  1.4630  0.5613  0.0774
26139SOL    HW280735   3.324   7.269   7.025 -0.6406  0.6907 -0.3328
26140SOL     OW80736   9.294   6.797   6.287  0.9100  0.2146 -0.1222
26140SOL    HW180737   9.255   6.867   6.338  0.6257 -1.4635  2.1450
26140SOL    HW280738   9.381   6.829   6.265  0.5302  1.5482  0.2075
26141SOL     OW80739   7.956   5.318   5.491 -0.2539 -0.3747  0.3278
26141SOL    HW180740   7.944   5.263   5.413  0.2971 -1.6195  1.0940
26141SOL    HW280741   7.906   5.274   5.560 -1.9223  1.4810  0.3887
26142SOL     OW80742   8.896   6.774   2.197 -0.0597 -0.2761  0.6406
26142SOL    HW180743   8.945   6.811   2.270 -0.6784 -1.2689  1.5957
26142SOL    HW280744   8.870   6.849   2.144  0.2706  0.4733  1.5238
26143SOL     OW80745   0.740   6.788   7.482 -0.2300  0.1158  0.0772
26143SOL    HW180746   0.816   6.846   7.474 -1.4811  1.6213 -1.8841
26143SOL    HW280747   0.695   6.819   7.561  0.9791 -0.5925  1.0849
26144SOL     OW80748   8.082   9.720   3.733 -0.5303 -0.6212 -0.0128
26144SOL    HW180749   8.143   9.649   3.752 -1.6537 -1.6687 -0.1592
26144SOL    HW280750   8.134   9.800   3.744  0.9945 -1.4728 -0.6460
26145SOL     OW80751   6.589   5.570   3.060 -0.3728  0.4614  0.5524
26145SOL    HW180752   6.565   5.557   3.152 -0.6538  1.3939  0.6282
26145SOL    HW280753   6.518   5.625   3.025  0.4092  1.2312  0.1401
26146SOL     OW80754   6.735   5.736   9.911 -0.0586 -0.3231  0.2332
26146SOL    HW180755   6.725   5.731  10.006 -0.0265  0.8905  0.3214
26146SOL    HW280756   6.752   5.829   9.894  0.2098 -0.5696 -0.9343
26147SOL     OW80757   7.691   4.350   3.688  0.1423 -0.0965 -0.7117
26147SOL    HW180758   7.616   4.409   3.697  0.3876  0.2822 -1.1027
26147SOL    HW280759   7.659   4.265   3.718 -0.4723  0.0422 -0.9658
26148SOL     OW80760   1.145  10.302   4.948  0.4723  0.0760 -0.5121
26148SOL    HW180761   1.162  10.394   4.928 -0.3289  0.2835 -0.2636
26148SOL    HW280762   1.133  10.300   5.043  0.9780 -0.3717 -0.4511
26149SOL     OW80763   0.619   7.346   9.190 -0.4251  0.1063  0.0094
26149SOL    HW180764   0.651   7.326   9.102 -0.3390 -0.0060  0.0656
26149SOL    HW280765   0.669   7.423   9.217 -0.8342  0.4668 -0.2514
26150SOL     OW80766   8.021   6.217   9.299  0.0863  0.0863  0.1813
26150SOL    HW180767   8.088   6.282   9.320 -0.2101  0.1753  0.8808
26150SOL    HW280768   8.065   6.156   9.239  0.9757 -0.1870  1.0823
26151SOL     OW80769   0.741   3.100   4.202 -0.1725 -0.3586  0.1181
26151SOL    HW180770   0.730   3.060   4.116  0.1755  0.2499 -0.2174
26151SOL    HW280771   0.812   3.164   4.189 -3.1940  3.1968 -0.3980
26152SOL     OW80772   8.042   6.227   0.285  0.2610  0.8426 -0.0458
26152SOL    HW180773   7.958   6.210   0.240  0.0173  1.5467  0.1292
26152SOL    HW280774   8.086   6.290   0.228  0.4360  0.8896  0.1441
26153SOL     OW80775   4.287   9.796   5.419  0.2703  0.4558 -0.1872
26153SOL    HW180776   4.254   9.724   5.366  0.4161  0.4885 -0.3229
26153SOL    HW280777   4.224   9.867   5.406 -0.4711  0.0025  0.8039
26154SOL     OW80778   6.768   8.072   0.347  0.3008 -0.0493 -0.8459
26154SOL    HW180779   6.728   8.159   0.337  0.3339  0.0052 -0.5125
26154SOL    HW280780   6.784   8.064   0.441 -0.0090 -0.5513 -0.8357
26155SOL     OW80781   4.783   3.631   6.155 -0.1776 -0.7187  0.1782
26155SOL    HW180782   4.705   3.636   6.210 -0.1043  2.2040  0.2176
26155SOL    HW280783   4.856   3.634   6.217 -0.0920  0.4143  0.0496
26156SOL     OW80784   9.442   8.276   7.099 -0.2519  0.1792 -0.2165
26156SOL    HW180785   9.387   8.268   7.177  0.4295 -1.4797  0.1360
26156SOL    HW280786   9.518   8.326   7.129 -0.4417  0.3990 -0.0879
26157SOL     OW80787   8.060   9.708  10.484  0.2565  0.2848  0.0975
26157SOL    HW180788   8.073   9.731  10.392 -0.5104 -0.3846 -0.1926
26157SOL    HW280789   8.148   9.702  10.520  0.5628  0.6426 -0.5732
26158SOL     OW80790   6.182   5.059   7.955  0.3201  0.3577  0.0495
26158SOL    HW180791   6.190   5.152   7.937 -0.6350  0.4331 -0.0041
26158SOL    HW280792   6.269   5.033   7.987  0.6441  1.2145 -0.1244
26159SOL     OW80793   3.240   1.301   9.975 -0.0271  0.3309 -0.7217
26159SOL    HW180794   3.239   1.356   9.896  2.5349 -0.3993 -1.3695
26159SOL    HW280795   3.269   1.360  10.044 -0.2690  0.4887 -0.7523
26160SOL     OW80796   5.230   7.427   1.817 -0.1284  0.0315  0.5082
26160SOL    HW180797   5.225   7.520   1.799  0.5165  0.1738  1.0227
26160SOL    HW280798   5.245   7.422   1.912  0.6717 -0.5684  0.3550
26161SOL     OW80799   9.631   1.980   4.137  0.0455 -0.2958  0.1012
26161SOL    HW180800   9.725   1.997   4.133 -0.0757  0.4113 -0.0272
26161SOL    HW280801   9.617   1.942   4.223  0.4975 -0.7452 -0.0168
26162SOL     OW80802   7.366   1.187   3.084  0.0481 -0.3341 -0.4367
26162SOL    HW180803   7.277   1.172   3.116 -0.0910  1.2004  0.0149
26162SOL    HW280804   7.417   1.206   3.163  0.4788  0.0743 -0.7999
26163SOL     OW80805   7.945   8.590   0.383 -0.8090 -0.7656  0.2444
26163SOL    HW180806   7.936   8.685   0.391 -0.9577 -0.4127 -2.9424
26163SOL    HW280807   7.869   8.555   0.430 -1.9863  0.8206 -0.3685
26164SOL     OW80808   8.596   9.969   7.090 -0.7565  0.0342 -0.4619
26164SOL    HW180809   8.674   9.997   7.138  0.2280 -0.4450 -1.7250
26164SOL    HW280810   8.557   9.901   7.146 -0.0168 -0.0461 -0.0239
26165SOL     OW80811   7.231   7.648   7.259  0.3896  0.0827  0.6196
26165SOL    HW180812   7.192   7.656   7.172 -0.2401 -2.0064  0.6519
26165SOL    HW280813   7.275   7.732   7.274  2.0981 -0.1168 -2.4755
26166SOL     OW80814   6.669   9.478   1.885  0.4158 -0.4201 -0.3819
26166SOL    HW180815   6.714   9.510   1.963 -1.7065  1.2569  0.2610
26166SOL    HW280816   6.587   9.440   1.918  0.2132 -1.1940 -1.6818
26167SOL     OW80817   9.410   3.578   8.788 -0.0243  1.0016  0.0424
26167SOL    HW180818   9.418   3.669   8.760 -0.3629  0.8950 -0.4217
26167SOL    HW280819   9.491   3.560   8.836  1.4926  0.6341 -2.4926
26168SOL     OW80820   7.297  10.243   6.041  0.0661  0.1404  0.2295
26168SOL    HW180821   7.281  10.152   6.019 -4.4116  0.0708  2.6514
26168SOL    HW280822   7.341  10.241   6.126  1.9999  0.3599 -0.7103
26169SOL     OW80823  10.349   9.570  10.301 -0.3917  0.7544 -0.0144
26169SOL    HW180824  10.391   9.611  10.226 -0.6453  2.0229  0.5066
26169SOL    HW280825  10.331   9.480  10.273  0.8442  0.7684 -0.9385
26170SOL     OW80826   1.140   6.836   0.441 -0.2609  0.3340 -0.5442
26170SOL    HW180827   1.101   6.787   0.513 -0.0020 -0.3413 -0.8515
26170SOL    HW280828   1.066   6.872   0.392 -0.4748 -0.1587 -0.5878
26171SOL     OW80829   0.656   5.043   2.952  0.2137  0.1581  0.3690
26171SOL    HW180830   0.579   5.042   2.895  0.7982 -1.7876 -0.5028
26171SOL    HW280831   0.654   5.128   2.995 -1.5990  0.7293 -0.7464
26172SOL     OW80832   2.859   6.431   3.446  0.2063 -0.6941 -0.6457
26172SOL    HW180833   2.896   6.518   3.463 -2.2088 -0.2112  4.2625
26172SOL    HW280834   2.777   6.449   3.400 -0.2806 -0.2385  0.3416
26173SOL     OW80835   2.051   9.420   6.892 -0.4817 -0.4151  0.5904
26173SOL    HW180836   1.967   9.438   6.850  1.1014  1.7562 -2.0223
26173SOL    HW280837   2.063   9.326   6.884 -2.0818 -0.5857 -0.1386
26174SOL     OW80838   2.641   7.457   4.545 -0.8648  0.1696  0.8461
26174SOL    HW180839   2.717   7.491   4.593  0.0605  0.5714 -0.8174
26174SOL    HW280840   2.647   7.362   4.555 -0.7527  0.2407  1.5697
26175SOL     OW80841   1.353   9.837   4.424  0.1559 -0.5407  0.7831
26175SOL    HW180842   1.440   9.813   4.455  0.5686  0.8688  0.7941
26175SOL    HW280843   1.368   9.876   4.338 -0.5095 -0.6498  0.6126
26176SOL     OW80844   3.496   4.440   4.886 -0.2190  0.4631 -0.0373
26176SOL    HW180845   3.455   4.454   4.971 -0.1653  0.8628 -0.0756
26176SOL    HW280846   3.561   4.371   4.901 -1.6021 -0.9115 -0.1994
26177SOL     OW80847   2.852   5.145   6.751 -0.8592 -0.5420  0.6396
26177SOL    HW180848   2.866   5.092   6.672  1.3641  0.3957  0.3317
26177SOL    HW280849   2.810   5.225   6.718 -1.7997 -0.9893  0.7260
26178SOL     OW80850   7.540   6.039   9.348  0.5570 -0.4486  0.4975
26178SOL    HW180851   7.620   6.084   9.376 -0.1806  1.3245 -0.1099
26178SOL    HW280852   7.554   5.948   9.372  2.3473  0.0009  1.3009
26179SOL     OW80853   1.892   0.438   6.907  0.1389  0.2609 -0.3885
26179SOL    HW180854   1.802   0.426   6.879 -0.7409  0.1274  2.2083
26179SOL    HW280855   1.897   0.531   6.932 -0.1920 -0.3088  2.0972
26180SOL     OW80856   6.256   6.689   5.391  1.0745  0.6319 -0.0237
26180SOL    HW180857   6.319   6.756   5.420  0.5461  1.1214 -0.0016
26180SOL    HW280858   6.172   6.735   5.389  0.6860 -0.0720  0.1278
26181SOL     OW80859   1.346   8.198   6.927  0.0222 -0.4407  0.0399
26181SOL    HW180860   1.392   8.138   6.868 -1.8342  0.2889 -2.3399
26181SOL    HW280861   1.265   8.219   6.881  0.3083  3.4581  0.9173
26182SOL     OW80862   8.487   4.973   0.766 -0.2533 -0.3740 -0.3582
26182SOL    HW180863   8.527   5.057   0.788  0.1910 -1.0845  1.9373
26182SOL    HW280864   8.393   4.987   0.777 -0.2725  0.0775 -1.0471
26183SOL     OW80865   4.714   4.065   3.611  0.0249 -0.3663  0.1330
26183SOL    HW180866   4.677   4.151   3.590  2.1477  0.7378  0.5449
26183SOL    HW280867   4.793   4.060   3.558  0.2321 -1.8285  0.5481
26184SOL     OW80868   4.861   7.453   9.112  0.4864  1.0014  0.0604
26184SOL    HW180869   4.800   7.448   9.186  1.1321 -0.0113  0.5533
26184SOL    HW280870   4.834   7.532   9.064 -0.0314  1.6078  1.2907
26185SOL     OW80871   7.108   3.036   8.352 -0.7093 -0.1679 -0.1198
26185SOL    HW180872   7.086   3.083   8.433 -0.9176 -0.1389 -0.1944
26185SOL    HW280873   7.170   3.093   8.307  0.8862 -1.0069  0.9096
26186SOL     OW80874   8.911   4.435   7.348 -0.8246 -0.3130 -0.6526
26186SOL    HW180875   8.907   4.529   7.335  0.6829 -0.3488 -1.6700
26186SOL    HW280876   8.906   4.423   7.443 -4.0836  0.5465 -0.6055
26187SOL     OW80877   8.030   4.780   2.747  0.2397 -0.1369  0.4348
26187SOL    HW180878   8.091   4.848   2.719 -0.1520  0.1289  0.2304
26187SOL    HW280879   8.072   4.741   2.824 -0.5120  1.7465  1.8730
26188SOL     OW80880   7.823   9.223   8.883  0.2519 -0.2062 -0.5797
26188SOL    HW180881   7.729   9.211   8.900 -0.0775  0.6766 -1.6607
26188SOL    HW280882   7.838   9.177   8.801  0.5775  0.3926 -0.8587
26189SOL     OW80883  10.353   7.674   4.313 -0.3271 -0.1067  0.3190
26189SOL    HW180884  10.302   7.741   4.268  0.6629  0.3611 -0.1354
26189SOL    HW280885  10.331   7.593   4.267  0.3543  0.2985 -0.7878
26190SOL     OW80886   3.773   4.713  10.187  0.3151 -0.6860  0.5004
26190SOL    HW180887   3.855   4.705  10.139  0.4744  2.6111 -0.0273
26190SOL    HW280888   3.795   4.691  10.277  1.1142 -2.3805 -0.0693
26191SOL     OW80889   2.018   2.102   9.862  0.2270 -0.1189 -0.0254
26191SOL    HW180890   2.053   2.164   9.797 -2.6566  2.8617  0.9943
26191SOL    HW280891   2.072   2.114   9.939  0.7385 -0.1713 -0.3711
26192SOL     OW80892   7.309   4.109   1.361  0.0972  0.5555  0.5325
26192SOL    HW180893   7.238   4.159   1.401 -0.9448 -0.9268  0.6113
26192SOL    HW280894   7.383   4.118   1.422 -0.9670 -0.3479  2.0097
26193SOL     OW80895   3.874   1.378   6.276  0.6671 -0.1720  0.1440
26193SOL    HW180896   3.925   1.328   6.340  0.5001  0.9274  1.1757
26193SOL    HW280897   3.938   1.435   6.233  0.5074  0.3502  0.5899
26194SOL     OW80898   7.940   7.919   7.180  0.2104  0.2909 -0.5414
26194SOL    HW180899   7.860   7.875   7.152 -0.6984  0.9485  0.8853
26194SOL    HW280900   7.934   8.007   7.142 -1.4565  1.4901  2.1589
26195SOL     OW80901  10.279   6.823   8.320  0.1697  0.3519  0.4856
26195SOL    HW180902  10.363   6.864   8.298  0.5966 -0.7647 -0.0210
26195SOL    HW280903  10.302   6.750   8.378 -0.0083 -2.2104 -2.4439
26196SOL     OW80904   4.888   9.460   5.793 -0.4799 -0.0903 -0.8925
26196SOL    HW180905   4.900   9.383   5.737  1.1653 -1.3019  1.0047
26196SOL    HW280906   4.873   9.532   5.731 -0.8797 -1.7034 -2.7781
26197SOL     OW80907   8.108   8.355   5.298  0.0236 -0.1644 -0.1157
26197SOL    HW180908   8.062   8.420   5.351 -0.7519 -1.9310  1.4878
26197SOL    HW280909   8.196   8.391   5.287 -0.6250  1.5440 -0.0707
26198SOL     OW80910   0.409   5.717   8.376 -0.6440  0.0782 -0.3128
26198SOL    HW180911   0.334   5.679   8.331 -0.7523  0.5082 -0.4950
26198SOL    HW280912   0.484   5.696   8.321 -0.5424 -0.8422  0.1503
26199SOL     OW80913   3.042   4.951   4.602  0.3270  0.0757  0.1575
26199SOL    HW180914   3.076   4.863   4.618  2.3570  1.0788  1.9579
26199SOL    HW280915   3.105   4.990   4.542 -0.9925  0.0993 -1.2723
26200SOL     OW80916   3.866   9.517   6.797  0.8472 -0.3442 -0.1588
26200SOL    HW180917   3.854   9.486   6.887  1.2490 -0.6167 -0.1976
26200SOL    HW280918   3.807   9.592   6.790  0.8684 -0.2747  0.3560
26201SOL     OW80919   8.311   8.540   6.173 -0.0138  0.0527  0.4714
26201SOL    HW180920   8.315   8.577   6.261  1.2809 -0.1792  0.5225
26201SOL    HW280921   8.244   8.472   6.179 -1.2790  1.2829  0.7770
26202SOL     OW80922   6.586   8.772   4.622 -0.1755  0.0737  0.2532
26202SOL    HW180923   6.638   8.731   4.691 -0.7078 -0.9984  0.0458
26202SOL    HW280924   6.631   8.749   4.541 -1.5789 -1.9548 -0.0390
26203SOL     OW80925   3.813   8.597   3.684  0.2784  0.0467 -0.8076
26203SOL    HW180926   3.835   8.663   3.749 -1.0949 -0.7795  0.5361
26203SOL    HW280927   3.830   8.640   3.600 -0.8842  2.2366 -0.0044
26204SOL     OW80928   2.280   5.937   2.351  0.2619  0.5207  0.4489
26204SOL    HW180929   2.361   5.919   2.302 -0.9097  2.1701 -2.3221
26204SOL    HW280930   2.305   6.007   2.411  1.2759 -0.1400  0.8305
26205SOL     OW80931   9.437   6.126   8.181 -0.1072 -0.3574 -0.0219
26205SOL    HW180932   9.517   6.178   8.193 -1.1778  1.3624  0.0561
26205SOL    HW280933   9.376   6.186   8.138 -1.2601 -1.7422 -0.3890
26206SOL     OW80934   4.570   9.563   6.497  0.2126 -0.3549  0.0589
26206SOL    HW180935   4.475   9.564   6.508  0.0249  0.1286 -1.3921
26206SOL    HW280936   4.594   9.471   6.510 -0.6819 -0.7906 -1.1464
26207SOL     OW80937   6.648  10.421   4.940  0.3531 -0.3628  0.2090
26207SOL    HW180938   6.741  10.444   4.942  0.5167 -0.7949 -1.3279
26207SOL    HW280939   6.606  10.488   4.994  1.4078  0.6328 -0.1619
26208SOL     OW80940   0.247  10.465   5.400 -0.7782  0.1270  0.0927
26208SOL    HW180941   0.165  10.472   5.351 -0.6220 -1.3378 -0.4447
26208SOL    HW280942   0.286  10.552   5.395 -1.2454  0.2818 -1.5950
26209SOL     OW80943   6.262   3.850   1.350 -0.0375 -0.1152 -0.6568
26209SOL    HW180944   6.295   3.792   1.281  1.3037  1.3407 -1.2948
26209SOL    HW280945   6.244   3.933   1.306  1.0162  0.8999  0.7308
26210SOL     OW80946   5.358   2.773   7.208  0.9976  0.8187 -0.3005
26210SOL    HW180947   5.314   2.857   7.194 -1.2611 -0.1564  0.5309
26210SOL    HW280948   5.308   2.730   7.278  0.6359 -2.1668 -2.2055
26211SOL     OW80949   6.300   2.858   8.281  0.3831 -0.7580  0.2983
26211SOL    HW180950   6.296   2.857   8.185 -0.4193  0.7093  0.2871
26211SOL    HW280951   6.388   2.889   8.301 -0.6810  3.0739 -0.1049
26212SOL     OW80952   9.108   0.586   3.074  0.4970 -0.2266  0.5769
26212SOL    HW180953   9.163   0.664   3.064 -0.5160  0.3960 -0.5058
26212SOL    HW280954   9.103   0.572   3.168  0.3498  1.2978  0.8282
26213SOL     OW80955   7.337   7.361   2.002 -0.3670  0.4243 -0.5526
26213SOL    HW180956   7.257   7.310   1.990 -0.3997  0.6911 -1.4745
26213SOL    HW280957   7.316   7.423   2.072 -0.5110 -0.4268  0.1741
26214SOL     OW80958   6.157   9.371   1.256  0.1528  0.2545  0.0421
26214SOL    HW180959   6.086   9.320   1.218  0.4673 -1.3219  1.4351
26214SOL    HW280960   6.208   9.307   1.306 -0.2611  2.1453  3.1339
26215SOL     OW80961   9.377   6.775   2.050 -0.0316  0.0055  0.2321
26215SOL    HW180962   9.310   6.842   2.062  0.4953  0.6638 -0.4348
26215SOL    HW280963   9.367   6.748   1.958 -0.6840 -1.3298  0.6678
26216SOL     OW80964   8.479   0.054   2.505  0.1971 -0.4360  0.5726
26216SOL    HW180965   8.404   0.029   2.559  0.7013  1.0461  2.0757
26216SOL    HW280966   8.487   0.149   2.518  0.0114  0.1434 -2.6247
26217SOL     OW80967   0.422   0.245   2.969  0.1251  0.4180 -0.5649
26217SOL    HW180968   0.338   0.206   2.942  0.3676 -0.8961  0.4491
26217SOL    HW280969   0.454   0.290   2.891 -0.6851 -0.5740 -1.5038
26218SOL     OW80970   8.889   9.308   2.472  0.3369  0.2771 -0.0022
26218SOL    HW180971   8.904   9.246   2.543 -0.6771  0.6560  0.5622
26218SOL    HW280972   8.943   9.384   2.495 -0.1952  0.5034  0.5057
26219SOL     OW80973   1.482   5.708   8.959  0.2075  0.0114  0.0357
26219SOL    HW180974   1.480   5.750   8.873  0.1569 -0.1820 -0.0583
26219SOL    HW280975   1.470   5.780   9.021 -1.9555 -0.1005 -0.1912
26220SOL     OW80976   2.757   4.029   0.687  0.5826  0.4789 -0.1013
26220SOL    HW180977   2.849   4.053   0.691  0.3088  1.6580 -0.3509
26220SOL    HW280978   2.725   4.071   0.606 -0.1440  0.0200 -0.0614
26221SOL     OW80979   0.355   8.342   9.004 -0.3006 -0.2849  0.5200
26221SOL    HW180980   0.268   8.303   8.996 -0.0725 -0.6851 -0.0486
26221SOL    HW280981   0.339   8.436   8.990 -0.4038 -0.5501 -1.5947
26222SOL     OW80982   0.759   2.358   4.320 -0.3744 -0.2852  0.3213
26222SOL    HW180983   0.821   2.429   4.336  0.3025 -0.3679 -1.6003
26222SOL    HW280984   0.813   2.289   4.280 -1.8227  0.0760 -2.5120
26223SOL     OW80985   1.960   9.614   8.637  0.2300 -0.0837  0.6785
26223SOL    HW180986   1.941   9.693   8.688  1.1158 -0.5987  1.8486
26223SOL    HW280987   1.922   9.632   8.551 -1.2146  0.8512  1.4718
26224SOL     OW80988   2.140   6.601   2.741 -0.3768  0.0895  0.7678
26224SOL    HW180989   2.168   6.635   2.826 -0.7275  1.4444  0.3622
26224SOL    HW280990   2.216   6.553   2.708  0.3814  1.0850  1.0504
26225SOL     OW80991   8.744   5.037   4.284 -0.5032  0.0898  0.2822
26225SOL    HW180992   8.790   5.120   4.267  0.9185 -0.7704 -0.2680
26225SOL    HW280993   8.793   4.972   4.233 -1.2601 -1.1803  1.1348
26226SOL     OW80994   5.091   6.361   7.217  0.1344  0.4419  0.0195
26226SOL    HW180995   5.091   6.340   7.124 -0.4036  0.4084  0.0252
26226SOL    HW280996   5.184   6.361   7.241  0.2118 -2.4326  0.1344
26227SOL     OW80997   9.925   6.561   1.978  0.1742  0.5657  0.3402
26227SOL    HW180998   9.981   6.517   2.042  0.1594  1.1907  0.7981
26227SOL    HW280999   9.952   6.653   1.983  1.0777  0.4355 -1.4934
26228SOL     OW81000   8.808   0.704   7.070 -0.5073  0.6632  0.4102
26228SOL    HW181001   8.840   0.780   7.119 -1.7716  0.9162  0.8847
26228SOL    HW281002   8.714   0.721   7.058 -0.3593  0.2806 -1.5319
26229SOL     OW81003   7.839   8.762   9.109  0.5262  0.0397 -0.1404
26229SOL    HW181004   7.806   8.682   9.069 -1.2502  0.3414  0.6136
26229SOL    HW281005   7.854   8.822   9.036 -1.2223  0.0747 -0.5128
26230SOL     OW81006   7.876   8.218   8.690  0.4406  0.0835 -0.1206
26230SOL    HW181007   7.929   8.296   8.707  3.0541 -1.5346 -0.3298
26230SOL    HW281008   7.835   8.236   8.605 -0.1205  1.7350  0.4503
26231SOL     OW81009   3.988   4.590   1.942  0.3658 -0.2284  0.0108
26231SOL    HW181010   4.022   4.510   1.902 -1.3859 -0.7109 -0.5644
26231SOL    HW281011   4.021   4.660   1.886  0.0987 -0.7148 -0.7749
26232SOL     OW81012   4.555   1.955   5.155  0.0602  0.4032 -0.6742
26232SOL    HW181013   4.505   1.912   5.224 -0.0205  0.0856 -0.9308
26232SOL    HW281014   4.645   1.925   5.168 -0.2686 -1.2427 -1.9129
26233SOL     OW81015  10.102   4.370   2.234  0.1532  0.1401  0.1140
26233SOL    HW181016  10.046   4.293   2.247 -0.2419  0.5543  0.8939
26233SOL    HW281017  10.166   4.342   2.169 -2.1653  0.2577 -2.4154
26234SOL     OW81018   7.934   3.807   7.349  0.2024 -0.2917  0.7427
26234SOL    HW181019   7.844   3.837   7.362  0.2343 -0.6189  1.8417
26234SOL    HW281020   7.943   3.732   7.408  0.3191 -2.1171 -1.4430
26235SOL     OW81021   2.778   8.873   7.477  0.2395  0.4508 -0.0290
26235SOL    HW181022   2.784   8.840   7.566  1.6252 -0.2746 -0.3662
26235SOL    HW281023   2.829   8.954   7.478 -2.0792  2.0051  0.4790
26236SOL     OW81024   2.919   8.420   3.275  0.5296 -0.2533 -0.1215
26236SOL    HW181025   2.917   8.406   3.370 -0.1535  0.8694  0.0508
26236SOL    HW281026   2.838   8.379   3.244 -1.2258  2.5766  0.3223
26237SOL     OW81027   2.175   4.682   6.918 -0.1205  0.4986  0.3873
26237SOL    HW181028   2.126   4.615   6.870 -0.5696 -0.1477  1.6908
26237SOL    HW281029   2.267   4.655   6.909 -0.3644 -1.1433  2.0050
26238SOL     OW81030   0.963   6.652   9.481  0.6291  0.0293  0.1744
26238SOL    HW181031   0.988   6.631   9.391  0.5658 -1.4186  0.4694
26238SOL    HW281032   1.028   6.606   9.535  1.1565  1.5427  0.8782
26239SOL     OW81033   0.102   2.756   9.413 -0.2493  0.2613 -0.6170
26239SOL    HW181034   0.108   2.661   9.408 -1.3120  0.1281  0.3907
26239SOL    HW281035   0.040   2.780   9.344 -0.1782  0.2054 -0.7006
26240SOL     OW81036   1.359   6.669   1.606  0.8438  0.1869  0.4182
26240SOL    HW181037   1.329   6.759   1.620  1.0075  0.3283 -0.1316
26240SOL    HW281038   1.378   6.664   1.512  1.7648 -0.1439  0.6184
26241SOL     OW81039   6.231   5.902   4.147 -0.5369 -0.2999 -0.7282
26241SOL    HW181040   6.297   5.959   4.185 -1.5036  0.5902 -0.3409
26241SOL    HW281041   6.261   5.887   4.057  1.2818 -1.6772  0.0416
26242SOL     OW81042   5.884   0.337   1.694 -0.1676 -0.0371  1.2187
26242SOL    HW181043   5.795   0.337   1.728  0.3762 -0.2799  2.7329
26242SOL    HW281044   5.931   0.276   1.751  0.9317 -0.0463  0.3381
26243SOL     OW81045   1.677   0.799   6.005 -0.2019 -0.2280 -0.0446
26243SOL    HW181046   1.677   0.723   6.063  2.3823  0.7467  1.4000
26243SOL    HW281047   1.617   0.861   6.048  1.4152  0.3442  1.5072
26244SOL     OW81048  10.384   3.839   8.287 -0.3993  0.5471 -0.2030
26244SOL    HW181049  10.457   3.782   8.261 -1.2643 -0.9119  0.4403
26244SOL    HW281050  10.425   3.903   8.346  0.7070  1.0047 -1.4263
26245SOL     OW81051   7.669   0.209   9.753 -0.2359 -0.2425  0.0177
26245SOL    HW181052   7.645   0.192   9.662  0.4866  2.0615 -0.6628
26245SOL    HW281053   7.592   0.252   9.791  0.4358  1.3510 -0.3506
26246SOL     OW81054   7.510   3.059   9.045  0.1184  0.1796 -0.1489
26246SOL    HW181055   7.567   3.011   9.106 -2.3133  0.4549  2.5975
26246SOL    HW281056   7.550   3.145   9.037  1.1701 -0.2805  0.0063
26247SOL     OW81057   1.675  10.303   5.881  0.0084  0.5351  0.3701
26247SOL    HW181058   1.719  10.276   5.961 -1.0292 -0.4514  0.6253
26247SOL    HW281059   1.607  10.364   5.910 -0.0832  0.5148  0.2007
26248SOL     OW81060   9.742   4.699  10.555  0.1716 -0.3881 -0.3550
26248SOL    HW181061   9.649   4.702  10.575  0.3301 -2.3752  0.9609
26248SOL    HW281062   9.746   4.686  10.460 -0.8513  0.5565 -0.5422
26249SOL     OW81063   0.292   9.575   7.028 -0.6514 -0.2814  0.2651
26249SOL    HW181064   0.350   9.651   7.037  0.5287 -1.0634 -0.5139
26249SOL    HW281065   0.339   9.504   7.070  1.3084 -2.0901 -4.3493
26250SOL     OW81066   1.866   4.251   1.156  0.4269  0.1876  0.1063
26250SOL    HW181067   1.948   4.299   1.167 -0.9339  3.4949 -2.4354
26250SOL    HW281068   1.800   4.307   1.197 -0.6494 -2.6155  2.5329
26251SOL     OW81069   1.877   1.367   7.369 -0.0514  0.0840  0.6160
26251SOL    HW181070   1.940   1.313   7.322 -1.0912 -0.9330  0.3275
26251SOL    HW281071   1.843   1.310   7.439 -1.7243  0.0572 -0.1564
26252SOL     OW81072   7.292   5.927   2.428 -0.2453 -0.2219  0.4110
26252SOL    HW181073   7.295   5.851   2.369  1.3909 -0.1096  0.3114
26252SOL    HW281074   7.325   5.894   2.511 -1.4991 -0.1004  0.9836
26253SOL     OW81075   0.583   3.163   4.565 -0.3346  0.1975 -0.2906
26253SOL    HW181076   0.561   3.243   4.612 -0.6084  0.8629 -1.5089
26253SOL    HW281077   0.563   3.182   4.474  1.2244 -0.6825 -0.8574
26254SOL     OW81078   9.467   5.970   1.787  0.1789 -1.5557  0.4993
26254SOL    HW181079   9.510   6.043   1.742  0.1317 -1.9380 -0.1738
26254SOL    HW281080   9.540   5.918   1.822  0.2121 -1.1808  0.9874
26255SOL     OW81081  10.050   2.229   2.534 -0.4353  0.3336  0.5563
26255SOL    HW181082   9.985   2.174   2.490  0.7679 -1.2577  0.7208
26255SOL    HW281083  10.131   2.214   2.487 -0.0203  1.8898  0.7026
26256SOL     OW81084   4.527   4.516   1.116 -0.1482 -0.1809  0.2069
26256SOL    HW181085   4.507   4.522   1.023 -0.4832 -0.1165  0.2815
26256SOL    HW281086   4.442   4.521   1.159 -0.3741 -3.5031  0.3809
26257SOL     OW81087   5.435   5.060   0.258 -0.3722  0.1823 -0.2975
26257SOL    HW181088   5.382   5.125   0.303 -0.2330  0.6829 -0.8486
26257SOL    HW281089   5.525   5.081   0.282 -0.4342 -1.4373  1.6712
26258SOL     OW81090   4.173   7.282   8.573 -0.7223  0.2180 -0.4145
26258SOL    HW181091   4.083   7.299   8.543 -1.1324 -1.5349 -0.2985
26258SOL    HW281092   4.163   7.259   8.666 -0.2343 -0.5997 -0.5590
26259SOL     OW81093  10.289   2.701   6.427 -0.6475  0.2564  0.3428
26259SOL    HW181094  10.359   2.746   6.380 -1.8850  2.9746  0.9324
26259SOL    HW281095  10.223   2.683   6.360 -0.6634  0.4007  0.3204
26260SOL     OW81096   3.840   7.887   1.363  0.2368 -0.2695 -0.6381
26260SOL    HW181097   3.868   7.801   1.392  2.0297  0.9025  1.4099
26260SOL    HW281098   3.746   7.890   1.383  0.4433 -1.2530  0.5811
26261SOL     OW81099   3.844   7.884   2.171 -0.3701  0.0731 -0.2943
26261SOL    HW181100   3.924   7.835   2.192 -0.0813  0.5759 -0.2001
26261SOL    HW281101   3.790   7.877   2.250 -0.5259 -0.4732 -0.4475
26262SOL     OW81102   7.130   0.930   1.595  0.2000 -0.5207 -0.1086
26262SOL    HW181103   7.148   0.969   1.681 -0.3722  0.3720 -0.3752
26262SOL    HW281104   7.067   0.990   1.555  0.9100 -0.5875 -1.3918
26263SOL     OW81105   7.417   2.966   5.491  0.2335 -0.4174 -0.1720
26263SOL    HW181106   7.459   3.024   5.554  0.4058  0.5840 -1.1580
26263SOL    HW281107   7.443   3.001   5.406 -1.8321 -0.3043 -0.8160
26264SOL     OW81108   1.944   2.163   8.397 -0.1073 -0.1595 -0.2913
26264SOL    HW181109   2.023   2.118   8.429 -1.7356 -2.4798  0.7877
26264SOL    HW281110   1.966   2.256   8.401  1.6796 -0.5694  2.6298
26265SOL     OW81111  10.295   0.389   8.189  0.5467 -0.1917 -0.2993
26265SOL    HW181112  10.253   0.409   8.272  1.0388 -1.1746  0.2077
26265SOL    HW281113  10.275   0.463   8.133 -0.6143  0.0288  0.3895
26266SOL     OW81114   4.194   4.822   9.612  0.1002 -0.4503  0.6711
26266SOL    HW181115   4.246   4.784   9.541  0.6485  0.8077  0.3710
26266SOL    HW281116   4.146   4.747   9.648 -0.4850 -1.0803 -1.2459
26267SOL     OW81117   6.076   6.141   3.402  0.0743 -0.3749  0.4905
26267SOL    HW181118   6.124   6.193   3.467  2.3060 -1.3541 -0.2535
26267SOL    HW281119   6.127   6.059   3.397 -0.5272 -0.6493 -1.8671
26268SOL     OW81120   6.656   9.138   2.989 -0.6350 -0.3521 -0.1679
26268SOL    HW181121   6.616   9.053   2.970 -1.3021  0.2246 -1.4953
26268SOL    HW281122   6.621   9.162   3.075 -3.1368  0.0485 -1.2039
26269SOL     OW81123   1.496   4.965   2.718  0.1359 -0.3137 -0.1515
26269SOL    HW181124   1.438   5.041   2.704  2.1624  1.2684 -0.4240
26269SOL    HW281125   1.512   4.931   2.630  1.5179  0.7893 -0.3637
26270SOL     OW81126   5.599   3.583   3.466  0.2696  0.2803  0.5361
26270SOL    HW181127   5.534   3.649   3.443 -0.4349 -0.7428 -0.5451
26270SOL    HW281128   5.580   3.563   3.558 -2.1635 -1.2246 -0.1824
26271SOL     OW81129   9.936  10.454   2.284 -0.4150  0.3576 -0.1280
26271SOL    HW181130   9.908  10.522   2.346 -2.3832 -0.3001 -0.2481
26271SOL    HW281131   9.934  10.373   2.335  0.1851  0.1323 -0.4585
26272SOL     OW81132   1.908   1.646   5.716  0.0656  0.0855  0.1299
26272SOL    HW181133   1.959   1.686   5.786 -0.1671 -0.6918  0.7488
26272SOL    HW281134   1.830   1.612   5.760 -1.0249  1.2643 -0.7851
26273SOL     OW81135   9.155   3.554   7.023  0.0490 -0.2413  0.1146
26273SOL    HW181136   9.197   3.633   7.058  0.9300 -0.5610 -0.1899
26273SOL    HW281137   9.086   3.587   6.966 -0.5730  0.2937  1.1459
26274SOL     OW81138   5.097  10.141   3.842  0.0954 -0.3819 -0.3938
26274SOL    HW181139   5.067  10.093   3.765 -0.2110 -2.2060  0.8035
26274SOL    HW281140   5.102  10.075   3.911 -0.6407  1.3734  1.4355
26275SOL     OW81141   6.886   9.619   2.927 -0.1067  1.1660  0.6639
26275SOL    HW181142   6.877   9.528   2.900  2.1240  1.4941 -1.4902
26275SOL    HW281143   6.846   9.622   3.014  0.0406 -1.9177  0.9335
26276SOL     OW81144   1.252   1.005   0.535 -0.1670  1.0453  0.0385
26276SOL    HW181145   1.201   1.045   0.465 -1.4098  0.3036  0.4790
26276SOL    HW281146   1.223   1.050   0.614 -1.0446 -0.1903  0.4435
26277SOL     OW81147   9.489   7.376   6.641  0.0672  0.8360  0.3784
26277SOL    HW181148   9.558   7.321   6.679 -0.3860 -1.0306 -1.3082
26277SOL    HW281149   9.531   7.460   6.625  1.1997  0.5705  1.7432
26278SOL     OW81150   2.434   7.559   0.460 -0.3298 -0.2181 -0.1511
26278SOL    HW181151   2.408   7.622   0.528  1.3013  1.2389 -0.8035
26278SOL    HW281152   2.529   7.570   0.452 -0.3323 -1.1168 -1.9393
26279SOL     OW81153   6.787   4.713   1.157 -0.1642  0.1425 -0.1888
26279SOL    HW181154   6.735   4.645   1.114 -0.3487  0.2567 -0.1427
26279SOL    HW281155   6.838   4.752   1.086  2.3047 -2.1213  0.1858
26280SOL     OW81156   6.465   2.674   5.272  0.1733  0.0849 -0.5674
26280SOL    HW181157   6.538   2.703   5.328  2.5358 -0.3201 -3.1939
26280SOL    HW281158   6.387   2.691   5.324  2.0982  0.5536  2.4690
26281SOL     OW81159   3.042   2.418   9.330  0.0983  0.8328  0.3312
26281SOL    HW181160   3.055   2.503   9.373 -0.1527  0.7532  0.5661
26281SOL    HW281161   3.048   2.354   9.401  2.4767  0.4391 -0.1294
26282SOL     OW81162   9.088   2.365   4.485 -0.6232 -0.2675 -0.5413
26282SOL    HW181163   9.097   2.379   4.579  0.5677  3.7363 -1.0895
26282SOL    HW281164   8.994   2.367   4.469 -0.7911  0.1657  0.4481
26283SOL     OW81165   5.267   3.418   0.658 -0.4024 -0.1738  0.1606
26283SOL    HW181166   5.298   3.483   0.722  1.4045 -0.4997 -0.3486
26283SOL    HW281167   5.317   3.436   0.579 -0.4474 -1.6926 -0.2379
26284SOL     OW81168   1.763   8.256  10.200 -0.1710 -0.0692  0.1587
26284SOL    HW181169   1.689   8.314  10.181 -0.6580 -0.7468 -0.0548
26284SOL    HW281170   1.834   8.315  10.223 -0.4595  0.6427 -0.7200
26285SOL     OW81171   6.501   6.017   0.872  0.8774  0.3122 -0.0537
26285SOL    HW181172   6.526   5.955   0.804  0.6999 -0.7773  0.8508
26285SOL    HW281173   6.411   6.041   0.851  0.4173 -0.9097  0.4040
26286SOL     OW81174   8.134   1.336  10.170 -0.0549  0.4079 -0.5440
26286SOL    HW181175   8.146   1.297  10.257  0.1669  0.3272 -0.6112
26286SOL    HW281176   8.039   1.342  10.160 -0.1068 -0.4329 -0.6718
26287SOL     OW81177   2.725   4.292   4.998 -0.3223  0.0673  0.3680
26287SOL    HW181178   2.694   4.229   5.064 -1.3497 -0.7878 -0.8795
26287SOL    HW281179   2.687   4.375   5.025 -2.0565 -0.5668  0.0336
26288SOL     OW81180   6.410   4.838   6.204  0.3381  0.5772  0.1332
26288SOL    HW181181   6.345   4.788   6.253  2.7053 -2.4924  0.4313
26288SOL    HW281182   6.363   4.869   6.127 -2.0314  0.5633  1.4798
26289SOL     OW81183   8.592   0.915   1.123  0.1516 -0.1716  0.4008
26289SOL    HW181184   8.591   0.961   1.207  0.2722  0.5398  0.0206
26289SOL    HW281185   8.590   0.822   1.146  1.7807 -0.0284  1.2318
26290SOL     OW81186   9.024   6.109   6.753  0.2062 -0.6995  0.5532
26290SOL    HW181187   9.109   6.131   6.715 -1.1469  0.4204 -2.1409
26290SOL    HW281188   9.008   6.178   6.818  1.1014 -0.5971  0.6765
26291SOL     OW81189   0.072   9.505   9.786  0.2448  0.0306 -0.4483
26291SOL    HW181190  -0.019   9.512   9.757 -0.6081 -0.8602  1.7695
26291SOL    HW281191   0.124   9.515   9.706 -1.7990  0.0747 -1.8450
26292SOL     OW81192   8.560   7.526   7.144 -0.1391  0.6863 -0.4737
26292SOL    HW181193   8.496   7.591   7.114 -1.2221  0.3708  1.0054
26292SOL    HW281194   8.623   7.576   7.195 -0.9332  0.6277  0.6063
26293SOL     OW81195   3.497  10.539   9.346 -0.5314 -0.2380 -0.0387
26293SOL    HW181196   3.442  10.508   9.274 -1.9286  0.2504  0.7670
26293SOL    HW281197   3.483  10.634   9.347 -0.0813 -0.1766  0.5181
26294SOL     OW81198   2.634   5.776   1.477 -0.6511  0.2575  0.3101
26294SOL    HW181199   2.610   5.725   1.399 -0.2835 -0.3885  0.6117
26294SOL    HW281200   2.702   5.836   1.445  1.4828 -1.8326  0.6588
26295SOL     OW81201  10.006   0.155   6.502  0.1647 -0.0913 -0.1986
26295SOL    HW181202   9.941   0.088   6.522  0.9446 -0.2290  2.2921
26295SOL    HW281203  10.078   0.106   6.462 -1.0963  0.0355 -2.7773
26296SOL     OW81204   0.112   1.390   3.260  0.0394  0.1546  0.0876
26296SOL    HW181205   0.095   1.297   3.277 -0.2009 -0.0308 -1.0728
26296SOL    HW281206   0.108   1.431   3.346  0.2552 -0.9253  0.6362
26297SOL     OW81207   1.066   8.667   6.716  0.0731  0.1313 -0.1619
26297SOL    HW181208   1.100   8.578   6.720 -1.0520 -0.2686  1.5289
26297SOL    HW281209   1.107   8.705   6.638  2.1939 -1.1696  0.2391
26298SOL     OW81210   3.260   8.799   5.849  0.5188 -0.3317  0.6883
26298SOL    HW181211   3.224   8.729   5.903 -1.0344 -0.4657 -0.4443
26298SOL    HW281212   3.218   8.788   5.764  1.4871  0.9879 -0.0048
26299SOL     OW81213   9.939   3.492   2.612 -0.2256  0.0348  0.0595
26299SOL    HW181214   9.970   3.554   2.546  3.0051 -0.4093  1.0156
26299SOL    HW281215   9.918   3.413   2.563  1.9673 -0.2398 -0.5437
26300SOL     OW81216   5.864   2.558   7.622 -0.0581 -0.0113 -0.1689
26300SOL    HW181217   5.852   2.640   7.668 -1.2627 -1.0620  1.4711
26300SOL    HW281218   5.921   2.506   7.679  0.9572 -0.2297 -1.3319
26301SOL     OW81219   1.537   7.454   7.194  0.4792  0.8889  0.0778
26301SOL    HW181220   1.472   7.490   7.134 -0.3439 -0.4431  0.1384
26301SOL    HW281221   1.621   7.466   7.149 -0.0103  0.8990 -0.8376
26302SOL     OW81222   0.392   5.266   6.274 -0.4047 -0.1508  0.2853
26302SOL    HW181223   0.400   5.294   6.183 -1.3269 -1.5381 -0.2566
26302SOL    HW281224   0.384   5.171   6.269  1.3611 -0.4638  1.9492
26303SOL     OW81225   0.020   6.082   6.677 -0.2070  0.0565  0.1307
26303SOL    HW181226  -0.010   6.094   6.768 -2.7403  0.8053 -0.7310
26303SOL    HW281227  -0.060   6.070   6.627  1.1885 -1.0289 -1.9599
26304SOL     OW81228   2.007   4.210   1.564  0.2402  0.2433 -0.4317
26304SOL    HW181229   1.978   4.141   1.505  0.1571 -0.0447 -0.0536
26304SOL    HW281230   1.982   4.291   1.520 -2.1064  0.0128  0.3251
26305SOL     OW81231   9.193   4.266   7.613  0.4005 -0.5018  0.1082
26305SOL    HW181232   9.220   4.183   7.574 -0.5263 -0.7364 -0.0494
26305SOL    HW281233   9.098   4.267   7.605  0.4839  1.2314 -1.2278
26306SOL     OW81234   9.158   2.235   1.618 -0.0128 -0.8232 -0.2209
26306SOL    HW181235   9.204   2.203   1.540  0.7385 -0.6509  0.1512
26306SOL    HW281236   9.192   2.182   1.689  3.3257  2.4459  0.9286
26307SOL     OW81237   3.929   8.972   4.326 -0.3081 -0.4398 -0.7528
26307SOL    HW181238   3.938   8.877   4.320  1.1180 -0.2362 -2.8435
26307SOL    HW281239   4.015   9.006   4.305 -0.1796  1.3543  2.1692
26308SOL     OW81240  10.339   5.304   6.742  0.7433 -0.6154 -0.1044
26308SOL    HW181241  10.418   5.353   6.767 -0.0325  1.1669 -0.9479
26308SOL    HW281242  10.372   5.218   6.714  2.1024 -0.8572  2.0006
26309SOL     OW81243   3.896   0.727   4.534  0.3444 -0.1867  0.2753
26309SOL    HW181244   3.919   0.731   4.627 -1.5621  3.0897  0.7623
26309SOL    HW281245   3.972   0.687   4.492  1.8125 -0.5698  3.0711
26310SOL     OW81246   2.318   6.066   3.280  0.0297  0.0414  0.0114
26310SOL    HW181247   2.264   5.995   3.316  1.4935 -1.7650 -1.1552
26310SOL    HW281248   2.256   6.135   3.258 -1.9017 -2.0360 -1.5145
26311SOL     OW81249   5.682   3.531   4.195 -0.2327 -1.0432 -0.2349
26311SOL    HW181250   5.747   3.461   4.185 -0.2302 -0.8843 -1.3762
26311SOL    HW281251   5.717   3.604   4.144 -0.7913 -0.5835  0.0325
26312SOL     OW81252   7.169   4.537   6.287 -0.1288 -0.1439  0.0384
26312SOL    HW181253   7.163   4.616   6.233 -1.5129 -1.3216 -1.6655
26312SOL    HW281254   7.249   4.547   6.337  0.1815  1.9293 -0.8029
26313SOL     OW81255   3.892   3.295   0.288 -0.4510  0.4159  0.1449
26313SOL    HW181256   3.833   3.360   0.251 -1.4636 -0.7338 -0.3238
26313SOL    HW281257   3.855   3.211   0.262  1.8305 -0.3647 -0.9057
26314SOL     OW81258   6.212   9.573   0.511  0.3796 -0.9637  0.1480
26314SOL    HW181259   6.145   9.526   0.561  0.7881 -0.8345  0.8259
26314SOL    HW281260   6.181   9.569   0.420 -1.8751  1.2273  0.6902
26315SOL     OW81261   1.688   8.417   4.942  0.0547  0.0348 -0.2401
26315SOL    HW181262   1.602   8.425   4.985  0.5067  2.0316  0.4191
26315SOL    HW281263   1.681   8.338   4.889 -2.6416  0.7771 -1.1571
26316SOL     OW81264  10.177   2.892   9.873  0.3244  0.7098 -0.6330
26316SOL    HW181265  10.185   2.834   9.798 -0.3151  0.0436 -0.1936
26316SOL    HW281266  10.208   2.977   9.841  1.5781  0.0672 -1.1860
26317SOL     OW81267   4.563   8.833   8.587 -0.4207  0.1070 -0.4112
26317SOL    HW181268   4.655   8.822   8.562 -0.6083  1.4603 -1.8709
26317SOL    HW281269   4.565   8.902   8.654 -0.4652  1.3787 -1.6595
26318SOL     OW81270   3.988  10.396   6.021 -0.6471  0.3109  0.3086
26318SOL    HW181271   3.934  10.432   5.950  1.5795 -0.0856 -1.6930
26318SOL    HW281272   4.032  10.472   6.059 -0.0832  0.2950 -0.2991
26319SOL     OW81273   8.121   7.843   4.631  0.0610  0.4885  0.2270
26319SOL    HW181274   8.043   7.846   4.686 -0.5869 -0.6396 -0.5926
26319SOL    HW281275   8.194   7.841   4.693 -0.6402 -0.6511  1.0599
26320SOL     OW81276   1.755   5.048   3.104 -0.1370  0.4296 -0.3960
26320SOL    HW181277   1.816   4.974   3.110 -0.4705  0.1910  0.1737
26320SOL    HW281278   1.793   5.105   3.037 -0.3407 -0.6788 -1.4856
26321SOL     OW81279   1.185  10.282   0.891 -0.2395  0.1842  0.2798
26321SOL    HW181280   1.139  10.219   0.835  0.9687 -0.5232  0.0532
26321SOL    HW281281   1.274  10.284   0.857 -0.0810  1.5211  0.7244
26322SOL     OW81282   3.922   2.618  10.059  0.2361 -0.3072  0.2837
26322SOL    HW181283   3.853   2.675  10.024  1.2370  1.5007  1.0818
26322SOL    HW281284   3.988   2.616   9.990  0.7637  0.5736  0.7490
26323SOL     OW81285   1.910   1.517   4.567 -0.2862  0.2756 -0.5636
26323SOL    HW181286   1.988   1.463   4.581  0.4828  1.5327  0.2961
26323SOL    HW281287   1.849   1.490   4.636  0.1642  0.5887 -0.0292
26324SOL     OW81288   6.260   0.439  10.128  0.8607  0.1417  0.0887
26324SOL    HW181289   6.213   0.431  10.211  1.6140 -0.4364  0.4649
26324SOL    HW281290   6.238   0.358  10.080  1.4072 -0.1022  0.2398
26325SOL     OW81291   6.459   2.058   0.901 -0.3634  0.5732 -0.2894
26325SOL    HW181292   6.415   2.137   0.869 -2.3265 -0.0454  0.7030
26325SOL    HW281293   6.413   1.986   0.859  0.1890 -0.1019  0.2326
26326SOL     OW81294   3.355   0.567  10.388 -0.0180 -0.2112  0.1680
26326SOL    HW181295   3.329   0.658  10.401  2.1274  0.7767 -1.7605
26326SOL    HW281296   3.315   0.543  10.304  0.7854 -0.4526 -0.1557
26327SOL     OW81297   2.094   3.584   2.279  0.3320 -0.0610  0.9508
26327SOL    HW181298   2.089   3.618   2.190 -0.4353  0.4850  1.1953
26327SOL    HW281299   2.183   3.605   2.308  0.8239 -0.8660  0.0804
26328SOL     OW81300   2.713   2.419  10.324  0.1061  0.5688  0.1075
26328SOL    HW181301   2.656   2.455  10.257 -0.1871 -0.8203 -0.4177
26328SOL    HW281302   2.656   2.401  10.398 -0.1543 -0.6480 -0.3522
26329SOL     OW81303   8.619   7.620   6.047  0.1093 -0.5109 -0.3420
26329SOL    HW181304   8.529   7.653   6.036  0.5931 -0.0953 -3.9760
26329SOL    HW281305   8.609   7.548   6.110 -2.6706 -0.1468 -0.2092
26330SOL     OW81306   4.995   5.948   8.385 -0.0450  0.1779  0.0726
26330SOL    HW181307   4.947   5.872   8.417  0.8370 -1.5897 -2.4662
26330SOL    HW281308   5.087   5.926   8.398  0.2238  1.4320  0.4978
26331SOL     OW81309   8.307   3.940   8.964  0.1004  0.0958  0.2094
26331SOL    HW181310   8.297   3.894   9.047 -0.3241  0.3477  0.2995
26331SOL    HW281311   8.255   4.019   8.974 -1.4184 -0.7112 -0.9373
26332SOL     OW81312  10.376   0.982   6.783 -0.6739 -0.5309  0.4355
26332SOL    HW181313  10.379   1.032   6.864  0.8458  1.3736 -0.7002
26332SOL    HW281314  10.306   1.023   6.732 -0.4432 -0.5323  0.1078
26333SOL     OW81315   2.950   1.342  10.211  0.2404  0.3076 -0.3529
26333SOL    HW181316   2.857   1.365  10.204  0.2116  0.6736  0.9731
26333SOL    HW281317   2.991   1.388  10.138 -0.6678 -0.1613 -1.1751
26334SOL     OW81318   8.238   2.765   1.765  0.2353  0.2455 -0.0550
26334SOL    HW181319   8.159   2.716   1.786  1.0510 -0.7043  0.9069
26334SOL    HW281320   8.284   2.710   1.702 -0.1218  1.0671 -1.0669
26335SOL     OW81321   8.270   8.099   2.852 -0.0613  0.8112 -0.4477
26335SOL    HW181322   8.303   8.083   2.940  1.1342 -0.6715 -1.1027
26335SOL    HW281323   8.274   8.194   2.841 -1.9687  1.1962  1.6926
26336SOL     OW81324   2.320   6.069   9.034 -0.4310 -0.0655  0.7324
26336SOL    HW181325   2.365   6.070   9.118  1.4142  0.7557 -0.1932
26336SOL    HW281326   2.388   6.043   8.971 -1.4787  0.3788 -0.6470
26337SOL     OW81327   5.338   9.814   5.150 -0.7359  0.3903  0.4876
26337SOL    HW181328   5.297   9.777   5.071 -1.6192 -0.6146  1.3793
26337SOL    HW281329   5.368   9.900   5.123 -1.3150  0.2031 -0.8656
26338SOL     OW81330   5.255  10.132   9.287 -0.7556 -0.6484  0.3068
26338SOL    HW181331   5.342  10.135   9.326 -1.0059 -2.6768  1.1124
26338SOL    HW281332   5.224  10.223   9.291  2.3323  0.7681 -2.5480
26339SOL     OW81333   3.607   3.831   7.395 -0.9134 -0.9611  0.4953
26339SOL    HW181334   3.542   3.894   7.426 -1.0866 -1.4868  1.2235
26339SOL    HW281335   3.570   3.797   7.314 -0.3993  0.5207 -0.4073
26340SOL     OW81336   1.885   6.568   9.115 -0.7910  0.4668 -0.4825
26340SOL    HW181337   1.851   6.541   9.200 -1.9094  2.9205 -0.0604
26340SOL    HW281338   1.813   6.549   9.054 -0.5697  0.1007 -0.6319
26341SOL     OW81339   7.679   0.367   8.023 -0.0255 -0.2479  0.5818
26341SOL    HW181340   7.745   0.377   8.091  0.1737 -2.0515  0.6896
26341SOL    HW281341   7.607   0.321   8.066 -0.0920 -0.9847 -0.2808
26342SOL     OW81342   8.905   9.592   9.829  0.3354 -0.2893  0.2195
26342SOL    HW181343   9.000   9.582   9.836  0.3911 -0.2882 -0.4801
26342SOL    HW281344   8.885   9.665   9.888  0.8376  0.0603 -0.0366
26343SOL     OW81345   8.768   7.737   9.078 -1.0733 -0.0013 -0.1646
26343SOL    HW181346   8.787   7.664   9.136  0.3534 -1.0750 -1.8716
26343SOL    HW281347   8.750   7.696   8.993  0.2585  1.6074 -1.2963
26344SOL     OW81348   5.497   0.885   7.532 -0.0345  0.3747 -0.0004
26344SOL    HW181349   5.464   0.951   7.472 -0.2398  0.1745 -0.1073
26344SOL    HW281350   5.424   0.825   7.544 -0.5224  1.2219  1.6256
26345SOL     OW81351   2.512   0.278   8.556 -0.0112  0.1908 -0.5847
26345SOL    HW181352   2.482   0.191   8.530 -1.6705  0.4347  0.3711
26345SOL    HW281353   2.476   0.291   8.644 -0.7491  2.2702 -1.1322
26346SOL     OW81354   7.274   2.940   9.733  0.4178  0.3270 -0.3636
26346SOL    HW181355   7.343   3.005   9.743  1.0419 -0.0899 -1.7331
26346SOL    HW281356   7.319   2.856   9.731 -0.2627 -0.0633  0.1429
26347SOL     OW81357   9.361   1.774   0.244  0.0977  0.2161 -0.4740
26347SOL    HW181358   9.420   1.825   0.188 -0.0750  2.2923  1.1366
26347SOL    HW281359   9.416   1.744   0.316 -0.5903  1.4826  0.6154
26348SOL     OW81360   7.211   3.768   7.042 -0.7223  0.5583  0.3635
26348SOL    HW181361   7.275   3.698   7.030 -1.4701  0.3093 -3.2906
26348SOL    HW281362   7.134   3.725   7.080 -0.2036 -0.0108  0.7725
26349SOL     OW81363   0.459   1.950   1.643  0.6151  0.0885  0.0050
26349SOL    HW181364   0.408   2.029   1.658 -1.0469 -0.9177 -0.0306
26349SOL    HW281365   0.427   1.888   1.709  1.2552 -0.8205 -0.5135
26350SOL     OW81366   6.414   4.980   9.227  0.1283 -0.1858  0.1571
26350SOL    HW181367   6.344   5.038   9.256 -0.6631 -0.4060 -1.1985
26350SOL    HW281368   6.417   4.910   9.292 -0.2289  0.3482  0.7584
26351SOL     OW81369   4.539   4.991   8.006  0.7084  0.1410 -0.4347
26351SOL    HW181370   4.487   5.060   8.048  0.5279  0.4862 -1.2120
26351SOL    HW281371   4.560   4.930   8.077 -2.0231 -0.8221 -0.3377
26352SOL     OW81372   2.031   3.939   0.492 -0.3736  0.2865 -0.5113
26352SOL    HW181373   1.969   3.962   0.423  0.6131  1.1757 -1.1508
26352SOL    HW281374   1.997   3.981   0.570 -1.6899 -1.0159 -0.3423
26353SOL     OW81375   5.726   6.006   8.787 -0.0966  0.1914  0.2780
26353SOL    HW181376   5.659   6.022   8.721  1.4161 -0.5094 -1.5320
26353SOL    HW281377   5.686   5.943   8.847 -0.9773 -0.4695 -0.9479
26354SOL     OW81378   5.373   6.667  10.565 -0.8760 -0.0234 -0.1486
26354SOL    HW181379   5.426   6.685  10.642  1.4728 -2.4828 -1.0354
26354SOL    HW281380   5.399   6.734  10.502 -1.7019  1.0874  0.6641
26355SOL     OW81381   7.588   5.717   5.435  0.8405 -0.7233 -0.2920
26355SOL    HW181382   7.543   5.731   5.351  0.0504 -0.7479  0.1212
26355SOL    HW281383   7.572   5.625   5.456 -1.2091 -0.1074  1.1435
26356SOL     OW81384   7.882   2.509   0.732 -0.4196 -0.5434  0.2150
26356SOL    HW181385   7.932   2.580   0.771 -0.6753  0.2868 -0.9192
26356SOL    HW281386   7.795   2.545   0.719  0.0052 -0.2420 -2.4168
26357SOL     OW81387   8.435   3.396   2.289  0.2452 -0.0634  0.1060
26357SOL    HW181388   8.507   3.457   2.272 -0.3952  0.2920 -1.5045
26357SOL    HW281389   8.387   3.435   2.362 -0.3447  1.5717 -1.0960
26358SOL     OW81390   1.079   6.165   3.448 -0.3250  1.2764  0.9000
26358SOL    HW181391   1.068   6.072   3.426  0.2361  1.1864  1.0058
26358SOL    HW281392   1.001   6.206   3.412  0.0533  0.9632 -0.3245
26359SOL     OW81393   5.074   1.190   8.959 -0.5610  0.7224 -0.6830
26359SOL    HW181394   5.059   1.117   8.899 -0.2882  0.5115 -0.5003
26359SOL    HW281395   5.110   1.149   9.038 -1.0501  0.9778 -0.3218
26360SOL     OW81396   4.536   1.919   7.099  0.3247  0.5976 -0.4679
26360SOL    HW181397   4.630   1.909   7.114  0.5735  0.8175 -1.7259
26360SOL    HW281398   4.528   2.000   7.050 -0.8131  1.9962  1.8700
26361SOL     OW81399  10.302   3.547   7.647  0.1947  0.3200 -0.3788
26361SOL    HW181400  10.352   3.604   7.705  0.0229  0.1486 -0.0607
26361SOL    HW281401  10.369   3.504   7.593  0.3771  0.2668 -0.1128
26362SOL     OW81402   0.738   2.121   9.201 -0.0096 -0.3026 -0.2545
26362SOL    HW181403   0.783   2.166   9.272  0.8979  1.1285 -1.6594
26362SOL    HW281404   0.806   2.064   9.162  0.2514  0.7808 -1.4734
26363SOL     OW81405   1.669   7.711   8.279  0.1860  0.5629 -0.0283
26363SOL    HW181406   1.632   7.658   8.209  1.5695  0.9613 -1.0978
26363SOL    HW281407   1.735   7.655   8.320 -0.6205  0.3280  0.9889
26364SOL     OW81408   2.981   4.492   7.590  0.5833 -0.5026  0.7122
26364SOL    HW181409   2.887   4.472   7.593  0.6537 -0.9861 -0.1225
26364SOL    HW281410   3.020   4.434   7.655  0.3818 -0.7594  0.6059
26365SOL     OW81411   8.155   5.959   8.603  0.1151  0.0037  0.3935
26365SOL    HW181412   8.208   5.883   8.578  0.3207  0.8392 -1.9415
26365SOL    HW281413   8.213   6.034   8.589 -0.9317  0.7677  0.0036
26366SOL     OW81414   2.912   5.029   4.124 -0.1502  0.5166  0.2171
26366SOL    HW181415   2.934   4.964   4.191 -1.4737  0.4741  0.6379
26366SOL    HW281416   2.853   4.984   4.064 -2.0929  1.6121  1.1971
26367SOL     OW81417   8.350   0.865   1.975 -0.0214 -0.2481 -0.1245
26367SOL    HW181418   8.387   0.777   1.982 -0.7128 -0.4806  1.1220
26367SOL    HW281419   8.317   0.884   2.063 -0.4585  1.0029 -0.5266
26368SOL     OW81420   7.493   2.162   2.017 -0.3714 -0.1425 -0.4460
26368SOL    HW181421   7.555   2.235   2.006  1.0693 -1.0920  0.8765
26368SOL    HW281422   7.524   2.096   1.955 -2.7619  0.9408 -2.9794
26369SOL     OW81423   5.499   3.865   1.335 -0.3873 -0.2647  0.0328
26369SOL    HW181424   5.508   3.940   1.394  2.1121  0.9342 -1.6745
26369SOL    HW281425   5.507   3.903   1.247  0.0009 -2.4152 -0.9356
26370SOL     OW81426   5.407   3.535   6.833 -0.2920 -0.5503  0.0938
26370SOL    HW181427   5.315   3.525   6.857 -0.3495  0.4428  0.3324
26370SOL    HW281428   5.405   3.559   6.740 -0.2825 -0.2947  0.1604
26371SOL     OW81429   4.949   1.774   7.967 -0.0011  0.3789  0.0467
26371SOL    HW181430   4.970   1.712   7.897  0.2115 -1.0835  1.3410
26371SOL    HW281431   4.864   1.745   8.000  1.2143 -0.9084  2.3354
26372SOL     OW81432   9.015   4.462   8.587  0.1534  0.3230  0.3821
26372SOL    HW181433   9.020   4.421   8.500 -0.6705  1.1666 -0.0824
26372SOL    HW281434   8.923   4.459   8.610  0.2024  1.1300  0.7209
26373SOL     OW81435   2.854   2.753   6.079  0.0161 -0.1083 -0.0522
26373SOL    HW181436   2.843   2.759   6.174 -1.4894 -1.2700 -0.1234
26373SOL    HW281437   2.932   2.698   6.068  1.2207  1.4051  0.4667
26374SOL     OW81438   3.420   7.010   8.879  0.1953  0.0538 -0.2017
26374SOL    HW181439   3.363   6.977   8.948  2.0468  2.3122  2.6109
26374SOL    HW281440   3.470   6.934   8.850 -1.7849 -1.2581 -0.3392
26375SOL     OW81441   8.543   4.346   3.761  0.9336  0.5321  0.2434
26375SOL    HW181442   8.585   4.274   3.807  0.5921 -0.6349 -1.2044
26375SOL    HW281443   8.453   4.317   3.747  1.2562  0.3780 -1.9780
26376SOL     OW81444   3.741   7.436   0.374  0.6774 -0.2258  0.4938
26376SOL    HW181445   3.647   7.440   0.391  0.8271  0.2981  1.1854
26376SOL    HW281446   3.770   7.356   0.418  0.3236 -1.1430 -0.8828
26377SOL     OW81447   3.858   0.992   2.060 -0.0296  0.4031 -0.2523
26377SOL    HW181448   3.807   0.947   2.127 -1.0193 -1.2694 -2.0224
26377SOL    HW281449   3.893   1.069   2.104 -0.8488 -0.4731  2.0856
26378SOL     OW81450   3.600   3.559   3.397  0.0740 -0.2864 -0.2165
26378SOL    HW181451   3.561   3.601   3.321  0.3939 -0.2122 -0.3382
26378SOL    HW281452   3.671   3.506   3.362 -0.1923 -0.7701 -0.0434
26379SOL     OW81453   4.905   2.882   9.317  0.3388 -0.1000 -0.6122
26379SOL    HW181454   4.857   2.804   9.344 -0.3667  0.4575 -0.2411
26379SOL    HW281455   4.968   2.897   9.387  0.9308 -0.7164 -1.0028
26380SOL     OW81456   2.332   3.344   2.378  0.3331 -0.2272  0.4167
26380SOL    HW181457   2.239   3.323   2.385  0.1888  0.0827 -0.4409
26380SOL    HW281458   2.334   3.439   2.363  0.6109 -0.5495 -2.1615
26381SOL     OW81459   3.109   3.477   8.077 -0.1892 -0.4257  0.1227
26381SOL    HW181460   3.166   3.537   8.125 -0.9472 -0.5829  1.2496
26381SOL    HW281461   3.160   3.453   7.999  0.6716  0.5927  0.3518
26382SOL     OW81462   2.261   9.966   1.600  0.0022 -0.3468 -0.4836
26382SOL    HW181463   2.204  10.021   1.547 -2.5187 -0.6542  1.6634
26382SOL    HW281464   2.201   9.909   1.648  2.1424 -0.8437  1.8222
26383SOL     OW81465   6.890   7.884   4.653  0.6428 -0.2045 -1.0736
26383SOL    HW181466   6.816   7.823   4.654  0.0890  0.4240  1.0793
26383SOL    HW281467   6.855   7.964   4.614 -0.2244  0.4926  1.0159
26384SOL     OW81468   4.976   6.439   4.899  0.3934 -0.0730 -0.6922
26384SOL    HW181469   5.068   6.456   4.918  0.2649  1.4600 -1.2878
26384SOL    HW281470   4.928   6.490   4.964 -0.0525 -0.8422 -0.4030
26385SOL     OW81471   4.091   2.023   8.847 -0.0785  0.2430  0.1244
26385SOL    HW181472   4.059   2.110   8.822  1.0378  0.5727 -0.2208
26385SOL    HW281473   4.168   2.009   8.792  0.6687 -0.2960  1.2802
26386SOL     OW81474   4.310   6.484   9.567 -0.0393 -0.0459  0.3016
26386SOL    HW181475   4.250   6.528   9.507  0.5216  0.1011 -0.1704
26386SOL    HW281476   4.397   6.516   9.542  0.1670  0.3917  1.5315
26387SOL     OW81477   8.685   5.595   2.383 -0.4164  0.6962 -0.4705
26387SOL    HW181478   8.615   5.564   2.325  0.3620 -0.3632 -0.8708
26387SOL    HW281479   8.667   5.688   2.395 -1.0393  0.7567 -1.7798
26388SOL     OW81480   8.836   4.024   7.911  0.0214 -0.2404 -0.3032
26388SOL    HW181481   8.863   3.956   7.973 -0.6598 -0.3792 -0.1485
26388SOL    HW281482   8.868   3.994   7.826 -0.0119 -0.6029 -0.1887
26389SOL     OW81483   7.045  10.216   3.078 -0.0491  0.9753 -0.6348
26389SOL    HW181484   7.127  10.174   3.105 -0.2797  1.1593  0.3895
26389SOL    HW281485   6.979  10.147   3.088 -0.1888  1.1421 -0.4019
26390SOL     OW81486   2.822   9.616   4.107  0.2202 -0.1314 -0.1249
26390SOL    HW181487   2.755   9.681   4.126  0.5261 -0.0617  0.7693
26390SOL    HW281488   2.861   9.596   4.192  0.0919 -1.5348 -0.3712
26391SOL     OW81489   8.442   1.735   0.304 -0.3404 -0.4890 -0.0681
26391SOL    HW181490   8.369   1.758   0.246  1.5786  2.3485 -1.6274
26391SOL    HW281491   8.406   1.669   0.364 -4.4335  1.4440 -0.0781
26392SOL     OW81492   8.350   8.737   1.629 -0.7353 -0.2819 -0.1028
26392SOL    HW181493   8.259   8.727   1.600 -0.9497  0.3777  0.3310
26392SOL    HW281494   8.349   8.814   1.686  0.5359  1.2253 -1.9843
26393SOL     OW81495   7.106   5.825   3.310  0.4007  0.2072 -0.1902
26393SOL    HW181496   7.151   5.909   3.302  1.5285 -0.5322 -2.9564
26393SOL    HW281497   7.135   5.790   3.394  0.6710  2.1107  0.5733
26394SOL     OW81498   5.660   1.299   7.285 -0.1702 -0.5715 -0.2666
26394SOL    HW181499   5.576   1.289   7.239 -0.2902  0.9040 -0.4159
26394SOL    HW281500   5.726   1.281   7.219 -0.3583  0.5412 -0.7872
26395SOL     OW81501   3.080   8.197   4.126  0.4077  0.4462 -0.5545
26395SOL    HW181502   3.043   8.151   4.051 -0.8154  0.5670 -0.0531
26395SOL    HW281503   3.011   8.195   4.192  1.1213  1.1359  0.2482
26396SOL     OW81504   4.527   8.008   3.069  0.3835  0.3187 -0.1416
26396SOL    HW181505   4.586   7.997   2.995  0.7859  0.2976  0.1766
26396SOL    HW281506   4.443   7.975   3.038  0.5616  0.2611 -0.5693
26397SOL     OW81507   8.032   1.348   1.427  0.0796 -0.5605  0.0126
26397SOL    HW181508   8.053   1.256   1.413 -0.6762 -0.9874  1.5321
26397SOL    HW281509   8.014   1.356   1.520  0.0259  1.1149 -0.0990
26398SOL     OW81510   9.921   3.156   9.135  0.3421  0.3951  0.0582
26398SOL    HW181511   9.867   3.079   9.156  0.5125  0.4075  0.5605
26398SOL    HW281512   9.989   3.121   9.078  0.1544  0.2617 -0.0885
26399SOL     OW81513   6.921   9.233   8.027 -0.0143  0.4088 -0.0669
26399SOL    HW181514   6.938   9.223   7.933 -0.5466  0.0718 -0.1342
26399SOL    HW281515   6.956   9.319   8.049  2.4195 -0.5258 -0.0227
26400SOL     OW81516   8.286   8.075   3.488  0.6055 -0.6126  0.5539
26400SOL    HW181517   8.192   8.085   3.507  0.5789 -2.2505  1.4641
26400SOL    HW281518   8.288   8.019   3.411  0.8479 -0.0537  0.1461
26401SOL     OW81519   4.034   4.414   4.045 -0.1863 -0.5093 -0.1930
26401SOL    HW181520   4.078   4.495   4.021  2.0781 -1.6758 -0.2449
26401SOL    HW281521   4.053   4.403   4.138  1.9457 -2.3116 -0.7647
26402SOL     OW81522   2.739   7.204   4.559  0.1474  0.2574  0.0412
26402SOL    HW181523   2.826   7.167   4.541 -0.1982 -1.1840  1.1416
26402SOL    HW281524   2.701   7.219   4.473  1.1488  0.0403 -0.4501
26403SOL     OW81525   1.653   9.125   8.567 -0.1539  0.3085 -0.3199
26403SOL    HW181526   1.699   9.198   8.526  1.2311  0.2601  1.0804
26403SOL    HW281527   1.721   9.076   8.614 -1.7041  0.7528  2.6277
26404SOL     OW81528   4.568   3.544   8.935  0.1348 -0.0244 -0.3136
26404SOL    HW181529   4.631   3.482   8.897 -0.5768  1.0501 -3.5514
26404SOL    HW281530   4.492   3.490   8.958  0.5937 -0.7245 -0.4204
26405SOL     OW81531   9.295   2.601   0.825 -0.0192 -0.9329 -0.5538
26405SOL    HW181532   9.325   2.690   0.809  1.3029 -1.2529 -0.0341
26405SOL    HW281533   9.211   2.595   0.780 -1.4040  1.3499  1.4851
26406SOL     OW81534   3.135   4.302   3.319 -0.1327 -0.2320 -0.1456
26406SOL    HW181535   3.126   4.396   3.301 -0.3451 -0.3794 -0.8533
26406SOL    HW281536   3.051   4.265   3.293 -0.0199 -0.6299  0.0510
26407SOL     OW81537   3.359   0.829   8.925  0.4527  0.1259 -0.2024
26407SOL    HW181538   3.287   0.805   8.866  0.4409 -1.3393  0.3472
26407SOL    HW281539   3.363   0.924   8.921 -0.8659  0.1782 -1.0182
26408SOL     OW81540   1.212   3.021   3.915  0.1756  0.2299  0.1476
26408SOL    HW181541   1.212   3.071   3.833  0.5587  0.7819  0.4791
26408SOL    HW281542   1.250   3.080   3.979 -0.5652 -0.0287  0.8396
26409SOL     OW81543   0.781   0.715   4.998  0.3811 -0.0916 -0.6046
26409SOL    HW181544   0.876   0.707   5.007  0.3043 -0.5391 -0.1513
26409SOL    HW281545   0.751   0.738   5.086  0.0075 -0.5850 -0.5982
26410SOL     OW81546   4.291   5.297   0.656 -0.6096 -0.4925  0.1969
26410SOL    HW181547   4.365   5.252   0.698 -1.1270  0.2210  1.9728
26410SOL    HW281548   4.306   5.389   0.675 -1.9320 -0.3408  0.5780
26411SOL     OW81549   4.847   3.916   9.924 -0.5925  0.3303 -0.1148
26411SOL    HW181550   4.751   3.918   9.933 -0.6653 -2.3894  0.8038
26411SOL    HW281551   4.865   3.973   9.849 -2.6965  2.5990  0.9815
26412SOL     OW81552   5.132   5.979   0.830 -0.8839  0.1478 -0.4473
26412SOL    HW181553   5.054   6.025   0.798 -2.3170 -2.4740 -1.0161
26412SOL    HW281554   5.149   6.018   0.916 -2.0566  1.6523 -0.8567
26413SOL     OW81555   3.077   1.798   3.199 -0.4266  0.0501  0.0604
26413SOL    HW181556   3.111   1.736   3.134 -1.3986 -0.4670  0.0270
26413SOL    HW281557   3.017   1.854   3.151 -1.0293 -0.2298  0.4703
26414SOL     OW81558   8.057   3.215   4.746 -0.4498  0.4189 -0.3897
26414SOL    HW181559   8.045   3.159   4.669  0.1695  1.1162 -1.0136
26414SOL    HW281560   8.113   3.286   4.715 -0.1747  0.7039  0.7197
26415SOL     OW81561   3.921   1.050   8.832  0.3040 -0.0801 -0.1002
26415SOL    HW181562   3.846   0.993   8.849 -1.2829  2.0202  0.4828
26415SOL    HW281563   3.884   1.121   8.778  2.2892  0.1474 -1.2400
26416SOL     OW81564   2.802   4.066   9.211  0.2294 -0.0625  0.1898
26416SOL    HW181565   2.728   4.040   9.156 -0.6303  0.4133  1.0735
26416SOL    HW281566   2.878   4.060   9.154 -0.3864 -1.2801 -0.5467
26417SOL     OW81567   8.025   0.074   8.917  0.1800 -0.1003  0.3022
26417SOL    HW181568   8.007   0.053   9.008  0.8713  0.4605  0.5732
26417SOL    HW281569   8.093   0.140   8.920 -0.8167  1.0237 -0.5723
26418SOL     OW81570   4.858   8.074   5.670  0.0488 -0.9155  0.5765
26418SOL    HW181571   4.953   8.069   5.684  0.1271 -1.5254 -0.1347
26418SOL    HW281572   4.827   8.130   5.741  1.3520  1.9904 -0.9620
26419SOL     OW81573   7.826  10.491   1.251  0.4837 -0.1862 -0.3965
26419SOL    HW181574   7.863  10.564   1.301 -0.8942  1.3618 -1.5175
26419SOL    HW281575   7.885  10.418   1.267  1.0885  0.7399  2.0014
26420SOL     OW81576   1.166   0.385   4.529 -0.1686 -0.5047  0.0274
26420SOL    HW181577   1.106   0.455   4.553  0.0911 -0.1529 -0.3427
26420SOL    HW281578   1.246   0.404   4.579 -1.2364 -2.5423  2.8118
26421SOL     OW81579   5.698   9.519   8.462 -0.3893  0.2412 -0.3401
26421SOL    HW181580   5.604   9.533   8.457 -0.4095  0.7503  1.0053
26421SOL    HW281581   5.732   9.594   8.510  0.5764 -0.3928  0.0158
26422SOL     OW81582   9.599   5.068   1.855 -0.1798 -0.9689 -0.0161
26422SOL    HW181583   9.578   5.110   1.939 -0.5385 -0.6864 -0.2481
26422SOL    HW281584   9.620   4.977   1.879  3.0329 -0.1330  0.8383
26423SOL     OW81585   3.248   6.792   8.652  0.3716  0.5218  0.1078
26423SOL    HW181586   3.267   6.702   8.678  1.7609  0.7718  0.0164
26423SOL    HW281587   3.158   6.806   8.681  1.1758  0.1678  3.0953
26424SOL     OW81588   9.459   1.755  10.461  0.6287  0.0122  0.3598
26424SOL    HW181589   9.414   1.838  10.476 -0.4982 -0.7449  1.3522
26424SOL    HW281590   9.458   1.743  10.366 -0.6724  0.3464  0.3207
26425SOL     OW81591   5.750   1.474   4.914 -0.0375 -0.0316 -0.4071
26425SOL    HW181592   5.787   1.390   4.885 -0.7341 -0.0285 -1.3398
26425SOL    HW281593   5.822   1.518   4.959  0.1673 -1.3989  0.6762
26426SOL     OW81594  10.480   1.616   2.144 -0.0184  0.8847 -0.0665
26426SOL    HW181595  10.420   1.544   2.160  0.1347  0.9596  0.8928
26426SOL    HW281596  10.567   1.575   2.142 -0.0509  0.8381 -1.0195
26427SOL     OW81597   7.256   8.922   1.659 -0.1618  0.2398 -0.0162
26427SOL    HW181598   7.165   8.906   1.684 -0.5411  2.7163  0.4942
26427SOL    HW281599   7.308   8.882   1.729 -0.8113 -1.5316 -0.5111
26428SOL     OW81600   3.408   3.421   3.953 -0.0734 -0.4498  0.1894
26428SOL    HW181601   3.368   3.334   3.958  0.3765 -0.5861  2.8787
26428SOL    HW281602   3.468   3.415   3.879 -0.7756 -2.1102 -0.3016
26429SOL     OW81603   7.460   6.391   8.992  0.0770  0.3733 -0.0916
26429SOL    HW181604   7.421   6.408   9.078 -0.1697 -0.0928 -0.1023
26429SOL    HW281605   7.495   6.475   8.964 -0.5815  0.7162  0.0973
26430SOL     OW81606   5.864  10.048   3.192 -0.5981 -0.2467  0.2691
26430SOL    HW181607   5.911  10.036   3.274 -1.1716 -0.1800  0.6058
26430SOL    HW281608   5.903   9.983   3.133  1.4161  1.1965 -0.1205
26431SOL     OW81609   9.477   6.142   4.937  0.2198  0.1578  0.2366
26431SOL    HW181610   9.417   6.214   4.957 -0.4943 -0.4521  0.2959
26431SOL    HW281611   9.513   6.164   4.851  1.4628  1.5523  1.0627
26432SOL     OW81612   5.154   5.783   9.811  0.4437 -0.0150 -0.2049
26432SOL    HW181613   5.209   5.744   9.743  0.0667 -1.3077  0.1954
26432SOL    HW281614   5.212   5.790   9.887  0.1852 -1.0010  0.0970
26433SOL     OW81615   9.558   9.163   3.060 -0.4178 -0.0064 -0.5049
26433SOL    HW181616   9.551   9.084   3.006  1.7698 -0.9010  0.4124
26433SOL    HW281617   9.546   9.132   3.149 -1.4509  1.0515 -0.2478
26434SOL     OW81618   6.942   6.885   6.199 -0.7324  0.1278 -0.2110
26434SOL    HW181619   6.998   6.884   6.122  1.1435 -0.3745  1.0927
26434SOL    HW281620   6.905   6.973   6.201  4.3365  2.5652  1.7416
26435SOL     OW81621   9.103   1.814   0.120  0.1893 -0.4131  0.6740
26435SOL    HW181622   9.181   1.818   0.176  1.8497  2.7441 -1.5186
26435SOL    HW281623   9.133   1.767   0.042 -1.0487 -1.7056  0.9408
26436SOL     OW81624   4.635   0.736   0.937  0.2653  0.1497  0.2829
26436SOL    HW181625   4.544   0.758   0.916  0.5656  1.2312  0.0323
26436SOL    HW281626   4.661   0.803   1.000  0.7998 -0.3390  0.5897
26437SOL     OW81627   9.113   2.519   1.354  0.2700  0.3990  0.3487
26437SOL    HW181628   9.193   2.469   1.340  0.1086  0.1255  0.3940
26437SOL    HW281629   9.097   2.513   1.448  0.3098  0.6308  0.3717
26438SOL     OW81630   5.816   3.522   8.541 -1.0577  0.6395  0.2142
26438SOL    HW181631   5.770   3.484   8.466 -2.1567 -1.1323  1.6937
26438SOL    HW281632   5.797   3.616   8.535 -1.7754  0.4474 -1.2686
26439SOL     OW81633  10.295   3.877   1.702 -0.2270 -0.3520  0.3838
26439SOL    HW181634  10.362   3.945   1.708  1.3808 -1.8798  0.5864
26439SOL    HW281635  10.291   3.857   1.608 -0.2154 -0.4353  0.4013
26440SOL     OW81636   8.324   3.391   3.227 -0.0324  0.2669 -0.7220
26440SOL    HW181637   8.366   3.420   3.146  1.1693 -0.2492 -0.2969
26440SOL    HW281638   8.375   3.316   3.256 -1.8157 -0.9871 -0.6657
26441SOL     OW81639   2.783   8.691   6.788 -0.3190  0.2789 -0.1373
26441SOL    HW181640   2.809   8.779   6.815 -0.9679  0.2745  0.5352
26441SOL    HW281641   2.768   8.644   6.870 -1.1574 -0.0940 -0.4880
26442SOL     OW81642   3.372   6.647   4.013  0.8420  0.0647  0.3623
26442SOL    HW181643   3.422   6.589   3.956  1.1833  1.4749 -0.8444
26442SOL    HW281644   3.290   6.662   3.965  0.1571 -0.5149  1.3170
26443SOL     OW81645   6.000   9.373   2.836 -0.1124 -0.4719 -0.4983
26443SOL    HW181646   6.083   9.419   2.836 -0.2883 -0.0797  1.4457
26443SOL    HW281647   6.022   9.282   2.818  0.7644 -0.3936  0.1501
26444SOL     OW81648   3.264   8.317   9.974  0.3531  0.0592 -0.0062
26444SOL    HW181649   3.179   8.360   9.967  0.5528  0.7856  1.6491
26444SOL    HW281650   3.294   8.308   9.883 -0.0874  2.6094 -0.4643
26445SOL     OW81651  10.225   5.783   3.908  0.2192  0.1300  0.7976
26445SOL    HW181652  10.218   5.730   3.829 -1.7400 -0.9903  1.6376
26445SOL    HW281653  10.157   5.748   3.967  2.0647  0.4143  3.2725
26446SOL     OW81654   8.847   0.582   2.952  0.2541 -0.5633  0.3435
26446SOL    HW181655   8.934   0.585   2.993  0.0827 -1.8371  0.8376
26446SOL    HW281656   8.803   0.509   2.996 -0.7698 -0.4559 -0.4910
26447SOL     OW81657   6.755   0.023   6.330 -0.1772  0.1125 -0.2156
26447SOL    HW181658   6.783   0.023   6.238  0.6215  0.3969  0.0191
26447SOL    HW281659   6.756  -0.069   6.356 -2.3725 -0.1924 -1.0590
26448SOL     OW81660   7.623   9.217   0.571 -0.3778 -0.1917 -0.1396
26448SOL    HW181661   7.695   9.223   0.508  0.4791 -3.2025  0.4276
26448SOL    HW281662   7.555   9.167   0.526 -1.1893  0.6042  0.1667
26449SOL     OW81663   7.198   7.454   1.610 -0.2066  0.2082 -0.0215
26449SOL    HW181664   7.155   7.528   1.566  0.7975  0.0897 -1.2445
26449SOL    HW281665   7.132   7.385   1.609  0.0009 -0.0175 -1.9894
26450SOL     OW81666   9.005   3.833   3.060  0.2121 -0.3079  0.3800
26450SOL    HW181667   9.040   3.900   3.119  0.0660  1.3494 -1.3339
26450SOL    HW281668   9.040   3.855   2.974  0.3138 -2.5872 -0.2301
26451SOL     OW81669   4.510   9.812   3.185  0.1096 -0.0011  0.2952
26451SOL    HW181670   4.509   9.717   3.173  0.3926  0.1163 -0.7313
26451SOL    HW281671   4.430   9.842   3.142 -1.5705 -0.0175  3.1468
26452SOL     OW81672   4.500   1.110   9.485 -0.1375 -0.3277  0.2608
26452SOL    HW181673   4.482   1.133   9.576  2.3089 -0.2944  0.7949
26452SOL    HW281674   4.566   1.042   9.490  0.4752  0.0913 -1.5052
26453SOL     OW81675   8.317   6.938   8.709 -0.4099 -0.3074  0.5726
26453SOL    HW181676   8.411   6.924   8.715  0.0585  2.3487  0.5755
26453SOL    HW281677   8.295   6.908   8.620  0.6740  0.1224  0.1358
26454SOL     OW81678   1.517   1.022   4.992 -0.0681 -0.3699 -0.0807
26454SOL    HW181679   1.539   1.056   4.905  0.8531  0.0949  0.3201
26454SOL    HW281680   1.460   1.090   5.030 -1.8908 -1.3563 -0.9406
26455SOL     OW81681   2.247   2.967   4.251  0.2595 -0.1464 -0.5291
26455SOL    HW181682   2.169   2.966   4.195  0.8408 -0.8852 -1.3407
26455SOL    HW281683   2.321   2.970   4.190  0.8940 -0.5457  0.2014
26456SOL     OW81684   1.261   5.861   6.179 -0.4854  0.1971 -0.1291
26456SOL    HW181685   1.237   5.893   6.092 -1.7669  0.6080  0.3522
26456SOL    HW281686   1.355   5.873   6.184 -0.2521 -0.6410 -1.7810
26457SOL     OW81687   9.176   6.084   8.893  0.5429  0.6131  0.2889
26457SOL    HW181688   9.237   6.010   8.897  0.6398  0.7353  1.3091
26457SOL    HW281689   9.134   6.085   8.979 -1.4176  0.1146 -0.6208
26458SOL     OW81690   3.853   8.714   2.833  0.1417  0.4705 -0.4658
26458SOL    HW181691   3.760   8.734   2.826  0.3197  1.3322 -0.4796
26458SOL    HW281692   3.857   8.632   2.882 -0.5030  1.9788  2.2677
26459SOL     OW81693  10.229   5.954   2.288  0.0522  0.3740  0.0381
26459SOL    HW181694  10.292   5.913   2.346 -0.2946 -0.6760 -0.3030
26459SOL    HW281695  10.167   5.884   2.266 -0.5891  1.0942 -0.5168
26460SOL     OW81696   5.557   2.951   6.907  0.6687  0.2371 -0.5367
26460SOL    HW181697   5.556   2.995   6.992  0.4724  2.7729 -1.7570
26460SOL    HW281698   5.511   3.012   6.848  2.4442 -0.5163 -2.8576
26461SOL     OW81699   9.360   4.321   8.908  0.6724  0.2640  0.2188
26461SOL    HW181700   9.336   4.389   8.971 -2.1506  0.2313 -0.6707
26461SOL    HW281701   9.308   4.245   8.934 -1.3043  0.5129 -2.5296
26462SOL     OW81702   9.310   4.307   6.890 -0.1475  0.5999  0.0192
26462SOL    HW181703   9.386   4.279   6.943 -1.2175 -2.0115  0.3344
26462SOL    HW281704   9.252   4.349   6.953  0.3283  1.1802  0.0842
26463SOL     OW81705   2.886   5.950   6.211 -0.0144  0.0076  0.0513
26463SOL    HW181706   2.831   5.872   6.200 -0.4973  0.1615  1.1775
26463SOL    HW281707   2.833   6.008   6.267  0.4419  1.0386 -0.5653
26464SOL     OW81708   3.582   6.492   9.072  0.1986 -0.5042 -0.1892
26464SOL    HW181709   3.585   6.565   9.009 -2.2545 -1.9008 -2.1114
26464SOL    HW281710   3.490   6.466   9.073  0.8935 -3.1694  0.9155
26465SOL     OW81711   7.697   3.393   3.518 -0.7912  0.4694 -0.4099
26465SOL    HW181712   7.655   3.453   3.580  0.0384  0.3965  0.2348
26465SOL    HW281713   7.722   3.449   3.444  0.2798  1.0021  0.3315
26466SOL     OW81714   0.431   0.830   4.193 -0.6070  0.0349 -0.1351
26466SOL    HW181715   0.410   0.822   4.100 -1.9156 -3.0145  0.2844
26466SOL    HW281716   0.520   0.796   4.200 -0.1373  1.1953 -0.3769
26467SOL     OW81717   9.643   1.216   2.687  0.5424  0.3274  0.3709
26467SOL    HW181718   9.682   1.275   2.751 -1.0191  0.8055  0.9273
26467SOL    HW281719   9.584   1.160   2.739 -0.8028  0.7660 -0.6330
26468SOL     OW81720   0.854  10.197   5.108 -0.0646  0.2582  0.5618
26468SOL    HW181721   0.896  10.112   5.106  1.4203  0.9775 -0.6847
26468SOL    HW281722   0.766  10.180   5.143  0.3321 -1.6906  0.6989
26469SOL     OW81723   9.486   1.992   3.411 -0.1642  0.1318 -0.2649
26469SOL    HW181724   9.519   1.955   3.492  0.9479  0.0294 -0.7476
26469SOL    HW281725   9.451   2.077   3.436  0.2191  0.1225  0.3159
26470SOL     OW81726   3.660   1.852   4.923  0.5575 -0.1587  0.1421
26470SOL    HW181727   3.667   1.936   4.878  0.0849 -0.0353  0.2931
26470SOL    HW281728   3.674   1.874   5.016 -0.8575 -0.0323  0.3483
26471SOL     OW81729   3.421   3.159   8.544  0.3855  0.1800  0.4764
26471SOL    HW181730   3.481   3.087   8.526 -1.3141 -1.9518  2.6880
26471SOL    HW281731   3.364   3.162   8.467  1.1480 -0.0888 -0.1099
26472SOL     OW81732   8.679   4.490   4.457 -0.7129  0.3881  0.4132
26472SOL    HW181733   8.763   4.500   4.412 -0.5086 -0.3813  0.6177
26472SOL    HW281734   8.697   4.431   4.530 -1.4888 -0.0075  0.2963
26473SOL     OW81735   1.157   9.499   8.506  0.0136 -0.2658 -0.0116
26473SOL    HW181736   1.233   9.452   8.473  0.0633 -0.2731  0.1117
26473SOL    HW281737   1.087   9.434   8.510 -0.0604 -0.2110 -0.3303
26474SOL     OW81738   0.101   3.979   8.407  0.2147 -0.7849 -0.3572
26474SOL    HW181739   0.166   4.038   8.446  0.4458 -1.0010 -0.4151
26474SOL    HW281740   0.019   4.004   8.449  0.6741 -1.9975  1.4096
26475SOL     OW81741   4.506   4.104   3.067  0.4773 -0.0547 -0.1542
26475SOL    HW181742   4.441   4.039   3.092  0.3926  0.5544  1.2902
26475SOL    HW281743   4.457   4.168   3.014  0.1416 -0.1445  0.0462
26476SOL     OW81744   1.806   1.588   6.532 -0.3454 -0.0908  0.3867
26476SOL    HW181745   1.833   1.674   6.563 -0.8080  0.1288  0.1871
26476SOL    HW281746   1.887   1.548   6.498 -0.2777  0.5703 -0.2397
26477SOL     OW81747   6.755   7.491   2.796  0.3103 -0.6038  0.0831
26477SOL    HW181748   6.756   7.477   2.891 -2.5891 -2.0188  0.0505
26477SOL    HW281749   6.775   7.405   2.759 -1.1751 -0.7568 -0.4714
26478SOL     OW81750   1.561   3.827  10.009 -0.4626 -0.0155 -0.2299
26478SOL    HW181751   1.565   3.753   9.947 -1.2242 -1.2228  1.0985
26478SOL    HW281752   1.653   3.845  10.030 -0.1016  1.1890 -2.5241
26479SOL     OW81753   1.038   7.636   4.580 -0.4609  0.0879 -0.4812
26479SOL    HW181754   1.032   7.586   4.661 -0.9842 -0.2473 -0.7184
26479SOL    HW281755   1.024   7.572   4.511 -0.6524  0.4769 -0.8109
26480SOL     OW81756   1.518   1.953   0.074 -0.2698 -0.0787 -0.6116
26480SOL    HW181757   1.584   2.021   0.082 -1.2882  0.7931  0.9581
26480SOL    HW281758   1.464   1.963   0.152 -1.0577 -2.0500 -0.8522
26481SOL     OW81759   8.601   1.505   9.062  0.2517  0.0672 -0.1336
26481SOL    HW181760   8.686   1.540   9.035  0.0558  0.1879 -0.5933
26481SOL    HW281761   8.550   1.583   9.085  0.4971 -0.0409  0.8527
26482SOL     OW81762   9.572   0.971   9.925 -0.2743 -0.1782  0.2731
26482SOL    HW181763   9.544   0.889   9.885 -0.6370 -0.1867  0.5401
26482SOL    HW281764   9.638   1.006   9.865  0.9213 -1.3506  0.8362
26483SOL     OW81765  10.239   6.537   0.392  0.4775  0.2005 -0.0132
26483SOL    HW181766  10.330   6.564   0.381  0.4536  0.4730  0.4231
26483SOL    HW281767  10.197   6.557   0.309  0.6040  0.9200  0.0959
26484SOL     OW81768   6.336   2.870   4.742  0.2189 -0.1921  0.3013
26484SOL    HW181769   6.400   2.940   4.728 -0.1363 -0.1508 -1.3678
26484SOL    HW281770   6.298   2.889   4.828  0.6785  1.2206  0.2165
26485SOL     OW81771   4.426   7.465  10.536  0.4457  0.2009  0.3185
26485SOL    HW181772   4.502   7.477  10.592 -0.0072 -2.4497  1.6877
26485SOL    HW281773   4.353   7.503  10.586 -0.0176 -2.4641  1.8788
26486SOL     OW81774   9.840   2.346   4.936  0.5821 -0.4210  0.5660
26486SOL    HW181775   9.854   2.295   4.855 -0.7628 -1.6394  1.0598
26486SOL    HW281776   9.928   2.372   4.962  1.1406 -0.8282 -0.7712
26487SOL     OW81777   7.412   0.948   0.039 -0.2745 -0.1979  0.1662
26487SOL    HW181778   7.403   0.913  -0.050  1.5279  0.2653 -0.2274
26487SOL    HW281779   7.347   1.019   0.044  1.2728  1.4634 -1.6889
26488SOL     OW81780   4.292   5.982   8.640 -0.4152  0.5802 -0.2160
26488SOL    HW181781   4.287   5.950   8.730  0.1164 -1.0962 -0.7503
26488SOL    HW281782   4.385   5.998   8.626 -0.4020  0.0915 -0.7067
26489SOL     OW81783   5.466   2.072   8.623  0.7947  0.1318  0.2745
26489SOL    HW181784   5.553   2.073   8.663  0.3889 -0.0815  1.1830
26489SOL    HW281785   5.435   2.162   8.631  1.1576  0.3506 -0.5947
26490SOL     OW81786   1.186   9.155   1.285  0.1803 -0.1543  0.2172
26490SOL    HW181787   1.105   9.182   1.241 -0.5972 -0.8623  1.1545
26490SOL    HW281788   1.255   9.169   1.220 -0.6108  1.0152 -0.3964
26491SOL     OW81789   0.083   1.088   6.916  0.1622  0.5212 -0.4925
26491SOL    HW181790   0.061   1.049   6.831  1.2973 -0.4658 -0.3602
26491SOL    HW281791   0.037   1.033   6.980  0.4700  0.3797 -0.3923
26492SOL     OW81792   8.441   4.801   3.057 -0.2783 -0.2837  0.9743
26492SOL    HW181793   8.446   4.886   3.014 -0.2669 -0.6097  0.3306
26492SOL    HW281794   8.527   4.762   3.044 -0.1592 -0.2501  1.5900
26493SOL     OW81795   7.465   9.980   5.348 -0.2555  0.1425  0.7409
26493SOL    HW181796   7.492   9.987   5.440 -0.6980 -0.8954  0.9617
26493SOL    HW281797   7.469  10.070   5.315  0.1142  0.4963  1.7182
26494SOL     OW81798   0.465   0.727   7.769  0.4750  0.1191  0.0689
26494SOL    HW181799   0.412   0.716   7.691 -0.6432 -0.2237  0.8411
26494SOL    HW281800   0.476   0.638   7.803 -1.8771  0.4449  2.0518
26495SOL     OW81801   9.333   1.710   4.250  0.0810  0.3070  0.2533
26495SOL    HW181802   9.335   1.707   4.154  0.9994 -1.1221  0.2789
26495SOL    HW281803   9.256   1.659   4.274  1.5298 -2.0409  0.2688
26496SOL     OW81804   8.479   0.667   3.881 -0.1442 -0.4524  0.3913
26496SOL    HW181805   8.438   0.676   3.967 -0.7048 -0.7779  0.1579
26496SOL    HW281806   8.426   0.722   3.823  0.3848 -0.0238  0.2928
26497SOL     OW81807   5.670   4.148   1.262  0.1380  0.5146 -0.1253
26497SOL    HW181808   5.701   4.164   1.172 -0.7938  0.0949 -0.5385
26497SOL    HW281809   5.746   4.168   1.317  0.5413  1.3826 -0.9591
26498SOL     OW81810  10.200   2.037   7.705  0.0228 -0.1166  0.2987
26498SOL    HW181811  10.155   1.980   7.767  0.9887 -0.3904  0.7579
26498SOL    HW281812  10.175   2.126   7.732 -0.3729 -0.2652  0.4357
26499SOL     OW81813   4.482   3.433   2.796  0.1570  0.2712 -0.3091
26499SOL    HW181814   4.535   3.475   2.728 -1.9012  0.2381 -2.0271
26499SOL    HW281815   4.479   3.341   2.771  0.4857 -0.0065  0.6219
26500SOL     OW81816   9.131   6.641   8.432 -0.2163 -0.1069  0.2650
26500SOL    HW181817   9.211   6.693   8.433 -0.0718 -0.3153 -0.0924
26500SOL    HW281818   9.144   6.575   8.500  0.0268 -0.2978  0.0364
26501SOL     OW81819   6.848   9.070   6.187  0.0195 -0.0409  0.0812
26501SOL    HW181820   6.822   9.139   6.125  1.8408 -0.9354 -1.7803
26501SOL    HW281821   6.848   9.114   6.272  1.8278  2.5383 -1.1067
26502SOL     OW81822   2.440   4.511   6.489  0.3484 -0.5500  0.1791
26502SOL    HW181823   2.444   4.434   6.433  0.7964 -0.5269  0.1781
26502SOL    HW281824   2.373   4.566   6.449  2.0867  0.4246 -1.5543
26503SOL     OW81825   1.361   3.916   7.489 -0.4280 -0.4731  0.4182
26503SOL    HW181826   1.298   3.938   7.420  0.0953  0.5482  0.2506
26503SOL    HW281827   1.445   3.947   7.456 -0.0033 -0.9194  1.0700
26504SOL     OW81828   2.214   0.525   3.257  0.0458  0.5559  0.3591
26504SOL    HW181829   2.216   0.456   3.191 -1.4828 -0.6635  1.5045
26504SOL    HW281830   2.248   0.483   3.336 -0.5875  1.2229  0.9988
26505SOL     OW81831   0.050   9.417   9.455 -0.1723  0.0601 -0.3969
26505SOL    HW181832   0.026   9.325   9.444 -1.7571  0.3108  0.6716
26505SOL    HW281833  -0.023   9.455   9.504  0.2931  1.9727 -1.1215
26506SOL     OW81834   4.569   3.485  10.472 -0.5386  0.3892  0.1322
26506SOL    HW181835   4.574   3.461  10.379 -2.2917  1.1122 -0.1830
26506SOL    HW281836   4.530   3.572  10.472  1.6687  1.4547  1.4700
26507SOL     OW81837   3.305   3.571   3.491  0.2441 -0.1497 -0.5028
26507SOL    HW181838   3.367   3.538   3.425 -2.9847 -1.0402 -3.3560
26507SOL    HW281839   3.282   3.658   3.460 -1.3212 -0.5791 -0.5989
26508SOL     OW81840   0.837   7.619   8.122 -0.2380 -0.9273  0.1443
26508SOL    HW181841   0.875   7.702   8.151  0.7724 -1.2615 -0.1791
26508SOL    HW281842   0.912   7.560   8.114 -1.0441 -2.1547  1.2970
26509SOL     OW81843   1.647   3.002   2.413  0.0914 -0.1580  0.0006
26509SOL    HW181844   1.726   2.948   2.421 -0.1972 -0.8176 -1.3184
26509SOL    HW281845   1.577   2.947   2.447 -0.6045 -1.7000 -3.4116
26510SOL     OW81846   2.212   3.976   4.011 -0.4907 -0.0778  0.0934
26510SOL    HW181847   2.133   3.929   3.986 -1.1701  0.0333  1.9022
26510SOL    HW281848   2.284   3.920   3.979 -1.1873  0.6698 -3.1526
26511SOL     OW81849   1.929   8.897   4.463  0.3713 -1.0170  0.3114
26511SOL    HW181850   1.898   8.986   4.450  0.5046 -1.0306 -0.1267
26511SOL    HW281851   1.863   8.842   4.421  2.3025 -0.9254 -3.2585
26512SOL     OW81852   2.485   8.957   5.074  0.4668 -0.0560  0.2141
26512SOL    HW181853   2.422   8.886   5.086  1.9638 -1.1955  1.9660
26512SOL    HW281854   2.570   8.914   5.074  1.3126  1.4154 -2.2247
26513SOL     OW81855   2.879   2.279   8.710 -0.5648 -0.3904  0.2755
26513SOL    HW181856   2.788   2.304   8.723  0.1877  2.0332  1.5014
26513SOL    HW281857   2.918   2.354   8.665  0.7363 -1.6259 -0.7682
26514SOL     OW81858   6.662   5.962   1.817 -0.4653 -0.1256  0.0102
26514SOL    HW181859   6.677   6.052   1.845 -1.0698 -0.6875  2.3560
26514SOL    HW281860   6.670   5.965   1.722  1.9679  1.9228  0.1592
26515SOL     OW81861   3.572   6.602   5.700 -0.1918  0.2542  0.3569
26515SOL    HW181862   3.479   6.621   5.690 -0.2039 -0.4593 -1.3458
26515SOL    HW281863   3.579   6.508   5.686  0.9250  0.4985 -0.9715
26516SOL     OW81864   8.476   9.627   5.122  0.6256  0.0967 -0.0423
26516SOL    HW181865   8.561   9.654   5.086  0.3445  2.1638  0.7402
26516SOL    HW281866   8.458   9.689   5.192 -2.2819  0.7716 -1.2243
26517SOL     OW81867   2.417   8.263   0.082 -0.1963 -0.2326 -0.0687
26517SOL    HW181868   2.461   8.347   0.071 -0.8584  0.2401  0.7200
26517SOL    HW281869   2.325   8.282   0.062  0.2324 -1.7605 -4.2368
26518SOL     OW81870   3.098   5.552   4.396 -0.1169 -0.0758 -0.6671
26518SOL    HW181871   3.138   5.639   4.391  1.3211 -0.7688 -1.7575
26518SOL    HW281872   3.118   5.522   4.485  0.5726  0.1560 -0.7383
26519SOL     OW81873   3.947   6.585   7.438  0.3168  0.2353 -0.1468
26519SOL    HW181874   3.928   6.511   7.495 -0.2879  0.7957  0.4128
26519SOL    HW281875   4.034   6.615   7.465 -0.2892  0.9875  1.0621
26520SOL     OW81876   5.822   4.685   6.056  0.0892  0.2481 -0.5906
26520SOL    HW181877   5.833   4.603   6.008 -1.9122  0.0080 -0.7468
26520SOL    HW281878   5.819   4.752   5.988 -0.0348  0.2364 -0.5966
26521SOL     OW81879   5.470   8.341  10.556  0.1117 -0.8501 -0.2395
26521SOL    HW181880   5.410   8.406  10.592 -1.1789 -1.0781 -1.8731
26521SOL    HW281881   5.557   8.381  10.564 -0.6483  1.1185 -1.1974
26522SOL     OW81882   2.721   6.424   5.627 -0.1274  0.2038 -1.0849
26522SOL    HW181883   2.729   6.516   5.653 -0.1005  0.3019 -1.4372
26522SOL    HW281884   2.666   6.385   5.695  1.4889  0.0176  0.1936
26523SOL     OW81885   5.201   3.470   8.359 -0.8899  0.5922  0.1807
26523SOL    HW181886   5.205   3.438   8.269  0.5588  2.3776 -0.4647
26523SOL    HW281887   5.287   3.446   8.396 -1.8863 -1.1489  1.5172
26524SOL     OW81888   1.655   4.399   4.612  0.0883  0.2473  0.0723
26524SOL    HW181889   1.578   4.357   4.651 -0.1655 -0.2780 -0.9748
26524SOL    HW281890   1.632   4.492   4.608  0.2380  0.3730  1.4162
26525SOL     OW81891   3.155   8.850   7.122  0.0932 -0.2570  0.0393
26525SOL    HW181892   3.216   8.806   7.181  2.5371 -0.7230 -2.6025
26525SOL    HW281893   3.097   8.780   7.091 -1.0919 -0.0388  1.6752
26526SOL     OW81894   6.051   8.933   7.659  0.0766 -0.0031  0.0998
26526SOL    HW181895   6.013   9.020   7.655 -0.4329 -0.2543 -3.0309
26526SOL    HW281896   5.979   8.874   7.636  0.7631 -1.1247  0.7447
26527SOL     OW81897  10.435   3.556   8.367  0.6323 -0.1380  0.5092
26527SOL    HW181898  10.393   3.639   8.390  0.5958  0.1421 -0.5248
26527SOL    HW281899  10.394   3.530   8.285  0.1736 -1.5318  1.1517
26528SOL     OW81900   7.127   9.586   7.558  0.2659 -0.1673  0.1290
26528SOL    HW181901   7.100   9.635   7.480  0.7684  0.2864  0.2270
26528SOL    HW281902   7.142   9.497   7.527 -0.4402 -0.2104 -0.0999
26529SOL     OW81903   2.378  10.385   0.191 -0.0808 -0.0619  0.1859
26529SOL    HW181904   2.464  10.356   0.224  0.0680  0.2345  0.0560
26529SOL    HW281905   2.373  10.349   0.103 -0.2218 -0.3368  0.3023
26530SOL     OW81906   2.723   9.612   6.144  0.5683 -0.2858  0.4715
26530SOL    HW181907   2.752   9.667   6.071 -1.3747 -1.1443 -1.0220
26530SOL    HW281908   2.687   9.673   6.207  1.1100  0.3866  0.1403
26531SOL     OW81909   5.503   9.657   3.783 -0.4229  0.5626 -0.7000
26531SOL    HW181910   5.441   9.715   3.739  0.3501  3.8532  2.1123
26531SOL    HW281911   5.589   9.685   3.753  0.0214  1.7453  1.4761
26532SOL     OW81912   7.887   4.661   3.033  0.0133 -0.0046  0.1925
26532SOL    HW181913   7.981   4.678   3.035  0.3769 -1.8494  0.3494
26532SOL    HW281914   7.865   4.635   3.123  0.0182 -2.6167 -0.4731
26533SOL     OW81915   8.579   0.741  10.173 -0.3057  0.2892  0.6019
26533SOL    HW181916   8.517   0.776  10.237 -1.3791 -0.8029  0.1768
26533SOL    HW281917   8.530   0.737  10.091 -0.0205 -1.5922  0.4857
26534SOL     OW81918   7.559   2.343   7.323 -0.1891 -0.5743 -0.4710
26534SOL    HW181919   7.621   2.412   7.302  0.1207 -0.6022  0.3342
26534SOL    HW281920   7.542   2.300   7.239  0.9156 -0.6037 -0.6892
26535SOL     OW81921   0.118   4.535   4.387  0.0078  0.0221  0.0625
26535SOL    HW181922   0.195   4.490   4.423 -0.1770 -0.7730 -0.5066
26535SOL    HW281923   0.126   4.524   4.293 -1.4990 -1.2891  0.0465
26536SOL     OW81924   0.878   2.543   1.495  0.5012 -0.1039  0.3167
26536SOL    HW181925   0.794   2.548   1.450  0.4823 -0.0245  0.3618
26536SOL    HW281926   0.884   2.451   1.522  0.7987 -0.3043 -0.3966
26537SOL     OW81927   1.557   7.607   7.946  0.4237  0.5053 -0.3079
26537SOL    HW181928   1.472   7.632   7.983  0.4383  0.6440 -0.3681
26537SOL    HW281929   1.546   7.620   7.851  0.4041  0.2067 -0.3481
26538SOL     OW81930   7.920   6.395   3.276 -0.2357 -0.6704 -0.2323
26538SOL    HW181931   7.828   6.422   3.270 -0.1816  0.0659  1.6365
26538SOL    HW281932   7.969   6.477   3.270  0.2902 -1.0081 -0.6724
26539SOL     OW81933   3.557   2.250   6.924 -0.3780  0.4193 -0.4733
26539SOL    HW181934   3.490   2.242   6.991 -0.9837  0.3823 -1.0737
26539SOL    HW281935   3.640   2.253   6.973 -0.7462 -0.4564  0.2257
26540SOL     OW81936   4.979   4.643   0.536  0.3496 -0.1014  0.0068
26540SOL    HW181937   5.038   4.630   0.462  1.8061 -1.3177  1.3114
26540SOL    HW281938   4.894   4.612   0.505  0.5973  0.6784 -1.5632
26541SOL     OW81939  10.071   2.646   6.297  0.3208 -0.2366 -0.2591
26541SOL    HW181940  10.003   2.651   6.230 -0.8646 -0.9181  0.8551
26541SOL    HW281941  10.043   2.707   6.365  1.7421  0.7793 -0.5420
26542SOL     OW81942   4.851   5.979   3.136  0.2354  0.2487 -0.8998
26542SOL    HW181943   4.801   6.027   3.071  0.9584  2.3994  0.0572
26542SOL    HW281944   4.799   5.986   3.216  1.1584  0.9049 -0.3426
26543SOL     OW81945   8.240   2.309  10.193 -0.0510 -0.2476 -0.2385
26543SOL    HW181946   8.322   2.281  10.235  1.9819  0.8826 -3.1105
26543SOL    HW281947   8.222   2.395  10.232 -0.4599 -0.9271  1.1157
26544SOL     OW81948   6.046   4.536   1.424  0.0197  0.2969 -0.1212
26544SOL    HW181949   6.122   4.541   1.367  0.1172  0.5833  0.0280
26544SOL    HW281950   5.991   4.467   1.387  0.3292  0.1246 -0.2558
26545SOL     OW81951   9.713   6.525   7.431 -0.1300 -0.0855  0.0387
26545SOL    HW181952   9.768   6.592   7.390 -1.3130  0.3839 -0.8323
26545SOL    HW281953   9.764   6.496   7.507  0.8289  1.0993 -0.1093
26546SOL     OW81954   5.153   1.705   6.057 -0.4410  0.4957  0.1673
26546SOL    HW181955   5.079   1.645   6.066 -0.1111 -0.3221 -2.0720
26546SOL    HW281956   5.209   1.685   6.133 -0.6840 -1.5701 -0.1416
26547SOL     OW81957   3.477   0.265  10.176  0.1774 -0.1516 -0.2865
26547SOL    HW181958   3.409   0.198  10.181 -0.0510 -0.0219 -1.4627
26547SOL    HW281959   3.429   0.348  10.176  0.4393  0.0097  0.7633
26548SOL     OW81960   4.218   6.624   0.379 -0.3143  0.0485  0.0655
26548SOL    HW181961   4.291   6.575   0.418 -1.1087 -0.2954  1.1638
26548SOL    HW281962   4.223   6.604   0.286 -1.7638 -3.7994  0.6452
26549SOL     OW81963   7.583   1.278   7.117  0.2086 -0.1931 -0.0338
26549SOL    HW181964   7.495   1.315   7.107  0.9190  1.5486 -0.2218
26549SOL    HW281965   7.568   1.187   7.140 -1.6764  0.4310  1.5106
26550SOL     OW81966   1.119  10.444   7.365 -0.2577 -0.5177  0.1330
26550SOL    HW181967   1.168  10.420   7.443  0.2968  2.9730  1.0378
26550SOL    HW281968   1.179  10.501   7.316 -2.1268  1.0044 -0.5141
26551SOL     OW81969   1.302  10.386   9.087 -0.3207  0.5555 -0.3023
26551SOL    HW181970   1.390  10.352   9.102 -0.0364  0.8782 -1.2130
26551SOL    HW281971   1.250  10.308   9.065  0.0394  0.5335 -1.0968
26552SOL     OW81972   1.082   4.037   7.042  0.9802  0.5104 -0.2668
26552SOL    HW181973   1.074   3.997   6.955  0.0775 -0.2070  0.1347
26552SOL    HW281974   1.041   4.122   7.033  0.3262  0.1874 -0.3917
26553SOL     OW81975   7.262   6.475   0.042  0.6481 -0.5077 -1.0775
26553SOL    HW181976   7.176   6.439   0.019  0.7922 -1.2106 -0.5318
26553SOL    HW281977   7.281   6.440   0.128  0.8249  0.8497 -0.5291
26554SOL     OW81978   1.795   8.787   5.144 -0.6655  0.5926  0.1184
26554SOL    HW181979   1.773   8.734   5.068  3.4569 -2.2525  0.5854
26554SOL    HW281980   1.752   8.742   5.218  1.0895 -0.9806  0.2421
26555SOL     OW81981   0.378   7.667   8.200 -0.2598 -0.1586 -0.5263
26555SOL    HW181982   0.330   7.746   8.174 -1.2549 -0.3253  0.6904
26555SOL    HW281983   0.463   7.675   8.157 -0.9003  0.8153 -1.6471
26556SOL     OW81984   7.456   6.470   9.316 -0.8370  0.1594  0.1651
26556SOL    HW181985   7.392   6.530   9.278 -0.4017  1.7022  1.7621
26556SOL    HW281986   7.417   6.384   9.306 -2.2791  0.8731 -0.6102
26557SOL     OW81987   8.622   4.211   7.026 -0.2136 -0.7753  0.0356
26557SOL    HW181988   8.642   4.276   6.958 -1.0475  0.0115  0.5204
26557SOL    HW281989   8.699   4.210   7.082 -0.0918 -0.3725 -0.1169
26558SOL     OW81990   8.420   7.012   3.120  0.4471 -0.3665 -0.2023
26558SOL    HW181991   8.510   6.987   3.096  1.6301  1.3517  2.0828
26558SOL    HW281992   8.388   6.937   3.171  0.6410 -0.8815 -0.8124
26559SOL     OW81993   0.957   7.962  10.398  0.0281 -0.4913  0.1400
26559SOL    HW181994   1.016   8.015  10.345 -1.4305 -0.1923 -1.2560
26559SOL    HW281995   0.975   7.872  10.372 -1.3352 -0.3010 -1.6820
26560SOL     OW81996   7.757   9.447   7.908 -0.5155  0.4264  0.0061
26560SOL    HW181997   7.784   9.538   7.901 -1.4504  1.2920  4.4799
26560SOL    HW281998   7.664   9.451   7.927 -1.0905 -1.6997 -1.8919
26561SOL     OW81999   2.100   0.012   3.812 -0.3236  0.1371 -0.1218
26561SOL    HW182000   2.168  -0.007   3.747  0.4328  0.8263  0.4361
26561SOL    HW282001   2.149   0.024   3.894 -1.2299 -0.4904  0.5361
26562SOL     OW82002   5.872   6.300   5.022  0.3301  0.2439  0.0141
26562SOL    HW182003   5.855   6.281   5.114 -2.8801  1.0477 -0.2582
26562SOL    HW282004   5.915   6.222   4.988  1.1070 -0.2684  2.0699
26563SOL     OW82005   8.884  10.246   7.018  0.8108 -0.5865 -0.5312
26563SOL    HW182006   8.977  10.235   7.037  0.7949 -0.2683 -0.2563
26563SOL    HW282007   8.843  10.257   7.104  0.1702 -3.1059 -0.4109
26564SOL     OW82008   5.085   7.325   1.566 -0.1087 -0.5168  0.0086
26564SOL    HW182009   5.076   7.341   1.660 -1.3196 -2.3223  0.2444
26564SOL    HW282010   5.035   7.395   1.525  0.1163  0.0746  0.7085
26565SOL     OW82011   2.236   5.389   3.027  0.4890 -0.0515 -0.0391
26565SOL    HW182012   2.218   5.388   2.933  1.1044 -5.1359 -0.4082
26565SOL    HW282013   2.150   5.382   3.068  0.3655 -1.2156 -0.4677
26566SOL     OW82014   2.781   5.027   4.502  0.1693 -0.0948 -0.7349
26566SOL    HW182015   2.854   4.968   4.522  1.1920  1.3534 -0.0021
26566SOL    HW282016   2.822   5.101   4.457 -0.4374  1.8325  1.7163
26567SOL     OW82017   8.506  10.318   9.093  0.1040 -0.0259 -0.0577
26567SOL    HW182018   8.485  10.240   9.146  1.2000 -0.7861 -0.7159
26567SOL    HW282019   8.469  10.391   9.143  0.4947 -0.7946  1.4100
26568SOL     OW82020   0.598   5.193   2.666 -0.0127  0.5361 -0.4759
26568SOL    HW182021   0.658   5.196   2.592 -0.5661  1.5233 -0.8964
26568SOL    HW282022   0.620   5.270   2.719  0.1842  0.0033  0.2415
26569SOL     OW82023   2.637   9.752   9.471  0.2821 -0.4550 -0.0083
26569SOL    HW182024   2.669   9.761   9.381  0.5136 -1.4296 -0.0336
26569SOL    HW282025   2.552   9.797   9.470  0.6315  0.2327 -0.5005
26570SOL     OW82026   0.517   4.022   2.148  0.3017 -0.2183  0.1123
26570SOL    HW182027   0.509   4.100   2.203  0.9236  0.0574 -0.1863
26570SOL    HW282028   0.528   3.951   2.211 -2.0424 -0.3405  0.4734
26571SOL     OW82029   3.965   4.559   6.738 -0.2914 -0.1582  0.1524
26571SOL    HW182030   4.031   4.604   6.685  0.9295 -2.6068 -0.5531
26571SOL    HW282031   3.944   4.480   6.688 -1.5573 -0.9386  1.8105
26572SOL     OW82032   8.774   8.111   6.891  0.1400 -0.1882  0.1515
26572SOL    HW182033   8.822   8.177   6.842  1.5585 -1.6488 -0.5173
26572SOL    HW282034   8.841   8.050   6.922 -1.2188 -2.4709 -1.0643
26573SOL     OW82035   8.382   8.902   7.845  0.2398  0.2960 -0.5041
26573SOL    HW182036   8.408   8.814   7.817 -0.0061 -0.5899  1.8263
26573SOL    HW282037   8.332   8.937   7.771  0.1610 -1.6012 -1.4145
26574SOL     OW82038   8.672   7.621   0.591 -0.3162 -0.5322 -0.5199
26574SOL    HW182039   8.629   7.565   0.527  2.4505  0.4654 -3.4996
26574SOL    HW282040   8.744   7.568   0.625  0.1343  0.0163 -0.6111
26575SOL     OW82041   0.091   0.340   1.911 -0.0354  0.5033  0.4581
26575SOL    HW182042   0.056   0.263   1.957  0.5968  0.5364  1.0138
26575SOL    HW282043   0.073   0.413   1.970  0.0209  0.6746  0.2630
26576SOL     OW82044   3.874   9.080   3.640  0.4208 -0.4874 -0.2018
26576SOL    HW182045   3.813   9.056   3.571  0.0651  0.0564 -0.0822
26576SOL    HW282046   3.953   9.107   3.595 -0.7214  2.6491 -0.6037
26577SOL     OW82047  10.230   1.601   6.014  0.1642 -0.0491  0.1847
26577SOL    HW182048  10.297   1.537   5.988 -2.1715 -2.4185 -0.5054
26577SOL    HW282049  10.201   1.640   5.932 -1.9575 -1.9922 -0.0984
26578SOL     OW82050   5.565   4.423   2.476  0.0849 -0.2324 -0.2790
26578SOL    HW182051   5.631   4.465   2.421  0.7637 -1.6644 -0.6040
26578SOL    HW282052   5.484   4.433   2.428  0.4710 -0.4656 -0.9888
26579SOL     OW82053   1.747   6.598   5.670  0.3058  0.6174 -0.2455
26579SOL    HW182054   1.790   6.542   5.734 -0.9744  0.6837  0.7213
26579SOL    HW282055   1.670   6.548   5.642  0.3233  1.0017 -1.0078
26580SOL     OW82056   6.378   0.697   0.417 -1.1514  0.2291 -0.3815
26580SOL    HW182057   6.449   0.712   0.480  0.1033  1.0544 -1.9152
26580SOL    HW282058   6.301   0.735   0.459 -0.5309  0.0742  0.9705
26581SOL     OW82059   0.694   0.411   6.878  0.3566  0.0249  0.0515
26581SOL    HW182060   0.637   0.434   6.951 -0.6921  0.0891 -0.7686
26581SOL    HW282061   0.696   0.316   6.877 -0.2021  0.0153 -0.2678
26582SOL     OW82062  10.303   3.946   8.858 -0.3120  0.2764 -0.8459
26582SOL    HW182063  10.253   3.901   8.789 -0.2063 -2.2984  0.6407
26582SOL    HW282064  10.395   3.928   8.837 -0.3038 -1.6197  0.5554
26583SOL     OW82065   6.420   6.985   1.031  0.0012 -0.2834 -0.3566
26583SOL    HW182066   6.390   6.904   0.990 -0.0396  0.1204 -1.1302
26583SOL    HW282067   6.413   6.968   1.125 -2.2138 -0.4015 -0.4782
26584SOL     OW82068   9.728   9.136   8.150 -0.1985 -0.3998 -0.3211
26584SOL    HW182069   9.781   9.065   8.114 -0.6173 -0.4349 -0.8969
26584SOL    HW282070   9.656   9.092   8.195 -0.6805 -0.3552 -1.0212
26585SOL     OW82071   9.198   6.901   5.375  0.2844  0.2807  0.5882
26585SOL    HW182072   9.248   6.863   5.303  1.3939  2.5665  0.0609
26585SOL    HW282073   9.118   6.934   5.334  0.4809  0.7492  0.5864
26586SOL     OW82074   6.414   2.732   7.642  0.4638  0.0346  0.1079
26586SOL    HW182075   6.395   2.771   7.728  0.2225  0.7475 -0.2622
26586SOL    HW282076   6.482   2.788   7.604  0.3741 -0.1162 -0.2836
26587SOL     OW82077   4.012   0.893   1.639 -0.1473  0.4293 -0.2411
26587SOL    HW182078   4.068   0.952   1.589 -1.2020  0.0528 -1.9385
26587SOL    HW282079   3.952   0.952   1.685  1.0576  0.7916  0.9379
26588SOL     OW82080   8.353   1.733   0.668 -0.0323 -0.1622  0.5139
26588SOL    HW182081   8.276   1.712   0.616  0.6719 -1.2132 -0.1515
26588SOL    HW282082   8.402   1.651   0.673  1.7137  0.7821 -0.2135
26589SOL     OW82083   1.509   1.647   4.880  0.6403 -0.2415  0.4946
26589SOL    HW182084   1.600   1.630   4.907  1.3540  1.3001 -0.8170
26589SOL    HW282085   1.512   1.732   4.838 -1.0308 -1.0636 -1.4337
26590SOL     OW82086   8.385   6.017   8.133  0.5949  0.4326 -0.0109
26590SOL    HW182087   8.373   6.084   8.066 -0.7234 -0.0372 -0.2655
26590SOL    HW282088   8.464   5.970   8.106  1.1492  1.4409 -0.1892
26591SOL     OW82089   9.838   1.138   5.842 -0.0308  0.5151  0.0946
26591SOL    HW182090   9.853   1.060   5.788  1.4191  1.4551 -0.9344
26591SOL    HW282091   9.758   1.176   5.807 -1.1850 -0.9021  1.1129
26592SOL     OW82092   8.111   4.599   9.990 -0.1165  0.1988  0.3533
26592SOL    HW182093   8.168   4.539   9.941 -1.2783  0.8841 -1.9937
26592SOL    HW282094   8.045   4.541  10.029 -0.3343 -0.2470 -0.6186
26593SOL     OW82095  10.543   9.158   8.705 -0.1428  0.3430 -0.1381
26593SOL    HW182096  10.604   9.227   8.681 -1.3117  1.3258 -0.3735
26593SOL    HW282097  10.559   9.088   8.642  0.9172  0.4596 -0.0158
26594SOL     OW82098   0.965   3.477   0.837  0.3600 -0.2863 -0.1185
26594SOL    HW182099   0.903   3.494   0.766 -1.6306  0.8995  1.7640
26594SOL    HW282100   1.050   3.505   0.802 -0.4262 -0.3549 -2.2226
26595SOL     OW82101   6.780   3.847   8.056 -0.1613  0.9365  0.0971
26595SOL    HW182102   6.858   3.794   8.071  0.2887  1.8691  1.2665
26595SOL    HW282103   6.707   3.791   8.083  0.0692  0.0375 -1.0572
26596SOL     OW82104   0.237  10.202   2.910  0.2526  0.4587  0.0928
26596SOL    HW182105   0.260  10.115   2.944  1.2275  0.2369 -1.0767
26596SOL    HW282106   0.310  10.225   2.852 -0.7537  1.3763 -0.8348
26597SOL     OW82107   9.555  10.167   7.416  0.0770 -0.1403  0.1075
26597SOL    HW182108   9.602  10.204   7.342 -0.0911 -0.6116 -0.2466
26597SOL    HW282109   9.467  10.150   7.382 -0.1253  0.0338  0.5398
26598SOL     OW82110   4.575   3.954   9.895 -0.3976 -0.1553  0.0149
26598SOL    HW182111   4.511   3.911   9.838 -0.7077  0.3629 -0.0381
26598SOL    HW282112   4.536   4.039   9.915 -0.4480 -0.4573  1.2883
26599SOL     OW82113   4.966   3.192   7.056 -0.1898 -0.3917 -0.2070
26599SOL    HW182114   5.059   3.199   7.031 -0.0792 -0.5785  0.1354
26599SOL    HW282115   4.952   3.265   7.116 -0.0302 -0.8674  0.4219
26600SOL     OW82116   3.731   8.382   7.888 -0.0078 -0.0415 -0.1123
26600SOL    HW182117   3.662   8.347   7.831  0.1099 -1.7150  0.6961
26600SOL    HW282118   3.723   8.477   7.882 -2.2819 -0.2012 -0.1618
26601SOL     OW82119   1.620   7.424   9.732 -0.3272 -0.2738 -0.2963
26601SOL    HW182120   1.702   7.383   9.762  0.1265  0.3776 -0.6308
26601SOL    HW282121   1.643   7.465   9.649 -1.0342 -0.2010 -0.4609
26602SOL     OW82122   6.852   5.167   3.494  0.6132 -0.2181 -0.1542
26602SOL    HW182123   6.884   5.157   3.404 -1.9636 -0.5346 -1.1128
26602SOL    HW282124   6.787   5.238   3.489  1.4546  0.7718  1.7860
26603SOL     OW82125   8.171   4.227   1.250  1.0869  0.5413  0.0499
26603SOL    HW182126   8.081   4.208   1.222  0.8903 -1.6815  1.8671
26603SOL    HW282127   8.192   4.310   1.208 -1.7766  1.0940 -0.5127
26604SOL     OW82128   3.506   9.919   3.728  0.3556  0.3790  0.5082
26604SOL    HW182129   3.416   9.915   3.697 -0.1097  2.2033  1.4607
26604SOL    HW282130   3.498   9.923   3.824  1.4680  0.1305  0.6262
26605SOL     OW82131   1.828   2.368   5.532 -0.5104 -0.2583 -0.3621
26605SOL    HW182132   1.782   2.444   5.495 -1.8441 -0.3269  1.0651
26605SOL    HW282133   1.919   2.382   5.508 -1.0516  0.5652 -2.1676
26606SOL     OW82134   1.612   2.519   1.122 -0.2014 -0.4567  0.2196
26606SOL    HW182135   1.563   2.556   1.049  0.0745  1.2931  0.8749
26606SOL    HW282136   1.568   2.553   1.200  0.3191 -1.2052  0.8526
26607SOL     OW82137   8.424  10.498   5.775  0.0829  0.7454  0.3382
26607SOL    HW182138   8.440  10.419   5.828  0.9376  1.2920  0.9197
26607SOL    HW282139   8.507  10.513   5.730 -0.2361  1.0381 -0.1521
26608SOL     OW82140   6.948   6.623   6.162 -0.0485  0.4510  0.0825
26608SOL    HW182141   6.931   6.713   6.188 -2.8698 -0.6049  2.5695
26608SOL    HW282142   6.872   6.598   6.110  0.2912 -0.7036  0.1032
26609SOL     OW82143   7.904   5.616   4.929  0.0149 -0.3923  0.0668
26609SOL    HW182144   7.968   5.683   4.908  0.3614  0.2413  2.7217
26609SOL    HW282145   7.833   5.630   4.866  0.2401  2.2462  0.2704
26610SOL     OW82146   6.861   6.353  10.099 -0.6266 -0.4015 -0.0717
26610SOL    HW182147   6.864   6.436  10.052 -0.3262 -1.3234 -1.7299
26610SOL    HW282148   6.773   6.350  10.137 -0.3130  1.0902  0.8601
26611SOL     OW82149   7.800   9.484   3.048  0.5840 -0.3552  0.4467
26611SOL    HW182150   7.853   9.564   3.048 -0.6025  0.4637  1.1172
26611SOL    HW282151   7.776   9.470   2.957  0.4582  0.2827  0.3825
26612SOL     OW82152   9.424   6.476   2.582 -0.0470  0.3479 -0.1363
26612SOL    HW182153   9.369   6.513   2.513 -1.2720 -0.4002  0.4240
26612SOL    HW282154   9.412   6.535   2.656 -1.1066 -0.5060  0.3900
26613SOL     OW82155   2.151   3.888   7.895 -0.2084 -0.0273  0.2474
26613SOL    HW182156   2.206   3.879   7.817 -0.0159  1.5729  0.1661
26613SOL    HW282157   2.177   3.815   7.952  0.3757 -0.6094 -0.7433
26614SOL     OW82158   1.911   1.128   5.488  0.3911  0.4288  0.1278
26614SOL    HW182159   1.853   1.059   5.456  1.0865  0.5132 -1.3671
26614SOL    HW282160   1.862   1.167   5.561 -0.9884 -0.1693 -0.4314
26615SOL     OW82161   1.350   9.943   1.295  0.3173 -0.1463  0.0980
26615SOL    HW182162   1.391   9.921   1.211 -0.5429 -2.4487  0.2064
26615SOL    HW282163   1.351   9.861   1.344  0.8205  1.1328  2.3996
26616SOL     OW82164   1.034   7.979   4.745  0.1904 -0.2206 -0.5407
26616SOL    HW182165   1.023   7.923   4.821 -1.0458  1.8058  0.8868
26616SOL    HW282166   1.046   8.067   4.781  1.5995  0.5630 -2.6598
26617SOL     OW82167   2.317   0.009   3.638  0.3737  0.1876 -0.3120
26617SOL    HW182168   2.379  -0.030   3.577  0.1414 -0.2783 -0.2575
26617SOL    HW282169   2.370   0.035   3.713  0.5691  0.1967 -0.4545
26618SOL     OW82170   2.709   3.107   3.905 -0.2943 -0.3586 -0.1782
26618SOL    HW182171   2.750   3.150   3.829  0.1011  0.4040  0.4456
26618SOL    HW282172   2.742   3.017   3.902  1.2952  0.1786  0.1759
26619SOL     OW82173   8.497  10.164   4.937  0.0799 -0.0438 -0.0407
26619SOL    HW182174   8.577  10.113   4.921  1.4354  1.7408  0.6985
26619SOL    HW282175   8.426  10.105   4.912  1.6262 -1.5506 -1.1609
26620SOL     OW82176   5.187   2.532  10.195  0.1456 -0.9109  0.3367
26620SOL    HW182177   5.128   2.474  10.148 -0.4374 -0.7775  0.8973
26620SOL    HW282178   5.266   2.480  10.208  0.7380 -0.5987 -1.7190
26621SOL     OW82179   3.567   8.784   9.122  0.0219  0.2053  0.0299
26621SOL    HW182180   3.643   8.767   9.177 -0.3880  0.6275  0.7418
26621SOL    HW282181   3.576   8.875   9.095 -0.5311  0.4395  0.6108
26622SOL     OW82182   9.235   0.758   1.461 -0.2500  0.1411  0.2715
26622SOL    HW182183   9.188   0.699   1.519 -1.4799 -0.1045 -0.9202
26622SOL    HW282184   9.326   0.729   1.464 -0.4198 -0.2992  1.5081
26623SOL     OW82185   9.185   8.011   8.409 -0.3846 -0.2529 -0.7053
26623SOL    HW182186   9.245   8.043   8.477 -0.5330  0.0246 -0.7052
26623SOL    HW282187   9.154   7.926   8.442 -3.4564  1.5053  1.4523
26624SOL     OW82188   2.840   2.263   6.319  0.2301  0.1798 -0.1596
26624SOL    HW182189   2.912   2.229   6.372 -0.8956  1.1596  2.1517
26624SOL    HW282190   2.861   2.355   6.306 -0.0432  0.2016 -0.4745
26625SOL     OW82191   4.062   1.493   5.234 -0.6104 -0.2168 -0.2673
26625SOL    HW182192   4.057   1.429   5.163  2.4945 -0.9722  0.0377
26625SOL    HW282193   3.990   1.471   5.292 -1.8833 -1.0036 -2.0500
26626SOL     OW82194   9.214   2.330   2.999 -0.0140 -0.3975  0.1422
26626SOL    HW182195   9.292   2.310   3.051  1.3533 -0.4259 -1.7812
26626SOL    HW282196   9.197   2.422   3.016 -0.0476 -0.5781  1.1637
26627SOL     OW82197   9.344   8.365   0.972  0.2978  0.1386  0.5813
26627SOL    HW182198   9.355   8.274   0.998  2.1078  0.5730  1.5513
26627SOL    HW282199   9.249   8.379   0.971  0.0038 -1.6520  0.7042
26628SOL     OW82200   9.112  10.523   7.760  0.2881 -0.0794  0.4961
26628SOL    HW182201   9.078  10.458   7.699 -5.0036  0.2170  2.5885
26628SOL    HW282202   9.157  10.473   7.828 -0.0114 -1.0861 -0.0404
26629SOL     OW82203   4.902   2.126   1.405 -0.6138 -0.3924  0.7175
26629SOL    HW182204   4.826   2.097   1.355 -1.5733  2.6710  0.1957
26629SOL    HW282205   4.881   2.105   1.496 -0.9941 -1.6982  0.3438
26630SOL     OW82206   5.969   7.888   8.166  0.5141 -0.1178 -0.1719
26630SOL    HW182207   6.047   7.941   8.182  0.4676 -0.5312  1.4993
26630SOL    HW282208   5.999   7.798   8.169  0.2569 -0.2632 -1.2408
26631SOL     OW82209   3.023   4.190   6.779  0.5021 -0.4217  0.1724
26631SOL    HW182210   2.965   4.242   6.722 -0.0163 -2.4888 -1.3007
26631SOL    HW282211   2.977   4.188   6.863 -1.4675 -1.6682 -0.8414
26632SOL     OW82212  10.108   1.376   4.256 -0.1203  0.0246  0.1719
26632SOL    HW182213  10.038   1.427   4.296 -1.0810 -0.1964 -1.1445
26632SOL    HW282214  10.062   1.314   4.199  1.1367 -0.3663 -0.4496
26633SOL     OW82215   2.270   7.648   2.694  0.5106  0.1422 -0.3711
26633SOL    HW182216   2.250   7.566   2.739  2.1144  0.3782  0.8621
26633SOL    HW282217   2.213   7.648   2.617 -0.0108 -1.7825 -0.0313
26634SOL     OW82218   1.811   5.605   7.827 -0.3640 -0.1793 -0.3662
26634SOL    HW182219   1.871   5.537   7.859 -0.5231  0.3489  1.1522
26634SOL    HW282220   1.867   5.667   7.780  0.0119 -0.6018 -0.4768
26635SOL     OW82221   0.444   6.863   9.153 -0.0716  0.3321 -0.0321
26635SOL    HW182222   0.372   6.880   9.214  0.2352 -0.0171  0.4398
26635SOL    HW282223   0.414   6.897   9.069 -0.8605  0.0271  0.1208
26636SOL     OW82224   3.973   9.957   4.546  0.3442 -0.1459  0.3134
26636SOL    HW182225   4.023   9.883   4.581  0.8280 -0.8777 -1.7739
26636SOL    HW282226   3.942   9.927   4.461 -1.0043  1.4365  0.1874
26637SOL     OW82227   2.933   4.850   9.172 -0.3063 -0.3150 -0.6097
26637SOL    HW182228   2.915   4.836   9.265 -1.0511  1.7309 -0.3768
26637SOL    HW282229   2.936   4.946   9.163  1.4183 -0.4663 -2.3985
26638SOL     OW82230   8.976   4.213   0.332 -0.2898 -0.2077  0.5596
26638SOL    HW182231   8.983   4.148   0.262 -1.0023  0.3242 -0.0167
26638SOL    HW282232   9.016   4.171   0.408  0.6654 -0.7257 -0.2093
26639SOL     OW82233   2.262   9.925   2.351  0.8224 -0.5889  0.0472
26639SOL    HW182234   2.206   9.917   2.428  1.0974  0.1923  0.3370
26639SOL    HW282235   2.280  10.018   2.344  0.2808 -0.5664 -1.3521
26640SOL     OW82236   1.625   5.658   2.476 -0.1279  0.1331  0.2752
26640SOL    HW182237   1.706   5.708   2.485  1.1306 -1.5243 -1.0618
26640SOL    HW282238   1.637   5.581   2.531 -0.5277 -0.4023 -0.3598
26641SOL     OW82239  10.421   8.079   5.200 -0.5606  0.1643 -0.3087
26641SOL    HW182240  10.450   8.165   5.168 -0.5124 -0.0311 -0.8086
26641SOL    HW282241  10.485   8.017   5.164 -0.9273 -0.1421 -0.4464
26642SOL     OW82242   5.763   7.326   6.323  0.0308  0.1592  0.3057
26642SOL    HW182243   5.722   7.241   6.315  1.3620 -0.4348 -0.7703
26642SOL    HW282244   5.720   7.368   6.398 -1.3714 -1.0162  0.1875
26643SOL     OW82245   7.182   2.269   0.401 -0.6667  0.0555  0.1912
26643SOL    HW182246   7.092   2.289   0.426 -0.7170 -0.9339  0.8501
26643SOL    HW282247   7.228   2.353   0.408 -1.6820  0.7372 -0.8823
26644SOL     OW82248   4.896   9.408   4.283  0.4651  0.2747  0.1823
26644SOL    HW182249   4.988   9.437   4.278  0.2253  1.0495  0.0139
26644SOL    HW282250   4.887   9.346   4.212  0.4501  1.4480 -0.8841
26645SOL     OW82251   6.121   4.125   5.013  0.1262 -0.1409  0.1852
26645SOL    HW182252   6.094   4.104   5.102  0.5487 -2.2379 -0.1098
26645SOL    HW282253   6.039   4.146   4.967 -0.2977 -0.6769  0.6859
26646SOL     OW82254   1.963   1.795   3.395 -0.1214 -0.2326 -0.3355
26646SOL    HW182255   2.024   1.864   3.422 -0.8605  0.5098 -0.5106
26646SOL    HW282256   1.901   1.839   3.336 -0.6957 -1.0171 -0.3411
26647SOL     OW82257   1.898   5.006   8.975  0.5029  0.2572  0.6908
26647SOL    HW182258   1.973   5.065   8.986  1.3441 -0.1199 -2.2795
26647SOL    HW282259   1.937   4.920   8.961 -0.5484 -0.1905  0.4118
26648SOL     OW82260   9.648   8.824   5.335 -0.0018  0.1098  0.0574
26648SOL    HW182261   9.553   8.838   5.342 -0.4313 -2.2218 -0.4098
26648SOL    HW282262   9.659   8.775   5.254  1.6099  0.2570  0.1644
26649SOL     OW82263   0.755   4.210   9.876  0.5782 -0.2410  0.1517
26649SOL    HW182264   0.773   4.132   9.929  0.6184 -0.2619  0.1083
26649SOL    HW282265   0.805   4.195   9.795  1.2663  0.2090  0.4796
26650SOL     OW82266   9.043   3.675   8.386  0.2010 -0.9290  0.0320
26650SOL    HW182267   8.974   3.610   8.370  0.8618 -1.0616 -2.7454
26650SOL    HW282268   9.104   3.663   8.314  1.9644  0.7345  1.1728
26651SOL     OW82269   3.277   5.030   9.777  0.1112 -0.2072  0.5585
26651SOL    HW182270   3.190   5.070   9.773  0.8229  1.3834  0.1034
26651SOL    HW282271   3.321   5.073   9.851  1.4201  1.0660 -0.8712
26652SOL     OW82272   1.961   1.608   5.064 -0.0770  0.1964 -0.0068
26652SOL    HW182273   2.024   1.680   5.066  0.0267  0.1123 -0.2976
26652SOL    HW282274   1.903   1.629   4.991 -1.3393  1.0811  1.1854
26653SOL     OW82275   5.185   3.068   5.547 -0.7077 -0.1309  0.0292
26653SOL    HW182276   5.096   3.103   5.552 -0.9225 -0.7923  1.6573
26653SOL    HW282277   5.209   3.051   5.638  0.5769 -1.2210 -0.4731
26654SOL     OW82278   9.205   0.840   7.637  0.4428 -0.1802  0.2042
26654SOL    HW182279   9.264   0.892   7.691  0.2392  0.3691 -0.0971
26654SOL    HW282280   9.249   0.756   7.626  1.2074  0.2560 -0.0927
26655SOL     OW82281   3.912   5.191   6.382 -0.0328 -0.0206  0.6905
26655SOL    HW182282   3.963   5.271   6.400  2.4764 -1.7854  2.1186
26655SOL    HW282283   3.958   5.151   6.308 -1.0564 -0.3399  0.2184
26656SOL     OW82284   8.219   9.451   6.009 -0.7035  0.5437  0.4061
26656SOL    HW182285   8.126   9.427   6.012 -0.5899  0.1649  2.9257
26656SOL    HW282286   8.254   9.422   6.093  1.3980  1.9560  0.0981
26657SOL     OW82287   2.846   9.311   1.388  0.0998  0.2220  0.1789
26657SOL    HW182288   2.815   9.391   1.432 -1.8831 -0.6763  0.5144
26657SOL    HW282289   2.837   9.331   1.295  0.5862  0.7183  0.2246
26658SOL     OW82290   9.855   5.822   6.721 -0.0381  0.0334  0.5728
26658SOL    HW182291   9.903   5.889   6.672 -0.5113 -0.7533 -1.0544
26658SOL    HW282292   9.844   5.859   6.808  0.2802  1.7873 -0.0849
26659SOL     OW82293   4.261   1.380   4.563  0.3208  0.0809  0.1002
26659SOL    HW182294   4.184   1.411   4.515  0.7159 -0.8938 -1.2278
26659SOL    HW282295   4.225   1.343   4.644 -0.3510  1.8557  0.6675
26660SOL     OW82296   4.372   6.557   8.464  0.6273 -0.0065  0.2128
26660SOL    HW182297   4.289   6.600   8.485 -0.5204 -1.6136 -0.7547
26660SOL    HW282298   4.377   6.485   8.527  1.1472 -0.0899  0.0776
26661SOL     OW82299   8.816  10.106   8.498 -0.2101  0.2419  0.3457
26661SOL    HW182300   8.787  10.077   8.412  0.4661  0.3980  0.0610
26661SOL    HW282301   8.796  10.032   8.556  1.9182 -1.0374 -0.4391
26662SOL     OW82302   0.123   4.356   8.013 -0.3986 -0.4366  0.4985
26662SOL    HW182303   0.166   4.278   8.049  0.5045 -0.5028 -0.6778
26662SOL    HW282304   0.140   4.424   8.079  0.5304 -0.7527  0.6050
26663SOL     OW82305   1.725   9.153   3.045 -0.4441 -0.0787 -0.4693
26663SOL    HW182306   1.637   9.127   3.074 -0.4994 -0.2600 -0.7873
26663SOL    HW282307   1.749   9.086   2.981 -0.0855 -0.0124 -0.4031
26664SOL     OW82308   4.176   7.093   3.135  0.3725  0.1653  0.2087
26664SOL    HW182309   4.203   7.014   3.183  0.5044  0.6980  1.0383
26664SOL    HW282310   4.257   7.142   3.122  0.0529  1.1013  1.4758
26665SOL     OW82311   0.905   6.709  10.467  0.8371  0.3775  0.8793
26665SOL    HW182312   0.970   6.722  10.536 -0.2679  1.7757  1.7142
26665SOL    HW282313   0.840   6.651  10.506  0.5523  0.6201  0.7659
26666SOL     OW82314   3.814   7.783   2.794  0.0457 -0.4088  0.1155
26666SOL    HW182315   3.758   7.834   2.853  0.3835  0.7216 -0.5051
26666SOL    HW282316   3.887   7.754   2.848 -0.4767 -0.7796  0.6259
26667SOL     OW82317   9.558   6.995   7.124 -0.1214 -0.4640 -0.2226
26667SOL    HW182318   9.485   6.947   7.163  0.8617 -0.2695  2.0214
26667SOL    HW282319   9.525   7.084   7.113  0.0994 -0.0200  2.0796
26668SOL     OW82320   8.274   2.873  10.564  0.2594  0.0386  0.2707
26668SOL    HW182321   8.215   2.934  10.607  0.7012  0.5384  0.1749
26668SOL    HW282322   8.243   2.787  10.591 -2.7331  0.0536 -2.5017
26669SOL     OW82323   7.503   5.337   9.922  0.3616 -0.2571  0.1554
26669SOL    HW182324   7.475   5.295   9.841 -1.2859  0.1639  0.4701
26669SOL    HW282325   7.585   5.294   9.944  0.5019 -0.8414 -1.3783
26670SOL     OW82326   9.388   7.644   4.948 -0.1385 -0.1556 -0.2706
26670SOL    HW182327   9.394   7.641   4.852 -2.5305 -0.6328 -0.4764
26670SOL    HW282328   9.310   7.697   4.965  0.1138 -0.2884  1.4144
26671SOL     OW82329   5.081   5.701   4.424  0.2014  0.3078 -0.2932
26671SOL    HW182330   5.007   5.682   4.480 -0.1257 -0.0375 -0.8316
26671SOL    HW282331   5.067   5.647   4.346  0.3101  1.2477 -0.9803
26672SOL     OW82332   5.892   9.237   1.226 -0.1437 -0.6247  0.2395
26672SOL    HW182333   5.817   9.274   1.272  0.6341  0.3132  0.8100
26672SOL    HW282334   5.887   9.143   1.242 -0.2958 -0.3939  1.6415
26673SOL     OW82335   3.540   7.029   0.359  0.5660 -0.0637 -0.3579
26673SOL    HW182336   3.490   6.948   0.356  0.5060 -0.0205 -0.5760
26673SOL    HW282337   3.477   7.095   0.389  0.7226 -0.1753  0.2216
26674SOL     OW82338   3.230   1.927   7.527 -0.5240 -0.4894  0.4713
26674SOL    HW182339   3.167   1.869   7.484 -0.0047 -2.3733  2.1596
26674SOL    HW282340   3.177   1.978   7.588 -1.3854  2.6750 -2.5484
26675SOL     OW82341   2.079   6.556   8.886 -0.3835 -0.4813  0.3000
26675SOL    HW182342   2.032   6.602   8.956 -1.2273  0.6145 -0.9604
26675SOL    HW282343   2.016   6.547   8.815  1.0711  0.3982 -1.1754
26676SOL     OW82344   7.067   2.559   2.360  0.2754 -0.1798  0.3657
26676SOL    HW182345   7.056   2.463   2.360  1.4668 -0.3309  0.6015
26676SOL    HW282346   7.135   2.575   2.294 -0.1905  0.5551  0.0471
26677SOL     OW82347   0.417   7.668   0.649 -1.0276 -0.4768  0.2298
26677SOL    HW182348   0.481   7.645   0.717 -1.6924 -1.9084  0.3921
26677SOL    HW282349   0.450   7.626   0.570 -0.8314  0.2877 -0.1054
26678SOL     OW82350   1.939   5.405   3.137  0.1205  0.2159 -0.2297
26678SOL    HW182351   1.911   5.336   3.077  0.7620 -0.2542 -0.0026
26678SOL    HW282352   1.948   5.362   3.221  1.0824  0.4411 -0.2070
26679SOL     OW82353   4.724   8.164   4.159  0.2302 -0.1539 -0.5249
26679SOL    HW182354   4.667   8.176   4.235  0.9523 -0.4027  0.0623
26679SOL    HW282355   4.677   8.102   4.104  0.9466 -2.2346  1.0578
26680SOL     OW82356   8.314   1.307   8.943  0.1845  0.0125 -0.4079
26680SOL    HW182357   8.375   1.268   8.881 -0.1520 -2.3280  0.6211
26680SOL    HW282358   8.228   1.293   8.906  0.1214  2.0180 -1.1572
26681SOL     OW82359   1.301   3.577   2.980 -0.4284  0.8061  0.1620
26681SOL    HW182360   1.314   3.672   2.971  0.2128  0.9378  2.0835
26681SOL    HW282361   1.306   3.544   2.890  1.6224  2.3236 -0.3614
26682SOL     OW82362   9.298   0.496   7.503  0.0786  0.2438 -0.2423
26682SOL    HW182363   9.303   0.529   7.593 -0.4822  2.0852 -0.8297
26682SOL    HW282364   9.386   0.511   7.468  0.0576  0.3418 -0.2543
26683SOL     OW82365   7.646   3.553   7.361  0.4408 -0.0077  0.0976
26683SOL    HW182366   7.663   3.608   7.285 -0.3440 -1.1558 -0.9380
26683SOL    HW282367   7.628   3.466   7.326 -0.1027 -0.5385  1.5708
26684SOL     OW82368   6.570   4.303   7.305 -0.1474  0.7686 -0.3534
26684SOL    HW182369   6.637   4.254   7.354 -1.3500 -0.4942  0.0920
26684SOL    HW282370   6.546   4.375   7.363 -0.8334 -0.1290  0.5058
26685SOL     OW82371   3.435   0.608   6.045 -0.0432 -0.4035  0.8274
26685SOL    HW182372   3.346   0.617   6.077 -0.3179 -0.8847  0.2214
26685SOL    HW282373   3.433   0.642   5.955  0.5873  0.4012  1.1006
26686SOL     OW82374   0.226   6.764   1.600 -0.4746  0.0021  0.3354
26686SOL    HW182375   0.227   6.760   1.696  0.0566 -0.4370  0.3182
26686SOL    HW282376   0.241   6.673   1.573  0.1018  0.2470 -0.1656
26687SOL     OW82377   4.715   3.403   8.255 -0.0755  0.1622 -0.2643
26687SOL    HW182378   4.661   3.325   8.267 -1.0720  0.7986 -0.3988
26687SOL    HW282379   4.800   3.371   8.225 -0.4611 -0.8614 -0.2770
26688SOL     OW82380   7.103   3.934   0.234  0.1195 -0.6894 -0.0640
26688SOL    HW182381   7.186   3.952   0.278 -0.0077  0.4026 -0.2213
26688SOL    HW282382   7.117   3.853   0.187  1.2193 -0.3331 -0.3798
26689SOL     OW82383   5.022   0.833  10.585  0.5480 -0.7860 -0.0101
26689SOL    HW182384   4.973   0.756  10.557  0.5283 -0.6044 -0.4883
26689SOL    HW282385   5.005   0.839  10.679 -2.5117  0.7351 -0.5181
26690SOL     OW82386   2.038   6.588   1.130  0.2431  0.2896  0.1103
26690SOL    HW182387   1.947   6.614   1.141 -0.1491 -0.8469 -0.3259
26690SOL    HW282388   2.079   6.608   1.215  0.1406  2.8332 -0.3866
26691SOL     OW82389   7.216   1.189   3.551  0.2439  0.2166 -0.0523
26691SOL    HW182390   7.164   1.110   3.534 -0.9109  0.9140  0.1547
26691SOL    HW282391   7.283   1.160   3.612 -1.9623 -0.0237  2.4452
26692SOL     OW82392   1.976   5.775   6.742  0.2973 -0.3297  0.0940
26692SOL    HW182393   1.935   5.699   6.700  0.5980  0.2492 -1.2855
26692SOL    HW282394   1.918   5.848   6.721 -0.2205 -0.2138  1.7758
26693SOL     OW82395   5.889   0.702   7.688  0.0032 -0.7619  0.0832
26693SOL    HW182396   5.827   0.657   7.745 -0.0694 -1.6885 -0.7263
26693SOL    HW282397   5.870   0.795   7.702 -0.7022 -0.9990  0.7900
26694SOL     OW82398   2.728   5.417   1.075  0.1671  0.4868  0.4842
26694SOL    HW182399   2.741   5.356   1.149 -1.0713 -0.0157  0.3110
26694SOL    HW282400   2.639   5.399   1.045  0.1988  1.5985 -0.3167
26695SOL     OW82401   2.949   7.908   3.243  0.5046  0.2388  0.4426
26695SOL    HW182402   2.867   7.908   3.293 -0.7694 -1.2626 -1.4987
26695SOL    HW282403   2.999   7.981   3.279 -1.6865  1.2206  1.6888
26696SOL     OW82404   7.166   2.046   2.766  0.2749 -0.0458  0.5563
26696SOL    HW182405   7.243   2.102   2.757  0.0794 -0.0311 -1.6085
26696SOL    HW282406   7.101   2.102   2.809  0.5572  0.9337 -0.2427
26697SOL     OW82407   0.886   0.598   1.762 -0.0849 -0.4314 -0.0590
26697SOL    HW182408   0.824   0.618   1.832  0.6451 -0.8796  0.7324
26697SOL    HW282409   0.865   0.508   1.736 -0.5948 -0.1421 -0.6877
26698SOL     OW82410   2.513   2.865   6.625  0.2254  0.2099 -0.2123
26698SOL    HW182411   2.512   2.882   6.719  1.5413  2.7949 -0.5499
26698SOL    HW282412   2.463   2.938   6.587 -2.5097 -2.1437 -1.4552
26699SOL     OW82413   9.173   8.014   6.162  0.7757 -0.2741  0.0001
26699SOL    HW182414   9.175   8.089   6.103 -0.2168  0.1181  0.4653
26699SOL    HW282415   9.217   8.044   6.241  0.3587 -0.1710  0.1948
26700SOL     OW82416   3.203   4.043   9.868  0.0863 -0.3947  0.5564
26700SOL    HW182417   3.144   4.068   9.797 -0.1117  0.2237  0.9316
26700SOL    HW282418   3.181   4.103   9.940  2.4755  1.1976  0.0935
26701SOL     OW82419   0.913   5.540   9.541  0.5430  0.4410 -0.2269
26701SOL    HW182420   0.912   5.630   9.507  1.3062  0.1987 -0.9234
26701SOL    HW282421   1.004   5.512   9.533  0.5836  0.0577  1.2489
26702SOL     OW82422   2.294   9.865   4.821  0.3268  0.4121  0.1280
26702SOL    HW182423   2.219   9.806   4.831  1.9942 -1.6808  1.0829
26702SOL    HW282424   2.282   9.904   4.734 -0.9439 -1.2500 -0.4937
26703SOL     OW82425   1.084   5.858   6.806  0.4085  0.5657  0.6200
26703SOL    HW182426   1.038   5.941   6.796 -0.7291  0.1466  1.9373
26703SOL    HW282427   1.157   5.877   6.865  0.8800  0.8587 -0.0424
26704SOL     OW82428   1.943   8.829   8.346  0.2622  0.2631  0.0646
26704SOL    HW182429   1.911   8.885   8.418 -0.5453  0.3593 -0.3603
26704SOL    HW282430   1.966   8.747   8.389  1.4925  0.9090  0.7055
26705SOL     OW82431   8.345   3.304   9.395 -0.0605 -0.1521  0.3361
26705SOL    HW182432   8.324   3.383   9.445 -0.2496 -0.0264  0.0574
26705SOL    HW282433   8.431   3.321   9.358 -0.9579  0.7941 -1.4489
26706SOL     OW82434   2.569   8.229   2.949  0.6009  0.6690 -0.1182
26706SOL    HW182435   2.622   8.150   2.939 -2.7371 -1.7671 -0.4445
26706SOL    HW282436   2.577   8.252   3.041  0.5015 -1.0047  0.3409
26707SOL     OW82437   4.415   5.483   3.788 -0.0731  0.0752  0.7745
26707SOL    HW182438   4.381   5.395   3.802 -0.5641  0.0235 -0.5545
26707SOL    HW282439   4.338   5.534   3.761  0.1923  0.9261  1.6051
26708SOL     OW82440  10.401   4.012   9.499 -0.3630 -0.0636  0.2114
26708SOL    HW182441  10.400   4.033   9.592 -1.6316  2.1753 -0.2312
26708SOL    HW282442  10.400   4.097   9.455 -0.0972 -1.0625 -1.8483
26709SOL     OW82443   5.788   5.322   9.312  0.1172 -0.5018 -0.5260
26709SOL    HW182444   5.850   5.325   9.239 -2.1723 -1.1748 -2.6413
26709SOL    HW282445   5.772   5.228   9.325 -0.9365 -0.3273 -0.4801
26710SOL     OW82446   0.420   3.959   0.834  0.1504  0.2164 -0.3852
26710SOL    HW182447   0.462   4.037   0.798 -2.7086  2.6329  1.0798
26710SOL    HW282448   0.410   3.900   0.758  0.4854  2.1832 -2.0337
26711SOL     OW82449   8.697   1.163   1.764  0.4699 -0.0855 -0.1314
26711SOL    HW182450   8.632   1.095   1.747  0.3395  0.3657 -1.5458
26711SOL    HW282451   8.734   1.183   1.678  1.5591  0.5876  0.4709
26712SOL     OW82452   3.483   7.478   0.425 -0.0872 -0.4775  0.0504
26712SOL    HW182453   3.494   7.573   0.432  0.4329 -0.4369 -1.0818
26712SOL    HW282454   3.486   7.446   0.515 -0.7127  0.6278  0.4707
26713SOL     OW82455   0.982   8.048   9.021  0.0010  0.1005  0.0030
26713SOL    HW182456   1.039   8.121   9.048 -0.8741  0.1189  1.9876
26713SOL    HW282457   1.030   7.970   9.048  1.5446 -0.2250 -3.2967
26714SOL     OW82458   8.526   5.066   6.795 -0.6486  0.1114  0.1852
26714SOL    HW182459   8.514   5.112   6.712 -0.7202  0.7130  0.5242
26714SOL    HW282460   8.620   5.070   6.811 -0.5285 -0.7088 -0.2591
26715SOL     OW82461   6.392   4.464   9.120 -0.1513 -0.5056  0.3574
26715SOL    HW182462   6.367   4.433   9.032 -0.2450  1.2313 -0.2683
26715SOL    HW282463   6.321   4.522   9.146  0.6847  0.3175  0.8610
26716SOL     OW82464  10.035   5.346   5.596 -0.0590  0.0982  0.0206
26716SOL    HW182465  10.118   5.300   5.607 -0.4472 -0.6236 -0.0074
26716SOL    HW282466   9.979   5.284   5.550 -1.0371  0.0828  1.1797
26717SOL     OW82467   6.442   0.812   2.723  0.0509  0.4153  0.2712
26717SOL    HW182468   6.375   0.862   2.770 -0.0274  0.1412  0.4537
26717SOL    HW282469   6.511   0.797   2.788 -1.2660 -2.3864  1.1846
26718SOL     OW82470   1.160   0.897   4.875  0.0034 -0.7242 -0.2726
26718SOL    HW182471   1.203   0.981   4.891  0.0972 -0.9200  0.5629
26718SOL    HW282472   1.067   0.914   4.891  0.0053 -0.7399 -0.2432
26719SOL     OW82473   1.112   2.484   3.253 -0.2291 -0.2604 -0.1239
26719SOL    HW182474   1.083   2.399   3.221  1.8918 -0.7552 -0.8487
26719SOL    HW282475   1.205   2.489   3.231  0.0316  1.6920  1.0929
26720SOL     OW82476   5.594   5.032   8.234 -0.5249 -0.0471 -0.5875
26720SOL    HW182477   5.612   4.974   8.160  1.3975 -0.7269  0.3473
26720SOL    HW282478   5.533   4.983   8.289 -1.1391  0.0309 -1.1782
26721SOL     OW82479   9.875   0.934   5.637  0.5458  0.3048 -0.0225
26721SOL    HW182480   9.953   0.881   5.624  1.4138  1.8664 -1.9351
26721SOL    HW282481   9.802   0.876   5.616  1.3500 -0.5771 -0.4447
26722SOL     OW82482  10.109   3.041   1.231  0.0315 -0.2940  0.3580
26722SOL    HW182483  10.142   3.119   1.274 -0.1605  0.7617 -1.3202
26722SOL    HW282484  10.095   2.978   1.302 -0.7355  1.5039  1.8790
26723SOL     OW82485   4.225   7.076   0.725  0.2821  0.3499  0.6716
26723SOL    HW182486   4.201   7.167   0.708  0.9144  0.6101  1.1109
26723SOL    HW282487   4.142   7.029   0.729 -0.1095  1.1028  1.5545
26724SOL     OW82488   3.698   8.045   4.422 -0.2475 -0.3318 -0.1126
26724SOL    HW182489   3.718   8.124   4.373  1.6785  0.6139  1.9861
26724SOL    HW282490   3.663   7.984   4.357 -0.5266  1.7677 -2.0409
26725SOL     OW82491   4.557   5.339   5.821 -0.4340  0.1110 -0.3970
26725SOL    HW182492   4.584   5.251   5.847  1.6936  0.4092 -1.3508
26725SOL    HW282493   4.616   5.398   5.870  1.2658  0.7754 -3.0101
26726SOL     OW82494   6.278   9.681   4.304  0.3329 -0.3987  0.4638
26726SOL    HW182495   6.352   9.742   4.300  0.6048 -0.7811 -0.6055
26726SOL    HW282496   6.316   9.596   4.282 -0.2487 -0.7752  0.8832
26727SOL     OW82497  10.150   0.785   6.653  0.2816  0.0542  0.4631
26727SOL    HW182498  10.078   0.733   6.618  0.7690 -0.6695  0.5088
26727SOL    HW282499  10.139   0.872   6.614 -1.0031  0.1518  1.0083
26728SOL     OW82500   6.660   2.473   2.494 -0.3396 -0.3614  0.1258
26728SOL    HW182501   6.586   2.457   2.553 -1.4817  2.1281 -0.5027
26728SOL    HW282502   6.723   2.522   2.547 -1.1202  1.3853 -0.5139
26729SOL     OW82503   8.113   4.394   5.385  0.5514 -0.2596 -0.3943
26729SOL    HW182504   8.138   4.339   5.459  0.4560 -0.0376 -0.1948
26729SOL    HW282505   8.018   4.383   5.378  0.4146  0.5021  0.1576
26730SOL     OW82506   3.798   2.496   4.176 -0.0439 -0.4402  0.4385
26730SOL    HW182507   3.783   2.442   4.254 -0.3531  0.5483  1.0833
26730SOL    HW282508   3.750   2.452   4.106 -0.7509 -0.6901  1.0757
26731SOL     OW82509   5.051   0.060   2.842 -0.0553 -0.1566  0.1411
26731SOL    HW182510   5.093   0.138   2.805  0.1084  0.4233  1.4753
26731SOL    HW282511   5.102   0.041   2.921 -1.5736 -0.1269  1.1716
26732SOL     OW82512   3.813   6.719   8.343 -0.5065  0.3631  0.6336
26732SOL    HW182513   3.803   6.625   8.352  1.1944  0.3115  3.0948
26732SOL    HW282514   3.785   6.755   8.428  0.9619  1.8105  0.5651
26733SOL     OW82515   8.893   1.644   9.990 -0.2003  0.0584 -0.2678
26733SOL    HW182516   8.830   1.585   9.947 -0.2748 -0.4224  0.4776
26733SOL    HW282517   8.880   1.728   9.946 -2.7938  0.5111  1.1475
26734SOL     OW82518   0.796   6.051   1.678 -0.7368 -0.3054 -0.5358
26734SOL    HW182519   0.890   6.034   1.680 -0.3007  1.9033 -0.0004
26734SOL    HW282520   0.758   5.977   1.724  0.6420 -1.6614 -1.4617
26735SOL     OW82521  10.180  10.437   8.623  0.2846  0.1640 -0.0516
26735SOL    HW182522  10.125  10.377   8.573 -1.2019 -0.4991  2.1975
26735SOL    HW282523  10.140  10.523   8.609 -0.7802 -0.1713  0.7525
26736SOL     OW82524   5.481   6.380   8.834 -0.1068 -0.3227 -0.2618
26736SOL    HW182525   5.456   6.295   8.799  1.2602 -0.5369 -0.7838
26736SOL    HW282526   5.537   6.419   8.766  1.4456 -0.1470  1.0463
26737SOL     OW82527   1.299   4.080   1.814 -0.3312  0.3793 -0.3691
26737SOL    HW182528   1.213   4.058   1.780 -0.3216  1.0172 -0.8102
26737SOL    HW282529   1.360   4.045   1.749 -0.2000 -1.0842  0.4947
26738SOL     OW82530   3.754   7.441   6.011 -0.3773 -0.4571  0.4325
26738SOL    HW182531   3.742   7.385   6.087  0.7382 -1.9215 -0.4098
26738SOL    HW282532   3.847   7.432   5.989 -0.8239 -0.7129 -1.5532
26739SOL     OW82533   4.340   6.109  10.278  0.6788  0.3437 -0.3429
26739SOL    HW182534   4.331   6.204  10.272 -2.5627  0.2236  0.4668
26739SOL    HW282535   4.270   6.075  10.223  1.2623 -1.5817  0.0192
26740SOL     OW82536   8.651   3.554   9.803  0.4460 -0.7666  0.2249
26740SOL    HW182537   8.591   3.493   9.846  1.0073  0.0963  2.3408
26740SOL    HW282538   8.727   3.557   9.860  1.9631 -0.7507 -1.6778
26741SOL     OW82539   1.707   0.262   4.295  0.4340  0.3317  0.0853
26741SOL    HW182540   1.751   0.335   4.250  0.0130  1.0906  0.8573
26741SOL    HW282541   1.645   0.228   4.232  2.1017 -0.7767 -1.0482
26742SOL     OW82542  10.274   2.406   7.495 -0.1704  0.2092  0.4694
26742SOL    HW182543  10.252   2.469   7.427 -1.4715 -2.1772 -1.4863
26742SOL    HW282544  10.191   2.387   7.538  0.3084  0.2237  1.4290
26743SOL     OW82545   2.983   4.009   9.016 -0.6095  0.4395  0.5295
26743SOL    HW182546   2.962   4.084   8.960 -0.3074  0.7046  0.7677
26743SOL    HW282547   3.077   4.015   9.030 -0.2542 -1.0003 -0.8895
26744SOL     OW82548   8.374   5.749   9.986 -0.2030 -0.6919 -0.3504
26744SOL    HW182549   8.446   5.754  10.048  0.2572 -0.9034 -0.8680
26744SOL    HW282550   8.413   5.766   9.901 -0.3083 -3.0792 -0.9545
26745SOL     OW82551   7.709   6.990   8.790 -0.2772 -0.0121 -0.1664
26745SOL    HW182552   7.703   7.085   8.778 -0.6747 -0.0445 -0.2283
26745SOL    HW282553   7.643   6.954   8.731  0.3984 -0.3717 -0.7281
26746SOL     OW82554   0.573   2.413   6.047  0.0605  0.2579 -0.6362
26746SOL    HW182555   0.616   2.484   6.000  1.6723 -0.1788  0.1292
26746SOL    HW282556   0.622   2.335   6.023 -0.5997 -0.3367 -0.0900
26747SOL     OW82557   2.029   5.101   9.793 -0.4493 -0.3800 -0.1344
26747SOL    HW182558   2.016   5.073   9.883  0.6444 -0.5336 -0.0189
26747SOL    HW282559   1.969   5.045   9.742  0.4615 -1.7940  0.2771
26748SOL     OW82560   1.320   6.325   5.016 -0.1806  0.4731 -0.5870
26748SOL    HW182561   1.396   6.281   5.054 -0.1793  0.7788 -0.2359
26748SOL    HW282562   1.354   6.363   4.934  0.3399  1.5602  0.1026
26749SOL     OW82563   7.163   0.307   8.118  0.0642  0.0781  0.4410
26749SOL    HW182564   7.144   0.401   8.114 -0.5240  0.0010  1.2004
26749SOL    HW282565   7.181   0.290   8.210 -1.4259 -0.8369  0.6025
26750SOL     OW82566   5.289   7.762   0.514 -0.8713  0.0327 -0.2931
26750SOL    HW182567   5.370   7.767   0.464 -1.1459 -0.6287 -0.8101
26750SOL    HW282568   5.256   7.674   0.498 -0.6748 -0.4091  1.4973
26751SOL     OW82569   1.829   6.355   1.309 -0.0174 -0.1481 -0.5761
26751SOL    HW182570   1.810   6.427   1.249  2.4725  1.5226  0.4227
26751SOL    HW282571   1.850   6.281   1.253  3.0307  1.5633 -1.9750
26752SOL     OW82572   2.897   3.687   1.969 -0.0673  0.0635 -0.1863
26752SOL    HW182573   2.924   3.611   1.917 -0.8600  1.5264 -2.9135
26752SOL    HW282574   2.815   3.659   2.011  0.5788 -1.1541  0.3088
26753SOL     OW82575   7.269   5.907   6.059  0.4844 -0.3971  0.0404
26753SOL    HW182576   7.205   5.966   6.020 -0.1822 -2.9685 -3.0822
26753SOL    HW282577   7.221   5.859   6.126 -0.9022 -2.0335 -2.0157
26754SOL     OW82578   4.381   5.472   8.424 -0.1241 -0.2548  0.5052
26754SOL    HW182579   4.348   5.383   8.435  0.6146 -0.4784  0.9658
26754SOL    HW282580   4.358   5.516   8.506 -1.4388  0.3048 -0.1289
26755SOL     OW82581   4.926   2.783  10.492 -0.3906  0.2524 -0.0231
26755SOL    HW182582   4.936   2.877  10.479  2.2800 -0.1151 -1.2520
26755SOL    HW282583   4.993   2.744  10.436 -0.5735 -2.3308  1.4183
26756SOL     OW82584   1.454   4.046   1.046 -0.0647  0.6109  0.3769
26756SOL    HW182585   1.400   4.057   0.968 -2.1864  0.8674  1.8182
26756SOL    HW282586   1.424   4.113   1.107 -0.1190 -1.0570  2.3056
26757SOL     OW82587   7.289   2.656   8.341 -0.2675 -0.0497 -0.3618
26757SOL    HW182588   7.207   2.704   8.329  0.4709  1.4840  0.5039
26757SOL    HW282589   7.298   2.646   8.436 -0.6549 -2.4339 -0.5042
26758SOL     OW82590   9.098   0.997   1.436  0.3696  0.2562 -0.1536
26758SOL    HW182591   9.151   0.918   1.427  1.0209  0.5651  0.8116
26758SOL    HW282592   9.062   0.993   1.524  0.8811  1.3160  0.1225
26759SOL     OW82593   6.401   8.856   7.983  0.2484  0.3710  0.2772
26759SOL    HW182594   6.468   8.892   8.040  2.4460  0.3798 -2.1343
26759SOL    HW282595   6.367   8.932   7.935  1.6350 -0.1080 -1.5535
26760SOL     OW82596   2.642   7.892   8.272 -0.1247 -0.8049  0.4403
26760SOL    HW182597   2.603   7.826   8.215 -0.4294  0.1593 -0.4994
26760SOL    HW282598   2.619   7.865   8.360  0.9861 -2.7375  0.1825
26761SOL     OW82599   5.532   6.624   1.409 -0.6775  0.1748  0.2644
26761SOL    HW182600   5.559   6.540   1.445 -1.7022 -0.7056 -0.9217
26761SOL    HW282601   5.525   6.682   1.485  2.1896 -0.1456  0.8748
26762SOL     OW82602   0.284   3.300   3.486  0.1318 -0.1147  0.0359
26762SOL    HW182603   0.220   3.356   3.442 -0.9970 -1.3483  0.0279
26762SOL    HW282604   0.245   3.213   3.482  1.8317 -0.9145  0.0448
26763SOL     OW82605   8.019   1.098   6.376 -0.1586  0.2003  0.5413
26763SOL    HW182606   7.972   1.017   6.395  0.5768 -0.1478  0.8926
26763SOL    HW282607   7.951   1.158   6.345 -0.5763 -0.8224 -0.5781
26764SOL     OW82608   8.154   2.506  10.351  0.4230  0.9160  0.0104
26764SOL    HW182609   8.081   2.550  10.394  0.0381  1.0546 -0.7657
26764SOL    HW282610   8.215   2.486  10.422 -0.6281  0.2653  0.7627
26765SOL     OW82611   1.567   7.742   4.928 -0.1220  0.6914 -0.0438
26765SOL    HW182612   1.580   7.746   5.022  2.4103 -1.3512 -0.1847
26765SOL    HW282613   1.473   7.729   4.916 -0.6933  2.4672  2.0744
26766SOL     OW82614   7.030   2.426   8.460 -0.3448 -0.5626  0.1277
26766SOL    HW182615   7.006   2.334   8.463  2.1367 -1.4813 -2.7408
26766SOL    HW282616   6.946   2.473   8.460 -1.8728 -3.0257 -1.6099
26767SOL     OW82617   0.540   7.864   7.854  0.7013  0.2892 -0.1386
26767SOL    HW182618   0.521   7.953   7.884  0.1050  0.8476 -2.0488
26767SOL    HW282619   0.457   7.833   7.817  0.6001 -1.4925  1.4166
26768SOL     OW82620   4.947   3.190   5.631 -0.3497 -0.4371  0.7154
26768SOL    HW182621   4.907   3.156   5.710 -2.2302  1.6726  0.7639
26768SOL    HW282622   4.921   3.282   5.628  2.7791  0.5384 -0.4306
26769SOL     OW82623   6.242   9.226   6.103 -0.3183  0.0909  0.5950
26769SOL    HW182624   6.265   9.319   6.091  1.7362 -0.3254  0.8985
26769SOL    HW282625   6.167   9.212   6.045  0.7988  1.3923 -1.2587
26770SOL     OW82626   4.458   1.793   3.488  0.2467 -0.0948  0.0750
26770SOL    HW182627   4.497   1.709   3.463 -0.2275 -0.1510 -0.5052
26770SOL    HW282628   4.530   1.855   3.483  0.8636 -0.6415  1.5820
26771SOL     OW82629   3.687   2.742   8.296 -0.0844 -0.0882  0.5891
26771SOL    HW182630   3.677   2.691   8.377  0.3868  0.3958  0.9579
26771SOL    HW282631   3.780   2.734   8.275 -0.2725 -0.5179 -0.1168
26772SOL     OW82632   7.903  10.386   2.721 -0.4243  0.6580  0.1580
26772SOL    HW182633   7.934  10.400   2.811 -1.3888 -1.1161  0.8068
26772SOL    HW282634   7.962  10.439   2.667  2.5073 -0.9906  1.5123
26773SOL     OW82635   4.983   3.730   7.808  0.1327  0.5829 -0.5045
26773SOL    HW182636   4.912   3.719   7.745 -0.9601 -3.2460  1.1111
26773SOL    HW282637   4.939   3.756   7.889  0.3678 -2.0558  0.5801
26774SOL     OW82638   3.248   5.765   5.357  0.6450 -0.1484  0.4831
26774SOL    HW182639   3.270   5.688   5.411 -0.0009  1.0112  2.5396
26774SOL    HW282640   3.160   5.747   5.325  1.1479 -0.9829 -0.4792
26775SOL     OW82641   0.865   6.722   3.702  0.1406  0.0045 -0.0771
26775SOL    HW182642   0.897   6.734   3.791 -0.3944 -0.1180  0.1399
26775SOL    HW282643   0.911   6.788   3.650 -1.1637  1.5868  0.6867
26776SOL     OW82644   6.012   9.574   6.211 -0.1711  0.0889  0.0188
26776SOL    HW182645   6.002   9.520   6.290  0.1672 -0.7349 -0.4824
26776SOL    HW282646   6.013   9.664   6.243 -1.1593 -0.1697  0.8462
26777SOL     OW82647   3.866   0.482   3.817  0.1594  0.3188 -0.3866
26777SOL    HW182648   3.939   0.478   3.755  0.1810  0.3271 -0.3614
26777SOL    HW282649   3.818   0.400   3.802  1.5294 -0.8611  1.2665
26778SOL     OW82650   7.648   7.363   5.186  0.3153  0.0273 -0.1215
26778SOL    HW182651   7.619   7.451   5.164 -0.6149 -0.5963 -1.5439
26778SOL    HW282652   7.698   7.334   5.109 -2.0168 -1.7800 -1.0896
26779SOL     OW82653   7.225   4.463  10.453  0.0418 -0.7149  0.6384
26779SOL    HW182654   7.180   4.386  10.489 -1.8652 -0.1525 -0.3852
26779SOL    HW282655   7.167   4.536  10.472  0.4360  0.0381 -0.8780
26780SOL     OW82656  10.168   5.826   2.777 -0.2804  0.1819 -0.4708
26780SOL    HW182657  10.198   5.747   2.733 -1.8190 -0.4189 -0.5262
26780SOL    HW282658  10.183   5.896   2.713 -0.5508 -0.3583 -1.1461
26781SOL     OW82659   1.567   1.841   5.687 -0.2256 -0.2497  0.5271
26781SOL    HW182660   1.617   1.921   5.708  0.0113 -0.3631  0.3987
26781SOL    HW282661   1.591   1.821   5.597 -1.4218  0.3612  0.0458
26782SOL     OW82662   2.729   1.304   3.583 -0.1322 -0.1883 -0.1569
26782SOL    HW182663   2.728   1.260   3.668  0.2620  0.6813  0.3166
26782SOL    HW282664   2.638   1.301   3.553 -0.0855 -1.4700 -0.2351
26783SOL     OW82665  10.306   7.371   3.556  0.4106 -0.5059 -0.0257
26783SOL    HW182666  10.327   7.323   3.477  1.1008 -0.4995  0.1524
26783SOL    HW282667  10.247   7.441   3.527  1.3334  0.0188 -0.6766
26784SOL     OW82668   6.473   4.323   4.709  0.3752 -0.0840 -0.1287
26784SOL    HW182669   6.535   4.383   4.749 -1.2446  1.0362  0.8249
26784SOL    HW282670   6.390   4.340   4.755 -0.3956 -2.2714 -0.5953
26785SOL     OW82671   8.377   1.433   6.707 -0.0747  0.7217 -0.1272
26785SOL    HW182672   8.338   1.517   6.730  0.1727  0.8769 -0.2675
26785SOL    HW282673   8.306   1.384   6.666  0.0212  1.2317 -0.9456
26786SOL     OW82674   7.746   3.847   8.340 -0.4662 -0.2980  0.1592
26786SOL    HW182675   7.803   3.778   8.372  0.4499 -0.7921 -2.2983
26786SOL    HW282676   7.766   3.923   8.394  0.4612 -1.2353  1.1634
26787SOL     OW82677   0.644   8.218   2.532  0.1867 -0.4616 -0.5825
26787SOL    HW182678   0.685   8.304   2.522  0.7276 -0.4781  1.1430
26787SOL    HW282679   0.690   8.163   2.468  0.8469  0.1960 -0.6977
26788SOL     OW82680   3.464   0.986   2.707  0.6069  0.4797 -0.9429
26788SOL    HW182681   3.538   1.043   2.688  2.4977 -1.6400 -0.4188
26788SOL    HW282682   3.453   0.933   2.628  0.6249 -0.2006 -0.5021
26789SOL     OW82683   2.118   8.858   8.818 -0.3712 -0.3599 -0.2164
26789SOL    HW182684   2.168   8.821   8.891 -0.0923  1.0185  0.3290
26789SOL    HW282685   2.098   8.947   8.846 -1.5056 -0.2704 -1.2425
26790SOL     OW82686   4.782   8.952   3.615  0.0150  1.0059 -0.4541
26790SOL    HW182687   4.850   8.932   3.680 -1.2494  0.2584  0.7027
26790SOL    HW282688   4.700   8.931   3.660 -0.9500  1.2702 -2.0338
26791SOL     OW82689   5.016   5.029   8.834 -0.1905  0.1121 -0.3460
26791SOL    HW182690   5.079   5.064   8.898 -0.8202  0.9179 -0.1605
26791SOL    HW282691   5.042   5.069   8.751 -2.0047  2.5385  0.1641
26792SOL     OW82692   4.265   6.040   4.617  0.1975 -0.4547 -0.2149
26792SOL    HW182693   4.275   5.947   4.637 -1.1136 -0.2717  1.5059
26792SOL    HW282694   4.254   6.043   4.521  1.9829 -1.8563 -0.5059
26793SOL     OW82695   6.462   5.069   3.917 -0.5463 -0.8543  0.3073
26793SOL    HW182696   6.379   5.096   3.876 -0.6948 -2.2068 -0.3507
26793SOL    HW282697   6.452   5.091   4.009 -0.7129  1.1124 -0.1332
26794SOL     OW82698   6.385   6.663   9.917  0.0168  0.4800 -0.0096
26794SOL    HW182699   6.371   6.572   9.942 -0.4173  0.9927  1.7426
26794SOL    HW282700   6.476   6.666   9.886 -0.1709 -0.6516 -0.7368
26795SOL     OW82701   1.314   8.106   1.665  0.2605  0.3928 -0.3716
26795SOL    HW182702   1.231   8.153   1.666 -0.1985 -0.3875 -0.8191
26795SOL    HW282703   1.329   8.083   1.757  0.0056  0.5751 -0.2818
26796SOL     OW82704   4.882   3.565   0.632  0.0146 -0.0962  0.0380
26796SOL    HW182705   4.845   3.648   0.662 -0.6292 -1.1118  2.2913
26796SOL    HW282706   4.815   3.528   0.575 -0.2556  0.3486  0.0643
26797SOL     OW82707   1.061   9.266   4.443  0.3406  0.7325  0.1784
26797SOL    HW182708   1.130   9.303   4.498 -0.0660  2.4579 -0.4116
26797SOL    HW282709   1.013   9.342   4.410 -1.0520 -0.3710 -0.4578
26798SOL     OW82710   8.091   2.184   2.183 -0.4595  0.3769 -0.0467
26798SOL    HW182711   8.136   2.129   2.248 -1.0283 -0.6486 -0.4972
26798SOL    HW282712   8.062   2.261   2.232  0.1635  0.1788  0.6498
26799SOL     OW82713  10.491   5.211   7.190  0.3855 -0.1398 -0.1450
26799SOL    HW182714  10.477   5.289   7.137  0.8832 -1.9681 -3.2093
26799SOL    HW282715  10.403   5.185   7.218 -0.1115 -0.0385 -1.5453
26800SOL     OW82716   1.567   6.120   9.960  0.0750 -0.1532  0.1951
26800SOL    HW182717   1.522   6.161  10.033 -0.0115  0.3802 -0.1476
26800SOL    HW282718   1.508   6.132   9.885  0.1653 -0.6799  0.0337
26801SOL     OW82719   0.125   9.419   2.388 -0.2703  0.3902  0.5540
26801SOL    HW182720   0.067   9.422   2.312 -0.0198  1.7590  0.3958
26801SOL    HW282721   0.213   9.411   2.350 -0.3341 -2.2386  0.8020
26802SOL     OW82722   5.879   0.082   8.600  0.2344 -0.5247  0.5180
26802SOL    HW182723   5.898   0.019   8.669  0.9447  0.5500  1.3219
26802SOL    HW282724   5.915   0.042   8.521 -0.1044 -1.5127  0.8499
26803SOL     OW82725   8.927   4.390   4.079 -0.1615  0.2118 -0.5508
26803SOL    HW182726   9.006   4.337   4.080 -0.5888 -0.4273 -0.0867
26803SOL    HW282727   8.950   4.466   4.025  1.0410  0.4746  0.2864
26804SOL     OW82728   8.161   9.969   9.609 -0.2782  0.1037  0.5643
26804SOL    HW182729   8.195   9.890   9.567 -1.6892 -0.2783  0.0983
26804SOL    HW282730   8.138   9.941   9.698 -0.4771  0.0626  0.5008
26805SOL     OW82731   2.836   4.754   7.648 -0.1870 -0.1796  0.4584
26805SOL    HW182732   2.760   4.770   7.593 -0.0820 -0.5479  0.1962
26805SOL    HW282733   2.802   4.706   7.724 -0.7951  2.6806  2.1217
26806SOL     OW82734   9.767   9.537   3.977 -0.3999  0.2055  0.0129
26806SOL    HW182735   9.716   9.466   4.014 -0.7362 -0.0355 -0.8992
26806SOL    HW282736   9.767   9.605   4.045 -1.9040  0.2014  0.0431
26807SOL     OW82737   8.833   3.366   7.513 -0.8787  0.3763 -0.3439
26807SOL    HW182738   8.915   3.323   7.491 -1.5589 -1.7596  1.0028
26807SOL    HW282739   8.768   3.326   7.456 -1.7328 -1.4457  1.7416
26808SOL     OW82740   7.188  10.264   5.056  0.1252  0.1785 -0.3911
26808SOL    HW182741   7.262  10.276   4.996  0.7323  1.0649  0.5006
26808SOL    HW282742   7.121  10.323   5.023 -0.4704 -1.0847 -1.5762
26809SOL     OW82743  10.300   0.049   3.043  0.2365 -0.3314 -0.5380
26809SOL    HW182744  10.379   0.023   2.996  0.2267 -0.6397 -0.3902
26809SOL    HW282745  10.228   0.019   2.988  0.1612  2.0549 -1.8733
26810SOL     OW82746   6.978   3.114   7.335 -0.1536 -0.3971 -0.2766
26810SOL    HW182747   6.965   3.138   7.427  0.6069  2.8953 -0.8740
26810SOL    HW282748   6.894   3.132   7.294  0.1096  0.2262 -0.5573
26811SOL     OW82749  10.138   4.246   1.611 -0.3810  0.0497 -0.3178
26811SOL    HW182750  10.200   4.271   1.543 -0.5859 -1.3700 -1.0523
26811SOL    HW282751  10.101   4.163   1.582 -0.0129 -0.9495  1.8288
26812SOL     OW82752   6.895   3.471   9.592  0.8697 -0.2324 -0.1568
26812SOL    HW182753   6.833   3.522   9.645  0.0491 -1.4091  0.0531
26812SOL    HW282754   6.841   3.406   9.548  1.7145 -0.0747 -1.4859
26813SOL     OW82755   1.148   4.881   5.134  0.2728 -0.6024 -0.4430
26813SOL    HW182756   1.053   4.873   5.125  0.3654 -0.6138 -1.5711
26813SOL    HW282757   1.160   4.927   5.217 -0.6590 -1.7438  0.3655
26814SOL     OW82758  10.267   2.312   5.227  0.2430 -0.1808 -0.0882
26814SOL    HW182759  10.301   2.233   5.185  1.1541  0.6345 -0.9268
26814SOL    HW282760  10.333   2.337   5.290  0.2054  0.2004 -0.1941
26815SOL     OW82761   6.674   6.724   0.172 -0.3208  0.0050 -0.2634
26815SOL    HW182762   6.734   6.787   0.134  0.0827 -0.9737 -1.3270
26815SOL    HW282763   6.684   6.735   0.267 -0.0767  1.3288 -0.4226
26816SOL     OW82764   4.470   3.890   1.274 -0.0549  0.6815 -0.4832
26816SOL    HW182765   4.516   3.944   1.210 -3.0664  0.9907 -2.5754
26816SOL    HW282766   4.380   3.886   1.242 -1.4496 -0.2511  3.1068
26817SOL     OW82767   4.702   7.768   1.209 -0.0593 -0.1015 -0.1987
26817SOL    HW182768   4.698   7.823   1.287  1.4262 -0.6481  0.2841
26817SOL    HW282769   4.630   7.800   1.154 -1.3537  0.0814  1.5008
26818SOL     OW82770   0.432  10.123   8.840 -0.0999  0.1905 -0.5382
26818SOL    HW182771   0.404  10.127   8.932  0.5255 -2.4825 -0.1417
26818SOL    HW282772   0.497  10.192   8.832  1.1229 -0.5988  1.5910
26819SOL     OW82773   6.391   2.096   5.180  0.1444 -0.5759 -0.0623
26819SOL    HW182774   6.314   2.103   5.123 -0.3655  0.2533  0.7072
26819SOL    HW282775   6.464   2.125   5.125 -0.4941  1.2300 -0.0159
26820SOL     OW82776   8.526   4.097   0.304 -0.0702 -0.0889 -0.1525
26820SOL    HW182777   8.457   4.160   0.324  0.1673  0.3006 -0.5456
26820SOL    HW282778   8.484   4.012   0.314 -0.0425  0.0637  1.7500
26821SOL     OW82779   8.327   9.416   1.720  0.6299  0.0077 -0.1646
26821SOL    HW182780   8.392   9.485   1.733  1.2285 -0.5002 -0.4309
26821SOL    HW282781   8.378   9.339   1.696  0.0737 -0.8523  1.2889
26822SOL     OW82782  10.545   7.083   4.119  0.5015 -0.2044  0.4206
26822SOL    HW182783  10.548   7.169   4.078 -1.2466  0.2108  1.0754
26822SOL    HW282784  10.562   7.021   4.047 -0.7061  0.5845 -0.5901
26823SOL     OW82785   4.818   4.225   2.529 -0.0742 -0.2408  0.0166
26823SOL    HW182786   4.909   4.220   2.498  0.5504  1.3053  1.4437
26823SOL    HW282787   4.776   4.287   2.469 -0.3878 -1.3689 -0.9829
26824SOL     OW82788   1.231   4.130   4.885 -0.3697  0.0882  0.1630
26824SOL    HW182789   1.304   4.183   4.918 -0.0321  0.7577 -1.5419
26824SOL    HW282790   1.235   4.050   4.937  1.3909  0.2392  0.3363
26825SOL     OW82791   0.593   9.961   8.648  0.2131  0.9941 -0.2977
26825SOL    HW182792   0.556  10.026   8.708  0.0142 -0.4577  1.1925
26825SOL    HW282793   0.566   9.877   8.683  1.7442  0.0146 -1.3491
26826SOL     OW82794   5.058   0.834   4.978 -0.2946 -0.5706  0.2125
26826SOL    HW182795   5.063   0.745   4.945  1.0141 -0.6596  0.6220
26826SOL    HW282796   5.147   0.855   5.006 -0.7716  0.5342  0.9800
26827SOL     OW82797   8.551  10.067   1.804 -0.0747  0.1605  0.7818
26827SOL    HW182798   8.496  10.142   1.826 -0.6907  0.6732 -2.1423
26827SOL    HW282799   8.571  10.027   1.889 -0.5048  3.0331  2.3880
26828SOL     OW82800   3.921   0.688   2.253  0.4509  0.1920  0.0150
26828SOL    HW182801   3.991   0.657   2.196 -0.4513 -0.7539 -0.6170
26828SOL    HW282802   3.840   0.666   2.207 -0.3700 -1.7935  2.1531
26829SOL     OW82803   8.070   8.532   1.808 -0.6284  0.7375 -0.2503
26829SOL    HW182804   8.120   8.605   1.845  0.3245  0.5719 -1.1716
26829SOL    HW282805   8.128   8.494   1.742 -1.8006  0.2423 -1.0258
26830SOL     OW82806   7.833   0.083   1.821  0.2553  0.3411 -0.8377
26830SOL    HW182807   7.904   0.147   1.826 -0.2438  0.8024  1.3508
26830SOL    HW282808   7.785   0.106   1.741 -0.1061  2.9370  0.0536
26831SOL     OW82809   0.531  10.258   0.726  0.3198 -0.0929  0.6421
26831SOL    HW182810   0.554  10.225   0.813  1.1554  1.0773  0.8944
26831SOL    HW282811   0.436  10.253   0.723  0.1683  1.1324  2.1839
26832SOL     OW82812   2.771   6.210   3.003 -0.5439 -0.1883  0.4205
26832SOL    HW182813   2.850   6.227   3.055 -0.6135  1.9222 -0.0603
26832SOL    HW282814   2.734   6.130   3.040  1.2835 -0.6740  1.2965
26833SOL     OW82815   8.913   8.019   7.863 -0.2188 -0.1476 -0.2165
26833SOL    HW182816   9.001   7.982   7.869  0.0476  0.1535 -1.8152
26833SOL    HW282817   8.927   8.112   7.847 -0.7699 -0.3362 -1.9913
26834SOL     OW82818   8.928   7.086   2.679  0.3754  0.1117  0.4100
26834SOL    HW182819   8.903   7.015   2.739 -2.2819  0.1282 -0.5241
26834SOL    HW282820   8.873   7.160   2.705  1.0222  0.9183 -0.4479
26835SOL     OW82821   6.046   8.720   3.255 -0.2051 -0.3836 -0.4218
26835SOL    HW182822   6.046   8.718   3.351 -0.4720  0.7324 -0.3845
26835SOL    HW282823   6.091   8.639   3.230 -0.2055 -0.7361  0.6392
26836SOL     OW82824   6.969   0.470   9.608  0.1431  0.4598  0.1700
26836SOL    HW182825   6.935   0.422   9.683 -1.8139  0.7463 -0.4858
26836SOL    HW282826   7.030   0.409   9.566  0.6132 -0.0068  1.4744
26837SOL     OW82827   6.737   0.726   4.691 -0.1230  0.6279 -0.1042
26837SOL    HW182828   6.737   0.654   4.627 -0.0122  1.9791 -1.6733
26837SOL    HW282829   6.713   0.803   4.640  0.9339  1.9287  1.3082
26838SOL     OW82830   3.676   1.025   4.006  0.0530  0.7328  0.2856
26838SOL    HW182831   3.754   0.970   4.001 -1.1144 -0.8742 -2.7358
26838SOL    HW282832   3.614   0.975   4.059  0.0207  0.4957  0.0286
26839SOL     OW82833   9.067   7.669   7.826 -0.0017 -0.1071  0.2829
26839SOL    HW182834   9.042   7.620   7.748  0.2241  0.5856 -0.2377
26839SOL    HW282835   9.141   7.722   7.798  0.0440  0.1916  0.9558
26840SOL     OW82836   1.145   5.862   3.378 -0.0532  0.0005 -0.0558
26840SOL    HW182837   1.234   5.897   3.368 -0.6881  1.6079 -0.2895
26840SOL    HW282838   1.141   5.835   3.470  0.3647  0.8606  0.2258
26841SOL     OW82839   3.480   6.218   0.124 -0.2821 -0.7259 -0.3076
26841SOL    HW182840   3.456   6.300   0.081  1.4862 -0.3186 -0.5940
26841SOL    HW282841   3.483   6.240   0.217  1.0123 -0.2180 -0.4540
26842SOL     OW82842   7.144   6.659   1.830 -0.0375  0.0590 -0.3016
26842SOL    HW182843   7.209   6.617   1.887  1.2706  2.3104 -0.0106
26842SOL    HW282844   7.060   6.645   1.874  0.4008 -1.6305  0.0821
26843SOL     OW82845   6.803   6.935   2.300  0.1979 -0.2131 -0.1478
26843SOL    HW182846   6.719   6.888   2.296 -1.2867  2.3395 -1.6320
26843SOL    HW282847   6.851   6.902   2.224 -1.1870  1.1222 -1.6977
26844SOL     OW82848   5.502   6.605   0.572  0.7027 -0.0750  0.2129
26844SOL    HW182849   5.576   6.647   0.526  0.5746 -0.5349 -0.4361
26844SOL    HW282850   5.425   6.655   0.544  0.7527  0.3565  0.8299
26845SOL     OW82851   5.463   4.961   2.322 -0.3155 -0.1732  0.6878
26845SOL    HW182852   5.387   5.019   2.327  0.7031  1.3291 -0.2425
26845SOL    HW282853   5.538   5.020   2.328  0.7776 -1.4422  0.0315
26846SOL     OW82854   7.433   4.132   8.076  0.2512  0.1821  0.3742
26846SOL    HW182855   7.354   4.174   8.111  0.0402  0.2972 -0.2413
26846SOL    HW282856   7.505   4.183   8.115  0.0437 -0.2575  1.3599
26847SOL     OW82857   3.221   8.854   6.601  0.5018 -0.0532  0.1535
26847SOL    HW182858   3.166   8.776   6.597  0.2757  0.1316 -0.4854
26847SOL    HW282859   3.294   8.830   6.659 -1.6868  0.6205  3.4889
26848SOL     OW82860   6.632   1.020   1.494  0.0186  0.1354 -0.0823
26848SOL    HW182861   6.539   1.024   1.518  0.1943 -2.7804  1.5893
26848SOL    HW282862   6.668   1.103   1.526 -1.7290  0.6682  0.6495
26849SOL     OW82863   4.271   7.330   5.544 -0.0762 -0.0858  0.1865
26849SOL    HW182864   4.280   7.253   5.487 -3.1529  0.4116 -1.1668
26849SOL    HW282865   4.177   7.344   5.550  0.3458  4.0018 -0.2016
26850SOL     OW82866   1.609   6.507   3.105 -0.4322 -0.0044  0.3301
26850SOL    HW182867   1.595   6.446   3.033 -0.1568 -2.1723  2.0017
26850SOL    HW282868   1.572   6.462   3.181 -0.3657  2.0208  1.6306
26851SOL     OW82869   3.495   6.635   6.502 -0.3301 -0.1795 -0.6393
26851SOL    HW182870   3.518   6.606   6.414 -0.3405 -0.3096 -0.5988
26851SOL    HW282871   3.473   6.728   6.491  0.1462 -0.0741 -0.6854
26852SOL     OW82872   5.688  10.004   6.422 -0.0008  0.0119  0.2631
26852SOL    HW182873   5.595   9.982   6.423  0.2230 -0.9484  0.6214
26852SOL    HW282874   5.700  10.054   6.341 -1.0803  1.3268  0.8702
26853SOL     OW82875   7.148   6.481  10.240 -0.0649  0.4691  0.5054
26853SOL    HW182876   7.199   6.562  10.246 -1.3183  1.2985  0.1955
26853SOL    HW282877   7.065   6.501  10.283 -0.5877 -0.4886 -0.0248
26854SOL     OW82878  10.171   0.991   9.753 -0.2521 -0.4355  0.1827
26854SOL    HW182879  10.160   0.965   9.661  0.1881 -2.6751  0.6872
26854SOL    HW282880  10.099   0.948   9.798 -1.0805  1.4989  0.7952
26855SOL     OW82881   0.774   5.334   7.312 -0.6337  0.4724 -0.8228
26855SOL    HW182882   0.845   5.276   7.338 -1.5425 -1.2415 -1.9671
26855SOL    HW282883   0.802   5.421   7.340  0.5109 -0.5686  1.5275
26856SOL     OW82884   0.059   8.923   9.562  0.3209  0.1571 -0.6347
26856SOL    HW182885   0.111   8.847   9.588 -0.4152 -0.0950  0.1666
26856SOL    HW282886  -0.008   8.930   9.630 -1.1726  0.0077 -2.0361
26857SOL     OW82887   6.483   1.597   1.264  0.1060  0.1643  0.1963
26857SOL    HW182888   6.414   1.664   1.260 -1.2382 -1.1100  0.9275
26857SOL    HW282889   6.530   1.606   1.181 -1.3860  0.6205 -0.6351
26858SOL     OW82890   6.235   6.301   8.823 -0.1831 -0.5719  0.2408
26858SOL    HW182891   6.284   6.222   8.846  0.3877 -0.7236 -1.3703
26858SOL    HW282892   6.146   6.283   8.853  0.1929 -1.3271  0.9624
26859SOL     OW82893   7.808   3.029   9.063 -0.2852 -0.1692  0.7764
26859SOL    HW182894   7.871   3.084   9.110 -1.4268  0.5827  1.4811
26859SOL    HW282895   7.772   2.972   9.131 -1.2289  0.2320  0.6208
26860SOL     OW82896   1.007   5.578   4.806  0.2023  0.3191 -0.3557
26860SOL    HW182897   0.959   5.527   4.871  0.4400  1.0921  0.4473
26860SOL    HW282898   1.070   5.516   4.769 -0.7316 -0.4401 -0.7182
26861SOL     OW82899   4.461   1.757   5.448 -0.1800 -0.3811 -0.5720
26861SOL    HW182900   4.414   1.790   5.524  0.8546  0.3605 -0.2314
26861SOL    HW282901   4.424   1.671   5.432 -1.6144  0.1549 -0.2943
26862SOL     OW82902   8.559  10.138   3.330 -0.4748  0.1586  0.2342
26862SOL    HW182903   8.467  10.157   3.316 -0.4345  0.1673 -0.0259
26862SOL    HW282904   8.587  10.094   3.250 -0.0901  0.7487  0.0342
26863SOL     OW82905  10.353   8.871   3.838 -0.1555  0.1231 -0.4005
26863SOL    HW182906  10.295   8.920   3.779  0.0370  0.2848 -0.4571
26863SOL    HW282907  10.419   8.833   3.781 -1.2100 -1.5442 -0.5647
26864SOL     OW82908   3.914   1.228   1.125 -0.7050 -0.1431 -0.0833
26864SOL    HW182909   3.900   1.183   1.208 -0.3301 -1.0109 -0.4778
26864SOL    HW282910   4.004   1.204   1.100 -1.4182 -1.3567 -1.6043
26865SOL     OW82911   5.085   5.247   5.300 -0.0793  0.3672  0.0283
26865SOL    HW182912   5.140   5.288   5.367  2.4161  1.6525 -2.5851
26865SOL    HW282913   5.129   5.164   5.281  0.8274  1.2178 -1.7958
26866SOL     OW82914   5.044   0.608   7.253  0.0028 -0.3994  0.2408
26866SOL    HW182915   5.071   0.516   7.259 -2.0930 -1.0461  0.7277
26866SOL    HW282916   5.079   0.649   7.332  2.1547 -0.3816 -0.6548
26867SOL     OW82917   0.713   8.652   0.634  0.5038  0.3181  0.5359
26867SOL    HW182918   0.630   8.649   0.585 -0.3259  0.1223  1.9004
26867SOL    HW282919   0.733   8.746   0.639  0.8842  0.3100 -0.6214
26868SOL     OW82920   8.639   8.475   2.525  0.1252  0.4421  0.4102
26868SOL    HW182921   8.725   8.478   2.482 -0.8809  0.6214 -1.7015
26868SOL    HW282922   8.618   8.382   2.530  1.1681  0.2436  2.6274
26869SOL     OW82923   2.786   4.165   1.523 -0.4373  0.0451 -0.2823
26869SOL    HW182924   2.780   4.074   1.550  0.6974  0.3956  1.3223
26869SOL    HW282925   2.696   4.198   1.527 -0.4711 -0.0494  2.9410
26870SOL     OW82926   2.361   2.285   6.235 -0.0423  0.0993 -0.3383
26870SOL    HW182927   2.378   2.326   6.320 -0.6624 -0.9503  0.3076
26870SOL    HW282928   2.280   2.235   6.248  0.5778 -1.1665 -1.1525
26871SOL     OW82929   8.785   1.471   8.750  0.7842  0.5633  0.6491
26871SOL    HW182930   8.730   1.422   8.688 -0.8922  0.7190  1.9238
26871SOL    HW282931   8.822   1.542   8.698 -1.9315  1.7064  0.0968
26872SOL     OW82932   9.619   8.958   0.598 -0.0092 -0.3136 -0.1380
26872SOL    HW182933   9.610   8.896   0.670  1.0633 -1.0857 -0.6405
26872SOL    HW282934   9.579   8.914   0.523  0.1053 -0.0953 -0.3290
26873SOL     OW82935   9.242   2.501   1.072 -0.4764 -0.1145 -0.0718
26873SOL    HW182936   9.254   2.539   0.984 -0.6794  2.0418  0.7573
26873SOL    HW282937   9.160   2.540   1.103  0.2082  0.1385  1.5278
26874SOL     OW82938   5.741   3.841   6.543 -0.3085  0.4096  0.3296
26874SOL    HW182939   5.729   3.791   6.623 -0.3810 -0.7917 -0.4081
26874SOL    HW282940   5.833   3.828   6.521 -0.1952  1.0492  0.4185
26875SOL     OW82941   0.140   1.875   4.464  0.1436 -0.1899 -0.5385
26875SOL    HW182942   0.227   1.836   4.465  0.2049 -0.0388  0.3738
26875SOL    HW282943   0.138   1.932   4.541 -0.8777 -0.4507 -0.3587
26876SOL     OW82944   2.840   9.793   6.594 -0.1172  0.0538  0.7963
26876SOL    HW182945   2.865   9.805   6.502 -1.7769 -0.4782  0.2490
26876SOL    HW282946   2.783   9.867   6.613 -2.1127 -1.3397  0.4927
26877SOL     OW82947   5.075   3.874   3.719 -0.1930 -0.0488 -0.2534
26877SOL    HW182948   5.076   3.803   3.784 -1.4744  0.3387  0.2118
26877SOL    HW282949   5.166   3.879   3.689  0.2829 -0.7259  0.9685
26878SOL     OW82950   3.209   9.933   4.458 -0.2795  0.3754 -1.2300
26878SOL    HW182951   3.250   9.885   4.530 -0.0043  1.0391 -0.9329
26878SOL    HW282952   3.128   9.968   4.496 -0.2943  0.4532 -1.3338
26879SOL     OW82953   3.384   3.372   9.374  0.0859  0.2925  0.1001
26879SOL    HW182954   3.324   3.362   9.448  2.0878  1.1880  1.9199
26879SOL    HW282955   3.345   3.442   9.321 -0.7514  0.5012  0.9654
26880SOL     OW82956   5.065   3.746   5.237  0.7857  0.1059 -0.0041
26880SOL    HW182957   5.084   3.818   5.176  0.5085  0.4251  0.2754
26880SOL    HW282958   5.135   3.751   5.302  0.3156  0.6504  0.4724
26881SOL     OW82959   8.599   5.387   7.491  0.0509  0.7984  0.3174
26881SOL    HW182960   8.659   5.352   7.556 -1.6777 -0.9019  1.1018
26881SOL    HW282961   8.613   5.331   7.414  0.0725  0.9602  0.2033
26882SOL     OW82962   7.639   7.645   3.677 -0.2519 -0.2395  0.0788
26882SOL    HW182963   7.589   7.710   3.726 -0.3985  0.7683 -1.3236
26882SOL    HW282964   7.727   7.683   3.670 -0.5906  0.3357 -1.5971
26883SOL     OW82965   4.584   0.675  10.464  0.3711 -0.5006  0.3800
26883SOL    HW182966   4.597   0.646  10.554  1.4959 -1.8798 -0.1947
26883SOL    HW282967   4.503   0.632  10.436 -0.5041  0.6987  1.0208
26884SOL     OW82968   8.854  10.181   5.464  0.4779  0.0639 -1.2566
26884SOL    HW182969   8.874  10.271   5.440  1.7693  0.7564  1.8415
26884SOL    HW282970   8.805  10.188   5.546 -1.8051 -2.0496 -2.3309
26885SOL     OW82971   6.559   7.248   7.351  0.4981  0.7839 -0.0599
26885SOL    HW182972   6.586   7.240   7.442  2.8281 -0.7786 -0.8101
26885SOL    HW282973   6.594   7.170   7.308 -1.0348  1.1865 -2.2049
26886SOL     OW82974   2.831   0.354   6.975 -0.3799  0.0318 -0.0649
26886SOL    HW182975   2.824   0.260   6.990 -1.3398  0.4952  2.9744
26886SOL    HW282976   2.923   0.374   6.993 -0.6228 -0.0650  1.4168
26887SOL     OW82977   8.296   6.808   9.014  0.3327 -0.6476 -0.0738
26887SOL    HW182978   8.257   6.731   9.055 -0.1638 -0.4471 -0.1740
26887SOL    HW282979   8.240   6.881   9.041  1.6412 -0.0711  1.2983
26888SOL     OW82980   3.740   0.021   1.904 -0.1662  0.3168  0.6956
26888SOL    HW182981   3.691  -0.035   1.845  1.0658  1.8365 -1.9338
26888SOL    HW282982   3.673   0.061   1.960 -1.3327 -1.4714  0.6470
26889SOL     OW82983   3.643   4.114   8.756  0.3321 -0.3618  0.4069
26889SOL    HW182984   3.608   4.189   8.707  2.7380  1.0987  0.7602
26889SOL    HW282985   3.733   4.107   8.726  0.2139 -3.1006  0.4991
26890SOL     OW82986   7.425   9.866   9.091  0.1172  0.5496 -0.7216
26890SOL    HW182987   7.487   9.938   9.087  1.3397 -0.4564 -0.5268
26890SOL    HW282988   7.411   9.842   8.999  1.9013 -0.7325 -0.7167
26891SOL     OW82989   9.325   5.533   0.963  0.0980 -0.5908  0.4847
26891SOL    HW182990   9.319   5.587   1.042  0.2611 -0.7164  0.5839
26891SOL    HW282991   9.241   5.544   0.920  0.5603  0.6953 -0.1197
26892SOL     OW82992   0.636   8.046   7.223 -0.1009  0.0905 -0.1866
26892SOL    HW182993   0.585   8.126   7.232  1.3951  0.9087  1.6883
26892SOL    HW282994   0.718   8.064   7.268  0.6420 -2.2171 -0.4618
26893SOL     OW82995   6.111   5.807   0.933  0.9172 -0.1684  0.4615
26893SOL    HW182996   6.159   5.825   1.014  0.1709  1.5944  0.5684
26893SOL    HW282997   6.104   5.893   0.890 -0.7742 -0.6386 -0.2945
26894SOL     OW82998  10.117  10.287  10.202  0.8252 -0.1207  0.4530
26894SOL    HW182999  10.115  10.192  10.187  0.7054 -0.1202  0.4647
26894SOL    HW283000  10.193  10.301  10.258  0.9201 -0.1940  0.3444
26895SOL     OW83001   8.567   8.878   2.565 -0.2750 -0.3550  0.3172
26895SOL    HW183002   8.507   8.824   2.514 -0.5391 -0.5179  0.7891
26895SOL    HW283003   8.616   8.815   2.618  2.6004 -0.5512 -2.3130
26896SOL     OW83004  10.512   0.856   9.962  0.7746  0.2404 -0.0633
26896SOL    HW183005  10.519   0.805  10.043 -0.1438  0.1018 -0.0662
26896SOL    HW283006  10.442   0.919   9.979 -0.1533 -0.4815 -1.1201
26897SOL     OW83007   9.402   9.586   5.647 -0.3098  0.1020  0.9314
26897SOL    HW183008   9.430   9.494   5.653 -1.5736 -0.2195  2.7995
26897SOL    HW283009   9.307   9.583   5.657 -0.5914  1.5063 -0.8217
26898SOL     OW83010   0.047   2.235   8.776  0.0002  0.5745 -0.3766
26898SOL    HW183011   0.101   2.156   8.781 -1.0416 -0.0623  1.7259
26898SOL    HW283012   0.108   2.307   8.789  0.5568 -0.0460  0.5204
26899SOL     OW83013   3.729   0.097   3.988 -0.2492 -0.1556 -0.6051
26899SOL    HW183014   3.805   0.096   4.045  1.0026 -1.8826 -2.1898
26899SOL    HW283015   3.694   0.008   3.993  0.2254 -0.5335 -2.8413
26900SOL     OW83016   7.558   8.437   1.287  0.2725 -0.5333  0.4652
26900SOL    HW183017   7.534   8.351   1.320  0.3738  0.0545  2.1659
26900SOL    HW283018   7.507   8.499   1.340  0.5805  0.4737 -0.3690
26901SOL     OW83019   7.153   6.379   3.268  0.1269  0.0442  0.0848
26901SOL    HW183020   7.199   6.356   3.188  0.2749  0.1044  0.1505
26901SOL    HW283021   7.101   6.456   3.245  0.8851  0.6284  0.2827
26902SOL     OW83022   2.884   0.447   1.764  0.2560 -0.1813 -0.0942
26902SOL    HW183023   2.947   0.406   1.823 -0.0174 -0.2839  0.1270
26902SOL    HW283024   2.802   0.447   1.813  0.4072  1.3155  0.2210
26903SOL     OW83025   9.586   0.590   4.327 -0.2992 -0.0607 -0.2616
26903SOL    HW183026   9.512   0.559   4.379  0.1698 -0.2207  0.3318
26903SOL    HW283027   9.568   0.683   4.314 -0.8522 -0.2093 -0.5537
26904SOL     OW83028   3.239   1.642   3.953 -0.1039 -0.2513 -0.3182
26904SOL    HW183029   3.235   1.706   4.024  1.0898 -0.5600  0.0474
26904SOL    HW283030   3.264   1.693   3.876 -0.1900 -0.1130 -0.2551
26905SOL     OW83031   7.779   7.902   3.868 -0.6838  0.2798  0.1445
26905SOL    HW183032   7.849   7.961   3.899 -0.7995 -0.2430  1.4619
26905SOL    HW283033   7.785   7.826   3.925 -1.5596 -0.3032 -0.5192
26906SOL     OW83034   2.228   6.885   4.547 -0.7321 -0.2190  0.4518
26906SOL    HW183035   2.221   6.883   4.643 -1.5603  1.6799  0.4716
26906SOL    HW283036   2.150   6.932   4.518 -0.6561 -1.0424 -1.2045
26907SOL     OW83037   7.193   6.820   1.254  0.0839 -0.4188 -0.6190
26907SOL    HW183038   7.194   6.909   1.287 -1.3525  0.0892 -1.8361
26907SOL    HW283039   7.208   6.829   1.159 -0.6580 -1.3989 -0.8507
26908SOL     OW83040   8.567   8.989   7.243 -0.1068  0.1540 -0.1830
26908SOL    HW183041   8.624   9.020   7.173 -0.5698 -2.4352 -1.8584
26908SOL    HW283042   8.484   9.034   7.227 -0.0621 -0.0440 -1.0206
26909SOL     OW83043   4.421   9.955   9.749  0.0118 -0.6070 -0.0996
26909SOL    HW183044   4.515   9.946   9.736  0.3655 -0.0976  1.8586
26909SOL    HW283045   4.401  10.044   9.719  0.4427 -0.1725  0.8609
26910SOL     OW83046   2.140   2.828   1.365 -0.1130  0.2198 -0.0713
26910SOL    HW183047   2.046   2.824   1.348 -0.0860 -0.4081 -0.0858
26910SOL    HW283048   2.148   2.815   1.459 -0.0264  0.0212 -0.1053
26911SOL     OW83049   1.305   5.696   6.588  0.2325  0.2929 -0.2128
26911SOL    HW183050   1.321   5.670   6.497 -1.3061  0.0705 -0.4450
26911SOL    HW283051   1.213   5.723   6.589  0.5731  1.4986  1.0111
26912SOL     OW83052   7.271   7.739   2.430 -0.0916 -0.5021 -0.5390
26912SOL    HW183053   7.258   7.833   2.432 -1.6036 -0.6917  0.7020
26912SOL    HW283054   7.316   7.719   2.512 -0.9076 -0.9694 -0.1852
26913SOL     OW83055   0.869   3.281  10.437 -0.6453 -0.0818 -0.1224
26913SOL    HW183056   0.784   3.245  10.412 -0.6344 -0.1119 -0.1163
26913SOL    HW283057   0.896   3.231  10.514 -0.8121  0.2062  0.1275
26914SOL     OW83058   8.023   1.382   2.768  0.1846 -0.1356 -0.3584
26914SOL    HW183059   7.949   1.335   2.731  0.0964 -0.5141  0.2807
26914SOL    HW283060   7.990   1.418   2.850  0.6434 -0.1251 -0.1736
26915SOL     OW83061   1.008   3.116   3.513  0.0641  0.1511  0.6696
26915SOL    HW183062   1.055   3.073   3.584 -2.8930 -2.2855  1.3986
26915SOL    HW283063   1.051   3.085   3.433  0.9945 -0.2575  1.3157
26916SOL     OW83064  10.539   5.645   0.118  0.0993 -0.1467  0.8461
26916SOL    HW183065  10.547   5.642   0.022  0.8955 -0.6861  0.9134
26916SOL    HW283066  10.470   5.582   0.138 -0.3621  0.2806  0.5950
26917SOL     OW83067   8.250   1.127   8.014  0.0647  0.4310  0.6103
26917SOL    HW183068   8.334   1.144   8.058  0.4968  0.5905 -0.2661
26917SOL    HW283069   8.247   1.032   8.006  0.4839  0.4636  0.0288
26918SOL     OW83070   1.329   0.256   2.374 -0.0628 -0.0384  0.5276
26918SOL    HW183071   1.278   0.333   2.350  1.3542  1.3105  1.6911
26918SOL    HW283072   1.380   0.283   2.450  0.2328 -2.2356  1.2011
26919SOL     OW83073   5.748   6.148   5.709 -0.3702  0.5253 -0.3842
26919SOL    HW183074   5.672   6.146   5.652  1.0547 -3.1482 -2.5308
26919SOL    HW283075   5.722   6.096   5.786 -0.9361  1.8834  0.3703
26920SOL     OW83076   6.649   8.528   8.928  0.7247  0.0320  0.2176
26920SOL    HW183077   6.570   8.569   8.965  0.7484 -0.0132  0.3175
26920SOL    HW283078   6.622   8.498   8.842  0.5381 -0.2916  0.3889
26921SOL     OW83079   3.500   0.873   4.164 -0.1670 -0.7178  0.0025
26921SOL    HW183080   3.488   0.889   4.258  0.7838  0.0362  0.0023
26921SOL    HW283081   3.442   0.799   4.146 -1.3764 -0.0357  0.9052
26922SOL     OW83082   9.271   2.814   8.317  0.0375 -0.5973 -0.4675
26922SOL    HW183083   9.213   2.777   8.250 -0.2045  1.8759 -1.7472
26922SOL    HW283084   9.230   2.897   8.340 -0.1680 -1.5746  3.2577
26923SOL     OW83085   1.269   0.682  10.438 -0.0840  0.5694  0.0164
26923SOL    HW183086   1.180   0.688  10.403 -0.6399  0.7034  1.4015
26923SOL    HW283087   1.285   0.588  10.445 -0.3803  0.5440  0.3898
26924SOL     OW83088   0.802   8.976   7.080  0.4376 -0.0490 -0.1628
26924SOL    HW183089   0.717   8.999   7.042  0.0651 -2.3137 -0.8268
26924SOL    HW283090   0.839   8.912   7.019  2.4236  0.4820  0.3844
26925SOL     OW83091   2.325   2.189   2.086  0.3586 -0.1536 -0.3383
26925SOL    HW183092   2.361   2.192   2.175 -0.7162  0.8993  0.0896
26925SOL    HW283093   2.271   2.268   2.080 -1.4413 -1.3731 -1.1226
26926SOL     OW83094   1.974   5.574   3.677  0.9695  0.1690 -0.2036
26926SOL    HW183095   1.943   5.493   3.637  4.3521 -0.9612 -0.8499
26926SOL    HW283096   2.069   5.564   3.681  1.3373  3.1645  1.8578
26927SOL     OW83097  10.088   1.576   7.221  0.3574 -0.2942  0.3353
26927SOL    HW183098   9.996   1.550   7.212  0.3029 -0.1784  0.5537
26927SOL    HW283099  10.130   1.500   7.261  0.2844 -0.2153  0.5682
26928SOL     OW83100   9.287   1.180   9.518 -0.4497 -0.0390 -0.5482
26928SOL    HW183101   9.227   1.224   9.579  0.5288  1.3408 -0.5561
26928SOL    HW283102   9.247   1.192   9.432  0.3351  1.8307 -0.6900
26929SOL     OW83103   1.784   6.253   6.733  0.2402 -0.1055 -0.0855
26929SOL    HW183104   1.816   6.320   6.793 -2.0659  0.7658  0.2885
26929SOL    HW283105   1.793   6.292   6.646 -1.8801  1.1538  0.1851
26930SOL     OW83106  10.209   7.850   8.483 -0.2513 -0.2031  0.4529
26930SOL    HW183107  10.304   7.849   8.473 -0.2250  2.3149 -0.5089
26930SOL    HW283108  10.193   7.815   8.571  1.9636  2.8688  2.3211
26931SOL     OW83109   3.172   1.773   1.651 -0.3335  0.4490  0.2510
26931SOL    HW183110   3.127   1.737   1.728  1.0722 -0.2028  0.8009
26931SOL    HW283111   3.212   1.854   1.683 -0.1562  0.4305  0.0756
26932SOL     OW83112   8.827  10.438   0.805 -0.5547 -0.0779 -0.3485
26932SOL    HW183113   8.840  10.419   0.898 -1.1874  0.7625 -0.0750
26932SOL    HW283114   8.733  10.457   0.797  0.0142  3.4505 -0.4323
26933SOL     OW83115   7.240   2.661   4.251 -0.0295  0.6271 -0.2649
26933SOL    HW183116   7.164   2.615   4.286  0.4769  0.3383  0.4981
26933SOL    HW283117   7.208   2.748   4.229 -0.3888  0.8277  0.9399
26934SOL     OW83118   8.279   7.041   0.719  0.0851 -0.0529 -0.0705
26934SOL    HW183119   8.211   7.052   0.653  0.5234 -0.0129 -0.5276
26934SOL    HW283120   8.356   7.014   0.669 -0.2205 -2.5785  0.7008
26935SOL     OW83121   4.298   3.935   6.376 -0.1235 -0.0964  0.0894
26935SOL    HW183122   4.387   3.901   6.378  0.6346  1.6694 -1.3070
26935SOL    HW283123   4.261   3.903   6.294 -0.3082  0.2974  0.0167
26936SOL     OW83124   4.540   4.875   6.626 -0.1915 -0.9648  0.0212
26936SOL    HW183125   4.530   4.954   6.678 -0.9854 -1.4202  0.5896
26936SOL    HW283126   4.584   4.903   6.546  0.1233 -0.0749  0.5030
26937SOL     OW83127   1.457   1.280   8.133  0.3521 -0.3216 -0.8686
26937SOL    HW183128   1.543   1.238   8.129  0.9454  0.6868  0.5331
26937SOL    HW283129   1.476   1.374   8.123 -0.2231  0.2157  2.1459
26938SOL     OW83130   0.629   3.066   2.156 -0.1009 -0.0135  0.0936
26938SOL    HW183131   0.624   3.141   2.097 -2.4742 -0.4920 -0.3814
26938SOL    HW283132   0.688   3.005   2.111  2.4527  1.7202  0.8130
26939SOL     OW83133   5.784   7.642   5.720  0.1163  0.0424 -0.1353
26939SOL    HW183134   5.879   7.627   5.722  0.1286  0.0848 -0.3892
26939SOL    HW283135   5.749   7.583   5.787  0.2843 -0.2608 -0.3144
26940SOL     OW83136   8.104   9.115   4.303 -0.1412 -0.1479 -0.2498
26940SOL    HW183137   8.026   9.103   4.249  0.8418 -0.5977 -1.5950
26940SOL    HW283138   8.070   9.153   4.385 -1.7227 -0.0490 -0.9148
26941SOL     OW83139   2.388   8.864   7.064 -0.2352  0.3384  0.9054
26941SOL    HW183140   2.404   8.800   7.133 -0.9248  1.0013  1.6935
26941SOL    HW283141   2.436   8.942   7.093 -0.7929  0.7228  0.7989
26942SOL     OW83142   5.076  10.338   5.368 -0.0818 -0.1741  0.2621
26942SOL    HW183143   5.105  10.410   5.312 -0.2806 -0.7603 -0.6071
26942SOL    HW283144   5.087  10.259   5.314 -1.1202 -0.6568  0.7366
26943SOL     OW83145   1.546   9.781   8.841  0.0245  0.1357 -0.2123
26943SOL    HW183146   1.567   9.781   8.747 -1.4460  0.6558 -0.5718
26943SOL    HW283147   1.474   9.844   8.849  0.2160  0.1873  1.2933
26944SOL     OW83148   2.517   6.029   1.999  0.3399  0.3987  0.1876
26944SOL    HW183149   2.439   5.985   1.964  0.3270  1.4046 -1.1246
26944SOL    HW283150   2.590   5.974   1.970  0.2515  0.6289 -0.4892
26945SOL     OW83151   8.376   6.774   0.382 -0.1424 -0.6369 -0.9363
26945SOL    HW183152   8.393   6.827   0.305  4.3910  0.9902  0.8282
26945SOL    HW283153   8.423   6.691   0.366  0.0058 -0.6744 -0.3644
26946SOL     OW83154   1.748   9.387   7.866 -0.0941 -0.2881  0.1649
26946SOL    HW183155   1.730   9.366   7.774 -2.7814 -0.8146  0.7275
26946SOL    HW283156   1.696   9.466   7.884 -0.0764 -0.5256  1.3697
26947SOL     OW83157   6.328   8.801   1.743 -0.1551 -0.1830  0.0950
26947SOL    HW183158   6.238   8.786   1.713  0.3245 -0.9722 -1.0106
26947SOL    HW283159   6.318   8.852   1.823 -1.6989 -2.0072  1.1563
26948SOL     OW83160   0.937   8.221   0.129  0.5094 -0.1287  0.3163
26948SOL    HW183161   0.941   8.189   0.219 -0.3242  0.5286  0.5982
26948SOL    HW283162   0.890   8.304   0.135 -0.6234 -0.6507 -0.8740
26949SOL     OW83163   2.532   3.061   7.032 -0.3931  0.4699 -0.2972
26949SOL    HW183164   2.584   3.101   7.103  0.4692  1.1709 -1.2846
26949SOL    HW283165   2.549   3.117   6.957 -3.4687  1.3583 -0.4278
26950SOL     OW83166   0.280   4.258   1.661  0.2190  0.0786 -0.2361
26950SOL    HW183167   0.254   4.312   1.736  1.7546 -0.2138  0.5508
26950SOL    HW283168   0.249   4.170   1.683  1.9329 -0.3081  0.7875
26951SOL     OW83169   4.278   6.816   2.383  0.2597  0.0543  0.2310
26951SOL    HW183170   4.314   6.807   2.294  0.9657  0.4437  0.4640
26951SOL    HW283171   4.353   6.844   2.435 -0.2979  0.4552  0.8270
26952SOL     OW83172   3.576   9.679   4.428  0.0795 -0.2208  0.2989
26952SOL    HW183173   3.554   9.598   4.475  1.8277 -0.4096  0.8953
26952SOL    HW283174   3.561   9.748   4.493  3.3971 -0.5574  1.6347
26953SOL     OW83175   3.923   9.537   3.331  0.6533 -0.3883 -0.3267
26953SOL    HW183176   3.890   9.619   3.294 -0.1929 -0.7698 -0.4373
26953SOL    HW283177   3.875   9.468   3.285  1.0307 -0.9406  0.0830
26954SOL     OW83178   9.159  10.252   6.798  0.1652  0.2137 -0.3653
26954SOL    HW183179   9.177  10.213   6.713  0.7412 -1.1223  0.3316
26954SOL    HW283180   9.205  10.195   6.860 -0.1794  1.2016  0.8287
26955SOL     OW83181   8.195   7.794   2.152  0.3859  0.1728 -0.9340
26955SOL    HW183182   8.223   7.821   2.065  1.5720  1.2288 -0.2591
26955SOL    HW283183   8.166   7.874   2.194  1.8351  0.0702  0.3524
26956SOL     OW83184   9.871   4.547   8.847 -0.8126  0.3052  0.6746
26956SOL    HW183185   9.779   4.533   8.829 -0.8897  1.4277  0.1042
26956SOL    HW283186   9.891   4.632   8.808  0.3942  0.2134  1.0307
26957SOL     OW83187   7.660   0.810   1.798 -0.2519  0.0710 -0.3355
26957SOL    HW183188   7.626   0.882   1.744 -1.0895 -0.1131 -0.0728
26957SOL    HW283189   7.644   0.838   1.888  1.1487  0.3790 -0.1657
26958SOL     OW83190   9.451   1.227   8.588  0.3002  0.1494 -0.0534
26958SOL    HW183191   9.382   1.173   8.627  1.3298  0.5063  2.4542
26958SOL    HW283192   9.531   1.176   8.597  0.6337  0.3551 -1.5698
26959SOL     OW83193   7.862   4.391   0.197  0.2076  1.0950  0.0628
26959SOL    HW183194   7.903   4.373   0.281  0.0756  1.9628  0.3333
26959SOL    HW283195   7.861   4.307   0.151 -1.1728  0.2288  1.5600
26960SOL     OW83196   8.128   5.313   3.801 -0.4402 -0.5330  0.1702
26960SOL    HW183197   8.041   5.284   3.825 -0.1707 -0.8904  0.7312
26960SOL    HW283198   8.125   5.408   3.810 -0.7077 -0.5622  0.3936
26961SOL     OW83199   0.307   7.139   5.539  0.0390 -0.3841  0.1991
26961SOL    HW183200   0.252   7.214   5.514  0.2136 -0.0919  0.6676
26961SOL    HW283201   0.359   7.172   5.612  0.2134 -0.9289  0.3214
26962SOL     OW83202   4.892   9.821   6.060  0.3934 -0.2022 -0.2637
26962SOL    HW183203   4.915   9.880   5.988 -0.2196 -0.4914 -0.7051
26962SOL    HW283204   4.880   9.880   6.135 -0.2894  0.2589 -0.7192
26963SOL     OW83205   9.875   0.447   3.113 -0.7241  0.4922 -0.7540
26963SOL    HW183206   9.787   0.467   3.143 -0.9097 -0.6594 -0.4709
26963SOL    HW283207   9.872   0.462   3.019 -1.4570 -0.2541 -0.8677
26964SOL     OW83208   6.203  10.421   8.095  0.0467  0.1046 -0.8349
26964SOL    HW183209   6.168  10.508   8.113 -1.2285 -0.4332 -0.5545
26964SOL    HW283210   6.297  10.434   8.086  0.1875  1.1554  1.5114
26965SOL     OW83211   0.631   1.953   8.710  0.1799 -0.4528 -0.4003
26965SOL    HW183212   0.711   1.901   8.705  1.4486  1.2790  0.6322
26965SOL    HW283213   0.573   1.903   8.768  1.3125 -0.7925  0.4764
26966SOL     OW83214   2.786   8.894   3.976 -0.3451  0.0378 -0.4107
26966SOL    HW183215   2.801   8.983   4.006 -0.0428 -0.2745  0.4108
26966SOL    HW283216   2.851   8.880   3.907 -0.1450  0.3296 -0.2811
26967SOL     OW83217   9.090   6.391   3.589 -0.1788  0.2407  0.8123
26967SOL    HW183218   9.116   6.320   3.530 -0.8691 -1.7005  2.7282
26967SOL    HW283219   9.173   6.428   3.619  0.1848  0.6763 -0.6098
26968SOL     OW83220   8.894   3.405   5.840 -0.4370 -0.3334  0.3151
26968SOL    HW183221   8.808   3.445   5.830 -0.6321 -0.5677  1.0118
26968SOL    HW283222   8.875   3.314   5.864  0.0065 -0.5269 -0.0394
26969SOL     OW83223   8.405   3.034   6.449 -0.3301 -0.1306  0.0709
26969SOL    HW183224   8.425   3.126   6.435 -0.7688  0.1907  1.4708
26969SOL    HW283225   8.451   3.011   6.530 -1.0234 -0.8836  0.2635
26970SOL     OW83226   1.088   7.945   1.087  0.3105  0.0366 -0.1576
26970SOL    HW183227   1.112   8.028   1.128  1.4353  0.1150 -0.9676
26970SOL    HW283228   1.094   7.961   0.993  0.6405 -0.9892 -0.3220
26971SOL     OW83229   0.277   3.882   1.947 -0.1617 -0.3384 -0.0999
26971SOL    HW183230   0.296   3.842   2.032  2.8566  0.6873 -0.1717
26971SOL    HW283231   0.287   3.976   1.962 -1.1763 -0.0217 -1.2553
26972SOL     OW83232   8.920   9.556   0.629  0.1893  0.2063 -0.1492
26972SOL    HW183233   8.948   9.635   0.582 -0.4837 -1.1887 -3.1841
26972SOL    HW283234   8.990   9.493   0.613  0.3094 -0.0925  1.4836
26973SOL     OW83235   0.167   5.393   8.795 -0.2298 -0.1773 -0.1881
26973SOL    HW183236   0.249   5.392   8.746  0.6075  2.2293  1.0279
26973SOL    HW283237   0.194   5.397   8.887 -1.7364 -0.7150  0.3090
26974SOL     OW83238   6.273   5.973   3.259 -0.1619 -0.2382  0.2675
26974SOL    HW183239   6.210   6.013   3.199 -2.5719 -2.0869  1.3906
26974SOL    HW283240   6.326   5.915   3.204 -0.1380  0.5432 -0.5454
26975SOL     OW83241   2.527   9.549   9.206 -0.3953 -0.5434  0.6723
26975SOL    HW183242   2.463   9.549   9.277 -1.8157 -0.4784 -0.5512
26975SOL    HW283243   2.578   9.629   9.219 -1.3975  0.0648  0.9645
26976SOL     OW83244   9.346   4.478   2.598 -0.3102 -0.5215 -0.3942
26976SOL    HW183245   9.417   4.415   2.613 -0.8830 -1.0541  0.1690
26976SOL    HW283246   9.336   4.481   2.503  1.4617  0.7030 -0.5946
26977SOL     OW83247   3.952   4.302   2.115  0.2567 -0.5095  0.6226
26977SOL    HW183248   3.906   4.362   2.172 -0.5560 -1.3971  0.9321
26977SOL    HW283249   4.016   4.258   2.172  0.9994  0.2006  0.3511
26978SOL     OW83250   4.533   9.016  10.297 -0.6407  0.1209 -0.1348
26978SOL    HW183251   4.576   9.046  10.217 -2.4708 -0.0515 -1.2318
26978SOL    HW283252   4.513   9.095  10.346 -0.8888  0.3419 -0.5905
26979SOL     OW83253   7.770  10.081   6.225  0.3716  0.2566  0.5892
26979SOL    HW183254   7.715  10.146   6.183 -1.1730 -0.1404  1.9078
26979SOL    HW283255   7.761  10.003   6.171  2.4531  1.1388 -1.1576
26980SOL     OW83256   5.827   5.079   0.338  0.0593 -0.6150  0.9546
26980SOL    HW183257   5.777   5.160   0.342 -0.6118 -1.0368  1.2678
26980SOL    HW283258   5.846   5.067   0.245  0.4393  0.0577  0.9356
26981SOL     OW83259   9.329   1.667   3.905 -0.1417  0.1978 -0.3951
26981SOL    HW183260   9.258   1.729   3.921 -0.2897 -0.0356 -0.1394
26981SOL    HW283261   9.409   1.718   3.916 -0.2647  0.6652 -1.4695
26982SOL     OW83262   6.030   3.105   8.403  0.0183  0.4714 -0.4886
26982SOL    HW183263   6.074   3.083   8.321  0.5936 -0.2897  0.0143
26982SOL    HW283264   6.040   3.200   8.410  3.4314  0.1791  0.5857
26983SOL     OW83265   2.066   4.102   7.194  0.3228 -0.4622 -0.5138
26983SOL    HW183266   2.084   4.110   7.288  0.9158 -3.1935 -0.3089
26983SOL    HW283267   2.093   4.186   7.157  1.8095  0.0316  1.5103
26984SOL     OW83268   4.606   0.301   8.924  0.0658 -0.2104  0.7170
26984SOL    HW183269   4.608   0.389   8.884 -1.0297 -0.4206  0.1307
26984SOL    HW283270   4.610   0.317   9.018 -0.1628  0.4835  0.6171
26985SOL     OW83271   3.321   9.181   5.712  0.7987  0.2046 -0.4630
26985SOL    HW183272   3.320   9.270   5.677  0.1616  0.3301 -0.1443
26985SOL    HW283273   3.362   9.190   5.798 -2.0856  0.7692  0.9739
26986SOL     OW83274   4.117  10.561   5.054  0.4203 -0.2220  0.2151
26986SOL    HW183275   4.108  10.500   4.981 -1.3347 -0.4655  0.5804
26986SOL    HW283276   4.124  10.505   5.132 -0.2181  0.0239  0.4583
26987SOL     OW83277   7.575   5.004   5.654 -0.1946 -0.0319  0.0810
26987SOL    HW183278   7.569   4.909   5.666 -1.8226  0.2714  2.4634
26987SOL    HW283279   7.507   5.025   5.590  0.6711 -0.5122 -1.0272
26988SOL     OW83280   1.030   7.047   1.004  0.3750 -0.0496  0.9393
26988SOL    HW183281   0.986   6.990   1.066 -1.7659 -0.2073 -0.6226
26988SOL    HW283282   0.997   7.135   1.024  2.6582  0.5480  2.4789
26989SOL     OW83283   1.104   5.342   9.795  0.0644 -0.1314  0.1900
26989SOL    HW183284   1.163   5.409   9.829  1.6704 -2.3463  2.0870
26989SOL    HW283285   1.018   5.367   9.829  0.7014  0.7435  1.2342
26990SOL     OW83286   7.163   3.037   5.521  0.1469  0.1121 -0.5540
26990SOL    HW183287   7.109   3.009   5.447  0.0521 -0.9643 -0.1005
26990SOL    HW283288   7.253   3.021   5.492  0.0496 -2.4874  0.3451
26991SOL     OW83289   7.697   2.290   4.519 -0.4360  0.8034  0.5868
26991SOL    HW183290   7.616   2.274   4.470 -1.6251  1.0633  2.3532
26991SOL    HW283291   7.736   2.366   4.478 -0.8742  0.4349 -0.5489
26992SOL     OW83292   1.855   1.314   8.278  0.5308  0.4399 -0.1865
26992SOL    HW183293   1.792   1.386   8.281  0.8152  0.6514  1.2246
26992SOL    HW283294   1.803   1.239   8.249 -0.6663  0.3664  1.9015
26993SOL     OW83295   6.189   3.713   8.315 -0.1116  0.1257 -0.4345
26993SOL    HW183296   6.131   3.786   8.293  1.9410  2.2163  0.7263
26993SOL    HW283297   6.277   3.744   8.294  0.9025 -1.8150  0.6238
26994SOL     OW83298   7.432   3.183   0.364  0.8772  0.0721  0.2541
26994SOL    HW183299   7.391   3.112   0.314  0.4856  0.0842  0.5503
26994SOL    HW283300   7.436   3.151   0.454  1.7228 -0.0076  0.1889
26995SOL     OW83301   7.606   2.205   8.704 -0.1853 -0.4591  0.3285
26995SOL    HW183302   7.606   2.249   8.618  0.0495  1.3636  1.1982
26995SOL    HW283303   7.521   2.226   8.741  1.1797  2.3918  2.1907
26996SOL     OW83304   8.798   8.137   0.957  0.1895  0.2124  0.3645
26996SOL    HW183305   8.787   8.229   0.934  2.1872  0.4585  0.2244
26996SOL    HW283306   8.755   8.089   0.887 -0.9973  1.0046  0.5090
26997SOL     OW83307   5.481   9.229   5.210 -0.9327  0.1627  0.4950
26997SOL    HW183308   5.487   9.323   5.197  3.3837 -0.2024 -1.9892
26997SOL    HW283309   5.529   9.213   5.292  0.6581  0.0479 -0.4087
26998SOL     OW83310  10.467   1.481   7.738  0.1206  0.6998 -0.2087
26998SOL    HW183311  10.417   1.525   7.807 -1.4036  0.0872 -0.8679
26998SOL    HW283312  10.548   1.530   7.731  0.8183  0.1478  2.7688
26999SOL     OW83313   5.355   3.964   2.449 -0.2119 -0.0667  0.5565
26999SOL    HW183314   5.312   3.929   2.527 -0.5457 -1.4352 -0.1945
26999SOL    HW283315   5.444   3.928   2.452  1.0187  2.8023  2.1343
27000SOL     OW83316   5.091   0.255   5.746  0.4492 -0.2899  0.8762
27000SOL    HW183317   5.009   0.252   5.795 -0.0887 -1.7126 -0.0553
27000SOL    HW283318   5.092   0.342   5.706 -0.8699 -0.4228  0.4993
27001SOL     OW83319   1.033   9.007   7.228 -0.3472 -0.2507 -0.1347
27001SOL    HW183320   1.036   8.919   7.266  0.1721 -0.0068  0.4063
27001SOL    HW283321   0.948   9.011   7.184 -0.1920 -1.1723 -0.5404
27002SOL     OW83322   1.396   2.314   9.359 -0.7320  0.1920 -0.1293
27002SOL    HW183323   1.483   2.289   9.391  0.9547  3.4626 -1.6986
27002SOL    HW283324   1.350   2.344   9.438 -0.5666 -1.6878  0.7418
27003SOL     OW83325   3.572   5.365   0.876  0.3103 -0.1223  0.1284
27003SOL    HW183326   3.516   5.422   0.823 -0.3614  1.4675  2.4193
27003SOL    HW283327   3.647   5.346   0.818 -0.4173  1.4191 -1.4232
27004SOL     OW83328   9.727   2.279   5.542  0.1135  0.3355  0.1803
27004SOL    HW183329   9.634   2.284   5.522  0.1669 -1.2088 -0.7041
27004SOL    HW283330   9.732   2.231   5.625  0.1162  0.3298  0.1769
27005SOL     OW83331   2.732   8.885   1.728 -0.2559 -0.5020  0.7960
27005SOL    HW183332   2.654   8.851   1.770 -0.0694 -0.8831  0.8459
27005SOL    HW283333   2.743   8.973   1.763 -1.2962 -0.0080 -0.0581
27006SOL     OW83334   5.653  10.118   0.910  0.2609  0.2793 -0.2678
27006SOL    HW183335   5.671  10.078   0.825  0.9190  0.2249 -0.1116
27006SOL    HW283336   5.605  10.051   0.958 -1.7245  0.9543 -1.1971
27007SOL     OW83337   0.804   3.557   2.894  0.8772 -0.4133  0.1140
27007SOL    HW183338   0.835   3.493   2.830 -0.1114 -2.6857  1.7645
27007SOL    HW283339   0.710   3.539   2.902  0.6561  0.9842  0.9470
27008SOL     OW83340   2.728   6.966   0.883 -0.2632  0.1571  0.0626
27008SOL    HW183341   2.712   7.042   0.826 -0.0561  0.8368  0.8786
27008SOL    HW283342   2.654   6.908   0.868 -1.0750  1.0955  0.3145
27009SOL     OW83343   3.488   3.272   4.624  0.1295 -0.0476 -0.3677
27009SOL    HW183344   3.487   3.349   4.568  0.7556 -0.4265 -0.9059
27009SOL    HW283345   3.565   3.283   4.679 -1.2600  1.0646  1.5117
27010SOL     OW83346   3.780   4.931   6.370  0.1426 -0.6706  0.2667
27010SOL    HW183347   3.757   4.956   6.280 -2.5732 -1.5850  0.6067
27010SOL    HW283348   3.764   4.836   6.372  0.5908 -0.7318  1.5973
27011SOL     OW83349   6.613   2.865   2.940  0.5172 -0.2324 -0.2587
27011SOL    HW183350   6.677   2.936   2.931  0.1914  0.2821  1.1912
27011SOL    HW283351   6.608   2.827   2.853  0.0443  2.1075 -1.3451
27012SOL     OW83352   5.616   8.480   3.596 -0.6728  0.4249  0.0462
27012SOL    HW183353   5.616   8.574   3.581 -0.8310  0.7315  1.7893
27012SOL    HW283354   5.622   8.442   3.508  1.8029  2.0576 -0.6026
27013SOL     OW83355   0.939   0.290   7.337 -0.4963 -0.3103 -0.2161
27013SOL    HW183356   0.905   0.337   7.413 -1.5664 -0.3714 -0.6421
27013SOL    HW283357   1.027   0.326   7.323 -0.2595 -0.3537  1.0846
27014SOL     OW83358   0.517   6.749   5.290  0.8767  0.0254  0.1290
27014SOL    HW183359   0.555   6.661   5.297  1.4155  0.1946 -0.6061
27014SOL    HW283360   0.434   6.743   5.339  0.5913 -1.0677 -0.4525
27015SOL     OW83361   0.240   8.222   7.121  0.3257  0.4459  0.4214
27015SOL    HW183362   0.219   8.233   7.029  1.2951  0.5114  0.2015
27015SOL    HW283363   0.195   8.141   7.146 -0.3524  0.6941  0.0289
27016SOL     OW83364   2.260   1.398   3.260 -0.6735  0.7036 -0.5695
27016SOL    HW183365   2.327   1.459   3.229 -1.0567  0.4415 -1.9869
27016SOL    HW283366   2.224   1.441   3.338  1.5137  0.5531  0.5914
27017SOL     OW83367   4.359   0.645   5.454 -0.3003 -0.3408 -0.4170
27017SOL    HW183368   4.381   0.662   5.545 -2.0046 -0.3883  0.0250
27017SOL    HW283369   4.311   0.562   5.455 -0.9043 -0.0172 -1.2554
27018SOL     OW83370   0.974   8.409   6.401  0.1662 -0.2623  0.2408
27018SOL    HW183371   1.063   8.426   6.430  0.0343  1.8864 -0.4499
27018SOL    HW283372   0.920   8.472   6.448 -0.5202  0.7582 -1.8048
27019SOL     OW83373   0.738   3.971   8.716  0.4688 -0.1588  0.1874
27019SOL    HW183374   0.753   3.932   8.802 -0.0849 -0.8977 -0.0422
27019SOL    HW283375   0.803   4.040   8.709  1.4864 -1.0477  0.6118
27020SOL     OW83376   1.242   8.776  10.484  0.0733  0.5304  0.5167
27020SOL    HW183377   1.165   8.771  10.428  0.8258  0.0208 -0.5166
27020SOL    HW283378   1.228   8.708  10.550 -0.1041  0.0351 -0.0179
27021SOL     OW83379   9.748   8.642   7.454 -0.0103  0.3586  0.0235
27021SOL    HW183380   9.690   8.596   7.515 -1.2461  1.1952 -0.4551
27021SOL    HW283381   9.739   8.594   7.372  0.2249  0.2955  0.0360
27022SOL     OW83382   6.195   5.598   2.987  0.2061  0.5913  0.2489
27022SOL    HW183383   6.141   5.543   2.931 -0.5128  1.6847 -0.1486
27022SOL    HW283384   6.134   5.637   3.050  0.9367 -0.2719  1.5392
27023SOL     OW83385   8.560   2.037   1.613 -0.1203 -0.0643  0.3811
27023SOL    HW183386   8.470   2.024   1.583 -0.7063  0.7374  1.6733
27023SOL    HW283387   8.555   2.115   1.668  1.2293 -0.4215  1.0516
27024SOL     OW83388   4.893   4.790   7.686  0.3739 -0.2313 -0.1234
27024SOL    HW183389   4.870   4.721   7.750  0.2487  1.0181  1.2359
27024SOL    HW283390   4.824   4.784   7.620 -0.1580 -0.8176  0.4613
27025SOL     OW83391   2.876   6.367   6.280  0.1946  0.7866 -0.5390
27025SOL    HW183392   2.870   6.454   6.239  0.5634  0.1840 -1.9307
27025SOL    HW283393   2.967   6.360   6.309  0.0687  1.0034 -0.0801
27026SOL     OW83394   0.311   8.566   3.472  0.0569  0.3170 -0.4241
27026SOL    HW183395   0.342   8.590   3.559  1.9201 -0.4582 -0.8333
27026SOL    HW283396   0.375   8.603   3.412  1.3189 -2.8271 -1.2232
27027SOL     OW83397   7.589   7.868   3.330  0.0860 -0.0736  0.5011
27027SOL    HW183398   7.566   7.951   3.373  0.2930 -0.1114  0.6878
27027SOL    HW283399   7.684   7.869   3.327  0.0547  0.5188 -1.1214
27028SOL     OW83400  10.246   9.278   1.984 -0.1352  0.2289 -0.3036
27028SOL    HW183401  10.304   9.353   1.999 -1.3386  1.2101 -0.2900
27028SOL    HW283402  10.192   9.305   1.909 -1.1384 -0.2630  0.2198
27029SOL     OW83403   8.841   4.174   7.198  0.4536  0.3765 -0.6136
27029SOL    HW183404   8.903   4.105   7.176  0.1165  0.4334 -1.8048
27029SOL    HW283405   8.895   4.253   7.206  0.7164  0.1563 -0.1901
27030SOL     OW83406   6.521   7.050  10.076 -0.1740 -0.6793  0.2395
27030SOL    HW183407   6.609   7.077  10.100 -0.2768  0.0353 -0.1792
27030SOL    HW283408   6.483   7.018  10.158  0.3744 -0.7415  0.4760
27031SOL     OW83409  10.592   7.987   2.487 -0.0501 -0.4973 -0.0627
27031SOL    HW183410  10.626   7.972   2.575  1.3632  0.6054 -0.3731
27031SOL    HW283411  10.508   8.031   2.500  0.0847 -0.4580  0.7345
27032SOL     OW83412   8.259   5.693   0.382  0.6392  0.1843 -0.0092
27032SOL    HW183413   8.245   5.773   0.332  0.4212  1.2250  1.6411
27032SOL    HW283414   8.334   5.712   0.439  1.6721 -1.3906 -0.7377
27033SOL     OW83415   6.100   2.648   4.718  0.3347 -0.0614 -0.1627
27033SOL    HW183416   6.191   2.676   4.702  0.1932  1.0108  0.7803
27033SOL    HW283417   6.105   2.589   4.793  0.2478  0.0839 -0.0413
27034SOL     OW83418   9.770   2.435   2.350  0.2479 -0.3214  0.0395
27034SOL    HW183419   9.800   2.353   2.390  0.0914 -1.2198 -1.5941
27034SOL    HW283420   9.850   2.478   2.320  0.4826  0.9372  2.2564
27035SOL     OW83421   2.041   3.288   9.311 -0.1810 -0.3170 -0.5423
27035SOL    HW183422   2.065   3.341   9.235  1.2646  0.5664  0.4893
27035SOL    HW283423   2.074   3.201   9.290  0.2490 -0.0723 -0.9134
27036SOL     OW83424   9.881   2.389   0.527 -0.6125 -0.3585  0.1754
27036SOL    HW183425   9.817   2.323   0.499 -0.6629  0.6901 -2.4985
27036SOL    HW283426   9.828   2.456   0.571 -1.1489 -0.2593 -0.5975
27037SOL     OW83427   5.506   9.687   1.709  0.1320  0.2825  0.1381
27037SOL    HW183428   5.481   9.617   1.648  1.2710 -0.3023  0.2998
27037SOL    HW283429   5.549   9.753   1.654 -2.2534  1.6092 -0.2449
27038SOL     OW83430   1.676   7.879   2.397  0.0111  0.2205 -0.0876
27038SOL    HW183431   1.711   7.876   2.486  1.3932 -0.7180 -0.6215
27038SOL    HW283432   1.683   7.971   2.372 -1.8669  0.7989  1.2846
27039SOL     OW83433   0.343   4.016   7.525  0.0948  0.0647  0.3897
27039SOL    HW183434   0.283   3.953   7.485  0.6242 -1.4686  1.9011
27039SOL    HW283435   0.295   4.098   7.524 -2.2206 -1.1586  1.8131
27040SOL     OW83436   9.557   5.986   3.004  0.1080 -0.0498 -0.2743
27040SOL    HW183437   9.467   5.977   3.035 -0.4839 -1.5595 -2.2344
27040SOL    HW283438   9.552   6.054   2.936  1.1568  2.3124  1.8134
27041SOL     OW83439   0.220   2.865  10.136  0.1594 -0.1028  0.2007
27041SOL    HW183440   0.134   2.873  10.095  1.0601 -0.2523 -1.8704
27041SOL    HW283441   0.208   2.898  10.225 -2.3704 -1.5344  0.4742
27042SOL     OW83442   1.932   2.994   8.645  1.0018  0.0883  0.2820
27042SOL    HW183443   1.884   2.926   8.693  1.6086 -1.1777 -0.8376
27042SOL    HW283444   2.018   2.956   8.630  1.3697  1.1316 -0.3462
27043SOL     OW83445   9.266   7.392   1.026 -0.2513  0.1942 -0.7850
27043SOL    HW183446   9.215   7.350   0.957 -1.8534  1.4196 -0.4133
27043SOL    HW283447   9.231   7.356   1.108 -1.3638  1.8624 -0.4783
27044SOL     OW83448   7.062   0.937  10.383 -0.3762  0.3859 -0.0589
27044SOL    HW183449   6.995   1.001  10.409 -1.0049 -0.3968  0.2784
27044SOL    HW283450   7.030   0.900  10.301  0.1242  0.6851 -0.3961
27045SOL     OW83451   9.416   8.447   5.115  0.1901 -0.8333 -0.4618
27045SOL    HW183452   9.404   8.383   5.045 -2.0487 -0.4267 -0.5298
27045SOL    HW283453   9.365   8.413   5.188  0.5133 -0.0632  0.1351
27046SOL     OW83454   4.628   9.942   4.860  0.4575  0.0210 -0.6008
27046SOL    HW183455   4.644  10.015   4.800  4.4201  0.9792  1.2700
27046SOL    HW283456   4.611   9.984   4.945  2.2441 -1.1390  0.3972
27047SOL     OW83457   2.288   5.541   0.515  0.1533  0.7556  0.2436
27047SOL    HW183458   2.209   5.588   0.544  0.4201  0.7470  1.0071
27047SOL    HW283459   2.275   5.528   0.421 -1.4889 -0.5890  0.5934
27048SOL     OW83460   2.891   9.464  10.482 -0.2733  0.4424  0.1255
27048SOL    HW183461   2.870   9.402  10.552  0.0380  0.2884  0.0824
27048SOL    HW283462   2.854   9.548  10.513 -0.9824  0.1723  0.0309
27049SOL     OW83463   6.522   6.059   7.715  0.5137  0.6799  0.2810
27049SOL    HW183464   6.609   6.021   7.704  0.1025  0.1971 -1.7663
27049SOL    HW283465   6.528   6.145   7.674  0.6498  1.7133  2.3374
27050SOL     OW83466  10.295   4.595   9.831 -0.3546  0.1324  0.0652
27050SOL    HW183467  10.275   4.659   9.899 -0.5804 -0.1481  0.2686
27050SOL    HW283468  10.389   4.582   9.837 -0.5305 -0.7961  1.1507
27051SOL     OW83469   7.961   0.074   3.231  0.3158 -0.0626  0.3284
27051SOL    HW183470   7.917   0.100   3.150  0.1193  0.8264  0.7048
27051SOL    HW283471   8.052   0.060   3.205  0.5158  1.4129  0.1600
27052SOL     OW83472   3.230   8.988   3.890  0.7515 -0.0068 -0.5346
27052SOL    HW183473   3.286   8.917   3.859  1.2060  0.1437 -0.0811
27052SOL    HW283474   3.291   9.055   3.920  0.3324  0.1218  0.0508
27053SOL     OW83475   5.871   9.167   5.730 -0.2663 -0.0860 -0.2797
27053SOL    HW183476   5.887   9.110   5.656 -1.1403 -2.2196  1.0922
27053SOL    HW283477   5.776   9.175   5.735 -0.1955  0.5654  0.2400
27054SOL     OW83478   5.148   8.561   5.217  0.4823  0.5273 -0.7232
27054SOL    HW183479   5.058   8.549   5.187  0.6957  0.5817 -1.3939
27054SOL    HW283480   5.139   8.596   5.306 -0.1806  2.0886 -1.3680
27055SOL     OW83481   1.676   9.372   7.232  0.0560  0.2963  0.0922
27055SOL    HW183482   1.750   9.393   7.289  2.8543 -2.1935 -2.2852
27055SOL    HW283483   1.670   9.447   7.172 -0.2024  1.0669  1.0594
27056SOL     OW83484   2.900   4.576   6.303 -0.3173 -0.4480  0.6078
27056SOL    HW183485   2.852   4.503   6.342 -1.2028  0.6766  1.7059
27056SOL    HW283486   2.872   4.577   6.212 -1.3621 -0.6426  0.9066
27057SOL     OW83487   0.764   1.751  10.219 -0.6736  0.1914  0.3905
27057SOL    HW183488   0.738   1.816  10.153 -1.4068 -1.5055 -1.0731
27057SOL    HW283489   0.846   1.715  10.187 -1.6729 -1.5532 -0.3377
27058SOL     OW83490   0.741   7.261   3.270  0.0344 -0.1593  0.3859
27058SOL    HW183491   0.714   7.345   3.307  1.1536 -0.2140  1.3962
27058SOL    HW283492   0.679   7.198   3.307 -1.6819  0.3569 -1.4704
27059SOL     OW83493   4.144   2.446   5.121 -0.8822 -0.4231 -0.5082
27059SOL    HW183494   4.191   2.516   5.077  1.2077 -1.4963 -0.1149
27059SOL    HW283495   4.135   2.476   5.212 -1.6494  0.0932 -0.7441
27060SOL     OW83496   6.231   3.284   2.050 -0.0203  0.8806 -0.2930
27060SOL    HW183497   6.152   3.232   2.035  0.1801 -0.1475  1.8173
27060SOL    HW283498   6.205   3.350   2.114  0.7554  0.6021  0.3363
27061SOL     OW83499   0.306   7.430   4.770  0.2426 -0.5093 -0.3280
27061SOL    HW183500   0.359   7.373   4.826  0.6537  1.1122  1.0104
27061SOL    HW283501   0.216   7.417   4.800 -0.1600 -2.8693 -2.2512
27062SOL     OW83502   2.888   0.109   6.153 -0.3970  0.0958 -1.5712
27062SOL    HW183503   2.808   0.071   6.118 -0.4096  1.0579 -2.6706
27062SOL    HW283504   2.891   0.081   6.244 -0.7517 -1.8960 -2.1427
27063SOL     OW83505   9.577   1.920   3.651 -0.1976  0.2962  0.4237
27063SOL    HW183506   9.568   1.876   3.735  0.5127  0.9910  0.8850
27063SOL    HW283507   9.670   1.911   3.629 -0.3352  0.3061 -0.1835
27064SOL     OW83508   6.018   1.624   8.840  0.2598  0.0555 -0.8602
27064SOL    HW183509   5.955   1.692   8.861  0.6572  0.5089 -1.0912
27064SOL    HW283510   6.099   1.652   8.883  0.3442 -0.4311 -0.6971
27065SOL     OW83511  10.197   5.780   6.971  0.0862  0.6777 -0.3869
27065SOL    HW183512  10.122   5.833   6.998  0.3973  1.2589 -0.6322
27065SOL    HW283513  10.196   5.705   7.030 -0.6454  0.7153 -0.3402
27066SOL     OW83514   4.614   7.521   1.584 -0.2082 -0.2447 -0.2184
27066SOL    HW183515   4.618   7.591   1.649  1.8176 -0.0438 -0.4833
27066SOL    HW283516   4.571   7.560   1.508 -0.8584  0.0994  0.3241
27067SOL     OW83517   6.643   4.073   6.164  0.1173 -0.1942 -0.2478
27067SOL    HW183518   6.548   4.086   6.155 -0.1452 -0.7297  1.3596
27067SOL    HW283519   6.670   4.139   6.228  0.9595  0.3965 -1.2003
27068SOL     OW83520   8.565   7.152  10.546 -0.4913 -0.1372  0.1104
27068SOL    HW183521   8.621   7.111  10.480 -1.5297 -3.1972  0.9458
27068SOL    HW283522   8.524   7.078  10.591 -1.7644  1.8906  2.4977
27069SOL     OW83523  10.002   5.033   3.259 -0.1195  0.1101 -0.4211
27069SOL    HW183524   9.913   5.064   3.279 -0.7953 -2.0732  0.2655
27069SOL    HW283525   9.991   4.976   3.183  0.5238 -0.8050  0.1374
27070SOL     OW83526   5.123   3.788   9.985 -0.0390  0.3271 -0.4981
27070SOL    HW183527   5.092   3.762  10.072 -0.4782  0.2399 -0.6825
27070SOL    HW283528   5.045   3.820   9.940  0.5207  2.4222 -0.1231
27071SOL     OW83529   0.201   8.812   0.509  0.0026 -0.1663 -0.2101
27071SOL    HW183530   0.114   8.778   0.490  0.2322 -0.2755 -1.1034
27071SOL    HW283531   0.241   8.747   0.566  0.3790 -1.3682 -1.7543
27072SOL     OW83532   3.662   3.125   3.712 -0.2585  0.2686  0.2757
27072SOL    HW183533   3.606   3.192   3.674 -0.0919  0.9993  1.2848
27072SOL    HW283534   3.699   3.165   3.790  0.6636 -0.6438  0.3388
27073SOL     OW83535   2.582   9.328   5.804  0.3066  0.1847  0.0628
27073SOL    HW183536   2.541   9.251   5.846  0.5826  0.2806  0.5192
27073SOL    HW283537   2.578   9.396   5.872  0.6119  0.3926 -0.1305
27074SOL     OW83538   2.551   9.662   9.928  0.1301 -0.0116  0.1974
27074SOL    HW183539   2.482   9.611   9.886  0.5872  0.7365 -1.5497
27074SOL    HW283540   2.504   9.729   9.979 -0.5164  1.3843 -2.0893
27075SOL     OW83541   2.592   8.200   5.541  0.3156  0.3197 -0.2735
27075SOL    HW183542   2.648   8.207   5.618  1.3483 -0.0924 -0.9723
27075SOL    HW283543   2.628   8.264   5.480 -0.8409  1.0443 -0.2321
27076SOL     OW83544   1.898   6.383   7.561  0.6008  0.3869  0.5035
27076SOL    HW183545   1.930   6.469   7.587 -0.6839  0.3794  2.2475
27076SOL    HW283546   1.886   6.335   7.643 -0.1931 -0.9180 -0.3291
27077SOL     OW83547   1.103   3.052   0.794 -0.0898  0.3956  0.2854
27077SOL    HW183548   1.008   3.059   0.786 -0.5842 -1.6127  2.7113
27077SOL    HW283549   1.123   2.964   0.762  0.7441  0.3668  0.8462
27078SOL     OW83550   0.649   1.326   2.733  0.0265 -0.2973  0.3822
27078SOL    HW183551   0.708   1.287   2.798 -0.7138 -0.1649  1.1507
27078SOL    HW283552   0.610   1.401   2.778 -2.4621 -1.6754  0.7313
27079SOL     OW83553   2.152   4.222   2.491  0.2818  0.6554  0.0333
27079SOL    HW183554   2.071   4.222   2.441  0.4871 -0.2719 -0.3309
27079SOL    HW283555   2.126   4.238   2.581 -0.7873 -3.1149  0.5639
27080SOL     OW83556   2.844   1.877   7.206 -0.0630 -0.1390  0.9117
27080SOL    HW183557   2.764   1.918   7.241 -0.5036 -1.0550  1.0189
27080SOL    HW283558   2.817   1.841   7.122  0.4446  0.2047  0.5987
27081SOL     OW83559   4.101   6.316   1.376  0.4282  0.1212 -0.2858
27081SOL    HW183560   4.194   6.317   1.398  0.3143 -0.8540  0.3003
27081SOL    HW283561   4.076   6.408   1.374  1.0683  0.3621  1.1001
27082SOL     OW83562   5.041   5.102   6.488 -0.0953 -0.9800  0.0137
27082SOL    HW183563   4.997   5.039   6.545 -1.2218 -1.0080 -0.8559
27082SOL    HW283564   4.970   5.143   6.438  0.8241 -0.7443 -1.1509
27083SOL     OW83565   3.951   2.146   5.755  0.3474 -0.2681 -0.1116
27083SOL    HW183566   4.010   2.071   5.756  1.1203  0.3248 -0.2551
27083SOL    HW283567   4.002   2.216   5.714 -0.5650  0.1670 -0.5380
27084SOL     OW83568   9.250  10.229   2.127 -1.3401 -0.4093  0.3081
27084SOL    HW183569   9.178  10.254   2.069 -0.2584  0.1592 -0.8413
27084SOL    HW283570   9.286  10.149   2.088 -0.6334 -0.0523  0.2039
27085SOL     OW83571   1.575   4.410   5.838 -0.6682 -0.2100 -0.2164
27085SOL    HW183572   1.555   4.345   5.906  0.4191  0.0926  0.4343
27085SOL    HW283573   1.642   4.367   5.784  1.3500  0.9173  1.2351
27086SOL     OW83574   7.079   7.377   2.770 -0.1011  0.7574  0.0414
27086SOL    HW183575   6.998   7.329   2.749 -0.6964  2.3786 -1.6782
27086SOL    HW283576   7.148   7.330   2.723 -0.6032  1.2465 -1.2358
27087SOL     OW83577   0.476   6.209   1.189 -0.0675  0.2749  0.0711
27087SOL    HW183578   0.535   6.254   1.128  0.1078 -0.8771 -0.6290
27087SOL    HW283579   0.400   6.186   1.135 -0.6782  0.7697  0.7072
27088SOL     OW83580   9.141   9.233   4.640  0.0935  0.3033  0.1052
27088SOL    HW183581   9.174   9.144   4.647 -0.1455  0.0089 -1.9897
27088SOL    HW283582   9.053   9.229   4.680  0.3160 -0.2352  0.5520
27089SOL     OW83583   8.344   4.625   3.544  0.0766  0.0755 -0.5015
27089SOL    HW183584   8.440   4.617   3.547  0.4220  3.1459 -0.6011
27089SOL    HW283585   8.320   4.580   3.463  1.1331 -2.4536  0.4706
27090SOL     OW83586   2.646   5.587   3.277  0.2398  0.2246  0.3105
27090SOL    HW183587   2.728   5.610   3.321  2.1137 -2.0720 -1.6782
27090SOL    HW283588   2.665   5.597   3.184 -2.5648  1.8588 -0.2032
27091SOL     OW83589   4.868   1.891   2.936  0.0967 -0.0896  0.5337
27091SOL    HW183590   4.774   1.879   2.955 -0.0189 -0.1576 -0.0661
27091SOL    HW283591   4.912   1.829   2.995 -0.2992 -0.7803  0.1241
27092SOL     OW83592   3.541   6.038   2.123  0.1011  0.2872  0.1716
27092SOL    HW183593   3.513   6.126   2.096 -0.6164  0.0666  0.1684
27092SOL    HW283594   3.461   5.985   2.117  0.2526 -0.0970  1.3221
27093SOL     OW83595   4.334   2.148   9.302 -0.0713 -0.3159  0.1618
27093SOL    HW183596   4.264   2.175   9.243 -2.9952 -3.4572  1.8181
27093SOL    HW283597   4.391   2.093   9.249 -1.2016 -1.0008 -0.3749
27094SOL     OW83598   2.562   1.580   6.218 -0.1178  0.7464  0.0924
27094SOL    HW183599   2.557   1.600   6.312  2.1800  0.4431  0.3171
27094SOL    HW283600   2.592   1.661   6.178  2.1272 -0.0433  0.0800
27095SOL     OW83601   9.269   1.775   3.201  0.5029  0.4510 -0.8545
27095SOL    HW183602   9.341   1.719   3.228 -0.0002 -0.4906 -1.4139
27095SOL    HW283603   9.228   1.728   3.128  1.0944  2.3587 -2.4951
27096SOL     OW83604   7.329   7.985   2.594 -0.2529 -0.2286 -0.4250
27096SOL    HW183605   7.295   7.963   2.681  1.5442 -0.6876  0.2039
27096SOL    HW283606   7.253   8.018   2.547 -1.4618 -0.7870  1.0341
27097SOL     OW83607   0.543   1.311   6.399 -0.4116 -0.0447  0.0947
27097SOL    HW183608   0.478   1.337   6.464  0.0248  0.7460  0.2310
27097SOL    HW283609   0.627   1.324   6.443 -0.1485 -0.7664 -0.1790
27098SOL     OW83610   6.126   0.978   2.705 -0.1871  0.2412  0.5719
27098SOL    HW183611   6.045   1.029   2.707  0.3534  1.1291  0.3702
27098SOL    HW283612   6.119   0.924   2.626  0.2411  1.7587 -0.5759
27099SOL     OW83613   9.194   3.213   5.802 -0.3925 -0.0832  0.1987
27099SOL    HW183614   9.134   3.288   5.802 -0.4869 -0.1298 -1.1734
27099SOL    HW283615   9.164   3.159   5.875  0.6805  1.9465  2.2886
27100SOL     OW83616   0.966   5.107   1.884 -0.5052 -0.1370 -0.2742
27100SOL    HW183617   1.053   5.067   1.879  0.0253  0.8069  0.9434
27100SOL    HW283618   0.962   5.163   1.806 -0.0672 -0.2790 -0.4057
27101SOL     OW83619   5.436   8.598  10.129 -0.0153  0.5482  0.0437
27101SOL    HW183620   5.345   8.602  10.159 -0.2013  0.2478 -0.4705
27101SOL    HW283621   5.478   8.537  10.190  0.2997  2.0566  1.4025
27102SOL     OW83622   5.667   6.528   7.676 -0.6417 -0.1873 -0.1109
27102SOL    HW183623   5.632   6.557   7.591  1.4349  0.1920 -0.8854
27102SOL    HW283624   5.675   6.433   7.666 -0.0902 -0.1095 -0.4952
27103SOL     OW83625   8.794   4.015   8.357  0.1118 -0.0312 -0.1338
27103SOL    HW183626   8.750   3.943   8.311  0.3233 -0.1055 -0.2172
27103SOL    HW283627   8.837   3.973   8.432  1.9933 -0.3251 -1.3352
27104SOL     OW83628   9.675   5.530   7.208  0.0689 -0.1750  0.1961
27104SOL    HW183629   9.734   5.455   7.216  0.8409  0.4500  0.5707
27104SOL    HW283630   9.640   5.542   7.297  0.7929  0.5594  0.3980
27105SOL     OW83631   6.836   8.043   0.603  0.2664  0.2315 -0.7822
27105SOL    HW183632   6.879   8.103   0.665 -0.4993  0.3560 -0.3616
27105SOL    HW283633   6.749   8.029   0.640  0.4407 -1.1572 -0.8674
27106SOL     OW83634   2.763   2.472   2.000  0.0736 -0.4748 -0.4485
27106SOL    HW183635   2.755   2.456   2.094 -3.4364  1.9520 -0.1576
27106SOL    HW283636   2.709   2.404   1.959 -0.3458 -0.1130 -0.5057
27107SOL     OW83637   4.449   8.442   7.283 -0.2549 -0.7443 -0.2462
27107SOL    HW183638   4.477   8.393   7.361 -1.2773  1.2947  1.4958
27107SOL    HW283639   4.356   8.458   7.297 -0.0944  1.1198 -1.0576
27108SOL     OW83640   9.032   2.555   7.029  0.4236  0.1967 -0.7275
27108SOL    HW183641   9.026   2.520   6.939 -0.1555 -0.5706 -0.4004
27108SOL    HW283642   9.092   2.495   7.073 -1.8938 -1.5224  0.3214
27109SOL     OW83643   8.622   3.494   2.768  0.4381  0.0114 -0.2685
27109SOL    HW183644   8.584   3.406   2.769 -0.0073  0.0807  3.3031
27109SOL    HW283645   8.547   3.552   2.753  0.4938 -0.1396 -1.1697
27110SOL     OW83646   4.906   0.237  10.067  0.1408  0.3181  0.4243
27110SOL    HW183647   4.926   0.213  10.158  0.8141  0.3016  0.2774
27110SOL    HW283648   4.841   0.307  10.074  0.2992  0.4185  0.9206
27111SOL     OW83649   6.261   5.831   6.777  0.2106 -0.1698  0.0740
27111SOL    HW183650   6.238   5.878   6.857 -0.3308 -0.3256  0.0180
27111SOL    HW283651   6.355   5.840   6.770  0.5636 -1.7466  1.7653
27112SOL     OW83652   9.070   8.046  10.285 -0.0041  0.2821  0.6332
27112SOL    HW183653   9.160   8.018  10.301 -0.3977 -0.5988  1.3819
27112SOL    HW283654   9.078   8.124  10.231  1.1778 -0.6150 -0.5490
27113SOL     OW83655   5.909   8.930   6.678  0.1457 -0.7008 -0.2104
27113SOL    HW183656   5.867   8.868   6.739  0.7468 -1.1531 -0.2462
27113SOL    HW283657   5.840   8.953   6.616  0.3174 -2.6378 -1.2005
27114SOL     OW83658  10.169   2.344   0.582 -0.1496 -0.5435 -0.3307
27114SOL    HW183659  10.074   2.351   0.566 -0.4086  0.3074  1.3340
27114SOL    HW283660  10.209   2.391   0.509 -0.8977 -2.3276 -1.9686
27115SOL     OW83661  10.297   8.593   8.416  0.2299 -0.5373 -0.1582
27115SOL    HW183662  10.333   8.681   8.426  0.3423 -0.7855  2.1478
27115SOL    HW283663  10.235   8.600   8.344  1.1557  1.1086 -0.8451
27116SOL     OW83664   0.684   8.984   3.834  0.1535  0.0771  0.5150
27116SOL    HW183665   0.763   8.930   3.842  1.0175  1.1978 -0.0800
27116SOL    HW283666   0.617   8.924   3.804  0.7531 -0.9284  1.1266
27117SOL     OW83667   0.189   4.542   4.855 -0.1448  0.2990 -0.1110
27117SOL    HW183668   0.238   4.578   4.781 -3.2679  3.6061 -0.8293
27117SOL    HW283669   0.123   4.485   4.814  0.0138 -0.3013  0.4438
27118SOL     OW83670  10.494   6.149   1.790  0.3681 -0.1351  0.0629
27118SOL    HW183671  10.541   6.145   1.707  0.2981 -2.2037  0.0716
27118SOL    HW283672  10.417   6.201   1.771  1.1637  0.8129 -0.7225
27119SOL     OW83673   5.338   9.068   3.269  0.4591 -0.0142  0.3356
27119SOL    HW183674   5.342   9.153   3.225  0.5434  0.6499  1.5593
27119SOL    HW283675   5.286   9.013   3.211  0.9140  0.6884 -0.7752
27120SOL     OW83676   5.690   3.081   0.771 -0.0777 -0.3222 -1.2609
27120SOL    HW183677   5.767   3.086   0.715  0.5007 -1.1621 -0.5645
27120SOL    HW283678   5.718   3.028   0.846 -1.1776 -0.2055 -0.7492
27121SOL     OW83679   5.622   8.679   3.236  0.0274 -0.3232 -0.0613
27121SOL    HW183680   5.687   8.745   3.213 -0.1258  0.3466  1.3130
27121SOL    HW283681   5.566   8.722   3.300 -1.7677 -0.8973 -1.1769
27122SOL     OW83682  10.345   9.907   4.312  0.8362  0.8158 -0.5000
27122SOL    HW183683  10.257   9.902   4.349  1.4287  0.5444  0.9549
27122SOL    HW283684  10.377   9.994   4.336  1.5212  0.3450  0.3934
27123SOL     OW83685   0.929   8.572   5.217 -0.4928 -0.1256  0.1368
27123SOL    HW183686   0.874   8.536   5.147  0.1517 -0.1287 -0.3748
27123SOL    HW283687   0.880   8.649   5.247 -0.7684 -0.1079 -0.3304
27124SOL     OW83688   6.560   4.025   2.179  0.2065 -0.2181 -0.2762
27124SOL    HW183689   6.628   4.065   2.125  0.9120  0.4074  1.0262
27124SOL    HW283690   6.490   4.002   2.117  1.6309 -0.9644 -1.6542
27125SOL     OW83691   0.166   5.977   4.295  0.6284 -0.1412  0.1442
27125SOL    HW183692   0.189   5.894   4.253 -1.5644 -0.5933 -0.2551
27125SOL    HW283693   0.092   5.956   4.352  1.3203  1.1706  1.5997
27126SOL     OW83694   2.134   0.589   2.192  0.4708 -0.6101  0.4871
27126SOL    HW183695   2.197   0.590   2.264  1.9403 -1.4201 -0.7316
27126SOL    HW283696   2.048   0.591   2.235  1.2145 -3.4511  2.4068
27127SOL     OW83697   5.707   6.779   5.029 -0.6810  0.3228 -0.2384
27127SOL    HW183698   5.662   6.776   5.113 -1.0977 -1.3344 -0.4913
27127SOL    HW283699   5.752   6.694   5.022  1.1335  1.2629 -0.7401
27128SOL     OW83700  10.112   0.338   4.639 -0.4987  0.1447  0.0831
27128SOL    HW183701  10.155   0.397   4.701 -0.6481 -0.5914  0.9025
27128SOL    HW283702  10.179   0.272   4.620 -1.3605 -1.2739  1.7226
27129SOL     OW83703   6.349   4.260   2.469 -0.1524 -0.3032 -0.1991
27129SOL    HW183704   6.337   4.281   2.377  1.4644  0.9500 -0.1832
27129SOL    HW283705   6.407   4.185   2.470  1.0989  0.6289 -0.2346
27130SOL     OW83706   2.981   7.350   3.934  0.1002  0.1633  0.5004
27130SOL    HW183707   3.065   7.330   3.975  0.4491  0.1426 -0.2104
27130SOL    HW283708   2.995   7.432   3.888 -0.0962 -0.1456 -0.1172
27131SOL     OW83709   7.605   4.013   4.227  0.4584  0.0990  0.2792
27131SOL    HW183710   7.636   4.072   4.296 -0.5724 -0.2016  1.0320
27131SOL    HW283711   7.662   4.030   4.153 -1.5107  4.2792 -0.5912
27132SOL     OW83712   8.974   1.340   5.592  0.0189  0.9408  0.0587
27132SOL    HW183713   8.919   1.346   5.515  0.1885  0.5992 -0.0933
27132SOL    HW283714   9.056   1.384   5.568  0.1473  0.6570 -0.0278
27133SOL     OW83715   4.115   8.338   6.879  0.1051 -0.1158 -0.2879
27133SOL    HW183716   4.089   8.384   6.959  0.0531 -1.4847  0.4986
27133SOL    HW283717   4.120   8.407   6.813 -0.9700  0.8711  0.6218
27134SOL     OW83718  10.173  10.205   9.876 -0.0816  0.0783  0.0745
27134SOL    HW183719  10.265  10.196   9.900 -0.0820  1.7206  0.8813
27134SOL    HW283720  10.125  10.180   9.954 -0.2477  0.7701  0.2030
27135SOL     OW83721   2.372   2.224   1.198 -0.2676 -0.1684 -0.1717
27135SOL    HW183722   2.358   2.197   1.289 -0.4357 -2.0562 -0.7145
27135SOL    HW283723   2.466   2.216   1.185 -0.3066 -0.4319 -0.3056
27136SOL     OW83724  10.035   6.862   5.003  0.7056  0.2433 -0.4073
27136SOL    HW183725   9.974   6.844   4.932 -1.8806  1.0590  1.4691
27136SOL    HW283726  10.012   6.799   5.071  0.7626  1.6581  0.9808
27137SOL     OW83727   7.784   2.482   4.898  0.0915  0.0438  0.1070
27137SOL    HW183728   7.869   2.442   4.917  0.6158  0.8044 -0.5662
27137SOL    HW283729   7.729   2.411   4.866 -0.2593 -0.9374  2.6376
27138SOL     OW83730   6.496   4.910   2.539  0.0085  0.4083 -0.0280
27138SOL    HW183731   6.521   4.830   2.585  2.1184  1.5494  0.9642
27138SOL    HW283732   6.555   4.913   2.463 -1.3974  0.0675 -1.1692
27139SOL     OW83733   1.901   3.840   7.977  0.4112  0.9489  0.2086
27139SOL    HW183734   1.989   3.845   7.940  1.0887 -1.4510  1.2863
27139SOL    HW283735   1.849   3.800   7.907  0.7961  0.0089  0.4416
27140SOL     OW83736   0.727   9.933   6.693 -0.3361  0.4431  0.1358
27140SOL    HW183737   0.664   9.928   6.621 -0.0185 -0.8854 -0.0781
27140SOL    HW283738   0.784  10.006   6.670 -1.0003  0.8272 -0.3263
27141SOL     OW83739   8.884   4.937   4.065  0.2317  0.0932  0.4257
27141SOL    HW183740   8.950   4.951   3.997  0.9902  0.9452  1.3138
27141SOL    HW283741   8.803   4.969   4.026  0.6476  0.5222 -0.1049
27142SOL     OW83742   8.563   0.503   8.315 -0.7562  0.5885  0.3008
27142SOL    HW183743   8.551   0.414   8.283 -0.1780  0.1279  1.3077
27142SOL    HW283744   8.511   0.508   8.395 -2.3614  1.7878 -0.7579
27143SOL     OW83745   9.924   4.726   9.933  0.1491  0.2578  0.9214
27143SOL    HW183746   9.836   4.758   9.954  0.5603  2.3429 -0.2572
27143SOL    HW283747   9.966   4.799   9.888  2.6471 -0.5237  1.8067
27144SOL     OW83748   0.725   0.990   2.753  0.1319  1.1440  0.1903
27144SOL    HW183749   0.805   1.042   2.750 -0.9790  2.9088 -0.5296
27144SOL    HW283750   0.721   0.947   2.667  0.2504  1.1547  0.1796
27145SOL     OW83751   1.745   0.876   5.127  0.4937 -0.0080  0.0228
27145SOL    HW183752   1.728   0.890   5.220  0.4767  0.8414 -0.0995
27145SOL    HW283753   1.678   0.929   5.082  0.3832 -0.5588 -0.4742
27146SOL     OW83754   9.882   5.102   0.516 -0.0870  0.0144  0.3448
27146SOL    HW183755   9.806   5.132   0.466 -0.2083 -2.0263 -0.7660
27146SOL    HW283756   9.844   5.057   0.592  0.0518  0.2412  0.5512
27147SOL     OW83757   6.213   1.568   3.463  0.8617  0.4629 -0.0234
27147SOL    HW183758   6.177   1.605   3.544 -3.1753 -1.8215 -0.5043
27147SOL    HW283759   6.260   1.490   3.492 -1.6359 -1.0675  0.2243
27148SOL     OW83760   5.911   9.395   8.881  0.2521 -0.0850  0.9785
27148SOL    HW183761   6.006   9.409   8.879 -0.0100  2.1682  1.6999
27148SOL    HW283762   5.900   9.304   8.854  2.4657  0.1662 -1.1435
27149SOL     OW83763   4.600   0.769   7.108 -0.0555  0.1909  0.3354
27149SOL    HW183764   4.638   0.856   7.115 -1.4970  0.9656 -0.8389
27149SOL    HW283765   4.507   0.782   7.128 -0.4031 -0.9678 -0.4291
27150SOL     OW83766   3.610   3.259   6.655  0.4235  0.4454  0.0082
27150SOL    HW183767   3.618   3.328   6.721  2.9239 -0.2234  0.5164
27150SOL    HW283768   3.611   3.178   6.705 -0.6001 -0.0130 -0.6971
27151SOL     OW83769  10.310   2.797   0.658 -0.2098  0.1524  0.7687
27151SOL    HW183770  10.401   2.804   0.688  0.2503 -1.0419 -0.2709
27151SOL    HW283771  10.299   2.870   0.597  0.9750 -1.2338 -1.2442
27152SOL     OW83772   0.422   1.149   9.047  0.3467  0.0045 -0.3906
27152SOL    HW183773   0.491   1.216   9.045 -0.2546  0.7207  1.0416
27152SOL    HW283774   0.407   1.133   9.141 -0.0488 -1.6116 -0.6972
27153SOL     OW83775   4.917   2.609   0.822 -0.2652 -0.0076  0.4960
27153SOL    HW183776   4.988   2.625   0.884  2.2206  1.0068 -2.3862
27153SOL    HW283777   4.952   2.545   0.761 -2.1838 -0.1275 -0.5651
27154SOL     OW83778   4.835   5.581   0.846 -0.2586 -0.6363  0.3520
27154SOL    HW183779   4.926   5.558   0.828 -0.1805  0.1423 -0.3416
27154SOL    HW283780   4.808   5.522   0.916  1.3392  0.3022  1.8543
27155SOL     OW83781   8.695   9.259   1.877  0.2881 -0.0504 -0.3531
27155SOL    HW183782   8.632   9.195   1.912  1.7902 -0.6658  1.4307
27155SOL    HW283783   8.681   9.338   1.929  0.1850  0.2014 -0.7633
27156SOL     OW83784   3.827   9.412   6.341 -0.7670 -0.4237  0.1507
27156SOL    HW183785   3.921   9.405   6.353 -0.7880  0.3886  0.9002
27156SOL    HW283786   3.815   9.432   6.248 -0.2268 -0.8765 -0.0173
27157SOL     OW83787   9.331   8.967   7.276  0.6933 -0.0708  1.0040
27157SOL    HW183788   9.264   8.944   7.341 -0.0715  0.8255  0.5478
27157SOL    HW283789   9.408   8.917   7.303 -0.1634 -1.1600  1.5156
27158SOL     OW83790   6.226   5.152   9.596  0.9316 -0.3735 -0.2632
27158SOL    HW183791   6.173   5.228   9.620  0.2222 -1.4562  1.8734
27158SOL    HW283792   6.185   5.118   9.517 -0.6189 -0.2599  0.4627
27159SOL     OW83793   5.101   4.426   0.855 -0.1527 -0.0443  0.6716
27159SOL    HW183794   5.144   4.344   0.879 -0.0105 -0.1318  0.1263
27159SOL    HW283795   5.160   4.494   0.886 -0.3810 -0.1416  1.3336
27160SOL     OW83796  10.435   8.080   3.033 -0.3184  0.0749  0.4326
27160SOL    HW183797  10.368   8.141   3.063 -2.1810 -1.0026 -1.3142
27160SOL    HW283798  10.516   8.131   3.032 -1.3891  1.8454  1.1779
27161SOL     OW83799   0.913   5.392   9.171  0.0196  0.0895 -0.3252
27161SOL    HW183800   0.899   5.471   9.223  1.2438 -0.1013  0.3438
27161SOL    HW283801   0.981   5.416   9.108  0.9189 -0.6156  0.3508
27162SOL     OW83802   2.298   4.308  10.467  0.5940  0.1496 -0.4376
27162SOL    HW183803   2.314   4.396  10.435  0.8569  0.7888  1.3731
27162SOL    HW283804   2.215   4.313  10.514  1.1461 -0.2887  0.6231
27163SOL     OW83805   6.689   9.883   0.253 -0.6005 -1.0072  0.2462
27163SOL    HW183806   6.615   9.856   0.307 -0.7870 -1.0945 -0.0477
27163SOL    HW283807   6.654   9.952   0.196 -0.7969 -1.8959 -0.7525
27164SOL     OW83808   1.791   2.067   1.210  0.3451 -0.3899 -0.1364
27164SOL    HW183809   1.750   2.052   1.125  0.7138 -1.3163 -0.1617
27164SOL    HW283810   1.812   1.979   1.242 -0.4002 -0.0929  1.2222
27165SOL     OW83811   5.054   1.489   8.136 -0.0905  0.1690 -0.1930
27165SOL    HW183812   5.099   1.571   8.156  0.3400  0.1160 -0.9045
27165SOL    HW283813   5.087   1.463   8.050 -0.8292 -0.3318 -0.3426
27166SOL     OW83814   6.279   9.166   8.219 -0.4639  0.3970 -0.4926
27166SOL    HW183815   6.201   9.178   8.274 -1.2934  0.9463 -1.7465
27166SOL    HW283816   6.244   9.149   8.131  0.8407  0.9836 -1.1474
27167SOL     OW83817   2.361   0.904   4.292  0.1609 -0.2298 -0.0780
27167SOL    HW183818   2.318   0.819   4.296 -0.5529  0.1249  0.0305
27167SOL    HW283819   2.317   0.956   4.358  1.1169  0.0002  0.3933
27168SOL     OW83820   5.057   2.810   2.490  0.1352  0.0666  0.1056
27168SOL    HW183821   5.039   2.807   2.396  3.9821 -3.0101 -0.8302
27168SOL    HW283822   4.987   2.758   2.530  1.0618 -2.9390 -1.8555
27169SOL     OW83823   1.726   0.963   4.507 -0.1438  0.3403  0.3558
27169SOL    HW183824   1.632   0.968   4.485 -0.2724 -1.1322  0.4720
27169SOL    HW283825   1.738   0.874   4.537  0.9350  1.0629  2.2015
27170SOL     OW83826   4.145   1.663   4.010 -0.0554 -0.3453 -0.3564
27170SOL    HW183827   4.194   1.606   3.951  0.0145  0.5900 -1.2368
27170SOL    HW283828   4.204   1.676   4.085  0.1979 -0.8649 -0.4599
27171SOL     OW83829   6.375   8.966   3.492 -0.4227  0.3027  0.6624
27171SOL    HW183830   6.408   8.935   3.408  0.3078  1.0484  0.6658
27171SOL    HW283831   6.280   8.967   3.481 -0.3868 -0.5623  0.1937
27172SOL     OW83832   8.256   4.976   6.507 -0.2328 -0.7777 -0.0283
27172SOL    HW183833   8.323   5.001   6.443 -0.2379 -1.5937 -0.3556
27172SOL    HW283834   8.302   4.918   6.569 -0.0812  0.4391  1.0604
27173SOL     OW83835   3.837   9.190   6.071  0.0729 -0.5464 -0.6234
27173SOL    HW183836   3.843   9.157   6.161  0.4122  2.9331  0.8056
27173SOL    HW283837   3.920   9.164   6.031  0.3645 -1.2740  0.4061
27174SOL     OW83838   6.766   5.024   1.763 -0.6311  0.3731  0.0162
27174SOL    HW183839   6.752   5.119   1.751  0.9838  0.5750 -0.4741
27174SOL    HW283840   6.770   4.990   1.674 -1.9146 -0.2975  0.1938
27175SOL     OW83841   5.127   2.096   6.992 -0.2137  0.2396  0.3495
27175SOL    HW183842   5.205   2.110   7.044 -0.5600  1.5238  0.5616
27175SOL    HW283843   5.060   2.149   7.034 -1.0983 -0.5059 -0.0743
27176SOL     OW83844   2.035   6.258   3.808 -0.0554  0.3899  1.0823
27176SOL    HW183845   2.080   6.180   3.776 -1.0548 -0.7583  2.3749
27176SOL    HW283846   2.027   6.315   3.731 -0.6643 -1.4172 -0.2516
27177SOL     OW83847   0.497   5.749   4.432  0.0985 -0.1600  0.7670
27177SOL    HW183848   0.496   5.823   4.492  0.3217  0.4871 -0.0070
27177SOL    HW283849   0.518   5.787   4.347  0.6865 -1.1708  0.4344
27178SOL     OW83850   5.134   2.678   0.952 -0.0016 -0.2099 -0.1013
27178SOL    HW183851   5.146   2.767   0.920  3.2352 -0.6044 -0.3113
27178SOL    HW283852   5.205   2.665   1.015 -0.9339 -2.3669  0.6188
27179SOL     OW83853  10.358   0.962   5.687 -0.1302  0.0639 -0.3151
27179SOL    HW183854  10.270   0.926   5.693  0.4223 -1.2392  0.5812
27179SOL    HW283855  10.346   1.055   5.670 -1.6567 -0.2127 -0.8494
27180SOL     OW83856   9.557   8.159   4.273  0.2279  0.0707 -0.5195
27180SOL    HW183857   9.589   8.070   4.262  1.4825  0.4442 -0.0580
27180SOL    HW283858   9.536   8.167   4.366  0.6508  0.4201 -0.4500
27181SOL     OW83859   6.565   7.900   7.813  0.2984 -0.8031  0.0715
27181SOL    HW183860   6.574   7.810   7.780 -2.3799 -0.8144 -0.8562
27181SOL    HW283861   6.548   7.952   7.734  1.9586  0.5895  0.5852
27182SOL     OW83862   8.279   6.879   7.117 -0.1827  0.6531  0.9047
27182SOL    HW183863   8.299   6.803   7.172  1.1408  0.2332 -0.1280
27182SOL    HW283864   8.323   6.862   7.034  0.4418  2.7187  0.7546
27183SOL     OW83865   0.747   7.309   9.482  0.1314  0.4232  0.4820
27183SOL    HW183866   0.679   7.350   9.536  0.7101  1.7852  0.2052
27183SOL    HW283867   0.699   7.266   9.411 -0.5598 -0.3955  1.4150
27184SOL     OW83868   1.398   2.446   4.699 -0.9192  0.7705  0.0398
27184SOL    HW183869   1.335   2.424   4.767 -0.9761  0.4964 -0.0997
27184SOL    HW283870   1.483   2.440   4.742 -0.7938 -1.4329 -0.3970
27185SOL     OW83871   6.903   6.602   2.757  0.6319  0.5606  0.0822
27185SOL    HW183872   6.894   6.561   2.671  0.7493 -2.7990  1.5254
27185SOL    HW283873   6.995   6.628   2.762  0.3331  1.9956 -1.2324
27186SOL     OW83874   0.624   7.128   0.958  0.0786  0.2480  0.7852
27186SOL    HW183875   0.603   7.086   0.875  0.7534 -1.0296  1.2338
27186SOL    HW283876   0.562   7.201   0.965  1.5852  1.9511 -1.9715
27187SOL     OW83877   4.450   7.210   3.206  0.3789  0.0549  0.1114
27187SOL    HW183878   4.486   7.267   3.273  0.8467  1.2237 -1.0888
27187SOL    HW283879   4.444   7.265   3.128 -3.0768 -0.3452 -0.0710
27188SOL     OW83880   9.825   4.801   4.610 -0.1109  0.1323  0.1465
27188SOL    HW183881   9.908   4.803   4.659 -0.6952  1.3030  1.1404
27188SOL    HW283882   9.850   4.827   4.521  0.5741  0.6500  0.4783
27189SOL     OW83883   2.716   6.367   9.238 -0.3038 -0.5927 -0.1408
27189SOL    HW183884   2.630   6.362   9.280 -0.8531 -0.8507 -1.2409
27189SOL    HW283885   2.740   6.275   9.224  0.1128 -0.5175  0.0888
27190SOL     OW83886   2.923   6.246  10.157 -0.0726 -0.4781  0.0215
27190SOL    HW183887   2.910   6.340  10.151 -0.0651 -0.5461 -1.3211
27190SOL    HW283888   2.896   6.223  10.246  1.3888  1.0059  0.8915
27191SOL     OW83889   8.535   8.391   7.888  0.1915 -0.1607 -0.0503
27191SOL    HW183890   8.586   8.393   7.969  1.7757 -0.0112 -0.9943
27191SOL    HW283891   8.586   8.334   7.830 -0.8121 -0.1144 -1.0088
27192SOL     OW83892   1.027   2.376   6.512  1.0875 -0.1035  0.1242
27192SOL    HW183893   0.981   2.299   6.547 -0.0443  0.3786 -0.2846
27192SOL    HW283894   1.013   2.444   6.577  1.5619 -0.0535  0.1808
27193SOL     OW83895   3.782   6.010   5.214  0.3806  0.1394 -0.3048
27193SOL    HW183896   3.841   5.983   5.285  0.7411  3.1467  0.6677
27193SOL    HW283897   3.821   6.090   5.179 -1.1510  0.1085 -2.2383
27194SOL     OW83898   6.962   5.939   9.418  0.0986 -0.1263 -0.0077
27194SOL    HW183899   6.938   5.987   9.497 -0.0835 -2.0954  1.2000
27194SOL    HW283900   7.033   5.991   9.379 -0.8959  1.7147  0.5411
27195SOL     OW83901   3.212   2.197   1.597 -0.0877 -0.3872 -0.6630
27195SOL    HW183902   3.119   2.199   1.576  0.4115  1.2799 -3.2155
27195SOL    HW283903   3.233   2.288   1.617  1.0833 -0.6635 -0.5962
27196SOL     OW83904   8.108   7.414   8.772 -0.3622 -0.2148  0.0290
27196SOL    HW183905   8.132   7.389   8.861  0.3722 -1.6448 -0.5529
27196SOL    HW283906   8.191   7.424   8.726 -0.7599 -0.6005 -0.7978
27197SOL     OW83907   1.210   7.249   5.797 -0.5634 -0.3463 -0.0099
27197SOL    HW183908   1.133   7.291   5.758  0.4846 -0.4944 -2.3809
27197SOL    HW283909   1.184   7.157   5.809 -0.3930 -0.6951 -2.0166
27198SOL     OW83910   3.615  10.573   7.438 -0.1020 -0.4300 -0.2323
27198SOL    HW183911   3.686  10.509   7.429  0.8178  0.5482 -0.1058
27198SOL    HW283912   3.644  10.649   7.388 -1.8251 -0.6041 -1.5882
27199SOL     OW83913   1.472   4.281   9.957  0.3642 -0.1405  0.1583
27199SOL    HW183914   1.541   4.231   9.914  0.0806  0.1195 -0.6015
27199SOL    HW283915   1.511   4.367   9.972  0.3684 -0.1434  0.1649
27200SOL     OW83916   6.231   0.710   2.207  0.1053 -0.3202  0.0651
27200SOL    HW183917   6.136   0.721   2.215 -0.1635  0.0578 -2.7021
27200SOL    HW283918   6.263   0.718   2.297 -2.2400  1.9042  0.8443
27201SOL     OW83919   5.172   8.327   2.267  0.7216  0.0126 -0.1561
27201SOL    HW183920   5.266   8.339   2.255  0.2054  1.5856 -3.8429
27201SOL    HW283921   5.137   8.416   2.274 -0.6583 -0.4787 -0.4890
27202SOL     OW83922   6.661   2.587   6.553  0.5891 -0.0374 -0.1723
27202SOL    HW183923   6.573   2.584   6.590  0.6162  0.0718 -0.0964
27202SOL    HW283924   6.647   2.609   6.460  0.5269 -0.2027 -0.2035
27203SOL     OW83925   2.959   4.310   1.687  0.4476 -0.7390 -0.3103
27203SOL    HW183926   2.913   4.247   1.631 -1.7559 -0.7793  1.3997
27203SOL    HW283927   2.956   4.270   1.774 -0.4419  1.4233  0.7074
27204SOL     OW83928   5.079   8.671   0.752  0.1294  0.0287  0.7066
27204SOL    HW183929   5.076   8.753   0.801  1.7345  0.0421  0.8605
27204SOL    HW283930   5.076   8.697   0.660  2.4388  0.4776  0.6819
27205SOL     OW83931   7.584   6.532   8.393 -0.0693  0.0318 -0.3710
27205SOL    HW183932   7.640   6.605   8.418  0.8512 -0.6416 -0.4244
27205SOL    HW283933   7.568   6.484   8.474 -0.5462  0.1999 -0.3618
27206SOL     OW83934   5.257  10.523   4.282 -0.2753 -0.2124  0.2511
27206SOL    HW183935   5.296  10.456   4.338  0.7375  0.8483  0.8659
27206SOL    HW283936   5.232  10.477   4.202  1.6453 -1.0772  0.1070
27207SOL     OW83937   5.251   5.144   1.677 -0.3080  0.1269 -0.3492
27207SOL    HW183938   5.292   5.153   1.763 -0.3851  1.4271 -0.4312
27207SOL    HW283939   5.223   5.053   1.673 -0.3490  0.0651  1.0196
27208SOL     OW83940   2.442   6.494  10.318 -0.1744  0.0269 -0.3346
27208SOL    HW183941   2.384   6.550  10.266  0.6311  1.9265  0.7093
27208SOL    HW283942   2.465   6.422  10.259 -0.8771  1.0300 -1.9008
27209SOL     OW83943   6.562   1.114   5.704 -0.0209  0.5094  0.3298
27209SOL    HW183944   6.652   1.087   5.717 -0.1209  0.4049  0.8329
27209SOL    HW283945   6.510   1.050   5.753 -0.3642  0.5867  0.0700
27210SOL     OW83946   5.287   8.512   6.383  0.1669 -0.1075 -0.6448
27210SOL    HW183947   5.257   8.558   6.304  0.5875  0.3757 -0.5312
27210SOL    HW283948   5.237   8.552   6.454  1.8865  1.5436 -0.3000
27211SOL     OW83949   4.683   0.898   8.765 -0.1768 -0.1806 -1.0837
27211SOL    HW183950   4.679   0.918   8.858  0.5392  1.5782 -1.3944
27211SOL    HW283951   4.642   0.972   8.722 -0.6283 -1.0354 -2.1769
27212SOL     OW83952   4.632   8.383   9.484  0.0781 -0.0037 -0.7326
27212SOL    HW183953   4.560   8.323   9.462 -1.4239  1.3731  0.2337
27212SOL    HW283954   4.588   8.461   9.519  1.9275  1.8942 -2.4140
27213SOL     OW83955   9.025   0.603  10.245  0.0441 -0.4846 -0.2878
27213SOL    HW183956   9.055   0.532  10.303  2.0131 -0.1785 -0.8466
27213SOL    HW283957   9.098   0.617  10.185 -0.8865  1.0418 -1.1249
27214SOL     OW83958   6.920   4.420   6.340  0.5606 -0.3946 -0.3206
27214SOL    HW183959   6.997   4.472   6.317  0.2718  0.5513  0.7692
27214SOL    HW283960   6.951   4.329   6.336  1.9471 -0.0101  0.7797
27215SOL     OW83961   9.441   2.978   5.740 -0.0575 -0.7051 -0.0041
27215SOL    HW183962   9.368   2.988   5.801  0.3268  1.6893  0.1830
27215SOL    HW283963   9.402   2.993   5.654  0.1209  0.1968  0.0629
27216SOL     OW83964   8.805   9.017   6.254 -0.5806  0.8346 -0.0765
27216SOL    HW183965   8.814   8.964   6.175  0.6521  1.9216 -0.7039
27216SOL    HW283966   8.877   9.080   6.249 -1.6116  2.1473  0.9657
27217SOL     OW83967   6.611   6.924   4.948 -0.0227 -0.7523  0.1232
27217SOL    HW183968   6.548   6.994   4.934 -0.0830 -0.5347  1.3430
27217SOL    HW283969   6.563   6.844   4.924  0.3895 -0.3509 -2.3146
27218SOL     OW83970   6.192   0.300   7.028  0.3567 -0.0650  0.3125
27218SOL    HW183971   6.230   0.270   6.945 -1.2914 -0.3935 -0.3475
27218SOL    HW283972   6.233   0.385   7.043  0.6200  0.0366 -0.8723
27219SOL     OW83973   1.126   1.912   6.129  0.2820  0.2324 -0.0875
27219SOL    HW183974   1.202   1.856   6.143  0.2148  0.4207  1.1990
27219SOL    HW283975   1.158   1.980   6.069  0.8716 -0.1696 -0.2445
27220SOL     OW83976   6.112   7.575   4.164 -0.7150 -0.0244 -0.2467
27220SOL    HW183977   6.025   7.553   4.197 -0.7470  1.3394  0.6452
27220SOL    HW283978   6.144   7.642   4.224 -0.5844  2.2385 -2.6365
27221SOL     OW83979   2.466   8.122   5.208 -0.1602  0.3467  0.1865
27221SOL    HW183980   2.561   8.111   5.205 -0.1009  0.2767  1.7548
27221SOL    HW283981   2.452   8.214   5.229 -0.4170  0.1229  1.0125
27222SOL     OW83982   9.714   4.768   7.548  0.2778  0.1748 -0.1855
27222SOL    HW183983   9.726   4.862   7.560 -1.1955  0.1732  1.6204
27222SOL    HW283984   9.701   4.734   7.636 -0.5018 -1.5433 -0.9214
27223SOL     OW83985   0.045   7.785   6.729  0.2270 -0.6331  0.4495
27223SOL    HW183986   0.049   7.802   6.635  2.3028  0.8288  0.7330
27223SOL    HW283987  -0.019   7.848   6.762 -0.6977 -1.3217  0.0127
27224SOL     OW83988   7.953   5.180   9.563  0.1255 -0.2419 -0.2019
27224SOL    HW183989   7.982   5.252   9.507 -0.9123 -0.6439 -1.3238
27224SOL    HW283990   7.963   5.102   9.508  2.7045 -1.2256  1.5039
27225SOL     OW83991   0.258   2.058   5.626 -0.1746  0.0324  0.0997
27225SOL    HW183992   0.324   2.112   5.582  1.7077 -0.8557  1.6646
27225SOL    HW283993   0.264   1.973   5.583 -1.5696  0.4173 -0.8997
27226SOL     OW83994   2.471   8.789   1.830  0.1876  0.9361  0.0808
27226SOL    HW183995   2.482   8.805   1.924 -0.1443  1.0012  0.1099
27226SOL    HW283996   2.433   8.870   1.796  0.3818  0.9426 -0.1248
27227SOL     OW83997   9.833   6.887   9.662  0.3755 -0.1068 -0.7143
27227SOL    HW183998   9.796   6.918   9.745  1.4646 -0.1686 -0.1913
27227SOL    HW283999   9.766   6.908   9.597  0.3083  1.7146 -0.1188
27228SOL     OW84000   7.780   2.091   7.163 -0.2074 -0.0569  0.4083
27228SOL    HW184001   7.705   2.148   7.145 -0.5200 -0.5400  0.1376
27228SOL    HW284002   7.823   2.131   7.239 -0.3000  0.6470  0.0940
27229SOL     OW84003   0.083   2.430   4.943 -0.9521  0.4038 -0.6680
27229SOL    HW184004   0.104   2.506   4.889 -1.7812 -0.6598 -2.5873
27229SOL    HW284005   0.164   2.378   4.942 -1.2891 -0.1248 -1.8253
27230SOL     OW84006   0.696   3.414   6.686 -0.1650 -0.5131  0.2947
27230SOL    HW184007   0.648   3.331   6.678  0.6802 -0.8993 -1.1321
27230SOL    HW284008   0.777   3.399   6.636 -0.9971  1.9419 -1.9981
27231SOL     OW84009   7.171   2.922   4.200 -0.3924 -0.2557  0.4097
27231SOL    HW184010   7.123   2.940   4.281  0.4171 -0.4521  0.9433
27231SOL    HW284011   7.198   3.008   4.169  2.1732 -0.3217  2.1555
27232SOL     OW84012   1.394   8.586   9.952  0.2841  0.2724 -0.0786
27232SOL    HW184013   1.432   8.644  10.018  0.3591  1.6891 -1.3130
27232SOL    HW284014   1.301   8.579   9.977  0.0475  1.7463 -0.4357
27233SOL     OW84015   3.525   6.005   3.396 -0.0910  0.1652 -0.0855
27233SOL    HW184016   3.430   6.018   3.400 -0.2342 -0.9913  0.8711
27233SOL    HW284017   3.541   5.973   3.308 -0.7007 -0.3553 -0.0169
27234SOL     OW84018   6.400  10.544   0.339  0.2210  0.4373  0.2333
27234SOL    HW184019   6.478  10.589   0.369  1.3958 -0.8637 -0.7514
27234SOL    HW284020   6.385  10.578   0.251 -0.3989  0.7641  0.4604
27235SOL     OW84021   5.713   8.475  10.565  0.6516 -0.1605  0.5226
27235SOL    HW184022   5.666   8.558  10.576 -2.7575 -1.3484 -2.7620
27235SOL    HW284023   5.797   8.500  10.527 -0.8561  1.8802 -1.8199
27236SOL     OW84024   8.215   8.776   8.345 -0.6355  0.6558 -0.1440
27236SOL    HW184025   8.173   8.794   8.260  0.1777  0.4302 -0.6029
27236SOL    HW284026   8.277   8.847   8.356 -0.9949  0.8822  0.4433
27237SOL     OW84027   1.789   1.030   1.165 -0.9364  0.2138 -0.1170
27237SOL    HW184028   1.708   0.979   1.167 -0.0428 -1.2630  1.8093
27237SOL    HW284029   1.782   1.089   1.240 -0.0681 -0.2735  0.3712
27238SOL     OW84030   0.464   8.267   4.019  0.7322 -0.3318  0.0066
27238SOL    HW184031   0.370   8.252   4.026  0.7724  0.0262  1.8440
27238SOL    HW284032   0.484   8.328   4.091  2.3865 -0.5440 -0.2286
27239SOL     OW84033   6.804   9.705   5.315  0.1673  0.1398 -0.1405
27239SOL    HW184034   6.743   9.649   5.265 -0.3089  0.6785 -0.1731
27239SOL    HW284035   6.870   9.730   5.251 -1.0544  1.7517 -0.8366
27240SOL     OW84036   5.155   4.009   8.027  0.3520 -0.1971 -0.1874
27240SOL    HW184037   5.215   3.940   8.053 -2.2708 -1.8279  2.0861
27240SOL    HW284038   5.123   4.046   8.109 -1.4746  0.8283 -1.2856
27241SOL     OW84039  10.131   8.374   0.812 -0.1852 -0.2835 -0.4682
27241SOL    HW184040  10.154   8.348   0.723  0.6555  2.0341 -0.9973
27241SOL    HW284041  10.036   8.361   0.817 -0.3919  0.3518 -2.0189
27242SOL     OW84042  10.270   8.354   8.211 -0.2995 -0.1395 -0.3127
27242SOL    HW184043  10.303   8.284   8.154 -2.0440 -1.9421  0.7684
27242SOL    HW284044  10.207   8.401   8.157 -1.4459 -1.4143 -0.1233
27243SOL     OW84045   4.505   4.440   0.385  0.4329  0.2229  0.6513
27243SOL    HW184046   4.448   4.463   0.312  0.0323 -0.8265  0.6184
27243SOL    HW284047   4.456   4.375   0.435  1.6339 -0.7698  0.5712
27244SOL     OW84048  10.295  10.324   2.221  0.0420  0.2948  0.2957
27244SOL    HW184049  10.210  10.281   2.210  0.2854 -0.4387  1.1884
27244SOL    HW284050  10.350  10.259   2.264  0.6457  1.2513  1.0190
27245SOL     OW84051   1.650   5.326   7.984  0.1773  0.1767  0.3079
27245SOL    HW184052   1.678   5.403   7.935  0.7661  0.7320  1.4848
27245SOL    HW284053   1.569   5.298   7.940  1.4486 -0.2685 -1.9026
27246SOL     OW84054   2.485   0.130   6.743  0.5129 -0.0525 -0.1329
27246SOL    HW184055   2.468   0.036   6.754 -0.2694  0.0963 -0.0600
27246SOL    HW284056   2.543   0.134   6.667  1.0880 -0.6412  0.2615
27247SOL     OW84057   7.373  10.014   5.019  0.1660 -0.2700 -0.3039
27247SOL    HW184058   7.319   9.995   5.095  1.2142 -0.0877  0.5120
27247SOL    HW284059   7.368   9.935   4.965 -1.3935 -0.0182 -0.5698
27248SOL     OW84060   8.849   2.887   5.518 -0.0823 -0.5872  0.4052
27248SOL    HW184061   8.938   2.910   5.493  1.2770 -2.6129  2.8397
27248SOL    HW284062   8.806   2.861   5.436  1.8270 -0.3668 -0.7115
27249SOL     OW84063   9.307   3.522   9.384  0.0160  0.0807 -0.3359
27249SOL    HW184064   9.245   3.594   9.383  0.7145  0.6817 -0.9810
27249SOL    HW284065   9.280   3.465   9.312  1.0003  1.0261 -1.4677
27250SOL     OW84066   7.665   0.514   4.728  0.1297 -0.1470 -0.1226
27250SOL    HW184067   7.664   0.420   4.742  1.6675 -0.0691  0.8223
27250SOL    HW284068   7.625   0.550   4.808 -0.5887  0.0141 -0.5443
27251SOL     OW84069   0.972   3.247   5.980 -0.2329  0.0541 -0.5146
27251SOL    HW184070   0.897   3.270   6.035  0.2660  0.7447 -0.1239
27251SOL    HW284071   1.025   3.189   6.035  1.3966  2.4762  0.5835
27252SOL     OW84072   7.705   4.668   3.669  0.1474  0.1549  0.2915
27252SOL    HW184073   7.638   4.707   3.612 -0.1167 -1.0133 -0.2046
27252SOL    HW284074   7.733   4.589   3.624  0.7068 -0.2256  1.2808
27253SOL     OW84075   0.219   4.173   8.752  0.3353  0.8124 -0.0997
27253SOL    HW184076   0.239   4.193   8.844  0.4562 -0.1663  0.1045
27253SOL    HW284077   0.283   4.105   8.729 -0.7802 -0.1697 -0.3841
27254SOL     OW84078   2.657   3.360  10.293 -0.6145  0.1714 -0.0620
27254SOL    HW184079   2.611   3.276  10.294  0.1128 -0.2798 -1.0910
27254SOL    HW284080   2.704   3.363  10.376 -3.0321  0.9923  1.3369
27255SOL     OW84081   0.393   2.013   2.008  0.2744  0.2404 -0.2621
27255SOL    HW184082   0.322   1.954   2.032 -0.9294  1.1506 -1.3884
27255SOL    HW284083   0.373   2.037   1.917  1.4327  1.3489 -0.2457
27256SOL     OW84084   2.886   8.387   5.097  0.8205  0.3534 -0.1256
27256SOL    HW184085   2.971   8.422   5.069  0.1034  0.5000 -2.3156
27256SOL    HW284086   2.822   8.439   5.049 -0.4080 -1.5564 -0.6772
27257SOL     OW84087   2.561   6.412   7.213 -0.7805  0.4612  0.4023
27257SOL    HW184088   2.598   6.483   7.265 -0.6250  0.0156  0.9033
27257SOL    HW284089   2.548   6.451   7.126  0.3992  0.7739  0.3460
27258SOL     OW84090   7.291   7.782   2.015  0.1669 -0.1105 -0.0920
27258SOL    HW184091   7.303   7.715   1.948  2.1719  0.3803 -0.2915
27258SOL    HW284092   7.209   7.759   2.058 -0.4349 -1.2567 -1.7669
27259SOL     OW84093   8.209   8.883   8.962 -0.3370  0.2073  0.0014
27259SOL    HW184094   8.223   8.789   8.950  0.7934  0.5129 -1.3204
27259SOL    HW284095   8.258   8.905   9.042 -0.1027 -0.2305 -0.0191
27260SOL     OW84096   3.136   3.521   2.586 -0.4130  0.3010 -0.0889
27260SOL    HW184097   3.103   3.529   2.497 -1.0390 -0.6152  0.0475
27260SOL    HW284098   3.164   3.609   2.609  1.4261  0.2215 -1.8115
27261SOL     OW84099   5.615   9.929   1.974 -0.0500  0.3245 -0.1965
27261SOL    HW184100   5.670   9.964   1.903  0.8061  1.1598  0.8461
27261SOL    HW284101   5.631   9.988   2.047  1.8110 -2.4385  1.8203
27262SOL     OW84102   6.366   7.271   6.118 -0.0275  0.5457 -0.7729
27262SOL    HW184103   6.407   7.358   6.112  1.1663 -0.0072 -0.8059
27262SOL    HW284104   6.435   7.210   6.095 -0.6407 -0.4729  0.0071
27263SOL     OW84105   4.364   4.982   3.991  0.2609 -0.0386 -0.0592
27263SOL    HW184106   4.342   5.043   3.922  0.6094  0.3316  0.1547
27263SOL    HW284107   4.289   4.922   3.995  1.5290 -2.0490 -2.9004
27264SOL     OW84108   7.295   3.308   3.676 -0.2542 -0.1950 -0.0227
27264SOL    HW184109   7.324   3.235   3.732  0.0994 -0.3709 -0.4320
27264SOL    HW284110   7.215   3.339   3.718 -1.3764 -1.9284 -0.7853
27265SOL     OW84111   2.572   3.669   8.168 -0.1382 -0.2074  0.0117
27265SOL    HW184112   2.650   3.667   8.224  1.1418 -1.0321 -1.7069
27265SOL    HW284113   2.557   3.763   8.153  0.8132 -0.0422 -0.0099
27266SOL     OW84114   4.619   2.598   8.456  0.3941  0.6604 -0.4783
27266SOL    HW184115   4.600   2.559   8.541 -0.5282 -0.1703 -1.0466
27266SOL    HW284116   4.705   2.564   8.432 -0.1331 -0.5771 -0.6909
27267SOL     OW84117  10.052   1.604   6.201 -0.0483  0.2732 -0.0531
27267SOL    HW184118  10.003   1.651   6.134  0.1699 -1.2054 -1.3136
27267SOL    HW284119  10.138   1.588   6.161 -0.0146 -0.8803  0.4384
27268SOL     OW84120   9.597  10.526   2.203  0.5745 -0.0922  0.3116
27268SOL    HW184121   9.506  10.521   2.172  0.3900  2.0373  0.3100
27268SOL    HW284122   9.594  10.490   2.291  0.0728 -1.5050 -0.2523
27269SOL     OW84123   5.751   7.280   5.685 -0.5453  0.4160 -0.0555
27269SOL    HW184124   5.760   7.306   5.593  0.3844 -0.0809 -0.1147
27269SOL    HW284125   5.665   7.238   5.689 -0.7290  0.7285 -0.6268
27270SOL     OW84126   9.004  10.563   6.255  0.1680 -0.1620 -0.1414
27270SOL    HW184127   9.030  10.645   6.296  0.9987 -0.9934  1.0849
27270SOL    HW284128   9.080  10.538   6.202  0.1387 -0.4054 -0.0705
27271SOL     OW84129   7.528   2.038   8.089  0.7967  0.4713 -0.0055
27271SOL    HW184130   7.607   2.069   8.044  1.2688 -0.0543  0.4544
27271SOL    HW284131   7.561   1.983   8.160  0.0302  0.6494  0.4934
27272SOL     OW84132   3.983   3.214   4.741  0.3535  0.1161 -0.1344
27272SOL    HW184133   4.034   3.294   4.731  0.4412  0.2691  1.3933
27272SOL    HW284134   3.978   3.200   4.835  0.1555 -1.5711 -0.3736
27273SOL     OW84135   2.260   1.166   6.571  0.0121 -0.2074 -0.2470
27273SOL    HW184136   2.333   1.228   6.572  0.7230 -1.0195 -0.4196
27273SOL    HW284137   2.261   1.126   6.658 -1.5077  1.2009  0.4703
27274SOL     OW84138   1.413   8.220   0.047 -0.2316 -0.1288  0.0954
27274SOL    HW184139   1.507   8.205   0.036 -0.1092 -3.1924  3.5448
27274SOL    HW284140   1.402   8.314   0.032  3.0373  0.0772 -1.9939
27275SOL     OW84141   9.276   8.526   3.781  0.5853  0.0165  0.2224
27275SOL    HW184142   9.345   8.551   3.720  1.7544 -0.6646  1.2304
27275SOL    HW284143   9.194   8.543   3.733  1.4427 -1.6688 -2.0444
27276SOL     OW84144   1.534   4.559   9.300  0.2665  0.0708 -0.2712
27276SOL    HW184145   1.459   4.611   9.328 -0.3315 -1.1613  0.5079
27276SOL    HW284146   1.610   4.605   9.337 -0.3109 -0.0778  1.1632
27277SOL     OW84147   5.970   2.682   7.144  0.5004  0.6032 -0.1885
27277SOL    HW184148   5.962   2.656   7.236  0.0260  2.0253  0.2080
27277SOL    HW284149   5.891   2.734   7.127  1.2571  1.5445 -0.9714
27278SOL     OW84150   7.072   0.932   1.194  0.4838  0.0804 -0.0555
27278SOL    HW184151   7.074   0.838   1.177 -1.2347  0.1423 -0.8264
27278SOL    HW284152   7.005   0.943   1.262  0.6865  0.7431  0.0446
27279SOL     OW84153   2.480   6.293   5.726 -0.1620  0.0313  0.5472
27279SOL    HW184154   2.529   6.212   5.712  2.6634  1.7824 -0.4099
27279SOL    HW284155   2.401   6.283   5.673  1.3074 -1.1630 -1.5648
27280SOL     OW84156   4.138   6.147   5.064  0.0865 -0.3779 -0.1476
27280SOL    HW184157   4.126   6.238   5.037  1.5126 -0.3890 -0.8968
27280SOL    HW284158   4.203   6.113   5.003 -0.6168 -1.9883 -0.0387
27281SOL     OW84159   1.489   1.025   9.970  0.1390  0.7694  0.4452
27281SOL    HW184160   1.486   0.949  10.028  1.2514  0.4832  0.1421
27281SOL    HW284161   1.410   1.075   9.992  1.6927  1.9580  3.9220
27282SOL     OW84162   2.091  10.112   0.756 -0.2360  0.0737  0.2734
27282SOL    HW184163   2.021  10.074   0.810  0.2510 -1.1015  0.0979
27282SOL    HW284164   2.067  10.090   0.666  0.4786 -0.5631  0.2303
27283SOL     OW84165   6.114   8.777   5.308  0.0082  0.4973 -0.2172
27283SOL    HW184166   6.187   8.839   5.308  0.9433 -0.5276  1.4041
27283SOL    HW284167   6.111   8.744   5.398 -3.6013  1.7506  0.2896
27284SOL     OW84168   2.027   8.515   5.413 -0.2735 -0.2077  0.4025
27284SOL    HW184169   2.047   8.435   5.463 -1.2241 -1.3406 -0.9677
27284SOL    HW284170   1.994   8.484   5.329 -0.3785  1.6485 -0.2921
27285SOL     OW84171   0.730   5.578   4.203 -0.6687 -0.2333 -0.2351
27285SOL    HW184172   0.784   5.578   4.123 -0.5415  0.1352 -0.1497
27285SOL    HW284173   0.660   5.639   4.184 -0.0911  0.6155  0.3000
27286SOL     OW84174   7.481   4.929   0.933 -0.0200  0.3430 -0.6582
27286SOL    HW184175   7.498   4.835   0.928  0.4098  0.4480 -1.2109
27286SOL    HW284176   7.510   4.963   0.849  3.2646  1.5283  0.7942
27287SOL     OW84177   3.468   9.681   0.806  0.3533 -0.0624  0.0450
27287SOL    HW184178   3.426   9.620   0.745 -0.7735  2.0347 -1.4086
27287SOL    HW284179   3.546   9.711   0.760 -0.4269  1.4306 -0.3613
27288SOL     OW84180  10.363  10.442   2.469  0.4328  0.4072  0.0113
27288SOL    HW184181  10.429  10.376   2.491 -0.3082 -0.6108 -0.7346
27288SOL    HW284182  10.305  10.399   2.406 -1.0717  1.1834  0.7901
27289SOL     OW84183   7.527   9.048   5.275 -0.0387 -0.3326  0.0393
27289SOL    HW184184   7.536   8.953   5.276 -1.3561 -0.4853 -0.3378
27289SOL    HW284185   7.600   9.080   5.328  1.0663 -1.4831 -0.7262
27290SOL     OW84186   4.139   5.420   4.462 -0.7592 -0.1503 -0.1675
27290SOL    HW184187   4.058   5.394   4.506  0.1756 -1.8617  0.6433
27290SOL    HW284188   4.158   5.507   4.497 -1.8441 -0.0319  0.1796
27291SOL     OW84189   7.531   7.773   5.804  0.1244  0.0463  0.4719
27291SOL    HW184190   7.449   7.795   5.849  0.8923  2.5673  0.7869
27291SOL    HW284191   7.566   7.699   5.854 -0.7347  0.5873  1.9525
27292SOL     OW84192   8.904   8.824   2.457 -0.4370 -0.2969  0.0748
27292SOL    HW184193   8.858   8.905   2.433  0.9242  0.3770 -0.3708
27292SOL    HW284194   8.897   8.769   2.379 -0.3903 -0.1490 -0.0342
27293SOL     OW84195   0.256   9.042   2.599 -0.1480  0.3519 -0.1514
27293SOL    HW184196   0.298   9.113   2.549  0.4619 -0.1667 -0.3973
27293SOL    HW284197   0.315   9.027   2.673  0.3006 -0.6301 -0.6957
27294SOL     OW84198   5.422   9.968   9.706 -0.0070 -0.2099 -0.2375
27294SOL    HW184199   5.442  10.061   9.706 -2.9906  0.5534  1.5775
27294SOL    HW284200   5.362   9.956   9.633 -1.5727 -0.1340  0.9834
27295SOL     OW84201   6.524   8.587   6.087  0.3035 -0.6534  0.0534
27295SOL    HW184202   6.613   8.557   6.068  0.0457 -0.0232 -2.5338
27295SOL    HW284203   6.495   8.627   6.005 -1.8149  0.5449  1.3203
27296SOL     OW84204   9.477   7.940   1.974 -0.3011  0.4403  0.8625
27296SOL    HW184205   9.486   8.018   1.919 -0.4428 -0.3536 -0.3217
27296SOL    HW284206   9.564   7.928   2.012  0.3587 -0.0911 -0.7340
27297SOL     OW84207   0.750   0.396   2.312  0.8652  0.4923  0.0529
27297SOL    HW184208   0.818   0.412   2.246  0.0911  1.2718 -0.5839
27297SOL    HW284209   0.779   0.443   2.390  1.5492 -0.0255  0.1129
27298SOL     OW84210   5.775   8.649   6.041 -0.0282  0.1496 -0.3674
27298SOL    HW184211   5.781   8.633   6.135  0.7779  2.3602  0.0248
27298SOL    HW284212   5.692   8.695   6.030  0.8240  1.7763 -0.3636
27299SOL     OW84213   7.652   7.357   3.371  0.5215  0.5162  0.3908
27299SOL    HW184214   7.624   7.416   3.301 -1.2339 -1.6623 -0.8482
27299SOL    HW284215   7.727   7.311   3.335 -0.0389 -0.2040  0.1147
27300SOL     OW84216   6.722   1.185   7.414  0.2092  0.1830  0.1423
27300SOL    HW184217   6.703   1.278   7.413  1.6021  0.4972  0.4277
27300SOL    HW284218   6.682   1.151   7.334 -3.1908  0.3503  1.6097
27301SOL     OW84219   5.189   6.729   0.300  0.2070  0.1841  0.2458
27301SOL    HW184220   5.281   6.731   0.273  0.1552 -1.8590 -0.2409
27301SOL    HW284221   5.142   6.776   0.231  0.4052 -2.6149 -1.9320
27302SOL     OW84222   3.382  10.160  10.536  0.3594 -0.2286  0.5957
27302SOL    HW184223   3.376  10.064  10.540  0.9009 -0.2556  0.8805
27302SOL    HW284224   3.466  10.180  10.576  0.5757  0.3214 -0.1105
27303SOL     OW84225   7.979   4.147   7.451  0.0407  0.1891  0.1933
27303SOL    HW184226   7.952   4.139   7.543  2.5948  0.7485  1.0499
27303SOL    HW284227   7.961   4.061   7.414 -6.0586  1.2671 -0.4166
27304SOL     OW84228   9.743   5.654   2.321  0.0536  0.1468  0.1672
27304SOL    HW184229   9.715   5.611   2.240  0.2253  0.6995 -0.1886
27304SOL    HW284230   9.662   5.674   2.367 -0.1919  2.0538 -1.0178
27305SOL     OW84231   1.289   0.022   7.222 -0.5440 -0.1898  0.0410
27305SOL    HW184232   1.373   0.005   7.179 -0.3833 -0.0753  0.3061
27305SOL    HW284233   1.238   0.071   7.157  0.2869  1.4056  0.5345
27306SOL     OW84234   5.214   4.611   4.452 -0.0453  0.0353 -0.2897
27306SOL    HW184235   5.148   4.562   4.501  0.4416  1.6651  2.1734
27306SOL    HW284236   5.167   4.642   4.374 -1.3721 -1.1298 -0.0118
27307SOL     OW84237   0.773   1.341   0.136 -0.0056  0.1283 -0.1883
27307SOL    HW184238   0.838   1.361   0.068  2.5081  0.9210  2.2813
27307SOL    HW284239   0.783   1.412   0.200 -0.1200 -2.1203  2.4868
27308SOL     OW84240   4.079   8.246   9.394  0.4779  0.3273 -0.4660
27308SOL    HW184241   4.094   8.275   9.304  0.3287  0.5608 -0.4191
27308SOL    HW284242   4.099   8.323   9.448  1.9648 -0.2153 -0.1794
27309SOL     OW84243   7.879   3.961   1.100 -0.4991 -0.0729  0.0286
27309SOL    HW184244   7.859   3.948   1.007  0.3147  0.0104 -0.1720
27309SOL    HW284245   7.889   4.056   1.109 -0.2479 -0.1066  0.1245
27310SOL     OW84246  10.446   6.600   2.572 -0.0662  0.4985  0.5226
27310SOL    HW184247  10.375   6.537   2.586 -0.3508  0.6819 -0.0494
27310SOL    HW284248  10.525   6.552   2.595 -0.3108  0.0368  0.4330
27311SOL     OW84249   9.914   9.542   6.855 -0.4722 -0.5179  0.4425
27311SOL    HW184250   9.828   9.500   6.863 -1.1011  0.7140  0.3046
27311SOL    HW284251   9.914   9.580   6.767 -0.4114  0.8251  0.9992
27312SOL     OW84252   7.905   8.914   4.694  0.1326  0.1084  0.1522
27312SOL    HW184253   7.830   8.974   4.702  0.4525  0.3411  1.6749
27312SOL    HW284254   7.866   8.832   4.664 -0.6687  0.3749  0.4203
27313SOL     OW84255  10.151   2.312   0.848  0.1717 -0.1735 -0.1407
27313SOL    HW184256  10.164   2.326   0.754  0.5271  1.9227  0.1828
27313SOL    HW284257  10.211   2.373   0.890  0.0301 -1.1002  1.4762
27314SOL     OW84258   2.466   9.565   6.849 -0.1437 -0.3947 -0.5667
27314SOL    HW184259   2.443   9.617   6.926 -1.0747  1.3992 -1.9955
27314SOL    HW284260   2.547   9.603   6.817 -1.0491  0.5295 -1.8656
27315SOL     OW84261   9.258   6.869   1.169 -0.0387  0.3064 -0.2364
27315SOL    HW184262   9.280   6.781   1.139  0.5359 -0.1102  1.3181
27315SOL    HW284263   9.246   6.919   1.089 -2.0366 -1.5569 -1.2284
27316SOL     OW84264   1.439   6.324   4.684 -0.6576 -0.3591 -0.0398
27316SOL    HW184265   1.375   6.304   4.615 -2.2262 -1.0540  1.5440
27316SOL    HW284266   1.485   6.241   4.698 -0.1296 -0.1408 -0.4084
27317SOL     OW84267   4.100   2.831   1.833 -0.1953  0.5460 -0.5404
27317SOL    HW184268   4.189   2.813   1.864 -0.4571 -0.9950 -0.6312
27317SOL    HW284269   4.085   2.922   1.859  1.0439  0.5389  0.3490
27318SOL     OW84270   2.042   3.881   9.845 -0.3568  0.2601 -0.0894
27318SOL    HW184271   2.115   3.828   9.813 -0.8641 -0.8937  0.6092
27318SOL    HW284272   1.964   3.838   9.810 -0.7288  1.7742 -1.2577
27319SOL     OW84273   1.608   1.046   2.456  0.0401  0.0575 -0.2760
27319SOL    HW184274   1.634   0.955   2.440  0.9186  0.2006  0.2337
27319SOL    HW284275   1.534   1.040   2.516 -0.0515 -0.3266 -0.4272
27320SOL     OW84276   0.296   9.634   1.076  0.2966  0.3352 -0.6353
27320SOL    HW184277   0.303   9.556   1.131 -0.7746  0.7661  0.1671
27320SOL    HW284278   0.368   9.690   1.105  0.6663 -0.0772 -0.7525
27321SOL     OW84279   5.070   2.038   0.692 -0.0470  0.2245 -0.0227
27321SOL    HW184280   5.143   1.979   0.705 -0.1549 -0.6303 -2.5905
27321SOL    HW284281   5.052   2.075   0.778  1.7612 -1.4411  1.1394
27322SOL     OW84282   7.741   2.752   7.666 -0.1749  0.1409  0.1327
27322SOL    HW184283   7.698   2.670   7.689 -0.2214 -0.3330 -1.4996
27322SOL    HW284284   7.806   2.765   7.736  0.5847 -1.8573 -0.1132
27323SOL     OW84285   0.025  10.309   0.975 -0.4099 -0.2935  0.7274
27323SOL    HW184286   0.018  10.371   1.048 -1.1353 -1.7711  1.9656
27323SOL    HW284287  -0.066  10.291   0.950 -0.1688  1.3379 -1.6198
27324SOL     OW84288   0.719   6.848   4.367  0.6224 -0.4553 -0.2566
27324SOL    HW184289   0.696   6.920   4.309 -0.8254 -0.3870  0.3707
27324SOL    HW284290   0.758   6.890   4.444  0.5650 -0.4015 -0.2571
27325SOL     OW84291   9.812   3.364   4.257  0.4559 -0.1969 -0.3764
27325SOL    HW184292   9.867   3.428   4.303  1.0114  0.3684 -1.7659
27325SOL    HW284293   9.781   3.305   4.326 -0.4734  1.8262  1.0388
27326SOL     OW84294   5.725   1.331   2.045  0.3458  0.1670  0.0772
27326SOL    HW184295   5.655   1.368   2.099  1.6337  1.3235  1.0063
27326SOL    HW284296   5.721   1.382   1.964 -0.2173 -0.1306 -0.0898
27327SOL     OW84297   5.044   0.489   5.410  0.1071 -0.0853  0.0248
27327SOL    HW184298   4.980   0.555   5.382  0.0971 -0.2286 -0.3008
27327SOL    HW284299   5.084   0.526   5.489 -0.5320 -0.0990  0.3565
27328SOL     OW84300   3.145   5.569  10.314 -0.2973 -0.1247 -0.6970
27328SOL    HW184301   3.217   5.628  10.291  0.8209 -0.8317  0.7740
27328SOL    HW284302   3.088   5.622  10.370  0.0263 -0.0613 -0.4204
27329SOL     OW84303   0.468   3.861   4.135 -0.1261 -0.1167 -0.0432
27329SOL    HW184304   0.442   3.936   4.082 -0.0403  1.1555  1.6319
27329SOL    HW284305   0.556   3.883   4.166 -0.8004 -0.0189  1.9414
27330SOL     OW84306   4.603   1.135   8.657 -0.3924 -0.8020  0.1694
27330SOL    HW184307   4.626   1.228   8.654  0.1059 -0.9222 -3.3339
27330SOL    HW284308   4.514   1.134   8.693  0.0134  0.8733  1.3561
27331SOL     OW84309   1.628   2.849   0.138  0.2227 -0.2707  0.4809
27331SOL    HW184310   1.541   2.811   0.127  0.3389 -0.6946  0.9781
27331SOL    HW284311   1.612   2.933   0.183  0.0961 -0.5064  0.8821
27332SOL     OW84312   1.936   5.670   4.318  0.1152  0.5344 -0.3023
27332SOL    HW184313   1.893   5.703   4.397  1.0434 -0.6975  0.7637
27332SOL    HW284314   1.901   5.582   4.307  1.2977  0.0409 -0.2301
27333SOL     OW84315   7.186   8.893   4.462 -0.2625  0.1474 -0.5670
27333SOL    HW184316   7.103   8.881   4.508 -0.0343 -0.4528 -0.3032
27333SOL    HW284317   7.242   8.823   4.495  0.2923  0.4400 -0.8753
27334SOL     OW84318   4.133   1.106   4.623 -0.0496  0.0714 -0.2158
27334SOL    HW184319   4.078   1.163   4.569 -1.3944 -0.4976  0.5046
27334SOL    HW284320   4.155   1.160   4.699 -0.3474  0.0289 -0.0948
27335SOL     OW84321   9.215   3.086   2.896  0.4605 -0.1459  0.2271
27335SOL    HW184322   9.210   3.162   2.838  0.1959 -0.2302  0.1362
27335SOL    HW284323   9.217   3.011   2.837 -2.0941 -0.3637  0.3040
27336SOL     OW84324   6.895   3.349   5.807 -0.0952 -0.0959  0.0010
27336SOL    HW184325   6.969   3.329   5.750  0.4423  1.1743  0.2077
27336SOL    HW284326   6.817   3.330   5.754  0.3460 -1.7971 -0.0977
27337SOL     OW84327   8.905   9.640   2.477 -0.1821 -0.2647  0.8330
27337SOL    HW184328   8.833   9.618   2.536 -3.0825 -1.4221 -2.7491
27337SOL    HW284329   8.909   9.736   2.479 -0.4695 -0.2516  2.4941
27338SOL     OW84330   0.159   0.145  10.015  0.0732 -0.0171  0.2707
27338SOL    HW184331   0.143   0.053  10.032 -1.6082  0.5516  2.1239
27338SOL    HW284332   0.072   0.185  10.016  0.7792  1.6248 -0.3346
27339SOL     OW84333  10.493   5.240  10.310  0.6868  0.1619  0.1671
27339SOL    HW184334  10.581   5.253  10.344 -0.0134  0.4126  1.9947
27339SOL    HW284335  10.457   5.169  10.362 -0.5357  0.7290  0.1397
27340SOL     OW84336   5.250   2.407   1.021  0.5340  0.3453 -0.1114
27340SOL    HW184337   5.157   2.428   1.034  0.1866 -1.4533  0.5146
27340SOL    HW284338   5.288   2.414   1.109  0.8020  0.2063 -0.2154
27341SOL     OW84339   0.607  10.189   1.973 -0.0262  1.0693  0.2541
27341SOL    HW184340   0.578  10.268   1.926 -0.7220  0.0930 -1.0347
27341SOL    HW284341   0.556  10.118   1.933  1.0538 -0.1223  0.9361
27342SOL     OW84342   2.827   6.715   9.415 -0.4219  0.3938 -0.2249
27342SOL    HW184343   2.899   6.749   9.468  0.4673 -0.0292 -1.1351
27342SOL    HW284344   2.765   6.680   9.479  0.8758 -0.6065  0.5365
27343SOL     OW84345   8.623   1.985   9.001 -0.1280  0.6949  0.5254
27343SOL    HW184346   8.683   2.059   9.012 -1.3946  1.8559 -0.1204
27343SOL    HW284347   8.619   1.972   8.906  0.7539 -0.8126  0.6572
27344SOL     OW84348  10.190   6.330   1.193  0.0114  0.3004 -0.2462
27344SOL    HW184349  10.265   6.385   1.169 -0.1788 -0.0210 -1.6278
27344SOL    HW284350  10.149   6.377   1.266  1.4561  0.5542  0.4532
27345SOL     OW84351   5.594   1.443   8.520 -1.2998  0.3158  0.3131
27345SOL    HW184352   5.529   1.435   8.590 -0.5470 -0.2586  0.9735
27345SOL    HW284353   5.678   1.452   8.566 -0.8869  0.8871 -0.5189
27346SOL     OW84354   5.815   0.936   5.119 -0.0713 -0.2845  0.1910
27346SOL    HW184355   5.785   0.853   5.082  1.5913 -0.9405  0.2289
27346SOL    HW284356   5.898   0.954   5.076 -0.1038  1.0620  0.6263
27347SOL     OW84357   4.636   5.115   7.787 -0.3283 -0.2922  0.3592
27347SOL    HW184358   4.600   5.068   7.862  1.7958 -0.5147  1.3126
27347SOL    HW284359   4.618   5.207   7.805 -0.4471 -0.3946  0.7727
27348SOL     OW84360   5.268   5.699  10.420  0.1535  0.2805 -0.4393
27348SOL    HW184361   5.240   5.672  10.507  0.0099  0.2445 -0.4972
27348SOL    HW284362   5.245   5.792  10.415  2.6202  1.0479  0.6021
27349SOL     OW84363   7.273   4.154   4.396 -0.2626  0.0571 -0.1725
27349SOL    HW184364   7.252   4.187   4.483 -1.5762  0.5517 -0.6525
27349SOL    HW284365   7.340   4.088   4.410  0.1872  0.7614  1.1200
27350SOL     OW84366   2.398   3.782   3.970 -0.3997 -0.6511 -0.3208
27350SOL    HW184367   2.369   3.714   4.031  0.9419 -1.1669 -0.2367
27350SOL    HW284368   2.433   3.733   3.895  1.6544 -0.0981  0.2381
27351SOL     OW84369   1.260   5.575   7.093 -0.0948  0.1008  0.0082
27351SOL    HW184370   1.318   5.651   7.090 -0.5990  0.4505 -1.0294
27351SOL    HW284371   1.319   5.501   7.105  0.5529  0.4787 -0.7730
27352SOL     OW84372   1.843   2.318   2.278 -0.4503  0.2628 -0.4185
27352SOL    HW184373   1.794   2.236   2.277  0.7725 -0.5093  0.6371
27352SOL    HW284374   1.873   2.329   2.188  0.9415 -1.4587 -0.2212
27353SOL     OW84375  10.115   6.129   5.480 -0.5073  0.8533  0.0610
27353SOL    HW184376  10.089   6.124   5.388  1.0765  2.5538 -0.5403
27353SOL    HW284377  10.203   6.165   5.479 -1.1162  2.7268  2.2910
27354SOL     OW84378   6.143  10.433   9.295 -0.7261  0.1256 -0.1094
27354SOL    HW184379   6.067  10.474   9.255 -0.5415 -1.1985 -1.9499
27354SOL    HW284380   6.146  10.469   9.384 -2.3136  1.6924 -0.6398
27355SOL     OW84381   2.598   9.258   9.822 -0.3621  0.3227  0.0595
27355SOL    HW184382   2.690   9.264   9.845 -0.5542  2.6555  0.4591
27355SOL    HW284383   2.594   9.283   9.730 -0.6274  0.6145  0.1472
27356SOL     OW84384   4.195   7.907   6.220 -0.0633 -0.0703 -0.4700
27356SOL    HW184385   4.257   7.964   6.265  0.3172 -0.8551  0.0186
27356SOL    HW284386   4.197   7.825   6.269 -1.3722 -0.1713 -0.5368
27357SOL     OW84387   7.390   8.670   8.781  0.3043  0.3016 -0.0004
27357SOL    HW184388   7.427   8.583   8.795 -0.8670  0.0526  1.8392
27357SOL    HW284389   7.295   8.658   8.793 -0.3898  1.1111 -3.5116
27358SOL     OW84390   1.078   2.633   4.429  0.2536  0.3694 -0.8224
27358SOL    HW184391   1.011   2.609   4.493 -0.5888  1.7279 -1.1523
27358SOL    HW284392   1.139   2.559   4.430 -1.1030 -0.7961 -0.3409
27359SOL     OW84393   9.144   5.917  10.593 -0.2660  0.2745 -0.0374
27359SOL    HW184394   9.195   5.836  10.598  1.3279  1.1169 -1.7145
27359SOL    HW284395   9.193   5.979  10.647  0.3088  0.9747 -1.3217
27360SOL     OW84396   5.134   8.614   2.515 -0.1531  0.1397  0.1320
27360SOL    HW184397   5.219   8.572   2.532 -0.6605 -0.7276  0.5543
27360SOL    HW284398   5.087   8.607   2.598 -0.4510  1.0845  0.0525
27361SOL     OW84399   5.693   9.810   9.080 -0.4892  0.9176  0.0407
27361SOL    HW184400   5.613   9.847   9.043  0.2619  1.9663 -0.5877
27361SOL    HW284401   5.700   9.723   9.040 -3.0085 -0.6407  2.5706
27362SOL     OW84402   8.983   6.723   9.200 -0.5696  0.5745  0.3927
27362SOL    HW184403   9.073   6.701   9.225 -0.8457  0.0592  0.9794
27362SOL    HW284404   8.969   6.678   9.117 -0.2285  0.7944  0.2185
27363SOL     OW84405  10.333   7.033   7.238  0.0660  0.8422  0.0015
27363SOL    HW184406  10.414   6.994   7.270 -0.1036 -0.4670 -1.0666
27363SOL    HW284407  10.356   7.074   7.155  0.3373  3.5356  1.3069
27364SOL     OW84408   8.112   8.805   6.430  0.3055  0.1503  0.3511
27364SOL    HW184409   8.155   8.859   6.364  0.3399 -0.2448  0.0481
27364SOL    HW284410   8.025   8.787   6.394  0.0870  0.4686  0.7059
27365SOL     OW84411   6.305   0.997   8.873 -0.0562  0.6532 -0.0363
27365SOL    HW184412   6.249   0.920   8.878 -0.1988  0.7160 -0.6537
27365SOL    HW284413   6.369   0.984   8.943  0.7692 -0.7034 -0.9914
27366SOL     OW84414   8.662   1.975   2.500 -0.0861 -0.0916  0.0487
27366SOL    HW184415   8.662   1.890   2.544 -2.4919  0.7396  1.8608
27366SOL    HW284416   8.677   2.039   2.570  1.9723  1.0650 -1.3041
27367SOL     OW84417   7.506   9.776   3.190  0.2195 -0.3505  0.0363
27367SOL    HW184418   7.545   9.837   3.252  0.8714 -0.8044  0.0883
27367SOL    HW284419   7.513   9.690   3.233 -2.1248 -0.2939  0.6660
27368SOL     OW84420   4.828   4.353   8.704  0.0338 -0.1554 -0.6964
27368SOL    HW184421   4.759   4.335   8.640 -0.8927 -0.8217  0.4429
27368SOL    HW284422   4.794   4.317   8.786  1.7134 -0.4264 -0.0799
27369SOL     OW84423   8.918   8.622   0.179 -0.1180 -0.4415  0.3120
27369SOL    HW184424   8.850   8.688   0.162  0.7336  0.3421 -0.1418
27369SOL    HW284425   8.878   8.539   0.152 -1.1960 -0.1213  0.8477
27370SOL     OW84426   2.195   1.273   6.979  0.3191  0.6346 -0.1941
27370SOL    HW184427   2.277   1.285   6.931 -0.6060 -0.0902 -2.0651
27370SOL    HW284428   2.138   1.343   6.947 -1.2439 -1.4470 -2.4452
27371SOL     OW84429   6.659   3.415  10.414  0.0399  0.0276 -0.0103
27371SOL    HW184430   6.742   3.452  10.444  0.8814 -1.4809 -0.3970
27371SOL    HW284431   6.670   3.321  10.423 -2.0716 -0.1686  0.9989
27372SOL     OW84432   5.482   6.057   9.809  0.3125 -0.3342  0.0160
27372SOL    HW184433   5.491   5.964   9.787 -0.5208  0.2006 -3.1823
27372SOL    HW284434   5.571   6.093   9.798  0.4520 -0.5813  0.3298
27373SOL     OW84435   6.456   6.119   6.387  0.6924 -0.2034  0.2665
27373SOL    HW184436   6.478   6.168   6.308  0.6235  2.4069  1.7629
27373SOL    HW284437   6.360   6.121   6.390  0.7138  1.1736  1.1960
27374SOL     OW84438   1.157   3.140   0.430 -0.5706 -0.2004  0.0404
27374SOL    HW184439   1.197   3.053   0.437  0.6368  0.2669 -0.7430
27374SOL    HW284440   1.197   3.191   0.501  1.5735  0.7415 -1.7359
27375SOL     OW84441   4.779  10.005   2.565  0.3271  0.5756 -0.6260
27375SOL    HW184442   4.750  10.079   2.513 -0.6089  1.3709  0.9428
27375SOL    HW284443   4.699   9.965   2.598  0.8697  0.2583  0.3781
27376SOL     OW84444   2.217   8.760   4.531 -0.1286  0.7161  0.2441
27376SOL    HW184445   2.159   8.835   4.545  1.1015  1.5154  1.2550
27376SOL    HW284446   2.187   8.722   4.448 -0.9399  2.1717 -0.1629
27377SOL     OW84447   8.165   6.048   2.217 -0.4562 -0.7881 -0.3441
27377SOL    HW184448   8.141   6.128   2.173  1.4941  0.8346  1.3076
27377SOL    HW284449   8.241   6.072   2.270 -0.5706 -3.4152  1.1910
27378SOL     OW84450   8.118   5.837  10.038 -0.1496 -0.0190 -0.3421
27378SOL    HW184451   8.206   5.812  10.011 -0.6100 -1.5492 -0.5199
27378SOL    HW284452   8.087   5.764  10.092 -0.7601  1.1742  0.9970
27379SOL     OW84453   3.284   3.294   6.719  0.1585 -0.0414  0.5964
27379SOL    HW184454   3.368   3.266   6.684 -1.3379 -0.9971 -2.5817
27379SOL    HW284455   3.221   3.276   6.650 -2.5332  1.7618  2.3435
27380SOL     OW84456   1.972   6.034   3.470 -0.3132  0.0073 -0.4184
27380SOL    HW184457   2.010   6.040   3.558 -0.7739  0.7748 -0.2632
27380SOL    HW284458   1.975   5.941   3.449  0.5838 -0.0844  0.0586
27381SOL     OW84459   3.950   3.383   8.757  0.3242 -0.4535  0.1443
27381SOL    HW184460   3.912   3.403   8.672 -0.2054 -2.6845 -0.2241
27381SOL    HW284461   3.929   3.458   8.812 -2.0193 -0.2802 -0.8699
27382SOL     OW84462   2.768   5.235   6.297 -0.2256 -0.2511  0.0271
27382SOL    HW184463   2.855   5.265   6.273 -0.4889  0.8359  0.3452
27382SOL    HW284464   2.709   5.284   6.239 -0.6733 -0.2961  0.4393
27383SOL     OW84465   2.407   8.778   7.748  0.2328  0.0690  0.0696
27383SOL    HW184466   2.492   8.817   7.769  1.2581 -1.7165 -0.5774
27383SOL    HW284467   2.402   8.779   7.653  0.1042 -0.9993  0.0580
27384SOL     OW84468   4.217   2.872   0.581  0.1162  0.2307 -0.1152
27384SOL    HW184469   4.274   2.882   0.504 -0.7973  1.3898 -0.6665
27384SOL    HW284470   4.174   2.957   0.590 -0.9081 -0.3671  0.8028
27385SOL     OW84471   2.652   4.837   1.422  0.0580  0.1107 -0.1553
27385SOL    HW184472   2.744   4.821   1.403 -0.2874 -1.5439 -0.5386
27385SOL    HW284473   2.653   4.904   1.491  1.4504  2.1257 -1.9852
27386SOL     OW84474   9.552   3.649   9.407 -0.2277  0.0871  0.1125
27386SOL    HW184475   9.474   3.594   9.399  0.5637 -1.2008  0.8840
27386SOL    HW284476   9.518   3.734   9.436 -1.5404  0.2227 -1.6749
27387SOL     OW84477   7.022   9.079   5.818 -0.2805  0.5133 -0.1093
27387SOL    HW184478   7.066   9.045   5.740 -1.9546 -0.0348 -0.8580
27387SOL    HW284479   7.047   9.019   5.888  0.9503  0.7992 -0.2780
27388SOL     OW84480   7.861   0.273   2.472  0.0532 -0.0501  0.2879
27388SOL    HW184481   7.766   0.280   2.467 -0.1071 -0.4427  2.1740
27388SOL    HW284482   7.888   0.348   2.526  1.0324  1.0503 -1.6043
27389SOL     OW84483   5.841   8.548   0.586  0.0515  0.0025  0.0490
27389SOL    HW184484   5.763   8.551   0.532  0.4995 -1.1526 -0.6927
27389SOL    HW284485   5.868   8.456   0.585  0.1114 -0.0600  2.1935
27390SOL     OW84486   1.439   8.537   6.341 -0.0941 -0.4615  0.5349
27390SOL    HW184487   1.531   8.513   6.349 -0.0541 -0.5330 -0.1155
27390SOL    HW284488   1.421   8.591   6.418  0.4478 -0.5743  0.7414
27391SOL     OW84489   8.303  10.137   7.509  0.2539  0.2225  0.3899
27391SOL    HW184490   8.267  10.147   7.421 -0.1570 -0.3164  0.4897
27391SOL    HW284491   8.235  10.090   7.557 -0.5245  2.5253  1.6615
27392SOL     OW84492   4.634   5.395   6.749  0.1428  0.5457  0.0399
27392SOL    HW184493   4.616   5.397   6.655 -0.5104  0.2060  0.1467
27392SOL    HW284494   4.648   5.487   6.772 -0.0149  0.6666 -0.3296
27393SOL     OW84495   3.499   6.745   3.243  0.4502  0.2075 -0.4782
27393SOL    HW184496   3.413   6.744   3.201  0.5695  2.1210 -0.8920
27393SOL    HW284497   3.556   6.786   3.178  1.3561  0.2441  0.3170
27394SOL     OW84498   5.717   8.822   1.064  0.0233  0.7502  0.0717
27394SOL    HW184499   5.722   8.756   0.994  0.0769  0.8307 -0.0018
27394SOL    HW284500   5.634   8.867   1.049  0.1802  0.9743 -0.1276
27395SOL     OW84501   1.419   3.902   2.614 -0.1660 -0.5404  0.3522
27395SOL    HW184502   1.356   3.843   2.656  1.3709 -1.8274  0.9209
27395SOL    HW284503   1.476   3.844   2.563 -1.3671  0.8612 -2.8756
27396SOL     OW84504   2.983   6.942   0.794  0.3483  0.3631  0.0260
27396SOL    HW184505   2.906   6.948   0.850 -0.0693  0.8775 -0.5976
27396SOL    HW284506   3.012   7.032   0.782  1.1613  0.1612  0.4046
27397SOL     OW84507   0.156   8.897   8.869 -0.0049 -0.2127  0.5481
27397SOL    HW184508   0.156   8.873   8.777 -0.5089  0.4580  0.3642
27397SOL    HW284509   0.118   8.985   8.871 -0.2469 -0.3264  1.4190
27398SOL     OW84510   5.478   8.580   2.639  0.2252 -0.1195 -0.1698
27398SOL    HW184511   5.406   8.634   2.670 -1.8889 -2.6479 -0.3477
27398SOL    HW284512   5.506   8.622   2.558 -0.1881  1.5712  0.5097
27399SOL     OW84513   1.204   0.739   0.742  0.2393  0.1000 -0.3207
27399SOL    HW184514   1.258   0.817   0.741  0.1364  0.2139  1.1559
27399SOL    HW284515   1.266   0.666   0.740  0.3389  0.1918 -1.4753
27400SOL     OW84516   1.793   9.675   0.935 -0.3628 -0.3162  0.3934
27400SOL    HW184517   1.831   9.596   0.898  0.5663  0.9975 -1.6350
27400SOL    HW284518   1.729   9.704   0.871  1.3440  2.0739 -0.3902
27401SOL     OW84519   9.183   8.696   0.994  0.3186 -0.1571 -0.0932
27401SOL    HW184520   9.141   8.610   0.994 -2.5181  1.0788 -1.0640
27401SOL    HW284521   9.197   8.716   1.086 -0.6750 -0.9401  0.2505
27402SOL     OW84522   2.997   3.510   5.772 -0.0297  0.3576  0.1246
27402SOL    HW184523   2.973   3.426   5.810 -2.3815  1.2159  0.6889
27402SOL    HW284524   2.949   3.514   5.690 -1.6766  1.9858  1.1005
27403SOL     OW84525   4.060   5.012   7.562 -0.5690 -0.4398 -0.0477
27403SOL    HW184526   4.013   4.939   7.521 -2.2204 -0.1421  1.2051
27403SOL    HW284527   4.069   4.986   7.654 -0.1461  0.4354  0.1704
27404SOL     OW84528   1.432   0.596   1.259  0.2326  0.1569 -0.0643
27404SOL    HW184529   1.488   0.552   1.322  1.7615 -0.3008 -1.6641
27404SOL    HW284530   1.419   0.531   1.189 -2.5784  0.1338  0.3511
27405SOL     OW84531   0.164   1.420   2.677 -0.4775 -1.0091 -0.8200
27405SOL    HW184532   0.169   1.352   2.610  1.6340 -1.7808  0.0098
27405SOL    HW284533   0.203   1.380   2.755 -0.4465  0.7057  0.1070
27406SOL     OW84534   7.405   4.541   4.704  0.0584 -0.3696 -0.5001
27406SOL    HW184535   7.387   4.472   4.768 -1.3537  0.3301 -0.0992
27406SOL    HW284536   7.479   4.589   4.741 -1.2694  0.5638  1.1150
27407SOL     OW84537   8.885  10.346   3.313  0.0486  0.0853  0.7790
27407SOL    HW184538   8.949  10.396   3.364  0.4650 -0.2885  0.6241
27407SOL    HW284539   8.935  10.275   3.273 -0.2880  0.3220 -0.0916
27408SOL     OW84540   7.586   9.438   1.239  0.3195  0.1540 -0.2547
27408SOL    HW184541   7.615   9.365   1.294 -1.1619 -1.1678 -1.1295
27408SOL    HW284542   7.638   9.430   1.160 -0.2416 -0.3534 -0.5874
27409SOL     OW84543   6.344   4.881   8.961  0.9400 -0.1334 -0.4572
27409SOL    HW184544   6.361   4.907   9.051  0.8514 -0.6468 -0.2888
27409SOL    HW284545   6.264   4.928   8.937  0.6827 -0.3849 -0.0974
27410SOL     OW84546   8.082   8.495   0.164  0.1529 -0.6382  0.1528
27410SOL    HW184547   8.172   8.524   0.149  0.0665 -0.4244  0.0454
27410SOL    HW284548   8.055   8.541   0.243  0.2630 -0.9893  0.3955
27411SOL     OW84549   6.377   2.925   3.067  0.3889 -0.2529  0.3908
27411SOL    HW184550   6.453   2.901   3.015  0.8894  0.6609  0.6738
27411SOL    HW284551   6.373   3.021   3.061 -1.8962 -0.3703 -1.2065
27412SOL     OW84552   7.079   7.645   0.668 -0.0710 -0.2140 -0.3154
27412SOL    HW184553   7.060   7.660   0.575  1.3598 -2.7346 -1.1098
27412SOL    HW284554   7.002   7.599   0.701 -0.5945  0.7110 -0.1973
27413SOL     OW84555   5.042   1.062   5.406  0.3059 -0.1767  0.2245
27413SOL    HW184556   5.135   1.037   5.404 -0.1761 -2.1967  0.7237
27413SOL    HW284557   5.009   1.022   5.487 -0.8277  1.2720  0.5081
27414SOL     OW84558   5.113   6.674  10.397  0.2945 -0.1738 -0.0650
27414SOL    HW184559   5.082   6.754  10.440  0.0052 -1.1338  1.6221
27414SOL    HW284560   5.206   6.672  10.416  1.0258  1.4079 -2.9662
27415SOL     OW84561   6.077   9.625   8.559 -0.8794  0.8106 -0.2544
27415SOL    HW184562   5.985   9.646   8.576 -0.2208  2.4236  1.8529
27415SOL    HW284563   6.087   9.635   8.464 -2.5230  2.2439 -0.3300
27416SOL     OW84564   3.907   1.363   2.868 -0.0312  0.1215 -0.3531
27416SOL    HW184565   3.975   1.416   2.910 -0.9489  1.8625 -0.9727
27416SOL    HW284566   3.948   1.277   2.855  1.2349  0.3992  1.4213
27417SOL     OW84567   9.255   8.531   6.730 -0.0526  0.0086 -0.2997
27417SOL    HW184568   9.311   8.608   6.742 -0.7382  0.3087  1.3237
27417SOL    HW284569   9.309   8.458   6.759 -0.4583  0.3018  1.3060
27418SOL     OW84570   5.888   8.056   5.625  0.2193  0.0499  0.1596
27418SOL    HW184571   5.822   8.001   5.668  1.1251 -0.8831  0.4096
27418SOL    HW284572   5.968   8.040   5.674  0.8132  0.5455 -0.6195
27419SOL     OW84573   4.174   3.430   7.906 -0.0432  0.3888 -0.2170
27419SOL    HW184574   4.174   3.384   7.822  0.2694 -3.1862  1.5409
27419SOL    HW284575   4.262   3.465   7.914  0.6615 -1.2628 -0.4191
27420SOL     OW84576   5.805   7.630   3.447 -0.1996 -0.1879  0.1160
27420SOL    HW184577   5.892   7.600   3.472  0.9020  2.8545  0.3232
27420SOL    HW284578   5.772   7.678   3.523 -1.5983 -0.3509 -0.3472
27421SOL     OW84579   2.956  10.212   3.106  0.3640  0.0762  0.6548
27421SOL    HW184580   3.005  10.266   3.169  0.5488 -1.4281  1.8522
27421SOL    HW284581   3.022  10.184   3.042  0.2911  1.1328  0.0966
27422SOL     OW84582   7.430   9.311   9.147 -0.2858  0.2774  0.5460
27422SOL    HW184583   7.338   9.326   9.126  0.2343 -0.2575 -2.6877
27422SOL    HW284584   7.459   9.248   9.082  2.2187 -0.1678  1.9633
27423SOL     OW84585   1.977   0.785   1.677  0.1619 -0.1827 -0.4015
27423SOL    HW184586   2.024   0.775   1.760  3.2188 -0.2296 -2.0009
27423SOL    HW284587   1.917   0.711   1.675  1.3551 -1.2605  0.9575
27424SOL     OW84588   1.827   1.690   4.356 -0.3483  0.1218  0.2635
27424SOL    HW184589   1.822   1.624   4.426 -0.8881  1.2716  1.3476
27424SOL    HW284590   1.886   1.757   4.391 -0.8230  0.8383 -0.2942
27425SOL     OW84591  10.151   0.490   1.242 -0.2849  0.2643 -0.1995
27425SOL    HW184592  10.235   0.459   1.207 -1.0189 -2.0831 -0.0327
27425SOL    HW284593  10.157   0.585   1.235  1.6376  0.1073 -1.9461
27426SOL     OW84594   5.377   3.248   9.088  0.0053  0.0840  0.5606
27426SOL    HW184595   5.465   3.269   9.055  0.6504 -1.6172  1.0849
27426SOL    HW284596   5.320   3.312   9.045  1.4766  1.1956  0.1575
27427SOL     OW84597   5.749   0.020   6.870  0.3099  0.2773 -0.2824
27427SOL    HW184598   5.714  -0.039   6.803  0.5025 -0.5193  0.2959
27427SOL    HW284599   5.747  -0.032   6.951 -0.5058  1.4279  0.4639
27428SOL     OW84600   6.121   6.558   6.413 -0.7139  0.3091  0.3472
27428SOL    HW184601   6.061   6.624   6.448 -1.4752 -1.3568  2.4191
27428SOL    HW284602   6.094   6.476   6.456  3.1901 -0.4961  1.6343
27429SOL     OW84603   7.726   8.993   1.818 -0.1119  0.2658  0.4194
27429SOL    HW184604   7.809   8.999   1.770  0.0732  1.3042  0.8584
27429SOL    HW284605   7.738   8.917   1.876  0.0398 -0.3755 -0.4258
27430SOL     OW84606   7.721   6.922   0.876  0.1742 -0.1424 -0.2157
27430SOL    HW184607   7.716   6.949   0.968  0.4653  0.5936 -0.4110
27430SOL    HW284608   7.776   6.988   0.835  0.0493 -0.4743 -0.9229
27431SOL     OW84609   9.240   1.333   2.641  0.2508 -0.5468  0.2180
27431SOL    HW184610   9.300   1.260   2.627 -1.2274 -1.6370 -0.7181
27431SOL    HW284611   9.164   1.293   2.685  0.4408  0.9111  1.9714
27432SOL     OW84612   2.268   6.460   7.433  0.0170  0.1939 -0.5693
27432SOL    HW184613   2.263   6.555   7.420  1.1712  0.1970 -1.0772
27432SOL    HW284614   2.361   6.442   7.446 -0.3824 -0.6285  1.6297
27433SOL     OW84615   0.261   9.925   6.736  0.5437  0.0164  0.3331
27433SOL    HW184616   0.308   9.932   6.819  0.4055 -0.4250  0.4527
27433SOL    HW284617   0.185   9.982   6.746  1.3821  1.2364 -0.0997
27434SOL     OW84618   1.136   1.828   0.037  0.4292 -0.2865  0.0022
27434SOL    HW184619   1.177   1.797   0.118  1.1536  0.1385 -0.1959
27434SOL    HW284620   1.103   1.915   0.058 -1.9119 -1.2442  0.6578
27435SOL     OW84621   9.402   7.223   2.170 -0.2198  0.3377  0.5526
27435SOL    HW184622   9.417   7.312   2.203 -2.0813  0.1055  2.2244
27435SOL    HW284623   9.357   7.179   2.242 -0.7759 -1.4946 -0.8594
27436SOL     OW84624   2.258   5.476   1.165  0.2799 -0.3166  0.3862
27436SOL    HW184625   2.276   5.382   1.161 -0.8901 -0.7405  2.7687
27436SOL    HW284626   2.168   5.485   1.134  0.8311  0.2606 -1.1500
27437SOL     OW84627   9.624   9.894   8.282 -0.7894  0.9084  0.1206
27437SOL    HW184628   9.592   9.829   8.219 -0.2810  0.3557  0.4324
27437SOL    HW284629   9.684   9.846   8.338 -0.2781  1.6882  0.2493
27438SOL     OW84630   1.551   2.014   5.150  0.2544 -0.0032  0.4610
27438SOL    HW184631   1.575   2.106   5.145 -1.8999  0.7356  2.0053
27438SOL    HW284632   1.594   1.983   5.230  1.8425 -0.6843 -0.6093
27439SOL     OW84633   0.959   5.280   2.836  0.1052 -0.0384 -0.4978
27439SOL    HW184634   0.917   5.242   2.758 -0.1120 -1.5504  0.3228
27439SOL    HW284635   0.886   5.299   2.895  0.4378 -1.7521  0.5335
27440SOL     OW84636   7.611   8.346   5.431 -0.1117 -0.3259 -0.0485
27440SOL    HW184637   7.552   8.350   5.506 -1.2409  1.2166 -0.9680
27440SOL    HW284638   7.690   8.303   5.464 -0.4860  0.5342  2.0701
27441SOL     OW84639   2.801   9.868   7.429 -0.3719 -0.0006 -0.2292
27441SOL    HW184640   2.734   9.869   7.361  0.9576 -1.7886 -1.6647
27441SOL    HW284641   2.835   9.779   7.428  1.4498  0.6211  1.0342
27442SOL     OW84642   6.731   4.210   5.567 -0.0095 -0.0760 -0.0947
27442SOL    HW184643   6.648   4.172   5.596  0.2653 -0.2770  0.4423
27442SOL    HW284644   6.793   4.138   5.572  0.6627  0.5627  1.5555
27443SOL     OW84645   2.135   3.039   2.924 -0.1030  0.4185  0.0207
27443SOL    HW184646   2.077   3.008   2.855 -0.5777  2.8544 -0.7824
27443SOL    HW284647   2.223   3.017   2.895 -0.3638  0.5372 -0.8650
27444SOL     OW84648   2.831   0.643   2.364 -0.2489  0.3188  0.3847
27444SOL    HW184649   2.813   0.629   2.271  0.3999  0.6153  0.2098
27444SOL    HW284650   2.882   0.566   2.390 -0.1988  0.3670  0.4281
27445SOL     OW84651   2.046   7.601   9.932  0.5758 -0.0573  0.5208
27445SOL    HW184652   2.109   7.534   9.955  2.8813  1.5080 -0.8483
27445SOL    HW284653   2.019   7.579   9.843  1.4938  0.8799 -0.0091
27446SOL     OW84654   8.217   8.342   6.473  0.0162 -0.3403  0.3792
27446SOL    HW184655   8.141   8.349   6.416  0.8880  0.3253 -0.7511
27446SOL    HW284656   8.270   8.272   6.435 -0.0961 -0.9081  1.2470
27447SOL     OW84657   7.332   2.842   7.582 -0.5183  0.0765 -0.8138
27447SOL    HW184658   7.369   2.927   7.606 -0.0696 -0.1872 -0.5393
27447SOL    HW284659   7.297   2.854   7.494 -1.4424  0.8440 -0.3636
27448SOL     OW84660   3.420   4.512   3.276 -0.3712  0.1138  0.1805
27448SOL    HW184661   3.331   4.521   3.242 -1.0718  1.9490  2.2746
27448SOL    HW284662   3.419   4.431   3.327 -1.0796  0.5203  0.8203
27449SOL     OW84663   7.991   9.393   5.398  0.5769  0.3643 -0.8966
27449SOL    HW184664   7.911   9.435   5.367  0.2737 -1.0905 -2.1811
27449SOL    HW284665   7.965   9.303   5.417  1.4206  0.4449  0.8838
27450SOL     OW84666   8.042  10.211   3.506 -0.0480  0.3695 -0.0302
27450SOL    HW184667   8.062  10.142   3.443  0.3090  0.3979  0.0440
27450SOL    HW284668   8.121  10.217   3.560 -0.2924  0.4492  0.3217
27451SOL     OW84669   3.898   3.990   8.928 -0.1253  0.5067 -0.3552
27451SOL    HW184670   3.987   3.976   8.898  0.0069  1.6591 -0.5513
27451SOL    HW284671   3.902   4.073   8.977 -1.0688  0.5471 -0.3255
27452SOL     OW84672   4.046   8.854  10.446 -0.3196 -0.0943  0.0166
27452SOL    HW184673   3.977   8.896  10.395  1.0360  0.5414 -1.3706
27452SOL    HW284674   4.123   8.910  10.432  0.7548 -1.3682  0.6410
27453SOL     OW84675   3.897   3.989   2.902  0.4884  0.2911  0.0130
27453SOL    HW184676   3.951   3.924   2.857 -0.0549 -0.3251  0.2318
27453SOL    HW284677   3.861   4.043   2.832  0.5641  0.0566 -0.2073
27454SOL     OW84678   2.550   6.137   5.232  0.5314  0.1312  0.4502
27454SOL    HW184679   2.463   6.158   5.197  0.8928  0.2127 -0.3991
27454SOL    HW284680   2.532   6.074   5.303 -0.5631  2.8337  2.7835
27455SOL     OW84681   0.277   1.809   2.283 -0.2016 -0.0953 -0.0162
27455SOL    HW184682   0.326   1.730   2.308 -0.6414 -1.0258 -1.9236
27455SOL    HW284683   0.320   1.880   2.331  1.3060 -1.2478  0.4187
27456SOL     OW84684   0.903   1.088   0.114  0.4218  0.0406 -0.6523
27456SOL    HW184685   0.868   1.176   0.108  2.0500  0.7794  0.0344
27456SOL    HW284686   0.884   1.060   0.203  1.0749  0.2286 -0.4516
27457SOL     OW84687   6.987   7.478   1.303 -0.2884  0.0250 -0.4408
27457SOL    HW184688   6.976   7.390   1.268 -2.3469 -0.2289  0.6842
27457SOL    HW284689   6.946   7.475   1.390  0.4436  1.8439  0.0237
27458SOL     OW84690   8.867   4.790   8.597  0.1444  0.0533 -0.0561
27458SOL    HW184691   8.801   4.833   8.541  1.3239  1.6660 -0.2734
27458SOL    HW284692   8.931   4.755   8.536  0.6412  0.4762  0.2108
27459SOL     OW84693   2.542   8.459   6.880  0.6997  0.6800  0.0907
27459SOL    HW184694   2.588   8.524   6.933  0.1817 -0.2133  1.6856
27459SOL    HW284695   2.610   8.398   6.852  0.9693  1.1409 -0.2736
27460SOL     OW84696   0.643   6.313   6.080  0.0993 -0.1016  0.2218
27460SOL    HW184697   0.633   6.396   6.128  1.0228 -0.6402  1.4059
27460SOL    HW284698   0.555   6.275   6.080  0.1950 -0.4659  2.2730
27461SOL     OW84699   2.851  10.137   7.487 -0.0574 -0.2513  0.4232
27461SOL    HW184700   2.856  10.043   7.470  0.6681 -0.6305  2.4736
27461SOL    HW284701   2.759  10.153   7.508 -0.0355 -0.6542  0.8334
27462SOL     OW84702   7.111   4.516   0.558 -0.3832 -0.1481 -0.2659
27462SOL    HW184703   7.205   4.528   0.568 -0.5348  0.5578  0.4097
27462SOL    HW284704   7.101   4.427   0.525  0.4800 -0.5465  0.5074
27463SOL     OW84705   4.768   8.044   7.178  0.4766 -0.1474 -0.3337
27463SOL    HW184706   4.775   8.096   7.098 -0.5729  1.1044  0.3660
27463SOL    HW284707   4.808   7.960   7.155  1.9550  0.8570 -1.5626
27464SOL     OW84708   8.668   2.788   0.671  0.2582 -0.0139  0.2970
27464SOL    HW184709   8.710   2.827   0.593 -1.3997 -1.6901 -1.5480
27464SOL    HW284710   8.674   2.694   0.656  1.0191 -0.4419  2.9104
27465SOL     OW84711   9.040   3.929  10.369 -0.0501  0.4008 -0.5323
27465SOL    HW184712   9.111   3.928  10.305  0.0088 -0.4757 -0.4556
27465SOL    HW284713   9.024   4.022  10.385  1.2269  0.6059 -0.3780
27466SOL     OW84714   9.466   1.921   1.879  0.1518 -0.0681  0.3325
27466SOL    HW184715   9.420   2.001   1.852 -0.1304 -0.2933  0.1267
27466SOL    HW284716   9.537   1.951   1.935  0.4505  0.3763 -0.2769
27467SOL     OW84717   2.175   0.627   7.135  0.2363 -0.2448 -0.4807
27467SOL    HW184718   2.107   0.616   7.201 -0.8675 -0.9094 -1.6847
27467SOL    HW284719   2.214   0.540   7.126  0.0343 -0.2768 -1.0612
27468SOL     OW84720   7.375   0.542   7.352  0.3682  0.3516 -0.2393
27468SOL    HW184721   7.464   0.531   7.317 -0.4327 -3.1737 -1.6619
27468SOL    HW284722   7.318   0.520   7.278 -1.5853 -0.5618  1.4395
27469SOL     OW84723   1.960   9.916   6.587  0.0390 -0.1433  0.0738
27469SOL    HW184724   1.910   9.840   6.556  0.9958 -1.2095  1.0242
27469SOL    HW284725   2.046   9.881   6.609  0.6084  1.2927  0.2550
27470SOL     OW84726   6.136   3.593   7.674  0.9153 -0.1284  0.3569
27470SOL    HW184727   6.089   3.669   7.709  2.1341  1.1638 -0.6466
27470SOL    HW284728   6.080   3.559   7.604  0.6732  0.3219  0.3300
27471SOL     OW84729   7.534   4.770   8.335 -0.4116  0.0498 -0.1946
27471SOL    HW184730   7.473   4.755   8.407 -0.7494  0.6409 -0.3497
27471SOL    HW284731   7.540   4.685   8.291  1.0834 -0.7642  1.4878
27472SOL     OW84732   3.975   2.995   5.555 -0.5362  0.0188  0.3439
27472SOL    HW184733   3.941   2.976   5.642 -3.8833 -1.3017 -1.0827
27472SOL    HW284734   3.927   3.073   5.527 -1.7070 -1.2379 -1.3391
27473SOL     OW84735   1.606   2.028   4.020 -0.8912 -0.0974 -0.1360
27473SOL    HW184736   1.672   1.959   4.020  2.0981  2.4969  0.9433
27473SOL    HW284737   1.558   2.016   3.937  1.5617 -1.6093 -1.4506
27474SOL     OW84738   3.532   2.855   5.821  0.5870 -0.2629  0.2688
27474SOL    HW184739   3.571   2.809   5.747  1.9853 -1.5297  1.7071
27474SOL    HW284740   3.479   2.924   5.782  1.4107 -0.7798 -1.8863
27475SOL     OW84741   5.567   8.594   6.291  0.0156 -0.4225  0.5548
27475SOL    HW184742   5.606   8.628   6.371 -0.3118  1.6040 -0.0869
27475SOL    HW284743   5.473   8.593   6.308 -0.2200  1.7857 -0.3808
27476SOL     OW84744  10.400   7.710   0.736  0.0500  0.1629  0.1384
27476SOL    HW184745  10.415   7.754   0.819 -1.0601 -0.1626  0.5137
27476SOL    HW284746  10.311   7.677   0.741  0.6485 -1.6121 -0.3749
27477SOL     OW84747   6.652   8.939   7.066 -0.4888 -0.2210  0.2265
27477SOL    HW184748   6.584   9.002   7.089 -1.3242 -0.5415 -1.2276
27477SOL    HW284749   6.604   8.857   7.050  0.0757 -0.1998 -1.8403
27478SOL     OW84750   4.014   6.626   9.891  0.1724 -0.0828  0.3487
27478SOL    HW184751   3.966   6.666   9.963  0.9569 -0.8551  1.3344
27478SOL    HW284752   4.087   6.580   9.933  0.3556 -0.9886 -0.8892
27479SOL     OW84753   8.257   6.960   2.908 -0.0403 -0.1000  0.3026
27479SOL    HW184754   8.314   7.010   2.966  0.2259  0.9476 -0.8167
27479SOL    HW284755   8.285   6.984   2.820 -2.0181  0.2666 -0.2934
27480SOL     OW84756   0.747   1.447   7.123 -0.6935  0.0413  0.2218
27480SOL    HW184757   0.788   1.519   7.171  0.8346 -0.1982 -0.6547
27480SOL    HW284758   0.708   1.392   7.191  0.9356 -0.0010  1.1725
27481SOL     OW84759   6.212   2.695   5.454  0.6836  0.1842  0.0409
27481SOL    HW184760   6.260   2.665   5.532  2.5649  1.7837 -0.4105
27481SOL    HW284761   6.162   2.619   5.425  3.0084 -1.6357  0.5446
27482SOL     OW84762   8.119   8.036   2.287 -0.2755  0.2882  0.2189
27482SOL    HW184763   8.183   8.101   2.318 -0.1011  1.1713 -1.8721
27482SOL    HW284764   8.040   8.086   2.270 -1.2764 -0.6522  1.8615
27483SOL     OW84765   5.261   0.662   9.616  0.1564  0.0200  0.3902
27483SOL    HW184766   5.182   0.623   9.656  0.5623  0.0598  1.2614
27483SOL    HW284767   5.228   0.709   9.540 -0.5333 -0.8319  0.1357
27484SOL     OW84768   4.892   0.321   3.112 -0.6353 -0.0902  0.1212
27484SOL    HW184769   4.805   0.359   3.108 -0.3890  0.4326 -2.0716
27484SOL    HW284770   4.877   0.227   3.126 -1.3994  0.3144  2.2407
27485SOL     OW84771   6.064   0.537   5.877 -0.4647  0.3859 -0.6999
27485SOL    HW184772   6.122   0.471   5.841  0.1672 -0.2000  1.2777
27485SOL    HW284773   5.977   0.512   5.847 -0.0655 -0.5482 -1.0941
27486SOL     OW84774   5.614   2.427   8.754  0.0539 -0.0947 -0.5342
27486SOL    HW184775   5.552   2.413   8.683 -0.7880 -0.0605  0.1752
27486SOL    HW284776   5.602   2.519   8.779  0.5648 -0.0181 -0.5524
27487SOL     OW84777   6.766   2.355   1.117 -0.0095 -0.4543  0.4752
27487SOL    HW184778   6.742   2.275   1.163  0.0151 -0.3692  0.6348
27487SOL    HW284779   6.691   2.413   1.129 -0.5717 -0.8906 -0.6765
27488SOL     OW84780   0.840   3.815   1.847  1.0738  0.2386 -0.2063
27488SOL    HW184781   0.807   3.727   1.832  0.7812  0.4327 -0.7429
27488SOL    HW284782   0.773   3.873   1.809  0.4233  0.7686  1.6339
27489SOL     OW84783   3.811   5.444   9.765  0.2803 -0.1380 -0.2081
27489SOL    HW184784   3.853   5.503   9.828  0.2758 -0.5954  0.2342
27489SOL    HW284785   3.782   5.501   9.694  0.6381  0.3366  0.0187
27490SOL     OW84786   4.745   2.666   8.763 -0.0275  0.1572 -0.4845
27490SOL    HW184787   4.796   2.692   8.840 -0.8080 -0.2222  0.1760
27490SOL    HW284788   4.772   2.727   8.695  1.8614 -0.4920 -0.3779
27491SOL     OW84789   9.316   3.370   0.436 -0.6328  0.1404 -0.0952
27491SOL    HW184790   9.279   3.316   0.506 -0.1748  0.7992  0.6742
27491SOL    HW284791   9.369   3.309   0.384 -0.4352 -0.2348  0.5302
27492SOL     OW84792   9.740   7.976   7.101  0.4488 -0.6254  0.4979
27492SOL    HW184793   9.804   7.926   7.152 -1.1115 -1.7395  1.4421
27492SOL    HW284794   9.674   8.002   7.165  0.3060  1.1368 -0.3256
27493SOL     OW84795   4.504   2.484   4.221  0.0216  0.2605 -0.1053
27493SOL    HW184796   4.524   2.449   4.308 -1.4761 -0.5445 -0.0468
27493SOL    HW284797   4.415   2.518   4.229  0.3812  1.4458 -0.9681
27494SOL     OW84798   5.484   9.534   9.347 -0.5979 -0.4436 -0.0512
27494SOL    HW184799   5.431   9.582   9.284 -1.9835 -1.9447 -0.0930
27494SOL    HW284800   5.501   9.450   9.305  1.1317 -0.3258  0.3267
27495SOL     OW84801   4.727   8.134   6.284  0.2685  0.2291 -0.2225
27495SOL    HW184802   4.717   8.076   6.359  0.6857  0.9943  0.4495
27495SOL    HW284803   4.821   8.147   6.276  0.1685  3.4558  1.8095
27496SOL     OW84804   4.170   9.382   8.322 -0.5399 -0.5361 -0.3519
27496SOL    HW184805   4.164   9.324   8.246 -3.1752 -1.4686  0.4679
27496SOL    HW284806   4.152   9.469   8.286 -1.9042 -0.9848 -0.8432
27497SOL     OW84807   0.713   8.120   8.221 -0.5351 -0.2455 -0.0827
27497SOL    HW184808   0.781   8.187   8.231  0.7255 -1.3810 -0.6596
27497SOL    HW284809   0.697   8.115   8.127 -1.2062 -0.1930  0.0264
27498SOL     OW84810   0.718   8.414   6.887  0.0859 -0.1440 -0.5513
27498SOL    HW184811   0.789   8.361   6.925  0.3952  1.3179  1.0301
27498SOL    HW284812   0.687   8.467   6.960 -1.8776  0.0853 -1.5091
27499SOL     OW84813   1.797   4.480   6.984  0.5247 -0.1727  0.1236
27499SOL    HW184814   1.705   4.491   6.961  0.8686  2.0163 -0.3798
27499SOL    HW284815   1.808   4.385   6.989 -1.6785 -0.5087 -0.0548
27500SOL     OW84816   3.632   3.011   8.456 -0.8315 -0.3095 -0.2240
27500SOL    HW184817   3.664   2.931   8.413  0.3176  0.8367 -1.6147
27500SOL    HW284818   3.678   3.013   8.539  0.7890 -0.0349 -1.0921
27501SOL     OW84819   6.180   2.950   0.391  0.3868 -0.2060 -0.2777
27501SOL    HW184820   6.174   2.876   0.451 -0.6818 -0.4552 -0.6707
27501SOL    HW284821   6.150   3.025   0.441  0.5636 -0.2048 -0.1712
27502SOL     OW84822   9.555   5.240   0.480 -0.4976 -0.0251 -0.1471
27502SOL    HW184823   9.570   5.170   0.416 -0.0234  0.9511 -1.1386
27502SOL    HW284824   9.580   5.201   0.564  0.8164 -0.7190 -0.8259
27503SOL     OW84825   5.973   9.911   5.848 -0.0676 -0.5503  0.2893
27503SOL    HW184826   6.058   9.871   5.865 -0.5491 -1.4575  0.6477
27503SOL    HW284827   5.955   9.891   5.756  1.7869  2.9389 -1.0602
27504SOL     OW84828   9.308  10.495   0.544 -0.0026  0.7175 -0.2660
27504SOL    HW184829   9.267  10.557   0.604  0.9148  1.7572 -0.7039
27504SOL    HW284830   9.234  10.450   0.503 -0.6602  0.2518  1.3156
27505SOL     OW84831   8.499   7.662  10.533  0.3715  0.1567 -0.4393
27505SOL    HW184832   8.517   7.730  10.468  2.1634  0.9185  0.8037
27505SOL    HW284833   8.480   7.584  10.480  1.4110  0.8359 -1.8966
27506SOL     OW84834   2.988   3.170   4.066  0.4788 -0.1665 -0.5957
27506SOL    HW184835   3.026   3.172   3.978 -0.0305  0.1329 -0.8184
27506SOL    HW284836   2.894   3.175   4.051  0.4164  0.7223 -0.0134
27507SOL     OW84837   2.385   2.642   3.619  0.3365 -0.4387 -0.1802
27507SOL    HW184838   2.445   2.715   3.635  1.3932 -0.8984 -1.8317
27507SOL    HW284839   2.403   2.580   3.690  0.2289  0.3766  0.5845
27508SOL     OW84840   6.701   3.844   7.600  0.3325  0.4653 -0.3489
27508SOL    HW184841   6.750   3.883   7.673  1.5186  0.2901 -1.0401
27508SOL    HW284842   6.692   3.914   7.536 -0.0834  0.4126 -0.3547
27509SOL     OW84843   3.317   9.181  10.309  0.3707  0.5722  0.4119
27509SOL    HW184844   3.279   9.249  10.254 -2.8584 -0.3020  1.3724
27509SOL    HW284845   3.273   9.190  10.393  0.4711 -2.1097  0.8528
27510SOL     OW84846   6.048   7.389   7.049 -0.3534  0.1211 -0.1435
27510SOL    HW184847   6.026   7.480   7.069 -0.8077  0.0441 -0.2977
27510SOL    HW284848   5.968   7.340   7.065 -0.3591 -0.1292 -0.8997
27511SOL     OW84849   7.853   8.542   0.751 -0.3456  0.0719  0.5901
27511SOL    HW184850   7.925   8.594   0.716 -0.2793 -0.2684  0.2082
27511SOL    HW284851   7.894   8.459   0.775 -0.5406  0.0130  0.7174
27512SOL     OW84852   8.698   3.123   9.270 -0.2480 -0.1943  0.3317
27512SOL    HW184853   8.655   3.127   9.185  0.0500  1.3123  0.2301
27512SOL    HW284854   8.625   3.119   9.333 -0.4860 -2.6845  0.0337
27513SOL     OW84855   4.293   8.905   6.933  0.4782  0.2264  0.0638
27513SOL    HW184856   4.308   8.989   6.976  0.1453 -0.1999  1.0617
27513SOL    HW284857   4.235   8.858   6.993  0.1166 -0.4603 -0.7984
27514SOL     OW84858   3.669  10.403   4.027  0.1525 -0.2183  0.3064
27514SOL    HW184859   3.585  10.363   4.048  0.3813 -0.9874 -0.1783
27514SOL    HW284860   3.725  10.329   4.001  1.2148  0.1817  1.3748
27515SOL     OW84861   3.897   7.696   0.194 -0.2851 -0.0188 -0.0876
27515SOL    HW184862   3.844   7.617   0.180 -0.1982  0.0140 -0.6384
27515SOL    HW284863   3.840   7.754   0.245  0.4866 -1.3229  2.4489
27516SOL     OW84864   8.180   7.488   9.745 -0.4257 -0.5747  0.0838
27516SOL    HW184865   8.211   7.544   9.816 -1.0081  0.9926 -0.8454
27516SOL    HW284866   8.259   7.466   9.696 -0.2987  0.3977 -0.1837
27517SOL     OW84867   4.635   8.396   7.804  0.2813 -0.6327  0.2698
27517SOL    HW184868   4.684   8.413   7.885  2.0496 -1.6874 -0.5049
27517SOL    HW284869   4.565   8.336   7.830  0.4909 -0.5191  1.1151
27518SOL     OW84870   9.739   6.848   5.192 -0.4568  0.0671 -0.1235
27518SOL    HW184871   9.796   6.809   5.259 -1.1937 -1.0958 -0.1495
27518SOL    HW284872   9.714   6.775   5.137 -0.4116  0.9043 -1.2848
27519SOL     OW84873   5.116   4.157   9.378  0.3052  0.0001 -0.1536
27519SOL    HW184874   5.103   4.198   9.464  0.2380 -2.3862  1.0615
27519SOL    HW284875   5.210   4.139   9.375  0.1206 -1.1026  0.0476
27520SOL     OW84876   3.245   7.675   1.591  0.7793  0.1530  0.1777
27520SOL    HW184877   3.336   7.684   1.561  0.1028  0.2808 -2.0138
27520SOL    HW284878   3.238   7.583   1.617  1.6971  0.3075  1.0404
27521SOL     OW84879   1.721   1.437   1.931  0.0309  0.8577  0.3033
27521SOL    HW184880   1.753   1.421   1.842 -0.0130 -0.3373  0.4810
27521SOL    HW284881   1.632   1.400   1.932 -0.2206  1.4603  0.6550
27522SOL     OW84882   4.006   0.650   4.199 -0.3398  0.6026 -0.2101
27522SOL    HW184883   4.029   0.648   4.292  1.6216 -0.3271 -0.6620
27522SOL    HW284884   3.947   0.575   4.187  0.1729  0.1363  0.1220
27523SOL     OW84885   6.092   8.289   2.719 -0.1844 -0.1637 -0.3165
27523SOL    HW184886   6.187   8.288   2.703 -0.3506  0.3950 -1.3947
27523SOL    HW284887   6.073   8.202   2.752  0.6745 -0.3544 -0.2930
27524SOL     OW84888   3.861   2.093   1.801 -0.1347  0.2626  0.2702
27524SOL    HW184889   3.815   2.133   1.727 -0.4390 -0.2998  0.1465
27524SOL    HW284890   3.949   2.078   1.769  0.2693  1.6955  0.6308
27525SOL     OW84891   6.557   9.052   5.535  0.1307  0.5726 -0.0716
27525SOL    HW184892   6.611   9.052   5.456 -0.2388 -0.9428 -0.3694
27525SOL    HW284893   6.579   8.970   5.579 -2.0248 -0.2138 -0.3058
27526SOL     OW84894   8.555   2.340   0.047  0.5697  0.4748  0.1586
27526SOL    HW184895   8.570   2.358  -0.046  0.4156 -0.0554  0.0302
27526SOL    HW284896   8.599   2.412   0.093  0.9870  0.5223 -0.3111
27527SOL     OW84897   0.710   6.023   7.783 -0.4771 -0.5323  0.4110
27527SOL    HW184898   0.658   6.026   7.703  0.3367  0.8402 -0.0992
27527SOL    HW284899   0.799   6.001   7.754 -0.5491 -1.8942  1.1617
27528SOL     OW84900   4.919  10.566   6.447  0.2080 -0.3825 -1.2109
27528SOL    HW184901   5.009  10.556   6.478  0.3175 -0.6065 -1.5930
27528SOL    HW284902   4.883  10.477   6.447 -0.4834 -0.1462  0.2880
27529SOL     OW84903   9.054   5.678  10.333 -0.1337 -0.4180  0.1435
27529SOL    HW184904   9.090   5.765  10.318 -0.8721  0.1608  1.5099
27529SOL    HW284905   9.016   5.652  10.249 -1.7369  1.4674  0.2281
27530SOL     OW84906   3.429   9.159   4.057 -0.1903 -0.3520 -0.2354
27530SOL    HW184907   3.365   9.230   4.060  2.3062  2.0481  0.4289
27530SOL    HW284908   3.417   9.111   4.139  0.2161  1.3936  0.8928
27531SOL     OW84909   4.612   4.811   4.452  0.5449 -0.7766 -0.2355
27531SOL    HW184910   4.572   4.895   4.430 -1.3586 -1.6788 -0.4283
27531SOL    HW284911   4.542   4.762   4.496  1.7516 -2.0911  0.2942
27532SOL     OW84912   7.765   7.254   4.961 -0.2361 -0.6440 -0.3871
27532SOL    HW184913   7.786   7.327   4.902  0.1639 -1.2026 -0.9444
27532SOL    HW284914   7.833   7.258   5.029 -1.2618  0.6030  0.6188
27533SOL     OW84915   4.373   7.804   1.923 -0.1125  0.3494 -0.2797
27533SOL    HW184916   4.385   7.756   1.841 -1.0954 -0.6748  0.1490
27533SOL    HW284917   4.290   7.851   1.912 -0.4152 -0.0456  0.2237
27534SOL     OW84918   2.177   2.970   0.805  0.2153 -0.2981 -0.5829
27534SOL    HW184919   2.113   2.957   0.736  0.7580 -1.9016 -0.8247
27534SOL    HW284920   2.195   2.882   0.839  2.2845  0.0839 -0.5534
27535SOL     OW84921   5.886   1.138   0.330  0.3784 -0.4106 -0.0423
27535SOL    HW184922   5.950   1.086   0.378  0.1729  0.2462  0.9811
27535SOL    HW284923   5.911   1.128   0.238 -0.0614 -2.8385  0.0364
27536SOL     OW84924   8.071   3.289   8.866 -0.3297 -0.2137 -0.3828
27536SOL    HW184925   8.121   3.314   8.788  1.2358  0.3964  0.7522
27536SOL    HW284926   8.054   3.196   8.855  0.6554 -0.3332 -1.0552
27537SOL     OW84927  10.455   1.578   5.137 -0.0459 -0.3698 -0.5172
27537SOL    HW184928  10.434   1.661   5.180 -0.2271 -0.6374 -0.0852
27537SOL    HW284929  10.370   1.541   5.114 -0.1024 -1.4740  1.2728
27538SOL     OW84930   3.145   8.775   3.091 -0.5782 -0.1806 -0.2672
27538SOL    HW184931   3.216   8.715   3.114 -1.3208 -0.2721  1.9674
27538SOL    HW284932   3.177   8.861   3.118 -0.8079 -0.0271 -0.4841
27539SOL     OW84933   3.758   5.215   3.848 -0.1802  0.2358  0.4225
27539SOL    HW184934   3.707   5.256   3.778  1.2639  1.1324 -0.1361
27539SOL    HW284935   3.729   5.260   3.928  0.1812  1.1905  0.0317
27540SOL     OW84936   8.464   3.137  10.090 -0.2495 -0.3386  0.3693
27540SOL    HW184937   8.424   3.098  10.169 -0.9813 -1.5361 -0.5577
27540SOL    HW284938   8.389   3.154  10.032  0.2850  0.5363 -0.0807
27541SOL     OW84939   5.932   7.333   4.606 -0.6138  0.1381  0.4836
27541SOL    HW184940   5.868   7.311   4.539  0.7037 -1.3619 -0.3557
27541SOL    HW284941   6.003   7.375   4.558 -0.4479  0.7182  1.2233
27542SOL     OW84942   3.760   9.086   7.918 -0.2483 -0.3902 -1.1158
27542SOL    HW184943   3.767   9.157   7.982 -0.0458 -1.6786  0.3398
27542SOL    HW284944   3.775   9.128   7.833  1.2054  1.0643 -0.1746
27543SOL     OW84945  10.432   9.027   3.485 -0.7436 -0.4303  0.1179
27543SOL    HW184946  10.479   9.054   3.406  0.2040 -1.1278  0.4295
27543SOL    HW284947  10.339   9.041   3.464 -0.4256  0.8168 -0.5662
27544SOL     OW84948   5.379   9.398   0.451 -0.0063 -0.0388 -0.1264
27544SOL    HW184949   5.475   9.393   0.451  0.1941  1.6342  2.7157
27544SOL    HW284950   5.360   9.490   0.434 -1.0577 -0.1573  0.3411
27545SOL     OW84951   8.336   2.371   5.187 -0.4738 -0.2816  0.3322
27545SOL    HW184952   8.363   2.427   5.114 -0.8952  0.1738  0.5181
27545SOL    HW284953   8.288   2.430   5.245 -0.3112 -0.6883  0.8785
27546SOL     OW84954   0.578   1.693   0.912  0.4403 -0.6317 -0.3000
27546SOL    HW184955   0.628   1.704   0.831 -0.6791 -1.3224 -1.1181
27546SOL    HW284956   0.525   1.772   0.918  2.2582  0.5708  1.0912
27547SOL     OW84957   7.845   3.557   7.760 -0.2193  0.9239  0.1206
27547SOL    HW184958   7.851   3.587   7.850 -2.0651  1.8072 -0.0149
27547SOL    HW284959   7.785   3.482   7.763  1.5576 -0.6020 -0.0803
27548SOL     OW84960   4.685   5.986   3.340 -0.0762 -0.3339 -1.0218
27548SOL    HW184961   4.627   5.910   3.340 -1.0648  0.3767  0.1926
27548SOL    HW284962   4.627   6.061   3.330  0.4493  0.4645  1.1830
27549SOL     OW84963   8.171   8.863   1.341 -0.6751  0.2940  0.3941
27549SOL    HW184964   8.135   8.895   1.258 -0.4803  0.0693  0.2181
27549SOL    HW284965   8.252   8.819   1.315 -0.0905  1.0987  0.8227
27550SOL     OW84966   9.166   2.102   3.467  0.7292  0.4936  0.6044
27550SOL    HW184967   9.214   2.020   3.452 -0.4214 -0.4177  1.6491
27550SOL    HW284968   9.133   2.127   3.381  1.4109  0.0539  0.2087
27551SOL     OW84969   5.702   7.841   6.887 -0.3257 -0.0054 -0.3658
27551SOL    HW184970   5.695   7.755   6.929 -0.0551  0.0629 -0.1717
27551SOL    HW284971   5.715   7.822   6.795 -0.7590 -0.1634 -0.3925
27552SOL     OW84972   3.636   5.805   8.168 -0.1518  0.1077  0.3075
27552SOL    HW184973   3.644   5.751   8.246 -0.6125 -0.1554  0.1744
27552SOL    HW284974   3.559   5.859   8.183  0.1168  0.4930  0.2990
27553SOL     OW84975   5.192   3.879   1.190  0.0035 -0.0532  0.3272
27553SOL    HW184976   5.148   3.821   1.128  0.3776 -0.0808  0.0802
27553SOL    HW284977   5.137   3.878   1.268 -1.2778  1.1676 -0.5224
27554SOL     OW84978   5.149   4.621  10.208  0.2861  0.0217 -0.4865
27554SOL    HW184979   5.185   4.659  10.289 -0.3460  1.8605 -1.0116
27554SOL    HW284980   5.087   4.555  10.238  0.1085  0.6362  0.5571
27555SOL     OW84981   7.459   6.544   6.223  0.6493 -0.4919 -0.1150
27555SOL    HW184982   7.449   6.454   6.255 -0.5042 -0.2412  0.2764
27555SOL    HW284983   7.392   6.553   6.155  0.7661  0.0746 -0.1596
27556SOL     OW84984   2.408   2.102   1.472 -0.1030 -0.1232 -0.4455
27556SOL    HW184985   2.354   2.085   1.549  0.1339 -0.2178 -0.3031
27556SOL    HW284986   2.488   2.052   1.486 -0.3846 -0.7842 -1.1176
27557SOL     OW84987   0.951   5.879   8.988 -0.2472 -0.2534  0.0952
27557SOL    HW184988   0.900   5.812   8.942  2.6496 -1.1162 -2.1677
27557SOL    HW284989   0.947   5.956   8.932 -1.7476  0.8278  1.5991
27558SOL     OW84990   7.464   4.777   4.130  0.9154 -0.3970  0.3458
27558SOL    HW184991   7.424   4.700   4.170 -0.2345 -0.0472 -0.1144
27558SOL    HW284992   7.515   4.817   4.201  2.7993 -2.3754  0.2320
27559SOL     OW84993   6.618   6.451   9.761  0.1052 -0.9727  0.2141
27559SOL    HW184994   6.687   6.411   9.708  2.0096  0.5307  1.4409
27559SOL    HW284995   6.637   6.544   9.760 -2.1560 -0.4391  0.3300
27560SOL     OW84996   3.633   5.914   5.743  0.0065 -0.0137  0.5997
27560SOL    HW184997   3.599   5.907   5.654 -1.1436 -0.7782  1.0736
27560SOL    HW284998   3.689   5.838   5.755  1.4835  0.9370  0.0171
27561SOL     OW84999   2.010   7.372   6.352 -0.6779 -0.4744  0.5165
27561SOL    HW185000   2.064   7.437   6.307  0.1629 -1.1168  0.5813
27561SOL    HW285001   2.068   7.334   6.418 -2.0149  0.8689  2.6171
27562SOL     OW85002   5.068   9.766   7.375  0.1965 -0.0855 -0.3007
27562SOL    HW185003   5.026   9.802   7.453  0.2931 -2.5306  0.9617
27562SOL    HW285004   5.043   9.674   7.374  0.3376 -0.1750 -3.1114
27563SOL     OW85005   5.841   5.767   1.686  0.2610 -0.3957  0.2087
27563SOL    HW185006   5.917   5.772   1.628  0.0657  0.6251  0.0264
27563SOL    HW285007   5.781   5.708   1.640 -0.5068  1.5103 -1.4162
27564SOL     OW85008   1.170   5.791   3.659 -0.2610  0.1123 -0.1696
27564SOL    HW185009   1.209   5.704   3.653 -0.3048  0.1911 -2.4428
27564SOL    HW285010   1.235   5.843   3.707  0.7066 -0.6674 -0.6026
27565SOL     OW85011   6.216  10.495   0.106  0.1853  0.3651 -0.1475
27565SOL    HW185012   6.174  10.428   0.051 -0.5572  0.9056 -0.2483
27565SOL    HW285013   6.233  10.450   0.189 -0.2425  0.0340 -0.2357
27566SOL     OW85014   8.045   7.069   8.586 -0.2358  0.3856  0.1360
27566SOL    HW185015   8.048   7.086   8.680  2.0862 -0.0227  0.2122
27566SOL    HW285016   8.058   6.975   8.578 -0.6064  0.3879 -0.5876
27567SOL     OW85017   2.113   5.929   0.089  0.3973 -0.1052  0.2018
27567SOL    HW185018   2.183   5.944   0.153  0.2296  2.0799 -0.0603
27567SOL    HW285019   2.158   5.926   0.005  0.4226 -1.2414  0.2412
27568SOL     OW85020   6.929   4.845   0.973  0.1278  0.0601 -0.5137
27568SOL    HW185021   6.938   4.854   0.878 -1.1883 -1.2559 -0.7907
27568SOL    HW285022   7.019   4.849   1.005  0.5652  0.9298 -1.7578
27569SOL     OW85023   5.421   0.700   3.694 -0.2107 -0.5567  0.1992
27569SOL    HW185024   5.346   0.727   3.749  0.4950  1.1681  0.3855
27569SOL    HW285025   5.381   0.666   3.614 -1.2248 -1.4270  1.0466
27570SOL     OW85026   7.115   1.590   1.357 -0.1790 -0.0204 -0.5950
27570SOL    HW185027   7.159   1.560   1.277 -0.1017 -3.3028  0.5356
27570SOL    HW285028   7.029   1.550   1.353 -0.9699  1.5421  0.0186
27571SOL     OW85029   5.250   2.660   5.811 -0.5261 -0.6578  0.2716
27571SOL    HW185030   5.193   2.656   5.734  1.0469  0.0177 -0.9779
27571SOL    HW285031   5.264   2.569   5.836 -1.1722 -0.8741 -0.1393
27572SOL     OW85032   7.286   5.753   2.991 -0.3028 -0.2295  0.1839
27572SOL    HW185033   7.245   5.756   2.905 -2.0844  0.4548  1.0098
27572SOL    HW285034   7.371   5.794   2.978 -0.4717 -0.2844 -1.2758
27573SOL     OW85035   2.187   9.294   7.987  0.0310 -0.3417  0.5484
27573SOL    HW185036   2.113   9.324   8.040 -1.2484 -1.0952 -0.7384
27573SOL    HW285037   2.217   9.215   8.030 -1.7958 -1.6479 -0.4291
27574SOL     OW85038   2.289   8.187   2.899 -0.3514  0.2007  0.1157
27574SOL    HW185039   2.292   8.096   2.871 -2.2087  0.1546 -0.0614
27574SOL    HW285040   2.379   8.218   2.891  0.4052 -1.7299  0.6325
27575SOL     OW85041   9.786  10.530   1.443 -0.0198  0.4287  0.2505
27575SOL    HW185042   9.784  10.507   1.536  1.3273  1.0610  0.4570
27575SOL    HW285043   9.751  10.619   1.439 -0.1120  0.3888  0.1303
27576SOL     OW85044  10.335   8.782   4.369 -0.2323  0.2584 -0.0032
27576SOL    HW185045  10.309   8.874   4.358 -2.9676 -0.4614 -0.3117
27576SOL    HW285046  10.347   8.750   4.280 -2.1764 -0.3633 -0.0907
27577SOL     OW85047   0.435   7.560   5.849 -0.3148  0.1867 -0.3708
27577SOL    HW185048   0.430   7.581   5.942 -0.2253  0.6164 -0.4637
27577SOL    HW285049   0.355   7.511   5.832 -1.2348  1.6528 -0.4570
27578SOL     OW85050   2.962   5.762   0.231  0.0977 -0.4305  0.5954
27578SOL    HW185051   3.049   5.795   0.255 -0.1439  0.5383  0.2182
27578SOL    HW285052   2.927   5.830   0.172 -0.8249 -0.9126  0.5766
27579SOL     OW85053   0.258   9.457   4.027  0.2550 -0.6704  0.1616
27579SOL    HW185054   0.219   9.541   4.004  3.0329  0.6492 -0.1792
27579SOL    HW285055   0.258   9.455   4.122  0.2035 -0.2515  0.1707
27580SOL     OW85056   5.075   5.312   4.034  0.0055 -0.7472 -0.4881
27580SOL    HW185057   5.007   5.302   3.967 -0.3661  1.3255 -0.4913
27580SOL    HW285058   5.073   5.230   4.083  0.6063 -2.5251 -3.2412
27581SOL     OW85059   2.827   6.085   9.252  0.0238 -0.1773 -0.2727
27581SOL    HW185060   2.756   6.028   9.281  0.1636 -0.5832 -0.7219
27581SOL    HW285061   2.904   6.028   9.248  0.2697  0.1476 -0.2759
27582SOL     OW85062  10.581   8.251   3.500  0.1406  0.1764 -0.8668
27582SOL    HW185063  10.557   8.161   3.478  1.6331 -1.0988  2.1262
27582SOL    HW285064  10.497   8.295   3.514 -0.6234 -1.4498 -0.0435
27583SOL     OW85065   5.698   6.111   6.800 -0.2277  0.4854 -0.1245
27583SOL    HW185066   5.712   6.197   6.760  0.7785  0.3516 -0.0829
27583SOL    HW285067   5.782   6.067   6.792 -0.9601 -0.8173 -0.8576
27584SOL     OW85068   8.767   2.682   3.353 -0.3055  0.1665 -0.0066
27584SOL    HW185069   8.790   2.771   3.327 -0.1091  0.5245  1.3508
27584SOL    HW285070   8.823   2.663   3.427 -0.9604 -0.7707  0.2605
27585SOL     OW85071   4.238   2.950   3.162  0.1488  0.4649 -0.3774
27585SOL    HW185072   4.247   2.969   3.255 -1.4557  0.4718 -0.1824
27585SOL    HW285073   4.325   2.923   3.134  0.2936 -1.2917  1.5376
27586SOL     OW85074   5.880   0.227  10.482  0.2821 -0.0624  0.1700
27586SOL    HW185075   5.831   0.297  10.439 -1.3937 -2.0191 -1.3691
27586SOL    HW285076   5.928   0.184  10.411  1.4986 -0.3124  1.1163
27587SOL     OW85077   2.743   7.470   5.977 -0.1774 -0.2805 -0.0755
27587SOL    HW185078   2.773   7.413   5.906  0.7524 -0.6517  0.5902
27587SOL    HW285079   2.710   7.548   5.932 -0.0215 -0.6959 -0.9360
27588SOL     OW85080   5.047   2.069   2.650 -0.0252  0.0141  0.1538
27588SOL    HW185081   5.102   2.001   2.611 -1.5772 -0.5708 -1.1524
27588SOL    HW285082   5.066   2.065   2.744  2.2253 -0.0416 -0.2328
27589SOL     OW85083  10.589  10.595   3.217 -0.3117  0.2395  0.0036
27589SOL    HW185084  10.546  10.562   3.296  0.0469 -1.6278 -0.5240
27589SOL    HW285085  10.642  10.521   3.186  0.1844  1.1923 -1.5378
27590SOL     OW85086   1.359   5.806   2.865  0.0303 -0.1342  0.2419
27590SOL    HW185087   1.441   5.826   2.909 -0.1108  0.3459  0.2928
27590SOL    HW285088   1.367   5.846   2.779 -0.2748  0.1906  0.3622
27591SOL     OW85089   3.044   6.891   1.599 -0.0452 -0.0001 -0.0154
27591SOL    HW185090   3.049   6.805   1.641  1.1008 -0.8217 -1.7556
27591SOL    HW285091   2.964   6.887   1.546 -0.7748  0.5722  0.9864
27592SOL     OW85092   6.640   9.977   2.454 -0.2814  0.3000 -0.0423
27592SOL    HW185093   6.730  10.011   2.460 -0.6900  1.1135  2.9945
27592SOL    HW285094   6.590  10.048   2.414  0.0593  0.6268  0.1091
27593SOL     OW85095   7.838   3.803   4.690  0.2185 -0.5795  0.1137
27593SOL    HW185096   7.811   3.893   4.710 -0.3174 -0.4200 -1.2092
27593SOL    HW285097   7.897   3.780   4.761  1.3863  1.2851 -0.1711
27594SOL     OW85098   0.809   0.992   2.174 -0.0222  0.8078 -0.1422
27594SOL    HW185099   0.886   0.948   2.137 -0.3998 -0.9816  1.0627
27594SOL    HW285100   0.735   0.952   2.128 -0.4560 -0.9464  1.9371
27595SOL     OW85101   2.034   0.450   0.488  0.0319  0.2294  0.9041
27595SOL    HW185102   2.025   0.358   0.513 -0.0838 -0.5534 -1.7178
27595SOL    HW285103   1.953   0.470   0.440  1.1506  0.8584 -0.8153
27596SOL     OW85104   8.768   0.946   5.634  0.3580 -0.0222 -0.0250
27596SOL    HW185105   8.712   0.999   5.578  0.2799  0.2916  0.3433
27596SOL    HW285106   8.746   0.856   5.612 -2.0437  0.0095  1.7485
27597SOL     OW85107  10.478   7.892   0.941  0.1500  0.4853 -0.4416
27597SOL    HW185108  10.484   7.955   1.013  0.1035 -1.5586  1.4904
27597SOL    HW285109  10.567   7.860   0.929  0.0527  0.3623 -0.8622
27598SOL     OW85110   5.503  10.123   9.375 -0.3058  0.3268  0.6741
27598SOL    HW185111   5.490  10.137   9.469  1.5264  0.3685  0.9617
27598SOL    HW285112   5.561  10.047   9.370  0.7946  1.1982 -0.3504
27599SOL     OW85113   4.122   2.005   0.654  0.5658 -0.0512  0.0267
27599SOL    HW185114   4.162   2.079   0.608  1.5807 -0.2565  0.5436
27599SOL    HW285115   4.102   2.039   0.741  0.7753 -0.3027  0.1749
27600SOL     OW85116   1.691   7.570   2.735 -0.0450  0.0308 -0.3275
27600SOL    HW185117   1.672   7.536   2.647 -3.2962 -0.5190  0.4664
27600SOL    HW285118   1.674   7.496   2.793  2.2596  0.3293  0.8562
27601SOL     OW85119   3.983   3.931   3.388 -0.0132 -0.1220 -0.0621
27601SOL    HW185120   3.956   3.994   3.321 -4.8645  0.9092  2.4036
27601SOL    HW285121   3.966   3.845   3.349  2.1314  0.1546 -1.7848
27602SOL     OW85122   2.707   5.248   2.745  0.1893 -0.1715 -0.6507
27602SOL    HW185123   2.637   5.206   2.795  0.8998 -0.1199  0.4303
27602SOL    HW285124   2.684   5.341   2.746  0.0260 -0.2110 -0.7045
27603SOL     OW85125   1.889   1.382   4.317  0.3085  0.1020 -0.6245
27603SOL    HW185126   1.978   1.396   4.286  1.0044 -1.6029  0.4621
27603SOL    HW285127   1.883   1.433   4.398 -0.0995  1.1156 -1.2750
27604SOL     OW85128   2.532  10.476   5.482 -0.3095 -0.3195 -0.2711
27604SOL    HW185129   2.488  10.403   5.438 -0.3126  0.0580 -0.9065
27604SOL    HW285130   2.462  10.526   5.523 -0.2823 -0.8287  0.4125
27605SOL     OW85131   3.050  10.239   0.180 -0.3755 -0.1060  0.2304
27605SOL    HW185132   3.013  10.275   0.260  0.4925 -0.4033  0.7789
27605SOL    HW285133   2.982  10.252   0.114 -1.6776 -1.1004  1.3146
27606SOL     OW85134   0.710   4.700   4.469  0.1062 -0.2384 -0.2709
27606SOL    HW185135   0.792   4.742   4.496  0.8881 -1.6482 -0.3789
27606SOL    HW285136   0.656   4.700   4.548  1.8382 -3.0697  1.1093
27607SOL     OW85137   6.840   3.035   1.612 -0.4768  0.5690  0.3599
27607SOL    HW185138   6.809   2.946   1.626  0.9769 -0.3879 -2.0259
27607SOL    HW285139   6.802   3.062   1.529 -0.9084  2.2376  1.0426
27608SOL     OW85140   3.849   6.917   3.689 -0.1014  0.0738  0.1847
27608SOL    HW185141   3.793   6.979   3.644 -0.6185  0.2458  1.0346
27608SOL    HW285142   3.899   6.971   3.751 -0.6735 -0.3585  1.0433
27609SOL     OW85143  10.417  10.089   7.872 -0.0565  0.2657  0.5843
27609SOL    HW185144  10.324  10.067   7.872 -0.0318  0.1571  0.6222
27609SOL    HW285145  10.461  10.005   7.865  0.0265  0.3681 -0.3030
27610SOL     OW85146   6.456   0.015   6.617  0.2820  0.3242 -0.5432
27610SOL    HW185147   6.421  -0.065   6.577 -1.2365  0.1043  1.0990
27610SOL    HW285148   6.397   0.084   6.586 -1.3429  0.0489  1.7316
27611SOL     OW85149  10.219   7.559   9.172  0.4505 -0.3787  0.8002
27611SOL    HW185150  10.250   7.469   9.172  1.2538 -0.1824 -1.4769
27611SOL    HW285151  10.256   7.597   9.092 -0.5479  1.7289  1.2618
27612SOL     OW85152   4.139   2.261   5.560  0.2266 -0.4636 -0.4761
27612SOL    HW185153   4.175   2.344   5.590  0.0399 -0.6132  0.1634
27612SOL    HW285154   4.054   2.284   5.521 -0.1269 -0.4396  0.3020
27613SOL     OW85155   3.682   6.105   6.686 -0.2403 -0.2155  0.4548
27613SOL    HW185156   3.740   6.168   6.644 -1.8708  0.1443 -1.3974
27613SOL    HW285157   3.605   6.155   6.710 -1.2646 -1.3178 -0.3979
27614SOL     OW85158   0.224   3.541   2.953  0.0406  0.2237  0.2578
27614SOL    HW185159   0.144   3.592   2.939 -0.5199 -0.2887  1.4425
27614SOL    HW285160   0.270   3.587   3.023 -0.5006 -0.8948  1.3871
27615SOL     OW85161   0.556   7.076   1.525 -0.3626  0.3846 -0.1403
27615SOL    HW185162   0.514   7.158   1.551 -0.5445  0.9915 -2.1570
27615SOL    HW285163   0.486   7.025   1.484  0.2998  0.3497 -1.2688
27616SOL     OW85164   5.369   2.626   4.808 -0.8760 -0.3918 -0.5354
27616SOL    HW185165   5.304   2.565   4.843 -1.0332  0.8432  1.4421
27616SOL    HW285166   5.397   2.678   4.883  1.8986 -0.3878 -1.4449
27617SOL     OW85167   5.304   3.701   4.510  0.0484 -0.3825  0.4874
27617SOL    HW185168   5.373   3.659   4.561 -0.4844  0.5739  2.0438
27617SOL    HW285169   5.344   3.714   4.424  1.9085  0.3718  1.4002
27618SOL     OW85170   7.401   8.801   1.928  0.4455  0.4102  0.5184
27618SOL    HW185171   7.446   8.751   1.860  0.5943  1.1161  0.0922
27618SOL    HW285172   7.459   8.875   1.946  1.2438 -0.6611  2.6490
27619SOL     OW85173   4.778   4.801   0.834 -0.2056  0.0145 -0.3641
27619SOL    HW185174   4.814   4.770   0.917 -0.2526  0.1495 -0.2935
27619SOL    HW285175   4.689   4.829   0.855 -1.0187 -1.9954 -0.8736
27620SOL     OW85176   9.397   1.772   6.185  0.0574  0.5269 -0.0008
27620SOL    HW185177   9.443   1.688   6.177 -0.6843  0.2034 -1.1858
27620SOL    HW285178   9.426   1.808   6.268  1.3216 -0.3463 -0.0437
27621SOL     OW85179   1.370   9.471   5.892  0.3247 -0.7200  0.3244
27621SOL    HW185180   1.381   9.555   5.847  1.2512 -1.8004 -1.5673
27621SOL    HW285181   1.279   9.446   5.874 -0.0291 -0.0573  1.0943
27622SOL     OW85182   9.213   1.574   2.778  0.3925 -0.0042  0.0130
27622SOL    HW185183   9.235   1.482   2.762 -1.0348 -0.1228 -1.6414
27622SOL    HW285184   9.117   1.575   2.783  0.4657  1.1717  1.7249
27623SOL     OW85185   7.507   5.240   3.716  0.3957  0.3531 -0.1654
27623SOL    HW185186   7.534   5.149   3.732 -0.1970  0.4544  1.6024
27623SOL    HW285187   7.578   5.293   3.753  1.7225  0.7034 -2.9274
27624SOL     OW85188   2.919   4.475   6.895  0.1884 -0.2922  0.0290
27624SOL    HW185189   2.980   4.471   6.822  2.5395  0.8557  1.8098
27624SOL    HW285190   2.923   4.389   6.936  0.4470 -0.2886  0.0099
27625SOL     OW85191   9.109   7.725   9.383  0.0828  0.5163 -0.0896
27625SOL    HW185192   9.110   7.655   9.449  1.3735  1.2642  0.7215
27625SOL    HW285193   9.201   7.742   9.365 -0.1617  2.5357  0.3172
27626SOL     OW85194   7.423   4.440   0.246 -0.3644 -0.2532  0.2663
27626SOL    HW185195   7.421   4.421   0.339 -0.3632  0.8635  0.5170
27626SOL    HW285196   7.504   4.489   0.233 -0.1653 -0.7454 -0.3962
27627SOL     OW85197   5.527   6.364   1.550  0.6504 -0.5005 -0.3782
27627SOL    HW185198   5.438   6.329   1.555  0.9584 -1.2483  0.2167
27627SOL    HW285199   5.546   6.394   1.639  0.4901  1.0055 -0.8245
27628SOL     OW85200   3.550   9.987   0.519  0.0782 -0.2484 -0.2844
27628SOL    HW185201   3.482   9.927   0.551  0.7846 -1.1370 -0.4178
27628SOL    HW285202   3.509  10.031   0.444  0.1141 -1.8677 -1.3190
27629SOL     OW85203   3.271   0.712   4.902 -0.2425 -0.1512  0.0004
27629SOL    HW185204   3.251   0.789   4.955 -0.7053 -0.3513  0.1293
27629SOL    HW285205   3.187   0.665   4.897  0.2900 -1.2467  0.8934
27630SOL     OW85206   1.481   6.725   5.566 -0.2084  0.5766  0.1173
27630SOL    HW185207   1.504   6.641   5.605  0.2436  1.4540  1.8607
27630SOL    HW285208   1.553   6.783   5.589  0.3460  1.0798 -2.5202
27631SOL     OW85209   0.665   5.992   9.349 -0.4596 -0.3181 -0.3045
27631SOL    HW185210   0.707   6.065   9.301 -1.4262  0.6798  0.3228
27631SOL    HW285211   0.722   5.979   9.425  0.0754 -0.6669 -0.7579
27632SOL     OW85212   2.222   8.040   0.911  0.1737 -0.1484  0.1261
27632SOL    HW185213   2.162   7.979   0.868 -1.3909  0.7628  0.9418
27632SOL    HW285214   2.205   8.124   0.869  0.9308  0.1157  0.3337
27633SOL     OW85215   0.623   7.672   4.908 -0.4150  0.5609  0.8528
27633SOL    HW185216   0.717   7.653   4.909 -0.5333 -0.0335  1.3532
27633SOL    HW285217   0.614   7.757   4.950 -0.0854  0.6760  0.6875
27634SOL     OW85218   1.038   4.738   8.016  0.1728  0.6037  0.0565
27634SOL    HW185219   1.111   4.678   8.002  0.1293  0.7867 -1.0540
27634SOL    HW285220   1.052   4.774   8.103  1.5008  0.7565 -0.2043
27635SOL     OW85221   0.244   0.156   8.277 -0.5464  0.4644  0.1519
27635SOL    HW185222   0.211   0.066   8.280  0.8362 -0.1248 -1.0337
27635SOL    HW285223   0.217   0.194   8.361 -1.3432 -0.9785  0.5929
27636SOL     OW85224   9.088   6.483   6.784  0.2095 -0.0871 -0.4066
27636SOL    HW185225   9.145   6.515   6.853 -0.3563  0.7646 -0.3162
27636SOL    HW285226   9.065   6.561   6.733 -1.2276 -0.3116 -0.1540
27637SOL     OW85227   8.638  10.553   3.767  0.2989 -0.0903 -0.5409
27637SOL    HW185228   8.604  10.564   3.856  0.5083 -0.8876 -0.3567
27637SOL    HW285229   8.571  10.592   3.711  0.7737  1.6415  0.0326
27638SOL     OW85230   7.473   6.900   2.600  0.2156 -0.8950 -0.0312
27638SOL    HW185231   7.406   6.915   2.533  2.1798  1.8612 -1.5703
27638SOL    HW285232   7.455   6.966   2.667 -0.6020 -2.4095  1.3027
27639SOL     OW85233   0.377   9.225   0.292 -0.5354  1.0144  0.0931
27639SOL    HW185234   0.324   9.158   0.335  0.5801 -0.3490 -0.5398
27639SOL    HW285235   0.356   9.216   0.199 -1.1985  2.3406  0.0906
27640SOL     OW85236   3.319   4.386   1.341  0.2612  0.3759  0.1751
27640SOL    HW185237   3.328   4.436   1.260 -1.9435 -0.3647 -0.6109
27640SOL    HW285238   3.318   4.294   1.312 -0.1324  0.0843  1.0722
27641SOL     OW85239   8.848   5.398   7.643  0.0301  0.7559  0.1358
27641SOL    HW185240   8.796   5.414   7.722 -2.3069 -1.0381 -0.8894
27641SOL    HW285241   8.845   5.303   7.632  0.9735  0.9034 -1.6877
27642SOL     OW85242   9.656   7.924   1.041  0.4338  0.0927  0.0074
27642SOL    HW185243   9.726   7.889   1.095 -0.4839 -3.9219 -1.0735
27642SOL    HW285244   9.682   7.904   0.951 -0.1699  2.4442 -0.7600
27643SOL     OW85245   9.163   1.487   5.915  0.1691 -0.1959 -0.3946
27643SOL    HW185246   9.249   1.521   5.890 -0.5395  0.9259 -1.4031
27643SOL    HW285247   9.144   1.530   5.999  0.5876 -0.4384 -0.1745
27644SOL     OW85248   6.401   2.838   9.796 -0.1694 -0.5262  0.0519
27644SOL    HW185249   6.379   2.812   9.707 -0.2370  0.1599 -0.1371
27644SOL    HW285250   6.494   2.816   9.804  0.5035  1.5877 -1.0353
27645SOL     OW85251   3.563   1.495   2.374  0.0923  0.0664 -0.7212
27645SOL    HW185252   3.559   1.552   2.297  2.4913  0.1136 -0.8877
27645SOL    HW285253   3.494   1.431   2.360 -0.2954  0.7775 -2.3309
27646SOL     OW85254   4.441   4.217   6.064  0.3919 -0.1085  0.6754
27646SOL    HW185255   4.456   4.309   6.042 -0.3771  0.3325  1.8928
27646SOL    HW285256   4.361   4.194   6.016  0.5295 -0.1146  0.4483
27647SOL     OW85257   7.971   6.608   3.015  0.6291 -0.5725  0.0637
27647SOL    HW185258   7.893   6.627   2.963  1.6091  0.4655 -1.1054
27647SOL    HW285259   7.973   6.513   3.024  0.3666 -0.7664 -1.7336
27648SOL     OW85260   0.596   3.202  10.390 -0.7073 -0.2247 -0.2825
27648SOL    HW185261   0.556   3.258  10.324 -1.6568 -0.5798 -0.0154
27648SOL    HW285262   0.523   3.166  10.440 -0.0615 -0.8488  0.2481
27649SOL     OW85263   8.384   9.790   0.797  0.6041  0.5940  0.4607
27649SOL    HW185264   8.462   9.810   0.848  0.8170 -0.4211  0.5606
27649SOL    HW285265   8.396   9.699   0.769  0.4277  1.0790 -1.2977
27650SOL     OW85266   9.742   2.860   0.712 -0.0103  0.0807  0.5258
27650SOL    HW185267   9.765   2.845   0.804 -0.8440  0.5553  0.8232
27650SOL    HW285268   9.669   2.922   0.716 -0.4496 -0.3632 -0.4326
27651SOL     OW85269   6.886   6.400   6.004 -0.7600 -0.2302 -0.1689
27651SOL    HW185270   6.911   6.468   5.942 -0.1384 -1.6203 -1.5245
27651SOL    HW285271   6.960   6.339   6.003 -0.4187  0.0236  2.5054
27652SOL     OW85272   4.519   2.636   8.900 -0.3689  0.0118 -0.5512
27652SOL    HW185273   4.546   2.621   8.990 -0.1982 -0.2377 -0.6420
27652SOL    HW285274   4.600   2.635   8.850 -0.5064 -0.3725 -0.7760
27653SOL     OW85275   0.470   0.014   7.658  0.1039  0.0418 -0.2888
27653SOL    HW185276   0.464   0.101   7.618 -0.3650 -0.1518 -0.6482
27653SOL    HW285277   0.384  -0.025   7.641 -0.1382 -0.0161  0.9718
27654SOL     OW85278   3.426   4.766   5.252 -0.4334 -0.3390  0.0294
27654SOL    HW185279   3.519   4.777   5.231  0.3295 -1.6910  2.2738
27654SOL    HW285280   3.384   4.748   5.168  1.6648 -1.5718 -0.8333
27655SOL     OW85281   3.172   9.937   9.624 -0.5567 -0.5347  0.1595
27655SOL    HW185282   3.133  10.023   9.637  0.0743  0.1468 -2.0381
27655SOL    HW285283   3.221   9.945   9.542 -0.4628 -2.9923 -0.0914
27656SOL     OW85284   3.889   3.724   2.579 -0.1970  0.5138 -0.0799
27656SOL    HW185285   3.954   3.742   2.647 -0.5970  1.2813  0.1028
27656SOL    HW285286   3.805   3.730   2.624 -0.4965  1.6732 -0.7750
27657SOL     OW85287   8.939   3.518   2.206 -0.1995 -0.3875  0.1095
27657SOL    HW185288   8.907   3.594   2.156 -1.1949 -1.0732 -0.3197
27657SOL    HW285289   8.950   3.449   2.141 -1.1442 -1.1804  0.7606
27658SOL     OW85290   4.066   7.366   1.110  0.1760 -0.4872 -0.3182
27658SOL    HW185291   4.043   7.318   1.031  0.2273 -0.7224 -0.1936
27658SOL    HW285292   4.085   7.298   1.174 -3.8865 -0.4604  1.1978
27659SOL     OW85293   8.939   6.773   8.322 -0.1541  0.6284  0.1502
27659SOL    HW185294   8.957   6.867   8.320  0.5166  0.5075 -1.1291
27659SOL    HW285295   9.011   6.736   8.372  0.0410  0.7260 -0.0534
27660SOL     OW85296   4.937   5.908   6.415  0.0091 -0.1767 -0.5760
27660SOL    HW185297   5.016   5.922   6.468 -1.1346 -0.8110  1.3926
27660SOL    HW285298   4.898   5.828   6.451 -3.3317  1.8989  0.9123
27661SOL     OW85299   3.310   1.374   2.365 -0.0677 -0.0119  0.4037
27661SOL    HW185300   3.258   1.294   2.374 -2.3644  1.1854 -1.2056
27661SOL    HW285301   3.276   1.432   2.433  2.2820 -0.6174  2.2453
27662SOL     OW85302   7.355   8.259   3.866  0.3045 -0.3485  0.1300
27662SOL    HW185303   7.299   8.336   3.859  0.6483 -0.2142 -1.6291
27662SOL    HW285304   7.314   8.205   3.934 -3.3945 -1.3666 -2.6308
27663SOL     OW85305   4.524   9.782   2.847  0.1527  0.0061 -0.2331
27663SOL    HW185306   4.436   9.780   2.884  0.7918  0.5462  1.3935
27663SOL    HW285307   4.572   9.714   2.894  1.2016  1.2574  0.5694
27664SOL     OW85308   5.779   2.607   6.797 -0.1249 -0.0460 -0.7268
27664SOL    HW185309   5.800   2.573   6.710  1.9517  1.7239 -0.9995
27664SOL    HW285310   5.836   2.558   6.856  1.7009  1.7081 -0.9381
27665SOL     OW85311   5.981   4.096   0.386  0.1474  0.9203 -0.4607
27665SOL    HW185312   6.041   4.152   0.435  0.6052 -0.9216  1.2031
27665SOL    HW285313   5.933   4.156   0.329  1.9734  2.7266 -0.1962
27666SOL     OW85314   4.784   1.650   6.847  0.0026 -0.2006 -0.7758
27666SOL    HW185315   4.817   1.738   6.833 -1.7635  0.4404 -1.2539
27666SOL    HW285316   4.851   1.592   6.811  2.0797  0.8076  1.2602
27667SOL     OW85317   9.793   3.481   1.756  0.0629 -0.3346  0.2612
27667SOL    HW185318   9.702   3.456   1.773 -0.2388  0.3642 -0.2510
27667SOL    HW285319   9.837   3.399   1.733 -0.5027 -0.6369  0.2396
27668SOL     OW85320   0.754   8.823   2.508  0.5388 -0.4870  0.0605
27668SOL    HW185321   0.690   8.811   2.438 -0.6131  1.3061  0.7324
27668SOL    HW285322   0.800   8.739   2.513 -1.5397 -1.7536 -0.6634
27669SOL     OW85323   0.053   6.746   9.065 -1.1074  0.0335  0.5430
27669SOL    HW185324   0.119   6.732   8.998 -0.7698  0.4332  0.7936
27669SOL    HW285325   0.005   6.823   9.036 -0.9415  0.2248  0.7773
27670SOL     OW85326   2.086   4.355  10.059  0.0093  0.0393 -0.2486
27670SOL    HW185327   2.010   4.357  10.117  1.1039 -2.0910  1.3540
27670SOL    HW285328   2.056   4.306   9.983  0.2219 -2.4071  1.1620
27671SOL     OW85329   4.650  10.114   7.584 -0.1793  0.2550  0.5496
27671SOL    HW185330   4.701  10.114   7.665 -0.0323 -1.2595  0.4828
27671SOL    HW285331   4.559  10.118   7.614 -0.1749 -1.3481  0.8662
27672SOL     OW85332   2.619   3.895   6.456 -0.4724 -0.4703  0.1925
27672SOL    HW185333   2.594   3.954   6.385  0.3317  0.1168  0.3693
27672SOL    HW285334   2.705   3.862   6.430  0.1691  0.3291  1.2211
27673SOL     OW85335   1.644   0.027   9.326  0.5106  0.2460  0.0279
27673SOL    HW185336   1.645   0.002   9.234  0.5986  0.0078  0.0936
27673SOL    HW285337   1.639   0.123   9.325 -0.5794  0.1968 -0.2196
27674SOL     OW85338   8.402   1.137   5.757  0.2519  0.5396 -0.4383
27674SOL    HW185339   8.384   1.049   5.790 -0.8441  0.4112 -1.3398
27674SOL    HW285340   8.387   1.194   5.833 -2.6147  0.2835 -0.7022
27675SOL     OW85341   0.239   8.794   0.074  0.1894 -0.3444  0.0647
27675SOL    HW185342   0.254   8.733   0.002  0.1691  1.5252 -1.6369
27675SOL    HW285343   0.324   8.836   0.087 -0.2733  0.7511 -0.3035
27676SOL     OW85344   5.137   7.251   6.546 -0.3618 -0.3455 -0.0742
27676SOL    HW185345   5.066   7.267   6.608 -1.4099 -2.5737 -0.6022
27676SOL    HW285346   5.211   7.223   6.600 -0.2342  0.7712  0.3689
27677SOL     OW85347   8.683   6.496   5.689  0.1298  0.5122 -0.1395
27677SOL    HW185348   8.609   6.508   5.748 -0.1384 -0.2190 -0.3172
27677SOL    HW285349   8.736   6.575   5.699  0.2043  0.3005  1.2563
27678SOL     OW85350   7.424   0.550   6.913  0.0549  0.4157 -0.0722
27678SOL    HW185351   7.379   0.498   6.847  0.0520 -0.4495  0.6014
27678SOL    HW285352   7.367   0.625   6.928 -0.7052 -0.1857  0.0804
27679SOL     OW85353   4.228   4.488   0.386 -0.1135  0.4990  0.0725
27679SOL    HW185354   4.243   4.395   0.367  3.9494  0.9974  0.0935
27679SOL    HW285355   4.138   4.490   0.421 -0.4038 -3.3754  0.0491
27680SOL     OW85356   0.089   8.823   5.608 -0.2232  0.1919  0.0650
27680SOL    HW185357   0.140   8.902   5.592 -0.1897  0.2481  0.4199
27680SOL    HW285358   0.003   8.855   5.635  0.2027  0.1440  1.5697
27681SOL     OW85359   7.904  10.037   1.167 -0.1985 -0.2799 -0.1733
27681SOL    HW185360   7.965   9.964   1.171 -1.1978 -1.3572 -2.5399
27681SOL    HW285361   7.901  10.071   1.257  3.0038 -0.8275  0.2524
27682SOL     OW85362   3.545   7.713   7.159  0.0968  0.2327 -0.2894
27682SOL    HW185363   3.560   7.750   7.247 -1.6064 -0.9105  0.5304
27682SOL    HW285364   3.577   7.781   7.099  0.3435  1.4905  1.1944
27683SOL     OW85365   8.960   5.848   0.886 -0.6983  0.0161 -0.6984
27683SOL    HW185366   8.893   5.863   0.952  0.1226  2.1696 -0.2918
27683SOL    HW285367   8.940   5.911   0.816  0.1421 -0.2230 -1.1669
27684SOL     OW85368   3.189  10.128   1.817 -0.0831 -0.0179  0.5042
27684SOL    HW185369   3.173  10.133   1.723 -1.6367  2.5204  0.8182
27684SOL    HW285370   3.150  10.045   1.844  1.0124 -1.1220 -1.1571
27685SOL     OW85371  10.391   7.114   2.472  0.1552 -0.0883 -0.1521
27685SOL    HW185372  10.466   7.060   2.446 -0.5861 -1.8041  1.0651
27685SOL    HW285373  10.321   7.051   2.490 -2.1135  1.5023 -2.6372
27686SOL     OW85374   3.761   8.410   1.181 -0.0422  0.1627 -0.4233
27686SOL    HW185375   3.825   8.349   1.144  0.6691  0.4473  0.3046
27686SOL    HW285376   3.733   8.369   1.263  0.0336  0.5507 -0.1996
27687SOL     OW85377   7.272   8.697   3.122 -0.5030  0.8319  0.0628
27687SOL    HW185378   7.261   8.759   3.194 -0.4130  1.3483 -0.3563
27687SOL    HW285379   7.201   8.719   3.062 -0.1580  0.8722 -0.3320
27688SOL     OW85380   3.344   0.521   0.712 -0.0949 -0.1583  0.4206
27688SOL    HW185381   3.289   0.577   0.657  1.6447  0.3878 -0.8311
27688SOL    HW285382   3.314   0.432   0.693 -0.2143  0.0914 -0.6126
27689SOL     OW85383   5.615   8.376   6.608  0.3248  0.3807 -0.9898
27689SOL    HW185384   5.655   8.309   6.664  0.5272  0.2560 -1.2846
27689SOL    HW285385   5.550   8.327   6.557  0.5693  0.3870 -1.3043
27690SOL     OW85386   8.755   7.802  10.564  0.4904 -0.1067  0.3266
27690SOL    HW185387   8.753   7.814  10.469  0.9705 -1.0558  0.1897
27690SOL    HW285388   8.696   7.728  10.580  2.8227 -2.0617  0.4031
27691SOL     OW85389   0.280   4.307   4.587 -0.0999 -0.0350 -0.0420
27691SOL    HW185390   0.274   4.392   4.630 -0.6552  0.1753 -0.5269
27691SOL    HW285391   0.341   4.320   4.515 -0.9280  0.2255 -0.7200
27692SOL     OW85392   0.701   6.560   3.251 -0.2570 -0.0587  0.2340
27692SOL    HW185393   0.647   6.482   3.238 -1.0148  0.8151 -2.6545
27692SOL    HW285394   0.646   6.633   3.224  1.1846  1.2619  0.6711
27693SOL     OW85395   8.216   8.474  10.051 -0.3256  0.1850  0.3434
27693SOL    HW185396   8.278   8.403  10.036  1.9930  1.5333  2.5921
27693SOL    HW285397   8.142   8.434  10.095  0.1800 -1.0702  0.0765
27694SOL     OW85398   8.958   2.083   1.414 -0.1459 -0.3727  0.5952
27694SOL    HW185399   8.902   2.027   1.362 -0.2048  1.0968 -1.0108
27694SOL    HW285400   8.907   2.164   1.425  0.8812  0.2666  0.7698
27695SOL     OW85401   8.273   0.810   9.193  0.2539  0.2048 -0.6811
27695SOL    HW185402   8.311   0.830   9.278 -0.0862  1.2420 -0.7579
27695SOL    HW285403   8.230   0.891   9.166 -0.0230 -0.2427 -1.6401
27696SOL     OW85404   6.971   8.355   8.473  0.0354 -0.5783  0.6711
27696SOL    HW185405   7.005   8.268   8.453 -0.3400 -0.4982 -0.3639
27696SOL    HW285406   7.012   8.378   8.557  0.9612 -1.3137  0.4419
27697SOL     OW85407   9.213   0.704  10.098  0.1495  0.2578  0.2161
27697SOL    HW185408   9.201   0.798  10.083  0.8671  0.1675 -1.0505
27697SOL    HW285409   9.305   0.695  10.123 -0.0310 -0.0693  0.7919
27698SOL     OW85410   4.030   4.801   9.021  0.1258  0.8974  0.1244
27698SOL    HW185411   3.935   4.806   9.008 -0.2976 -1.3208  1.6951
27698SOL    HW285412   4.048   4.862   9.092 -0.5359 -0.2443  1.3210
27699SOL     OW85413   6.675   6.531   5.401 -0.5792 -0.0644 -0.2601
27699SOL    HW185414   6.747   6.526   5.338 -0.1033  1.9828  0.0410
27699SOL    HW285415   6.596   6.535   5.348 -0.2431  0.7942 -0.7035
27700SOL     OW85416   8.203   7.166   1.060 -0.1617 -0.1125 -0.0822
27700SOL    HW185417   8.190   7.111   0.983 -2.2365  0.8128 -0.4942
27700SOL    HW285418   8.126   7.224   1.060  1.1929  1.7990  1.1154
27701SOL     OW85419   3.390   4.604   7.901 -0.0948 -0.0573  0.4483
27701SOL    HW185420   3.353   4.518   7.921  1.3913 -1.3686 -1.9829
27701SOL    HW285421   3.473   4.605   7.948  0.4181 -0.4854 -0.4097
27702SOL     OW85422   7.865   1.737   5.513  0.2795 -0.4795 -0.3374
27702SOL    HW185423   7.824   1.705   5.593 -0.7336 -0.5163 -0.8593
27702SOL    HW285424   7.945   1.780   5.543 -0.6814  0.5745  0.8266
27703SOL     OW85425   6.886   5.058   2.252  0.3999  0.9270  0.1625
27703SOL    HW185426   6.848   5.036   2.336 -0.3408 -2.0391 -0.8303
27703SOL    HW285427   6.954   4.992   2.238  1.7193  2.4115 -0.8371
27704SOL     OW85428   4.146   1.131   2.312 -0.4534  0.2991  0.0174
27704SOL    HW185429   4.179   1.218   2.334 -2.4705  1.8149 -2.3791
27704SOL    HW285430   4.061   1.148   2.270 -0.9214 -2.8548 -0.5291
27705SOL     OW85431   9.222   2.068   3.154 -0.0432  0.2311 -0.2983
27705SOL    HW185432   9.245   1.976   3.168  0.6467  0.5541  0.7395
27705SOL    HW285433   9.129   2.066   3.129 -0.1296 -0.7183  0.0674
27706SOL     OW85434   9.466   0.056  10.091 -0.4445 -0.2514  0.1062
27706SOL    HW185435   9.450   0.007  10.011  1.0572  0.6102 -0.7537
27706SOL    HW285436   9.408   0.132  10.086  0.9041  0.7422 -1.0558
27707SOL     OW85437   2.111   7.552   3.536 -0.1847 -0.2898 -0.0183
27707SOL    HW185438   2.067   7.486   3.482 -1.7087  1.1050 -0.5462
27707SOL    HW285439   2.152   7.501   3.607 -1.7466 -1.7610 -0.1030
27708SOL     OW85440   3.249   4.512   0.170  0.3882  0.5326 -0.2111
27708SOL    HW185441   3.341   4.539   0.171  0.3004  0.8616  1.3453
27708SOL    HW285442   3.253   4.416   0.177  0.6013  0.5897  0.4607
27709SOL     OW85443   6.914   5.397   2.710  0.1074 -0.0488 -0.4082
27709SOL    HW185444   6.832   5.372   2.754  0.0112  1.1233  0.0985
27709SOL    HW285445   6.890   5.470   2.654  0.1520 -1.7423 -2.7720
27710SOL     OW85446   0.514   8.364   5.132  0.0644  0.2378  0.4086
27710SOL    HW185447   0.452   8.437   5.134  1.0608  1.1128  1.6765
27710SOL    HW285448   0.466   8.291   5.172 -0.9818  0.1285 -0.9728
27711SOL     OW85449   6.668   6.806   3.422 -0.1340 -0.1245  0.1696
27711SOL    HW185450   6.728   6.763   3.482  1.2704 -0.6893 -1.5544
27711SOL    HW285451   6.724   6.863   3.369 -0.7506 -2.0165 -2.7102
27712SOL     OW85452   3.489   8.145   2.913 -0.1804  0.5160  0.2997
27712SOL    HW185453   3.491   8.225   2.860 -0.0219 -0.0102 -0.5102
27712SOL    HW285454   3.410   8.154   2.967 -0.6587  0.8230 -0.4297
27713SOL     OW85455   0.519   6.022   6.521  0.6453 -0.0719  0.5344
27713SOL    HW185456   0.443   6.061   6.478  0.3291 -1.3435 -0.1144
27713SOL    HW285457   0.510   5.928   6.505  1.7846 -0.3479  1.3820
27714SOL     OW85458   3.079   0.241   1.086 -0.0684  0.6336 -0.0992
27714SOL    HW185459   3.061   0.332   1.109  0.1876  1.2156 -2.0387
27714SOL    HW285460   3.099   0.243   0.992  1.3391 -1.2181  0.0913
27715SOL     OW85461   1.906   6.288   5.601  0.3943 -0.7669 -0.7582
27715SOL    HW185462   1.905   6.360   5.537  4.1115  0.5747  0.4156
27715SOL    HW285463   1.922   6.210   5.548  0.2364 -0.1599 -1.7456
27716SOL     OW85464   4.133   9.880   0.873 -0.6589 -0.4001  0.2227
27716SOL    HW185465   4.061   9.935   0.843  0.7172  0.3470 -1.9453
27716SOL    HW285466   4.109   9.792   0.844 -0.0081  0.0966 -2.0056
27717SOL     OW85467   0.422   7.964   9.219  0.2588 -0.1681  0.0937
27717SOL    HW185468   0.451   8.052   9.242 -1.2872 -0.1251  2.1085
27717SOL    HW285469   0.346   7.948   9.275  1.3304 -3.3175  0.8343
27718SOL     OW85470   4.896   2.731   0.206 -0.0996  0.1818  0.2663
27718SOL    HW185471   4.908   2.743   0.112  0.1509  0.9650  0.3891
27718SOL    HW285472   4.984   2.735   0.242 -0.2548  0.6656  0.6089
27719SOL     OW85473   8.335   1.394   9.806 -0.1679 -0.4709 -0.1574
27719SOL    HW185474   8.380   1.447   9.872  0.3037  1.8711 -2.1969
27719SOL    HW285475   8.404   1.341   9.767  0.4641  1.3244 -1.6190
27720SOL     OW85476   4.584   5.861   2.741 -0.2850 -0.4681  0.6170
27720SOL    HW185477   4.648   5.813   2.793 -0.6527 -0.6905  0.8703
27720SOL    HW285478   4.541   5.794   2.688  0.9757 -0.0819 -0.9464
27721SOL     OW85479   5.303   4.559   0.609 -0.4455 -0.4749 -0.1816
27721SOL    HW185480   5.212   4.546   0.636  0.5416 -2.4050  2.7527
27721SOL    HW285481   5.329   4.475   0.573 -0.2457  0.6049 -2.7258
27722SOL     OW85482   5.810   5.484   3.112 -0.0948  0.2761 -0.6420
27722SOL    HW185483   5.793   5.477   3.018  0.6178  0.7510 -0.8084
27722SOL    HW285484   5.729   5.520   3.149 -0.3813  0.0716 -1.0652
27723SOL     OW85485   8.919   7.809   6.541  0.2089 -0.4384  0.1736
27723SOL    HW185486   8.902   7.778   6.452 -1.0439  0.2454  0.1615
27723SOL    HW285487   8.833   7.828   6.577  0.6346 -1.5325  1.8565
27724SOL     OW85488   5.936   6.240   8.848  0.1240 -0.1922 -0.0559
27724SOL    HW185489   5.953   6.249   8.754 -0.4048  2.5840  0.0485
27724SOL    HW285490   5.858   6.184   8.853 -1.1639  1.3785 -1.4196
27725SOL     OW85491   0.599   0.857   2.062  0.2494 -0.1399  0.0456
27725SOL    HW185492   0.531   0.862   2.130  0.2409 -0.2879  0.0479
27725SOL    HW285493   0.557   0.892   1.984  0.3086  0.1809  0.1541
27726SOL     OW85494   2.739   3.314   9.467 -0.3799  0.7485 -0.1134
27726SOL    HW185495   2.709   3.285   9.553  0.3826  0.8161  0.1875
27726SOL    HW285496   2.816   3.260   9.449 -0.6194  0.6321 -0.8225
27727SOL     OW85497   1.596   5.080   4.349 -0.1389  0.1790 -0.4900
27727SOL    HW185498   1.684   5.059   4.382 -0.0484  1.2380 -0.0148
27727SOL    HW285499   1.574   5.007   4.291 -0.0366 -1.4828  1.4151
27728SOL     OW85500  10.271   1.523   0.087  0.1085  0.3256 -0.1905
27728SOL    HW185501  10.303   1.435   0.070 -1.5444 -0.4809  0.6871
27728SOL    HW285502  10.319   1.551   0.165 -0.8576 -0.6454  0.7812
27729SOL     OW85503   0.964   6.371  10.382 -0.2509  0.9819  0.8670
27729SOL    HW185504   1.000   6.341  10.299 -0.8532  0.4918  0.7697
27729SOL    HW285505   0.891   6.311  10.399 -1.1989  2.1065  0.9162
27730SOL     OW85506   3.421   6.601   9.618 -0.2690  0.1855 -0.0429
27730SOL    HW185507   3.461   6.688   9.630 -0.5791  0.6821 -2.1644
27730SOL    HW285508   3.488   6.540   9.649  1.2159  1.0898 -1.3264
27731SOL     OW85509   0.571   1.924   9.292 -0.1949 -0.2908  0.3195
27731SOL    HW185510   0.645   1.868   9.314  0.2575  0.8732  1.9411
27731SOL    HW285511   0.610   2.002   9.254 -0.3877  0.9744  2.5227
27732SOL     OW85512   8.088   9.994   3.342 -0.0028  0.1733  0.1066
27732SOL    HW185513   8.176   9.959   3.353  0.5618  1.9482  1.5868
27732SOL    HW285514   8.035   9.917   3.321  1.8009 -0.9866 -0.4407
27733SOL     OW85515   5.568   6.541   8.643 -0.1983  0.2036 -0.1204
27733SOL    HW185516   5.590   6.634   8.631  1.0556 -0.1252 -0.4772
27733SOL    HW285517   5.609   6.497   8.569 -0.3147 -0.7119  0.3482
27734SOL     OW85518   8.196   2.145   1.302  0.5504  0.4127  0.8649
27734SOL    HW185519   8.113   2.118   1.342  0.0966 -0.2912 -0.5023
27734SOL    HW285520   8.224   2.220   1.354 -0.6950  0.3670  1.6437
27735SOL     OW85521   1.408   2.748   8.340  0.3745  0.5281 -0.3561
27735SOL    HW185522   1.493   2.767   8.379 -0.1628  0.5965  0.8027
27735SOL    HW285523   1.367   2.833   8.328 -0.3642  0.3937  1.0296
27736SOL     OW85524   2.783   7.233   3.588  0.3420 -0.6403  0.0191
27736SOL    HW185525   2.752   7.322   3.570 -1.4569 -1.1179  0.5004
27736SOL    HW285526   2.844   7.242   3.661  1.9447  0.4279 -1.3708
27737SOL     OW85527   8.876   6.153   9.206  0.6821  0.6390  0.0519
27737SOL    HW185528   8.881   6.079   9.267  0.9266  0.2027 -0.4904
27737SOL    HW285529   8.959   6.199   9.216  1.5376 -0.5544 -1.3513
27738SOL     OW85530   8.392   6.441  10.070 -0.1308  0.0538 -0.6409
27738SOL    HW185531   8.329   6.509  10.047 -0.9501 -0.7562 -0.8611
27738SOL    HW285532   8.371   6.418  10.160 -0.3077 -0.3850 -0.7933
27739SOL     OW85533   1.650   4.059   5.167  0.0142 -0.6994  0.0014
27739SOL    HW185534   1.613   4.034   5.082 -0.0618  3.3856 -1.3689
27739SOL    HW285535   1.574   4.074   5.223 -0.0354 -0.7253 -0.0589
27740SOL     OW85536   5.080   2.003   0.001  0.2176  0.5157  0.0641
27740SOL    HW185537   5.102   1.915  -0.030  0.1704 -0.0400  1.5440
27740SOL    HW285538   4.989   2.015  -0.027  0.4325  0.3741 -0.7242
27741SOL     OW85539  10.175   2.440   6.508  0.3889  0.2062 -0.2829
27741SOL    HW185540  10.159   2.392   6.426 -0.1984 -1.1127  0.5758
27741SOL    HW285541  10.220   2.520   6.480 -0.1365 -0.0317 -1.9296
27742SOL     OW85542   3.193   9.450   9.560  0.3101 -0.2558 -0.0461
27742SOL    HW185543   3.114   9.466   9.612 -0.8998 -2.8594 -0.9245
27742SOL    HW285544   3.173   9.372   9.508  2.1070  1.1149 -3.1162
27743SOL     OW85545   9.000   5.199   3.961 -0.1055 -0.0495 -0.0647
27743SOL    HW185546   8.961   5.164   4.041  0.1543  0.8220  0.4637
27743SOL    HW285547   9.004   5.125   3.900 -0.4105 -0.6919  0.6930
27744SOL     OW85548   9.778   1.646   3.774  0.2061 -0.0784  0.1676
27744SOL    HW185549   9.834   1.576   3.808 -0.0500 -0.2231  0.2971
27744SOL    HW285550   9.806   1.657   3.683 -0.5819 -1.2179 -0.2370
27745SOL     OW85551   4.923   0.202   4.191 -0.0738 -0.0438 -0.0444
27745SOL    HW185552   4.956   0.180   4.277 -0.4997 -0.6140 -0.0201
27745SOL    HW285553   4.888   0.119   4.156 -0.9994  0.4193 -0.2656
27746SOL     OW85554   5.702   5.659  10.584 -0.1841  0.7928  0.0123
27746SOL    HW185555   5.676   5.643  10.675 -0.8206  0.8110 -0.1631
27746SOL    HW285556   5.761   5.586  10.563 -0.4205  0.5187  0.2898
27747SOL     OW85557   9.270   0.325   6.171  0.5622  0.1839 -0.1057
27747SOL    HW185558   9.248   0.392   6.235 -1.5565 -0.1027 -0.4656
27747SOL    HW285559   9.262   0.242   6.219  2.7157  0.1018  0.2165
27748SOL     OW85560   7.430   3.799   7.326 -0.3105 -0.5415 -0.0068
27748SOL    HW185561   7.438   3.801   7.422  0.0075  2.1567 -0.0198
27748SOL    HW285562   7.504   3.744   7.297  1.0116  0.5092  1.2196
27749SOL     OW85563   1.896   4.298   2.383 -0.2754 -0.0330 -0.5567
27749SOL    HW185564   1.801   4.287   2.374 -0.7768  2.0765  1.3207
27749SOL    HW285565   1.906   4.381   2.429  2.5225 -0.1646 -0.7807
27750SOL     OW85566   9.432   7.558   7.371 -0.2750 -0.4385 -0.2709
27750SOL    HW185567   9.437   7.634   7.428 -0.7896  0.2286 -1.0852
27750SOL    HW285568   9.473   7.586   7.289 -0.4771 -1.0334 -0.5869
27751SOL     OW85569   3.665   8.960   0.257 -0.0622  0.1282 -0.0809
27751SOL    HW185570   3.603   8.887   0.257 -0.0381  0.0960  0.8742
27751SOL    HW285571   3.741   8.927   0.208  0.2513 -0.7622  0.9717
27752SOL     OW85572   3.029   9.480   4.594 -0.2988  0.5330  0.5662
27752SOL    HW185573   3.108   9.447   4.638  0.3501 -0.5790 -1.3172
27752SOL    HW285574   2.972   9.508   4.665  0.9830 -0.5035  2.0716
27753SOL     OW85575   8.720   8.475   0.101  0.6744 -0.1251  0.2869
27753SOL    HW185576   8.727   8.527   0.021 -0.3650 -0.5860 -0.1147
27753SOL    HW285577   8.630   8.443   0.102  1.0803 -1.3215  0.8863
27754SOL     OW85578   1.228  10.357   8.338 -0.1573  0.0359 -0.9825
27754SOL    HW185579   1.134  10.340   8.332 -0.0462 -0.9737 -0.2007
27754SOL    HW285580   1.244  10.431   8.279 -1.4731  0.3551 -0.9555
27755SOL     OW85581   1.939   6.409   2.030 -0.0366 -0.1424  0.0486
27755SOL    HW185582   1.889   6.346   2.082 -2.6762  0.0079 -2.1095
27755SOL    HW285583   1.923   6.493   2.073 -1.1575 -0.1975 -0.2200
27756SOL     OW85584   8.307   2.068   4.225  0.0719  0.4569  0.6520
27756SOL    HW185585   8.296   1.985   4.180 -0.4397  0.2915  1.0641
27756SOL    HW285586   8.334   2.129   4.157  2.3278 -0.4447  0.6590
27757SOL     OW85587   5.522   9.172   7.903 -0.1290  0.1884 -0.5692
27757SOL    HW185588   5.575   9.128   7.836  0.1617 -1.9263  0.9438
27757SOL    HW285589   5.433   9.141   7.886 -0.0235 -0.5145  0.1143
27758SOL     OW85590   9.079   7.734  10.075  0.4544 -0.1899 -0.5419
27758SOL    HW185591   9.137   7.793  10.028 -1.1086  1.4229 -0.5280
27758SOL    HW285592   9.038   7.681  10.007 -0.2194  0.6928 -0.8490
27759SOL     OW85593   1.354   9.742   7.380 -0.0972 -0.3213 -0.3410
27759SOL    HW185594   1.263   9.717   7.365  0.0802 -1.8514  0.8255
27759SOL    HW285595   1.349   9.825   7.427 -0.8716 -0.2441 -0.5388
27760SOL     OW85596   8.640   2.015   2.878  0.1242  0.3659  0.1511
27760SOL    HW185597   8.671   1.999   2.967  1.4104  1.2184 -0.1085
27760SOL    HW285598   8.555   2.058   2.889  0.9717  1.8967  1.0403
27761SOL     OW85599   4.972   4.807   3.141  0.8524  0.2277  0.0096
27761SOL    HW185600   4.954   4.813   3.047  0.3483 -0.4046  0.0605
27761SOL    HW285601   4.975   4.898   3.170 -0.6641  0.4106 -0.3136
27762SOL     OW85602   8.460   8.382   0.064  0.6291 -0.3286  0.4572
27762SOL    HW185603   8.460   8.286   0.058  0.6343 -0.3610  0.9376
27762SOL    HW285604   8.398   8.410  -0.003 -0.6888 -0.7577  1.4366
27763SOL     OW85605   1.021   4.380   7.169 -0.9277  0.8432  0.3660
27763SOL    HW185606   0.998   4.355   7.079  0.4537  1.0496 -0.0788
27763SOL    HW285607   0.952   4.440   7.197 -1.8852  0.0314 -0.2003
27764SOL     OW85608   4.822   6.359   6.327  0.1723  0.2159  0.5405
27764SOL    HW185609   4.910   6.324   6.320  0.4235  1.0343 -0.6994
27764SOL    HW285610   4.765   6.288   6.299  0.6987  0.8077 -2.3621
27765SOL     OW85611   7.924   8.116   6.825 -0.0094 -0.4645  0.0277
27765SOL    HW185612   7.913   8.196   6.774 -0.6105 -1.0636 -0.8133
27765SOL    HW285613   7.922   8.145   6.916  1.1022  0.6283 -0.2676
27766SOL     OW85614   5.573   9.003   8.844  0.7876 -0.4588 -0.0290
27766SOL    HW185615   5.559   9.097   8.857  0.2835 -0.3662 -1.1374
27766SOL    HW285616   5.542   8.987   8.755 -1.4452 -2.1399  0.9599
27767SOL     OW85617   1.061   2.205   9.662 -1.0325  0.0148 -0.0062
27767SOL    HW185618   1.108   2.144   9.720  1.8555  2.7437  0.8432
27767SOL    HW285619   0.998   2.248   9.719 -0.7429  0.1362  0.2265
27768SOL     OW85620   1.656   9.038   7.756  0.3429 -0.1695  0.1877
27768SOL    HW185621   1.620   9.115   7.712 -0.4211 -0.4463  0.3149
27768SOL    HW285622   1.580   8.997   7.799  0.5930 -1.4166 -0.5010
27769SOL     OW85623   9.075   3.082   7.581 -0.0470 -0.1943  0.1776
27769SOL    HW185624   9.155   3.117   7.621  0.1525 -0.6607  0.1892
27769SOL    HW285625   9.004   3.134   7.620  0.1534 -0.5573  1.0482
27770SOL     OW85626   3.883   1.802   8.878 -0.5283 -0.4846  0.2567
27770SOL    HW185627   3.955   1.863   8.862 -0.7785 -0.5338 -1.2139
27770SOL    HW285628   3.902   1.728   8.820 -0.2776 -1.8031  1.9261
27771SOL     OW85629   9.180   7.033   6.108 -0.0873  0.3086  0.3695
27771SOL    HW185630   9.096   7.059   6.071  1.2577  0.7689 -2.6005
27771SOL    HW285631   9.208   7.109   6.159 -1.5565  0.0142  1.7037
27772SOL     OW85632   1.682   7.907   7.592 -0.2090 -0.3261 -0.3926
27772SOL    HW185633   1.663   7.981   7.534  0.6147  0.5723  0.4330
27772SOL    HW285634   1.612   7.844   7.576 -2.4671  1.7471  0.7728
27773SOL     OW85635   2.123   1.378   1.531  0.2504  0.7096  0.0380
27773SOL    HW185636   2.217   1.367   1.539  0.2352 -0.3768 -1.0409
27773SOL    HW285637   2.106   1.380   1.437 -0.7268  1.7427  0.2127
27774SOL     OW85638   2.021   5.544   7.264  0.1723  0.0248  0.9596
27774SOL    HW185639   2.057   5.633   7.271 -1.2412  0.7069 -0.0034
27774SOL    HW285640   2.098   5.487   7.267  1.3048  1.3850 -0.3055
27775SOL     OW85641   1.325   3.017   8.351 -0.3664 -0.3379  0.2674
27775SOL    HW185642   1.310   3.104   8.313  1.1961 -0.9334 -1.9062
27775SOL    HW285643   1.391   3.031   8.419 -1.6410  0.4332  1.4025
27776SOL     OW85644   1.124   2.530   7.101 -0.0082 -0.1317 -0.0600
27776SOL    HW185645   1.147   2.524   7.008  1.4282 -0.2476  0.2811
27776SOL    HW285646   1.196   2.580   7.140 -0.4971 -0.2505  1.0294
27777SOL     OW85647   8.483   4.992   4.354  0.7522  0.2576 -0.0890
27777SOL    HW185648   8.577   5.003   4.338  1.0379  0.8406  1.7071
27777SOL    HW285649   8.479   4.918   4.415  0.0385  0.1675 -0.2490
27778SOL     OW85650   0.959   7.450   2.366 -0.1206 -0.0363  0.9894
27778SOL    HW185651   1.046   7.481   2.392  0.0371 -0.8633  1.4992
27778SOL    HW285652   0.970   7.425   2.274 -0.0660  0.7326  0.7838
27779SOL     OW85653   7.026  10.352   9.419 -0.4104 -0.2397  0.0729
27779SOL    HW185654   7.106  10.307   9.393 -0.8489 -0.0284 -1.7565
27779SOL    HW285655   7.034  10.362   9.514  2.1587  0.6065 -0.1639
27780SOL     OW85656   5.876   4.383   9.655  0.3253  0.5494 -0.0033
27780SOL    HW185657   5.798   4.437   9.670  0.1504  0.6204 -1.0659
27780SOL    HW285658   5.860   4.303   9.705 -0.8177  0.2181 -0.8644
27781SOL     OW85659   5.113   3.312   9.813  0.0459 -0.5732  0.0282
27781SOL    HW185660   5.067   3.253   9.754  0.7559 -0.0896 -1.0517
27781SOL    HW285661   5.197   3.328   9.769 -0.1678  1.3044  0.2168
27782SOL     OW85662   8.577   3.485   4.721  0.6988  0.1479 -0.4889
27782SOL    HW185663   8.638   3.507   4.791  1.0121 -1.1963 -0.3207
27782SOL    HW285664   8.619   3.414   4.673 -0.6748 -0.7523 -0.4151
27783SOL     OW85665   3.980   4.874   3.357  0.8723 -0.1738  0.6910
27783SOL    HW185666   3.956   4.834   3.440 -0.2544  0.3148  0.6307
27783SOL    HW285667   4.058   4.926   3.376  0.9651 -0.5352  1.2953
27784SOL     OW85668   2.649   4.238   0.857  0.1760 -0.2823 -0.1936
27784SOL    HW185669   2.566   4.273   0.825  0.3186  0.0554 -0.1978
27784SOL    HW285670   2.663   4.158   0.807 -1.1297 -1.4219  1.1835
27785SOL     OW85671   1.280   9.936   0.223 -0.3179  0.0684 -0.0658
27785SOL    HW185672   1.330   9.894   0.154  0.5678  2.4088 -0.9404
27785SOL    HW285673   1.345   9.977   0.279 -1.1563  1.1167  0.1758
27786SOL     OW85674   4.936   4.404   1.439 -0.2873 -0.1948 -0.1279
27786SOL    HW185675   4.919   4.403   1.345  2.5601 -0.2481 -0.7295
27786SOL    HW285676   4.859   4.446   1.477 -1.3548  0.1569 -2.5053
27787SOL     OW85677   3.269  10.478   1.058 -0.2966  0.9165  0.2070
27787SOL    HW185678   3.275  10.554   1.000  0.6692  0.1667 -0.7154
27787SOL    HW285679   3.178  10.449   1.050 -0.5079  1.5957  0.0800
27788SOL     OW85680   2.978  10.153   1.573 -0.3297  0.4802 -0.7699
27788SOL    HW185681   2.927  10.134   1.652 -1.5951 -1.5056 -1.9663
27788SOL    HW285682   3.036  10.225   1.598  0.7076 -1.3077  2.5300
27789SOL     OW85683   2.967   8.388   5.763  1.0539  0.2038  0.2720
27789SOL    HW185684   2.970   8.355   5.674 -3.5883 -1.1454  0.3879
27789SOL    HW285685   3.033   8.337   5.810  0.9697 -1.7717 -1.6430
27790SOL     OW85686   5.869   7.648   6.559 -0.0357  0.2407  0.0932
27790SOL    HW185687   5.801   7.581   6.565  0.1214  0.0278 -0.4016
27790SOL    HW285688   5.822   7.731   6.564 -0.2635  0.0941  0.4067
27791SOL     OW85689   8.275   9.793   3.353  0.0429  0.4833 -0.5645
27791SOL    HW185690   8.196   9.750   3.385 -0.4262  1.1834 -0.7504
27791SOL    HW285691   8.343   9.769   3.416  0.1773 -1.7700 -1.4866
27792SOL     OW85692   8.928   6.240   1.466  0.3529 -0.6772  0.2318
27792SOL    HW185693   8.959   6.158   1.504 -1.6045 -1.4491  0.2632
27792SOL    HW285694   8.863   6.272   1.528 -0.3316 -0.1190 -0.7451
27793SOL     OW85695   5.242   2.896   6.815 -0.1053 -0.2873 -1.0106
27793SOL    HW185696   5.309   2.950   6.774 -0.7917  0.3871 -1.2768
27793SOL    HW285697   5.288   2.816   6.842  0.2497 -1.1528 -3.8343
27794SOL     OW85698   2.148   5.374   4.232 -0.0631  0.1524 -0.0828
27794SOL    HW185699   2.174   5.356   4.141  0.4171  1.3497 -0.2073
27794SOL    HW285700   2.221   5.423   4.268 -0.4066 -0.0122  0.8506
27795SOL     OW85701   2.823   5.208  10.064  0.4397  0.1681 -0.1803
27795SOL    HW185702   2.895   5.255  10.106  0.1323  0.7788 -0.3222
27795SOL    HW285703   2.813   5.251   9.978  1.9813 -1.9420 -1.5244
27796SOL     OW85704   6.906   8.997   7.328 -0.0536  0.7053 -0.5456
27796SOL    HW185705   6.932   8.910   7.360  0.8666  1.5178  1.0106
27796SOL    HW285706   6.949   9.004   7.242 -0.7156 -0.6259 -1.0215
27797SOL     OW85707   1.496   6.625   2.755  0.7608 -0.2959  0.0564
27797SOL    HW185708   1.516   6.701   2.700  2.7908 -1.4306 -0.9138
27797SOL    HW285709   1.403   6.608   2.740  0.7492  0.7820 -1.2950
27798SOL     OW85710   6.341   4.884   2.192  0.2693  0.2252  0.0103
27798SOL    HW185711   6.255   4.845   2.176 -0.0867  0.4772  1.2426
27798SOL    HW285712   6.330   4.976   2.167  0.3472  0.1388 -0.3530
27799SOL     OW85713   8.992   6.221   3.780  0.0360  0.2222 -0.4198
27799SOL    HW185714   8.969   6.164   3.706 -0.7928  0.2794 -0.2100
27799SOL    HW285715   9.013   6.305   3.740 -0.7374  0.3464 -0.5635
27800SOL     OW85716   9.765   7.380   8.809 -0.2924 -1.1681 -0.0382
27800SOL    HW185717   9.807   7.447   8.863  2.2918 -1.7216 -1.1727
27800SOL    HW285718   9.701   7.428   8.756 -0.0240  0.0344  0.6917
27801SOL     OW85719   1.336   9.115  10.218  0.3434 -0.5014  0.2018
27801SOL    HW185720   1.296   9.201  10.201  1.0091  0.1763  1.8521
27801SOL    HW285721   1.321   9.066  10.137 -0.6361  0.9361 -0.5517
27802SOL     OW85722  10.499   4.687   8.784 -0.3766  0.1427 -0.1898
27802SOL    HW185723  10.429   4.669   8.847 -1.5638 -0.7081 -1.6892
27802SOL    HW285724  10.567   4.623   8.805  0.0777  1.0533  1.3539
27803SOL     OW85725   1.154   6.912   2.627 -0.7966 -0.3909  0.0738
27803SOL    HW185726   1.146   6.885   2.718 -0.4907 -1.5491 -0.2357
27803SOL    HW285727   1.248   6.927   2.614 -0.7965 -0.5646 -0.1377
27804SOL     OW85728   2.220   0.547   6.840 -0.0326 -0.0576 -0.3423
27804SOL    HW185729   2.196   0.454   6.833 -2.1486  0.4560 -0.4788
27804SOL    HW285730   2.188   0.574   6.926  1.3819  0.3611  0.0830
27805SOL     OW85731   3.721   8.949   9.627  0.1919  0.4248 -0.0863
27805SOL    HW185732   3.759   8.863   9.642  0.8011  0.7405  0.2213
27805SOL    HW285733   3.735   8.996   9.710  1.7267  1.5057 -0.9062
27806SOL     OW85734  10.228   3.529   5.761  0.3481 -0.7378  0.5705
27806SOL    HW185735  10.311   3.564   5.793  2.4787 -3.7372 -1.0626
27806SOL    HW285736  10.202   3.465   5.827 -0.6811  0.1481  1.0441
27807SOL     OW85737   5.002   9.877   5.820  0.0564 -0.4120 -0.1512
27807SOL    HW185738   4.990   9.949   5.757  0.2345  0.0334  0.3136
27807SOL    HW285739   5.036   9.805   5.768 -3.3799 -1.3651 -1.3670
27808SOL     OW85740   6.754   7.890   1.930  0.3897 -0.4016  0.0510
27808SOL    HW185741   6.754   7.977   1.970  0.3249 -0.4163  0.0830
27808SOL    HW285742   6.846   7.866   1.927  0.3104 -1.0231  1.5531
27809SOL     OW85743   8.189   1.922   6.889  0.1624 -0.6883  0.2243
27809SOL    HW185744   8.229   1.903   6.974  0.5339 -0.1660  0.1742
27809SOL    HW285745   8.099   1.948   6.910  0.3580 -0.2130  0.4960
27810SOL     OW85746   7.633   2.494   5.657 -0.1255 -0.2750  0.3062
27810SOL    HW185747   7.598   2.494   5.567 -2.0541 -0.2021  1.0047
27810SOL    HW285748   7.563   2.532   5.709  1.7386  1.5360  1.5996
27811SOL     OW85749   2.085   7.364  10.367 -0.9840  0.5037  0.4511
27811SOL    HW185750   2.126   7.283  10.398 -0.1244  0.7955  0.1018
27811SOL    HW285751   2.006   7.335  10.322  0.0572 -0.2867 -0.9592
27812SOL     OW85752   1.289   7.229   4.684 -0.0036 -0.4446 -0.6426
27812SOL    HW185753   1.301   7.261   4.594 -2.3518 -1.2512 -1.3101
27812SOL    HW285754   1.195   7.213   4.691 -0.2700  1.5922  2.6668
27813SOL     OW85755   9.443   6.824   1.373  0.0776  0.3365 -0.2480
27813SOL    HW185756   9.388   6.748   1.393  0.8590 -0.6504 -1.5893
27813SOL    HW285757   9.399   6.868   1.300 -0.1826  0.9636  0.2823
27814SOL     OW85758   4.433   4.549   6.062 -0.4147  0.2969  0.6261
27814SOL    HW185759   4.359   4.595   6.101 -0.6806  2.6477 -2.3108
27814SOL    HW285760   4.506   4.609   6.071 -0.3722  0.7058 -1.8398
27815SOL     OW85761  10.431   1.674   9.132  0.0642 -0.5898  0.1539
27815SOL    HW185762  10.425   1.681   9.037  0.5612 -0.7585  0.1049
27815SOL    HW285763  10.455   1.762   9.161  1.1660 -0.8190  0.0012
27816SOL     OW85764   8.275   2.159   0.561  0.2842 -0.2112 -0.2728
27816SOL    HW185765   8.323   2.086   0.522  2.5727  1.9336 -1.7601
27816SOL    HW285766   8.188   2.123   0.579  1.3283 -3.3120 -0.7525
27817SOL     OW85767   3.284   2.994   2.562 -0.5507 -0.5170 -0.6051
27817SOL    HW185768   3.197   2.995   2.521 -0.0562  0.4407 -1.6851
27817SOL    HW285769   3.342   2.957   2.496 -0.1080 -1.0659  0.0789
27818SOL     OW85770   3.443   5.684   0.335 -0.1576  0.0203 -0.0164
27818SOL    HW185771   3.422   5.597   0.300 -0.2318 -0.5545  1.4074
27818SOL    HW285772   3.534   5.698   0.311 -0.8586  0.7580 -2.6273
27819SOL     OW85773   9.504   3.699   5.461  0.3938  0.3937 -0.1677
27819SOL    HW185774   9.471   3.788   5.446  0.0872  0.4312  0.6629
27819SOL    HW285775   9.470   3.648   5.388 -1.9614  0.3315  0.8848
27820SOL     OW85776  10.393   5.569   7.546 -0.3687 -0.2510 -0.7537
27820SOL    HW185777  10.308   5.566   7.502 -0.7748  0.4910 -0.0534
27820SOL    HW285778  10.450   5.618   7.486 -0.1454 -1.5985 -1.6701
27821SOL     OW85779   9.839   3.720  10.457 -0.1021  0.2321 -0.3534
27821SOL    HW185780   9.775   3.788  10.438 -0.3115  0.4931  1.1603
27821SOL    HW285781   9.840   3.713  10.553  1.8105 -0.0624 -0.3433
27822SOL     OW85782   0.991   1.791   4.964 -0.2607  0.7264 -0.0101
27822SOL    HW185783   1.080   1.782   4.997 -0.0976  1.9892 -0.0585
27822SOL    HW285784   0.950   1.707   4.982  1.2635 -0.2693 -0.9663
27823SOL     OW85785   3.252   9.358   7.306  0.5420  0.3657 -0.9825
27823SOL    HW185786   3.318   9.304   7.262  3.0470  2.3723  0.0431
27823SOL    HW285787   3.239   9.316   7.391 -0.4082 -0.6547 -1.6085
27824SOL     OW85788   0.627   3.759   7.468  0.3020 -0.5640 -0.0492
27824SOL    HW185789   0.556   3.780   7.407  0.0590 -0.7399  0.1659
27824SOL    HW285790   0.643   3.841   7.515 -1.3873 -1.0686  1.5437
27825SOL     OW85791   9.131   5.686   0.159  0.5696  0.3825  0.0942
27825SOL    HW185792   9.199   5.751   0.179  0.5691  0.0132  1.3989
27825SOL    HW285793   9.140   5.620   0.228 -1.7026  0.7918  0.8526
27826SOL     OW85794   2.387   0.317   9.251  0.2112 -0.8381 -0.7225
27826SOL    HW185795   2.322   0.376   9.291  0.2479 -2.3873  1.8316
27826SOL    HW285796   2.441   0.374   9.198  1.1092  1.8224  2.6709
27827SOL     OW85797   9.849   2.540   7.932  0.4328  0.1351  0.7886
27827SOL    HW185798   9.782   2.569   7.869  0.0815 -1.8948  0.1322
27827SOL    HW285799   9.929   2.582   7.903  0.2134 -0.5230 -0.9015
27828SOL     OW85800   9.664   8.239   3.659  0.5221 -0.3098 -0.4644
27828SOL    HW185801   9.723   8.304   3.620  0.3938  0.7270  0.9975
27828SOL    HW285802   9.715   8.201   3.731 -0.2740 -0.0103  0.2766
27829SOL     OW85803   3.705   5.403   0.325 -0.0137  0.1131  0.3289
27829SOL    HW185804   3.797   5.391   0.347  0.4651 -0.3951 -1.7485
27829SOL    HW285805   3.706   5.463   0.251 -1.3613  0.1299  0.3071
27830SOL     OW85806   3.933   4.019   3.661  0.2473 -0.1278 -0.6590
27830SOL    HW185807   3.917   3.966   3.582  0.6882  0.8889 -1.4593
27830SOL    HW285808   3.926   4.109   3.630  3.3207  0.3728 -0.2294
27831SOL     OW85809  10.174   7.405   5.665 -0.3408 -0.6136 -0.1485
27831SOL    HW185810  10.147   7.403   5.573  0.6424 -0.6488 -0.4457
27831SOL    HW285811  10.095   7.381   5.713 -0.8574 -0.6402 -0.9874
27832SOL     OW85812  10.493   5.624   9.826 -0.1122 -0.7871  0.0782
27832SOL    HW185813  10.535   5.582   9.900  0.6430  2.2096  1.4955
27832SOL    HW285814  10.559   5.621   9.756  0.5268 -0.5490  0.6648
27833SOL     OW85815   2.623   2.252   4.007  0.1896  0.4182 -0.0940
27833SOL    HW185816   2.657   2.334   3.972  0.8346  0.7403  1.2321
27833SOL    HW285817   2.683   2.185   3.974  0.7948  0.7181  0.3671
27834SOL     OW85818   0.417   7.594   9.439  0.0410 -0.5660  0.2358
27834SOL    HW185819   0.359   7.578   9.513 -0.8910 -0.7900 -0.5320
27834SOL    HW285820   0.423   7.510   9.394  0.5934 -0.4277  0.0444
27835SOL     OW85821   1.214   9.972   0.915  0.5110 -0.0202 -0.5291
27835SOL    HW185822   1.183  10.030   0.846  1.7850  0.9939 -0.2907
27835SOL    HW285823   1.164   9.998   0.993  0.2042 -0.0843 -0.7037
27836SOL     OW85824   0.362   9.039   6.348  0.5851 -0.3052  0.8669
27836SOL    HW185825   0.349   9.040   6.253  0.1675  2.9307  0.8263
27836SOL    HW285826   0.288   8.989   6.382  2.3737 -4.3360 -0.4953
27837SOL     OW85827   5.039   9.690   9.229  0.3737  0.3490  0.6167
27837SOL    HW185828   4.946   9.698   9.250 -0.0427 -1.7285 -0.1942
27837SOL    HW285829   5.073   9.626   9.291  1.2553  1.0368  0.8589
27838SOL     OW85830   2.075   7.028   8.319  0.5098  0.0967  0.0783
27838SOL    HW185831   2.002   7.063   8.368 -0.3598 -1.5843  0.0665
27838SOL    HW285832   2.153   7.061   8.363 -0.2512 -0.5729  2.0019
27839SOL     OW85833   9.954   2.776   1.840 -0.6972  0.4748 -0.0207
27839SOL    HW185834  10.022   2.829   1.799 -1.3847  1.5824  0.2123
27839SOL    HW285835   9.990   2.688   1.843 -0.2167  0.5584 -2.0532
27840SOL     OW85836  10.451   2.850   8.385 -0.1016 -0.1500  0.2945
27840SOL    HW185837  10.531   2.810   8.420 -0.0552  0.7969  1.3192
27840SOL    HW285838  10.479   2.895   8.306  0.2720 -0.2928  0.3427
27841SOL     OW85839   5.944   2.844   1.730  0.0059 -0.1095  0.2192
27841SOL    HW185840   5.983   2.866   1.645  1.6881 -1.9396  0.4308
27841SOL    HW285841   5.859   2.889   1.730 -1.2708 -2.0404 -3.5437
27842SOL     OW85842   0.451   1.030   4.898 -0.4791  0.0202 -0.2389
27842SOL    HW185843   0.375   1.074   4.861 -0.5107  1.6504  1.6215
27842SOL    HW285844   0.423   1.003   4.985  0.0953 -2.2860 -0.6839
27843SOL     OW85845   8.911   7.445   7.943  0.0761  0.0812 -0.0632
27843SOL    HW185846   8.940   7.536   7.930  1.2044 -0.4109 -1.1857
27843SOL    HW285847   8.989   7.399   7.974 -0.6077 -0.4293  0.9348
27844SOL     OW85848   8.751   5.549   3.198  0.1269  0.2474 -0.0943
27844SOL    HW185849   8.658   5.562   3.212 -0.3338 -1.3890 -1.2829
27844SOL    HW285850   8.792   5.628   3.232 -1.7532  1.3555 -0.2784
27845SOL     OW85851   5.669   1.803   7.835  0.1950  0.5617 -0.4701
27845SOL    HW185852   5.606   1.736   7.811 -0.1851  1.3673 -1.8261
27845SOL    HW285853   5.743   1.754   7.871 -0.2109 -0.5630 -1.1007
27846SOL     OW85854  10.405   9.981   8.261 -0.1546  0.5093  0.5021
27846SOL    HW185855  10.400  10.052   8.197  0.2549 -0.9298 -1.2084
27846SOL    HW285856  10.335   9.920   8.234  0.2082 -0.2575  1.2505
27847SOL     OW85857   5.827   0.093   9.674  0.0558  0.3188 -0.0997
27847SOL    HW185858   5.790   0.117   9.589 -0.1244 -0.5935 -0.2903
27847SOL    HW285859   5.836  -0.002   9.670 -2.1409 -0.0540  1.7781
27848SOL     OW85860   0.062   4.438   0.011  0.6367 -0.0935 -0.3073
27848SOL    HW185861   0.126   4.425  -0.059  1.4976  2.2457 -0.0688
27848SOL    HW285862  -0.001   4.500  -0.025 -0.5836 -1.1000  0.0335
27849SOL     OW85863   3.814   2.575   7.595 -0.0682 -0.0539 -0.0523
27849SOL    HW185864   3.863   2.535   7.667 -0.6131 -0.4598  0.1012
27849SOL    HW285865   3.796   2.664   7.624 -0.7565 -0.3771  0.5626
27850SOL     OW85866   5.649   6.869   5.328 -0.4448  0.5740  1.2167
27850SOL    HW185867   5.627   6.778   5.306 -2.3223  1.3699 -0.5655
27850SOL    HW285868   5.612   6.883   5.415 -0.4928 -0.2511  1.3318
27851SOL     OW85869   2.346   5.513   4.383 -0.0620 -0.8197  0.3712
27851SOL    HW185870   2.335   5.608   4.387 -0.8060 -0.9337  1.5213
27851SOL    HW285871   2.419   5.495   4.441 -0.5018 -1.0244  0.8707
27852SOL     OW85872   0.153   9.640   6.812  0.2938 -0.6148 -0.0578
27852SOL    HW185873   0.203   9.610   6.888  1.6317 -0.9786 -1.0515
27852SOL    HW285874   0.210   9.704   6.770 -1.2629  1.1402  0.3238
27853SOL     OW85875   6.659   0.787   5.403  0.5558 -0.3881  0.0007
27853SOL    HW185876   6.704   0.703   5.411  0.4543 -0.4774 -0.3443
27853SOL    HW285877   6.585   0.780   5.464  1.5712  0.1488  1.3347
27854SOL     OW85878   3.981   6.873   9.402 -0.0275  0.2903  0.3051
27854SOL    HW185879   4.028   6.953   9.381  1.6568 -0.6743  0.2302
27854SOL    HW285880   3.989   6.865   9.497 -1.2808  0.8347  0.4755
27855SOL     OW85881   9.139   0.806   8.240  0.1970 -0.3217 -0.6380
27855SOL    HW185882   9.086   0.826   8.317 -0.1534 -1.2761 -0.6193
27855SOL    HW285883   9.114   0.873   8.176  0.3316  0.3491 -0.0030
27856SOL     OW85884   7.018   4.781   9.336 -0.1981  0.2638 -0.4534
27856SOL    HW185885   6.923   4.784   9.326 -0.4390  0.9232  1.5920
27856SOL    HW285886   7.033   4.799   9.429  1.8335 -2.0093 -0.2431
27857SOL     OW85887   6.196   9.532   9.040  0.1430  0.4222 -0.4559
27857SOL    HW185888   6.150   9.596   8.986 -1.3504 -1.3373 -1.3486
27857SOL    HW285889   6.287   9.538   9.011 -0.2833  0.9019 -1.7783
27858SOL     OW85890   6.006   1.505   6.967 -0.2157  0.2759  0.3060
27858SOL    HW185891   6.091   1.460   6.966 -0.6411 -0.5393 -0.1813
27858SOL    HW285892   5.948   1.447   6.919 -1.4648  0.0374  2.0289
27859SOL     OW85893   8.727   9.693  10.514 -0.2145 -0.0607 -0.1451
27859SOL    HW185894   8.749   9.719  10.424 -0.8808  0.0830 -0.2712
27859SOL    HW285895   8.757   9.765  10.568 -0.1669  0.0313 -0.2950
27860SOL     OW85896   4.829   1.981   7.713 -0.0430  0.7923 -0.2531
27860SOL    HW185897   4.855   2.067   7.747  0.9173  0.6871 -0.6670
27860SOL    HW285898   4.783   2.001   7.631  3.2035  0.8726 -2.2461
27861SOL     OW85899   6.489   2.307   9.012 -0.3791  0.5065 -0.4296
27861SOL    HW185900   6.479   2.228   9.066 -0.5175  1.2237  0.6099
27861SOL    HW285901   6.582   2.329   9.018  0.2018 -0.9147 -2.6831
27862SOL     OW85902   4.329   1.245  10.033  0.2476  0.4614  0.5065
27862SOL    HW185903   4.412   1.267   9.990 -0.5005 -1.7801 -2.3924
27862SOL    HW285904   4.356   1.197  10.112  1.6856  1.8091  0.8796
27863SOL     OW85905   2.623   1.331   6.134 -0.1051  0.3437  0.3283
27863SOL    HW185906   2.614   1.423   6.159 -0.1675  0.3251  0.3730
27863SOL    HW285907   2.557   1.318   6.065  1.0909  0.8035 -0.9631
27864SOL     OW85908   7.457   4.278   7.797  0.1192  0.1909 -0.0062
27864SOL    HW185909   7.472   4.372   7.808 -1.1651  0.4549 -0.3959
27864SOL    HW285910   7.460   4.243   7.886 -0.1987  0.7280  0.2201
27865SOL     OW85911   0.361   4.043   5.930 -0.1743  0.3060 -0.4473
27865SOL    HW185912   0.284   3.988   5.947  0.2771 -0.5043 -0.9429
27865SOL    HW285913   0.422   3.985   5.885  0.8551  0.8492  0.2214
27866SOL     OW85914   8.317   3.155   1.912 -0.5721 -0.4217 -0.1363
27866SOL    HW185915   8.269   3.103   1.848 -2.2627  0.6525  0.2172
27866SOL    HW285916   8.297   3.114   1.996  0.5356 -0.9959 -0.1355
27867SOL     OW85917   5.285   4.788   5.006 -0.9185 -0.0491 -0.0716
27867SOL    HW185918   5.265   4.865   4.953  0.1601 -0.6953 -1.4913
27867SOL    HW285919   5.214   4.726   4.986 -1.8727  0.5911  1.1907
27868SOL     OW85920   1.716   7.554   5.985 -0.0899 -0.5387  0.1113
27868SOL    HW185921   1.779   7.603   5.932  0.7228 -0.8631  0.7453
27868SOL    HW285922   1.683   7.487   5.926 -0.0870 -0.1610 -0.3273
27869SOL     OW85923   6.017   3.442   9.574  0.0930 -0.0508 -0.2154
27869SOL    HW185924   6.021   3.467   9.482  3.6345  0.9977  0.0829
27869SOL    HW285925   6.041   3.349   9.574 -3.1818 -0.9976 -0.5099
27870SOL     OW85926   3.214   1.641   8.739  0.0639  0.0442 -0.7075
27870SOL    HW185927   3.248   1.724   8.706 -2.1114  0.7584 -1.3560
27870SOL    HW285928   3.206   1.586   8.661  1.1891 -0.7047 -0.3266
27871SOL     OW85929   1.539   0.137   7.423 -0.2864 -0.5059 -0.7251
27871SOL    HW185930   1.516   0.109   7.334  1.4794  0.7512 -1.6296
27871SOL    HW285931   1.584   0.221   7.411  1.9058 -1.3110  1.1245
27872SOL     OW85932   2.789   4.321   9.313 -0.5705  0.2562  0.1351
27872SOL    HW185933   2.869   4.353   9.271 -0.2462  0.8540  1.1882
27872SOL    HW285934   2.778   4.232   9.279 -0.4014  0.7585 -1.3220
27873SOL     OW85935   6.151   9.205   0.811 -1.0964  0.1849 -0.0264
27873SOL    HW185936   6.070   9.257   0.810  1.2822  4.3189  0.9980
27873SOL    HW285937   6.160   9.178   0.903  0.3443  2.8963  0.7262
27874SOL     OW85938   5.805  10.454   4.285  0.1138 -0.1364  0.1167
27874SOL    HW185939   5.742  10.421   4.348  1.6235 -0.1583  1.6863
27874SOL    HW285940   5.828  10.378   4.232 -0.6277 -0.2846 -0.0051
27875SOL     OW85941   0.734   1.337   8.715 -0.0496  0.0548  0.0135
27875SOL    HW185942   0.747   1.249   8.680 -1.6729  0.2445 -1.1705
27875SOL    HW285943   0.760   1.395   8.645 -1.3676  0.4672 -0.1631
27876SOL     OW85944   3.269   5.890   7.852  0.2596  0.2180 -0.0558
27876SOL    HW185945   3.226   5.838   7.920 -1.3584 -1.2969 -2.0880
27876SOL    HW285946   3.342   5.836   7.823  0.7407  0.7093  0.2188
27877SOL     OW85947   6.897   1.494   6.667  0.0576 -0.6276  0.3524
27877SOL    HW185948   6.870   1.474   6.577  1.3001 -0.5407 -0.0615
27877SOL    HW285949   6.820   1.476   6.720 -1.1361  0.6392 -0.8865
27878SOL     OW85950   1.594   6.209   7.658  0.0996  0.4589  0.5553
27878SOL    HW185951   1.662   6.144   7.641 -0.1139  0.5773 -0.8921
27878SOL    HW285952   1.641   6.292   7.665  0.1856  0.4266  0.3714
27879SOL     OW85953   4.498   1.780   7.344  0.2914  0.1377 -0.4795
27879SOL    HW185954   4.497   1.815   7.254  2.9715 -1.8668 -1.4470
27879SOL    HW285955   4.584   1.739   7.352  0.0142 -0.0641  2.9539
27880SOL     OW85956   9.008   6.334   6.549 -0.2395  0.0054 -0.2163
27880SOL    HW185957   9.019   6.416   6.502 -0.0344  0.1103  0.0077
27880SOL    HW285958   9.055   6.348   6.632 -2.2610  0.5586  0.8959
27881SOL     OW85959   0.278   5.985   4.927  0.4402 -0.8265  0.4442
27881SOL    HW185960   0.309   5.898   4.954 -0.3965 -1.4306 -0.4598
27881SOL    HW285961   0.290   6.040   5.005 -1.2814 -2.3523  1.9102
27882SOL     OW85962   4.178   3.339   7.171 -0.2248  0.0861 -0.2121
27882SOL    HW185963   4.242   3.371   7.236  0.2944  0.1179 -0.7290
27882SOL    HW285964   4.105   3.401   7.177  0.5234  1.0502 -0.7871
27883SOL     OW85965  10.562   5.723   7.160 -0.1927 -0.1694  0.2506
27883SOL    HW185966  10.643   5.731   7.110  0.2402 -1.6743  0.6783
27883SOL    HW285967  10.502   5.785   7.118  0.2617 -1.1133 -1.9027
27884SOL     OW85968   3.452   5.847   4.000  0.4481 -0.2148  0.4497
27884SOL    HW185969   3.500   5.820   3.921  0.6896 -1.1451  0.9072
27884SOL    HW285970   3.498   5.926   4.029  0.0776  0.4049 -0.5840
27885SOL     OW85971   3.781   5.442   3.659 -0.0903 -0.2272  0.1374
27885SOL    HW185972   3.848   5.479   3.717 -0.8606 -0.4279  1.1706
27885SOL    HW285973   3.831   5.395   3.592  0.8665  1.4448 -0.3879
27886SOL     OW85974   7.612   0.736   1.116  0.4136  0.6483  0.4007
27886SOL    HW185975   7.616   0.660   1.174  1.9001  0.1905 -0.2633
27886SOL    HW285976   7.610   0.811   1.175 -3.6640  0.1581  1.1775
27887SOL     OW85977   9.445   7.923   9.518  0.1875 -0.4980  0.3675
27887SOL    HW185978   9.488   7.985   9.577 -1.7567 -0.3799  1.7650
27887SOL    HW285979   9.352   7.939   9.531 -0.4909  1.0281 -4.3448
27888SOL     OW85980   3.339  10.322   3.183  0.1882  0.3597  0.2234
27888SOL    HW185981   3.363  10.229   3.188  1.7818  0.6983 -0.3796
27888SOL    HW285982   3.351  10.355   3.272 -1.7109 -0.2789  0.7518
27889SOL     OW85983   8.777   9.904   3.384 -0.0666  0.6168 -0.7034
27889SOL    HW185984   8.830   9.931   3.459 -1.8761 -0.5137  1.1119
27889SOL    HW285985   8.721   9.979   3.366 -0.0477  0.6750 -0.5204
27890SOL     OW85986   7.418   1.904   8.686  0.3825 -0.2876 -0.0497
27890SOL    HW185987   7.462   1.825   8.719 -0.7244 -1.2103 -0.7188
27890SOL    HW285988   7.334   1.872   8.651 -0.1750  1.2176 -0.1511
27891SOL     OW85989   6.396   1.201   9.312 -0.2528 -0.1703 -0.0473
27891SOL    HW185990   6.490   1.196   9.294  0.5651  2.5480  2.6335
27891SOL    HW285991   6.367   1.282   9.269 -0.8297  0.1608  0.9157
27892SOL     OW85992   4.498   8.571   9.644  0.1562  0.1805 -0.2772
27892SOL    HW185993   4.409   8.583   9.610  0.1796 -1.1440 -0.8360
27892SOL    HW285994   4.489   8.506   9.713  0.8027 -0.5512 -0.8696
27893SOL     OW85995   8.956   3.743   0.579  0.0429 -0.4349 -0.0030
27893SOL    HW185996   8.955   3.651   0.553 -3.1155 -0.8284  1.0319
27893SOL    HW285997   8.933   3.791   0.500 -0.7384 -0.8070 -0.0137
27894SOL     OW85998   2.714   2.873   9.573  0.2255  0.0957 -0.1145
27894SOL    HW185999   2.695   2.826   9.492 -0.3023 -2.0524  1.1838
27894SOL    HW286000   2.628   2.901   9.606  0.1223 -1.4029  1.0089
27895SOL     OW86001   2.718   8.680   0.227 -0.1364 -0.7987 -0.0168
27895SOL    HW186002   2.762   8.699   0.310 -0.6167 -0.0225  0.0782
27895SOL    HW286003   2.788   8.677   0.162 -0.0021  1.5304 -0.0560
27896SOL     OW86004   7.049   0.721   4.004  0.1954 -0.1805 -0.7134
27896SOL    HW186005   6.987   0.654   3.975 -1.1590  0.8105 -0.2522
27896SOL    HW286006   7.102   0.677   4.071 -1.5245 -0.4991  0.5345
27897SOL     OW86007   7.492   4.249   0.795 -0.0184  0.1781  0.7896
27897SOL    HW186008   7.402   4.262   0.824 -1.3790 -1.6580 -2.0986
27897SOL    HW286009   7.508   4.321   0.734  0.7697  0.8907  1.8094
27898SOL     OW86010   3.723   5.008   2.150  0.0572  0.0960  0.3891
27898SOL    HW186011   3.799   5.045   2.194 -0.8591  1.0973  1.1886
27898SOL    HW286012   3.752   4.992   2.060  0.8254  1.7761  0.2982
27899SOL     OW86013   7.739   9.792   6.148 -0.3517 -0.3841 -0.1908
27899SOL    HW186014   7.783   9.787   6.233 -0.9668 -2.5497  0.0728
27899SOL    HW286015   7.648   9.773   6.168 -0.7500  0.4340 -1.1852
27900SOL     OW86016   8.009   1.258   5.281  0.4803 -0.3805  0.4874
27900SOL    HW186017   7.977   1.208   5.206  2.2641 -0.6839 -0.1162
27900SOL    HW286018   7.984   1.204   5.357  0.0748 -0.8734  0.0139
27901SOL     OW86019   5.876   9.071   9.829  0.0341 -0.1404  0.1358
27901SOL    HW186020   5.862   9.085   9.922 -0.8314 -2.3514  0.3966
27901SOL    HW286021   5.791   9.040   9.796  0.2993  0.6698 -1.4192
27902SOL     OW86022   3.784   4.243   9.779  0.0868  0.1030  0.1319
27902SOL    HW186023   3.789   4.315   9.843  0.4098 -0.1509  0.3971
27902SOL    HW286024   3.721   4.274   9.713 -0.3082  0.3406  0.6086
27903SOL     OW86025   9.636   6.809   2.135 -0.3625 -0.0322 -0.0573
27903SOL    HW186026   9.646   6.847   2.222  0.1753  1.4821 -0.7526
27903SOL    HW286027   9.545   6.828   2.111  0.0846  1.4824 -0.6694
27904SOL     OW86028   3.795   4.668   9.591 -0.2417 -0.6729  0.0999
27904SOL    HW186029   3.747   4.739   9.633 -0.3711  0.0830 -1.2908
27904SOL    HW286030   3.742   4.645   9.515  1.3203 -0.1676 -1.1855
27905SOL     OW86031   7.362   2.135   0.199  0.1359  0.5141  0.3069
27905SOL    HW186032   7.317   2.060   0.161 -1.2146  1.7687 -0.6696
27905SOL    HW286033   7.307   2.160   0.273  0.0512  1.1124  0.0455
27906SOL     OW86034   6.186   2.287   4.707 -0.3428  0.5711 -0.2068
27906SOL    HW186035   6.233   2.203   4.713  1.1582  1.2261 -1.7707
27906SOL    HW286036   6.231   2.334   4.637 -1.0949  2.7311  0.6794
27907SOL     OW86037   6.382  10.398   3.130  0.1191 -0.6686  0.1467
27907SOL    HW186038   6.455  10.336   3.135 -1.7821 -2.9959  1.0300
27907SOL    HW286039   6.332  10.371   3.053 -0.2988  0.3389  0.0492
27908SOL     OW86040   6.459  10.070   2.102 -0.2687 -0.2280  0.2386
27908SOL    HW186041   6.378  10.094   2.146 -0.3133 -0.4195  0.2611
27908SOL    HW286042   6.477  10.145   2.044  0.4709  0.5993  1.4917
27909SOL     OW86043   2.781   6.218   6.064 -0.0052  0.6250  0.2452
27909SOL    HW186044   2.849   6.150   6.068  0.8712  1.4301 -0.3791
27909SOL    HW286045   2.802   6.276   6.138 -0.8357  0.1430  0.8632
27910SOL     OW86046   7.323   5.272   5.821  0.7735  0.1357 -0.7327
27910SOL    HW186047   7.249   5.333   5.826  1.1516  0.6692 -1.4825
27910SOL    HW286048   7.282   5.186   5.824  0.1689  0.4208 -0.4677
27911SOL     OW86049   7.458   3.932   9.925  0.0417  0.5368  0.0752
27911SOL    HW186050   7.471   3.839   9.906 -0.1124 -0.0029  2.3570
27911SOL    HW286051   7.481   3.977   9.843 -2.0753 -1.6040 -1.8357
27912SOL     OW86052   5.598   8.170   3.200 -0.1069  0.4289  0.2378
27912SOL    HW186053   5.642   8.101   3.250 -0.3179  0.0852 -0.0522
27912SOL    HW286054   5.508   8.140   3.190 -0.0540  0.4611 -0.4086
27913SOL     OW86055   5.410   1.267   9.837  0.1282  0.0351 -0.1797
27913SOL    HW186056   5.351   1.328   9.882  0.5317  0.0530  0.3431
27913SOL    HW286057   5.476   1.324   9.798 -2.1044  0.3728 -3.8926
27914SOL     OW86058   6.811   6.311   3.293  0.6042  0.0282  0.0545
27914SOL    HW186059   6.866   6.314   3.371  0.5231 -0.1311  0.1189
27914SOL    HW286060   6.850   6.242   3.239 -0.7262 -1.5392  1.0160
27915SOL     OW86061   5.816   6.435   3.963  0.0627  0.2948 -0.0411
27915SOL    HW186062   5.778   6.369   3.905 -2.5417  0.5938  1.1826
27915SOL    HW286063   5.904   6.402   3.982 -0.4297 -1.7802 -1.0359
27916SOL     OW86064  10.364   1.986   1.428 -0.1662 -0.2922  0.2016
27916SOL    HW186065  10.426   1.914   1.415  1.7111  1.1802  0.4414
27916SOL    HW286066  10.311   1.960   1.502 -0.6250 -2.1109 -0.7223
27917SOL     OW86067  10.521   9.361   3.120  0.3211 -1.0111 -0.3714
27917SOL    HW186068  10.607   9.373   3.079  0.3689  1.8783  0.3610
27917SOL    HW286069  10.506   9.442   3.169 -1.9033 -2.3044  1.2927
27918SOL     OW86070   3.733   7.060  10.132 -0.3458 -0.3063  0.2356
27918SOL    HW186071   3.703   7.137  10.083  1.0023  0.0752 -0.0428
27918SOL    HW286072   3.817   7.087  10.170 -0.5622 -1.1608  1.3715
27919SOL     OW86073   7.095   1.526   8.088  0.4706 -0.1727  0.0313
27919SOL    HW186074   7.037   1.455   8.062 -1.2605  0.2789  2.3254
27919SOL    HW286075   7.175   1.483   8.117  0.1575 -1.0179 -0.3303
27920SOL     OW86076   3.234   1.137   1.467 -0.1164  0.1109  0.1946
27920SOL    HW186077   3.300   1.075   1.497  1.1075  0.5690 -1.3864
27920SOL    HW286078   3.274   1.179   1.391 -0.9343  2.8127  1.1723
27921SOL     OW86079   6.185   2.610   6.984  0.0820  0.7021  0.5825
27921SOL    HW186080   6.246   2.675   6.948 -0.1695  1.3349  1.2503
27921SOL    HW286081   6.118   2.663   7.027  1.3745  0.0399  3.6838
27922SOL     OW86082   1.178   3.069   9.822  0.6667  0.0423  0.9416
27922SOL    HW186083   1.174   3.007   9.749 -1.8955  1.5155 -0.2729
27922SOL    HW286084   1.234   3.140   9.791  0.3148  0.2372  0.7469
27923SOL     OW86085   1.944   3.880   2.552 -0.1723  0.0162  0.3164
27923SOL    HW186086   1.851   3.863   2.534 -0.0228  0.5982 -1.1026
27923SOL    HW286087   1.975   3.928   2.475  0.8842  1.3493  1.5214
27924SOL     OW86088   8.159   7.633  10.233 -0.0525  0.0640  0.1390
27924SOL    HW186089   8.210   7.666  10.159 -0.9917 -0.3512 -0.7187
27924SOL    HW286090   8.169   7.700  10.301  1.4704  0.0694 -0.0683
27925SOL     OW86091   7.556   5.440   1.291  0.3579 -0.5529 -0.1971
27925SOL    HW186092   7.480   5.384   1.277 -0.1633  0.1871 -0.4164
27925SOL    HW286093   7.522   5.529   1.281  1.0965 -0.1845  0.4578
27926SOL     OW86094   5.067   1.622   7.137 -0.4397  0.0652 -0.0333
27926SOL    HW186095   5.157   1.639   7.166  0.2486 -1.4597 -1.1078
27926SOL    HW286096   5.072   1.629   7.041 -1.9426  1.9302 -0.0192
27927SOL     OW86097   8.244   7.212   6.346  0.1968 -0.0258  0.0581
27927SOL    HW186098   8.241   7.274   6.418  0.9435  0.3485 -0.2277
27927SOL    HW286099   8.338   7.201   6.327  0.0029  0.2659 -1.1761
27928SOL     OW86100   3.344   6.126   9.370 -0.3726 -0.3094 -0.4736
27928SOL    HW186101   3.316   6.218   9.375 -0.7364 -0.4544  0.3320
27928SOL    HW286102   3.421   6.128   9.313  0.8504  0.8029  1.1066
27929SOL     OW86103   4.617   6.771   4.982  0.1005  0.7406 -0.0403
27929SOL    HW186104   4.604   6.755   4.889  2.0666  0.8428 -0.3958
27929SOL    HW286105   4.560   6.709   5.027 -0.4387  0.2986 -1.3125
27930SOL     OW86106   8.881   2.400   1.279 -0.0357 -0.6602  0.1731
27930SOL    HW186107   8.962   2.444   1.306  0.1547 -1.5433  1.1087
27930SOL    HW286108   8.829   2.394   1.359 -1.5654  0.9381 -0.6409
27931SOL     OW86109   3.046  10.255   7.057  0.0878 -0.2449 -0.6446
27931SOL    HW186110   3.057  10.297   6.971  1.2994  0.1965 -0.2915
27931SOL    HW286111   3.135  10.244   7.090 -0.3758  0.0422  0.7794
27932SOL     OW86112   0.023   0.633   1.458 -0.1997  0.0489 -0.9534
27932SOL    HW186113   0.059   0.705   1.407 -0.0411 -0.5940 -1.7696
27932SOL    HW286114  -0.043   0.593   1.402  0.3952 -1.0449 -0.9147
27933SOL     OW86115   7.318  10.471   8.141 -0.0132  0.2731 -0.3101
27933SOL    HW186116   7.346  10.523   8.216  0.9617  1.3563 -1.3817
27933SOL    HW286117   7.243  10.519   8.105  1.0517  1.1420 -1.4582
27934SOL     OW86118   1.190  10.370   4.198  0.0418  0.2967  0.0437
27934SOL    HW186119   1.185  10.324   4.282  0.2813 -1.2125 -0.7139
27934SOL    HW286120   1.145  10.453   4.212 -1.4545 -0.6517  1.1870
27935SOL     OW86121   9.523   1.332   1.101 -1.0473  0.2230  0.5124
27935SOL    HW186122   9.539   1.426   1.114 -1.2450  0.3145  0.1226
27935SOL    HW286123   9.530   1.294   1.188 -0.3414  0.5050  0.5898
27936SOL     OW86124   0.197   7.028   4.287  0.6971 -0.0234  0.6582
27936SOL    HW186125   0.128   7.050   4.224  1.7235  1.6681  0.0555
27936SOL    HW286126   0.222   7.111   4.326  2.1014 -0.6433  1.1686
27937SOL     OW86127   7.116   3.806   4.364  0.6036 -0.5604  0.2663
27937SOL    HW186128   7.193   3.861   4.374  0.8178 -0.4588 -1.6876
27937SOL    HW286129   7.109   3.789   4.270 -1.8625 -0.4008  0.3380
27938SOL     OW86130   1.320  10.194   5.255  0.3071  0.4292  0.2351
27938SOL    HW186131   1.294  10.122   5.197  0.2101  0.7747 -0.1574
27938SOL    HW286132   1.246  10.255   5.252  0.9505  1.2186 -0.5518
27939SOL     OW86133   1.587   9.750   4.506 -0.0372 -0.4421 -0.2861
27939SOL    HW186134   1.578   9.715   4.594  0.1326 -0.3336 -0.2265
27939SOL    HW286135   1.657   9.815   4.512 -0.3453 -0.0963 -0.3971
27940SOL     OW86136   4.047   8.838   5.498 -0.8502 -0.1523  0.1541
27940SOL    HW186137   4.002   8.914   5.461 -2.1717 -1.6924 -1.5924
27940SOL    HW286138   3.982   8.798   5.556 -0.1330  0.0556  1.1285
27941SOL     OW86139   1.680  10.101   8.884  0.0849 -0.6246 -0.4124
27941SOL    HW186140   1.598  10.150   8.877 -2.0442 -4.0639 -1.9839
27941SOL    HW286141   1.723  10.113   8.800  0.2149 -0.4310 -0.3194
27942SOL     OW86142   4.405   4.280   9.737 -0.4801 -0.5034  0.3861
27942SOL    HW186143   4.427   4.367   9.704  0.8073 -1.2446 -0.7907
27942SOL    HW286144   4.320   4.259   9.698 -0.8715  0.2671  0.8010
27943SOL     OW86145   7.529   6.518  10.114 -0.2242 -0.3711 -0.6022
27943SOL    HW186146   7.600   6.492  10.173  0.2520  1.3903 -0.3512
27943SOL    HW286147   7.469   6.567  10.170 -0.9628 -0.6972 -1.0999
27944SOL     OW86148   1.319   5.957   6.892 -0.3197  0.2564 -0.3874
27944SOL    HW186149   1.318   5.958   6.988 -0.3108  0.9053 -0.3949
27944SOL    HW286150   1.373   5.881   6.870 -1.2221 -0.5613  0.1129
27945SOL     OW86151   2.352   1.518   2.342 -0.9997 -0.0468  0.0041
27945SOL    HW186152   2.294   1.464   2.288 -1.1018 -0.1986  0.2655
27945SOL    HW286153   2.438   1.510   2.301 -0.9300 -0.7268  0.2671
27946SOL     OW86154   5.541   7.762   0.394  0.5729  0.1387  0.0233
27946SOL    HW186155   5.537   7.786   0.301  2.1496  0.7085  0.0757
27946SOL    HW286156   5.609   7.819   0.431  3.2450 -3.0676  0.5332
27947SOL     OW86157   7.913   5.114   3.826  0.3865  0.3685 -0.3088
27947SOL    HW186158   7.851   5.093   3.897 -0.1594  2.1747 -0.2158
27947SOL    HW286159   7.930   5.029   3.784 -0.6751 -0.4595  0.8558
27948SOL     OW86160   3.480  10.349   8.513  0.0413 -0.1149 -0.2746
27948SOL    HW186161   3.492  10.282   8.446 -0.6939 -0.7202  0.1846
27948SOL    HW286162   3.386  10.370   8.508  0.1642  0.5005 -0.0543
27949SOL     OW86163   7.495   8.005   7.973  0.6216  0.3499  0.1358
27949SOL    HW186164   7.445   8.085   7.954  0.0115 -0.1960 -0.6109
27949SOL    HW286165   7.561   8.001   7.904  0.2029 -0.1530 -0.2406
27950SOL     OW86166   4.323   5.681   9.783  0.0128  0.5514 -0.0176
27950SOL    HW186167   4.332   5.586   9.787 -0.9087  0.4254 -0.6027
27950SOL    HW286168   4.249   5.695   9.724  0.4174  1.6450 -0.2866
27951SOL     OW86169   2.939  10.122   1.275  0.2032  0.0978  0.6474
27951SOL    HW186170   2.884  10.198   1.254  0.6293  0.6010  1.3239
27951SOL    HW286171   2.997  10.152   1.345  0.4065 -0.8431  0.9019
27952SOL     OW86172   3.839   6.271   1.222  0.0136 -0.0557 -0.3049
27952SOL    HW186173   3.923   6.255   1.267 -0.1766 -1.7510 -0.5201
27952SOL    HW286174   3.849   6.231   1.136 -0.3937  1.3388 -1.0399
27953SOL     OW86175   7.565   0.304   0.955  0.3235 -0.3062  0.0748
27953SOL    HW186176   7.660   0.298   0.946  0.3976  1.3670 -0.6041
27953SOL    HW286177   7.551   0.337   1.044  0.2518 -2.4318  0.9063
27954SOL     OW86178   3.075   1.359   6.804 -0.1646  0.4593 -0.2726
27954SOL    HW186179   3.029   1.362   6.888  1.0923 -0.9378  0.5047
27954SOL    HW286180   3.150   1.417   6.815  0.4586 -0.3674 -0.1356
27955SOL     OW86181   8.738   8.389   2.252 -0.3409  0.2813  0.0111
27955SOL    HW186182   8.763   8.331   2.180  0.3592  0.4654  0.0973
27955SOL    HW286183   8.693   8.462   2.209  1.0673  0.9554 -0.3786
27956SOL     OW86184   4.331   4.722   4.203  0.5875  0.1001 -0.2925
27956SOL    HW186185   4.421   4.694   4.223  0.5613  0.5186  0.4472
27956SOL    HW286186   4.341   4.807   4.161  0.5336  0.1531 -0.1974
27957SOL     OW86187   8.700   0.659   7.438 -0.1951 -0.2434  0.3265
27957SOL    HW186188   8.645   0.611   7.499  0.0080 -0.5561  0.2646
27957SOL    HW286189   8.730   0.593   7.376 -1.5891  0.2997 -0.9990
27958SOL     OW86190   7.657   2.851   2.202 -0.3525  0.1777 -0.6946
27958SOL    HW186191   7.584   2.834   2.143  0.3847  1.2594 -1.9761
27958SOL    HW286192   7.621   2.837   2.290 -2.3395  1.5494 -1.2354
27959SOL     OW86193   3.611   0.303   1.675 -0.0963 -0.2667  0.1833
27959SOL    HW186194   3.691   0.345   1.707  1.0155 -1.8878 -0.2855
27959SOL    HW286195   3.565   0.276   1.754 -0.1754  0.6671  0.4628
27960SOL     OW86196   3.560   3.515   1.665 -0.0791 -0.0307  0.3004
27960SOL    HW186197   3.546   3.466   1.746 -0.8351  0.7464  0.6557
27960SOL    HW286198   3.473   3.550   1.643 -0.0379 -0.8339 -1.2500
27961SOL     OW86199   6.939   0.689   1.404  0.0223 -0.3396 -0.5049
27961SOL    HW186200   6.969   0.652   1.487  1.3219  0.1481 -0.7491
27961SOL    HW286201   6.930   0.783   1.420 -1.2244 -0.4407 -0.4941
27962SOL     OW86202   0.055   0.050   1.963 -0.5378  0.5075  0.0815
27962SOL    HW186203   0.026   0.002   2.040 -1.9621 -0.5781 -1.0765
27962SOL    HW286204   0.150   0.042   1.963 -0.5795 -0.1496  1.2736
27963SOL     OW86205   6.745   2.825   2.154 -0.2497  0.3723  0.5469
27963SOL    HW186206   6.815   2.809   2.091 -0.3621 -2.2038  0.9571
27963SOL    HW286207   6.790   2.830   2.239 -0.3419  1.2915  0.5504
27964SOL     OW86208  10.495   7.785   8.561 -0.0683  0.8152  0.1902
27964SOL    HW186209  10.574   7.733   8.571  0.8772  2.3127  0.9838
27964SOL    HW286210  10.456   7.788   8.649  0.5531  2.3694  0.4596
27965SOL     OW86211   0.815  10.109   1.223  0.0114 -0.0449  0.2399
27965SOL    HW186212   0.792  10.079   1.312  2.2301  1.1960  1.3188
27965SOL    HW286213   0.737  10.157   1.194 -0.3369  0.5906  2.0491
27966SOL     OW86214   1.742   0.897   5.417  0.2446  0.9128 -0.1515
27966SOL    HW186215   1.660   0.924   5.458  1.3523  2.5445  1.1591
27966SOL    HW286216   1.765   0.814   5.459 -1.3387 -0.2438 -1.4730
27967SOL     OW86217   0.516   8.591   4.757  0.4384  0.1334 -0.0373
27967SOL    HW186218   0.532   8.507   4.714 -2.4699 -0.7609  0.4140
27967SOL    HW286219   0.603   8.629   4.768  1.7446 -2.1957 -1.4595
27968SOL     OW86220   3.811   6.531   3.291  0.0650  0.0171 -0.4250
27968SOL    HW186221   3.830   6.442   3.317  2.1164 -0.3460 -2.8239
27968SOL    HW286222   3.726   6.526   3.247  0.1466 -0.7449 -0.4948
27969SOL     OW86223   7.563   9.348   6.145 -0.4956 -0.0566  0.6582
27969SOL    HW186224   7.620   9.417   6.113  0.5730 -1.1711  0.0870
27969SOL    HW286225   7.572   9.351   6.240  0.1189  0.1125  0.5939
27970SOL     OW86226   0.363   9.000   4.516 -0.2141  0.1663 -0.6935
27970SOL    HW186227   0.335   8.992   4.425 -0.7509 -0.3824 -0.4811
27970SOL    HW286228   0.357   8.911   4.551  0.0553  0.3630 -0.1416
27971SOL     OW86229   9.555   5.455   8.077  0.0904 -0.5091 -0.1480
27971SOL    HW186230   9.526   5.513   8.006 -1.1681 -0.2627  0.5420
27971SOL    HW286231   9.649   5.446   8.062 -0.2910 -1.3654 -2.4974
27972SOL     OW86232   8.209  10.342   0.871 -0.6006 -0.4009 -0.8398
27972SOL    HW186233   8.251  10.426   0.856 -1.5318  0.0688 -0.8603
27972SOL    HW286234   8.277  10.277   0.852 -0.0072  0.3301 -1.2317
27973SOL     OW86235   9.237   3.895  10.200 -0.0118  0.2255 -0.1114
27973SOL    HW186236   9.313   3.918  10.146 -0.2862  1.2084 -0.0961
27973SOL    HW286237   9.185   3.838  10.144  0.5344 -0.1192 -0.2733
27974SOL     OW86238   6.517   1.705   1.535  0.1958 -0.2046 -0.1539
27974SOL    HW186239   6.577   1.749   1.474 -0.3990  0.7527 -0.0519
27974SOL    HW286240   6.569   1.632   1.569  1.5258  0.9485  0.3893
27975SOL     OW86241   1.300   9.421   6.543  0.2873 -0.0778 -0.0136
27975SOL    HW186242   1.337   9.385   6.462  1.0435 -0.3398  0.4328
27975SOL    HW286243   1.232   9.359   6.568 -1.8538  1.3845 -1.8623
27976SOL     OW86244   3.594   1.660   2.163 -0.0789 -0.0288 -0.1778
27976SOL    HW186245   3.534   1.735   2.164  1.0578  0.9313 -0.5798
27976SOL    HW286246   3.557   1.601   2.097 -0.6308  0.4958 -0.3515
27977SOL     OW86247   0.251   4.060   6.586 -0.5645  0.2446  0.1040
27977SOL    HW186248   0.256   4.107   6.503  2.0405  0.0204  0.0560
27977SOL    HW286249   0.269   3.969   6.564  1.1854  0.3429  0.9999
27978SOL     OW86250   2.996   7.170   6.397  0.0042 -0.5478 -0.2088
27978SOL    HW186251   2.993   7.205   6.486  0.9859 -0.0210 -0.3647
27978SOL    HW286252   3.044   7.088   6.405 -2.1246 -1.8277  0.1243
27979SOL     OW86253   3.389   6.850   4.183 -1.1344 -0.0458  0.9270
27979SOL    HW186254   3.394   6.778   4.120  0.3343 -0.8604  1.8901
27979SOL    HW286255   3.297   6.875   4.185 -1.2532 -0.0767 -1.4095
27980SOL     OW86256   4.550   5.098   7.530  0.0241  0.2898 -0.1136
27980SOL    HW186257   4.609   5.097   7.605  0.5599 -2.2443 -0.5068
27980SOL    HW286258   4.471   5.140   7.563  1.0333  1.2828  1.1844
27981SOL     OW86259   9.066   1.284   1.634  0.3654 -0.0266  0.3710
27981SOL    HW186260   9.062   1.376   1.606 -1.1445  0.3096  1.5554
27981SOL    HW286261   9.132   1.245   1.576 -0.2015  1.3815 -1.3476
27982SOL     OW86262   6.731  10.353   6.489 -1.2366  0.3174 -0.5213
27982SOL    HW186263   6.806  10.304   6.455 -1.5272  0.5844 -1.5609
27982SOL    HW286264   6.664  10.286   6.503 -0.8808  0.1054  0.2293
27983SOL     OW86265  10.569   3.253   5.291  0.3930  0.1006 -0.0646
27983SOL    HW186266  10.625   3.326   5.268 -1.2278  1.0911 -1.0817
27983SOL    HW286267  10.480   3.283   5.271 -0.6376 -1.0175  2.4103
27984SOL     OW86268   7.876   9.045   3.000  0.7387  0.4437  0.3764
27984SOL    HW186269   7.796   9.014   3.043  1.3917 -2.9765 -0.5511
27984SOL    HW286270   7.947   9.008   3.052  1.6933  1.6439 -0.0264
27985SOL     OW86271   5.075   4.409   1.870  0.2468  0.6734 -0.1509
27985SOL    HW186272   5.168   4.403   1.891 -0.1037 -1.5730  1.0899
27985SOL    HW286273   5.066   4.360   1.788 -0.1346 -1.3543  1.0292
27986SOL     OW86274   9.724   7.552   9.418  0.5574  0.1493 -0.0230
27986SOL    HW186275   9.756   7.503   9.493  3.1154 -0.0588 -1.1370
27986SOL    HW286276   9.658   7.495   9.378  1.6326 -1.2756  0.1562
27987SOL     OW86277   8.278   8.160   8.308  0.1529 -0.1390  0.4607
27987SOL    HW186278   8.241   8.086   8.261 -0.2143  0.4125 -0.1329
27987SOL    HW286279   8.207   8.223   8.314  0.4436  0.1482  1.0136
27988SOL     OW86280   2.760   8.017   3.001  0.0495  0.2866  0.5335
27988SOL    HW186281   2.849   8.010   2.966  0.3721  1.9693  0.9366
27988SOL    HW286282   2.734   7.927   3.017  0.9877 -0.3645 -1.2677
27989SOL     OW86283   1.095  10.141   7.775 -0.3373 -0.9190  0.5049
27989SOL    HW186284   1.007  10.156   7.741 -0.0880 -2.0821 -0.7164
27989SOL    HW286285   1.148  10.211   7.739 -0.2577 -1.6542 -0.8631
27990SOL     OW86286   8.104   7.203  10.413 -0.3321 -0.6492 -0.1611
27990SOL    HW186287   8.137   7.262  10.481 -0.4613 -1.5885  0.7543
27990SOL    HW286288   8.172   7.137  10.403 -0.4420 -0.6796 -0.7449
27991SOL     OW86289  10.440   4.935   1.336 -0.1361  0.3420  0.4860
27991SOL    HW186290  10.504   4.866   1.353  0.8279  1.7774  3.2879
27991SOL    HW286291  10.357   4.887   1.324  1.1014 -1.4460 -1.6163
27992SOL     OW86292   8.531   0.825   1.749  0.3931 -0.7736 -0.0636
27992SOL    HW186293   8.495   0.857   1.831 -0.9173  2.4317 -1.7148
27992SOL    HW286294   8.456   0.787   1.703  0.7613 -1.0928 -0.4069
27993SOL     OW86295   2.617  10.229   8.768  0.4877 -0.3953 -0.4148
27993SOL    HW186296   2.537  10.252   8.816  1.6662 -0.3296  1.6301
27993SOL    HW286297   2.610  10.277   8.686  0.2988  2.9656  1.4103
27994SOL     OW86298   1.900   1.660   0.723 -0.3002  0.2807 -0.0898
27994SOL    HW186299   1.825   1.691   0.775 -0.7593 -0.9196 -0.0002
27994SOL    HW286300   1.977   1.685   0.774 -0.7505 -2.8983  2.4931
27995SOL     OW86301   1.172   5.662   5.790 -0.2144  0.1753 -0.4406
27995SOL    HW186302   1.195   5.672   5.882  1.1459 -0.5217 -0.6740
27995SOL    HW286303   1.245   5.612   5.752 -1.1953 -0.3741 -1.6917
27996SOL     OW86304   3.243  10.572   5.648  0.1845 -0.0544 -0.3765
27996SOL    HW186305   3.243  10.512   5.574 -0.5072  0.4452 -0.7897
27996SOL    HW286306   3.154  10.608   5.650  0.5152  0.7748  0.0088
27997SOL     OW86307   3.870   5.666   4.668 -0.0553  0.0815  0.3343
27997SOL    HW186308   3.782   5.702   4.666  0.0520  0.4886  1.6129
27997SOL    HW286309   3.894   5.654   4.576 -0.4076  2.5162 -0.1440
27998SOL     OW86310   2.756   2.623   0.487  0.3396 -0.7791 -0.8149
27998SOL    HW186311   2.789   2.668   0.410  0.2672  1.0735  0.1883
27998SOL    HW286312   2.834   2.606   0.540  0.5106 -2.8388 -1.6133
27999SOL     OW86313   0.130   7.858   9.068  0.1599  0.1818 -0.4758
27999SOL    HW186314   0.106   7.794   9.135 -0.4795 -1.0416 -1.8316
27999SOL    HW286315   0.180   7.924   9.116 -2.0406  0.4711  1.6090
28000SOL     OW86316   6.464   7.321   2.486  0.6676  0.8563 -0.0735
28000SOL    HW186317   6.449   7.332   2.392  0.2492  1.8562  0.0918
28000SOL    HW286318   6.495   7.407   2.515 -2.5915  1.7169  1.3166
28001SOL     OW86319   7.732   5.690   4.737 -0.5048  0.0021 -0.4396
28001SOL    HW186320   7.664   5.737   4.785  0.4566  1.1558 -0.1795
28001SOL    HW286321   7.779   5.758   4.688  1.2740 -0.5914  0.3798
28002SOL     OW86322   2.762   0.221   9.985 -0.1559 -0.3124  0.3092
28002SOL    HW186323   2.785   0.308  10.016 -1.3633  0.5892 -1.1731
28002SOL    HW286324   2.804   0.214   9.899 -2.0712 -0.1424 -0.7132
28003SOL     OW86325   8.195   1.014   1.830  0.1860  0.2966  0.3294
28003SOL    HW186326   8.257   0.966   1.884  0.6634 -0.3015 -0.7334
28003SOL    HW286327   8.248   1.053   1.760 -0.6697 -0.7646 -0.9736
28004SOL     OW86328   9.439   5.939   8.621 -0.2636 -0.3882 -0.4992
28004SOL    HW186329   9.473   5.862   8.575 -0.9487  0.0816 -1.8510
28004SOL    HW286330   9.390   5.987   8.554 -1.6781  0.1093  0.8505
28005SOL     OW86331   6.936   9.695   2.079  0.0060 -0.6479 -0.5563
28005SOL    HW186332   6.943   9.758   2.007 -2.1388 -0.0546 -0.3195
28005SOL    HW286333   6.975   9.740   2.154  1.5745 -0.9804 -1.1369
28006SOL     OW86334  10.034   9.843   5.705  0.1035 -0.0831  0.2144
28006SOL    HW186335   9.988   9.844   5.622  1.5527  1.4866 -0.6408
28006SOL    HW286336  10.000   9.766   5.751 -1.8143 -0.1314 -1.1822
28007SOL     OW86337   4.652   3.480   0.497  0.4061 -0.1216  0.8715
28007SOL    HW186338   4.676   3.569   0.471 -1.3801  0.8325  2.2359
28007SOL    HW286339   4.579   3.457   0.440 -0.7414  0.3119  2.0995
28008SOL     OW86340   2.487   1.130   8.248 -0.1160  1.0132 -0.2411
28008SOL    HW186341   2.505   1.223   8.231  1.5417  0.8872  0.6333
28008SOL    HW286342   2.442   1.130   8.332 -0.5683  1.0320 -0.4752
28009SOL     OW86343   5.498  10.522   9.201 -0.0790  0.2348  0.4834
28009SOL    HW186344   5.409  10.487   9.201 -0.9176  2.1888 -0.4104
28009SOL    HW286345   5.532  10.498   9.115  0.7091 -1.4593  1.2281
28010SOL     OW86346   6.819   7.830   0.841 -0.6969  0.6637  0.1461
28010SOL    HW186347   6.842   7.769   0.771 -0.3493 -0.0554  0.8639
28010SOL    HW286348   6.888   7.896   0.840 -0.2052  0.1573  0.3809
28011SOL     OW86349   4.422   4.422   3.352 -0.0527 -0.3671 -0.2671
28011SOL    HW186350   4.467   4.463   3.279 -2.4879  0.0718 -1.6393
28011SOL    HW286351   4.415   4.491   3.418 -0.5197  0.1961 -0.8900
28012SOL     OW86352   8.763   2.136   0.508  0.1603  0.1817  0.6443
28012SOL    HW186353   8.747   2.064   0.447  1.0594  0.1236  0.4591
28012SOL    HW286354   8.857   2.155   0.498  0.3496  0.1058  2.0697
28013SOL     OW86355   8.819   6.891   4.020 -0.5209 -0.4729 -0.1815
28013SOL    HW186356   8.817   6.823   3.951 -0.8152  0.4858 -1.1485
28013SOL    HW286357   8.771   6.852   4.093  0.2819 -1.7389 -0.3067
28014SOL     OW86358   0.404   4.683   0.348  0.2899  0.0028 -0.3185
28014SOL    HW186359   0.353   4.751   0.304  0.3878  0.4382  0.2358
28014SOL    HW286360   0.410   4.613   0.283 -2.3265 -0.7331  0.1339
28015SOL     OW86361   7.385   9.800   2.570 -0.3269 -0.1527 -0.1102
28015SOL    HW186362   7.465   9.778   2.521 -1.2876  0.4813 -2.0765
28015SOL    HW286363   7.319   9.738   2.536 -1.0476  0.3767  0.2988
28016SOL     OW86364   4.079   5.487   9.204  0.4382  0.0609 -0.0193
28016SOL    HW186365   4.018   5.468   9.275  1.2949 -0.5109  0.5839
28016SOL    HW286366   4.160   5.513   9.248 -0.3620  4.5592 -0.7484
28017SOL     OW86367   3.508   9.803   8.749  0.3950  0.0221  0.3228
28017SOL    HW186368   3.414   9.789   8.740  0.5297 -1.5861  1.1018
28017SOL    HW286369   3.521   9.894   8.721 -1.3915  0.3214  0.3202
28018SOL     OW86370   1.156   6.865   2.901  0.1024  0.7663  0.7612
28018SOL    HW186371   1.219   6.881   2.972 -0.9930  1.6248  1.5632
28018SOL    HW286372   1.088   6.811   2.941 -0.3373  0.9384  0.2559
28019SOL     OW86373   2.426   1.687   5.683  0.1507 -0.0561  0.2776
28019SOL    HW186374   2.340   1.657   5.711  0.5584 -0.5768  1.0036
28019SOL    HW286375   2.487   1.652   5.749  0.8902  0.4902 -0.0950
28020SOL     OW86376   6.887   3.281   6.498 -0.3465  0.2897  0.3527
28020SOL    HW186377   6.836   3.362   6.494  0.6297  0.9039 -1.3347
28020SOL    HW286378   6.948   3.294   6.570 -0.4369  0.9282  0.3174
28021SOL     OW86379   1.590   3.890   3.817 -0.2264  0.1301 -0.3839
28021SOL    HW186380   1.559   3.939   3.894 -0.1792 -0.5892  0.1040
28021SOL    HW286381   1.683   3.912   3.810 -0.0218 -0.4832  0.3032
28022SOL     OW86382   0.272   6.402   6.241  0.1992 -0.3370  0.0073
28022SOL    HW186383   0.183   6.430   6.219  0.1101 -0.2969  0.4037
28022SOL    HW286384   0.324   6.483   6.236  0.0828 -0.2355  0.4355
28023SOL     OW86385  10.144   3.203  10.308 -0.1965 -0.3168  0.6146
28023SOL    HW186386  10.069   3.205  10.367 -0.6917 -1.0777  0.0296
28023SOL    HW286387  10.185   3.117  10.323 -0.5283 -0.6700 -0.3620
28024SOL     OW86388   3.336   1.757   3.715 -0.0212 -0.0483  0.1191
28024SOL    HW186389   3.306   1.844   3.689  0.5171  0.4372  1.0493
28024SOL    HW286390   3.325   1.703   3.637  0.5204  1.0779 -0.7723
28025SOL     OW86391   5.003   0.656   2.135 -0.1688  0.2042  0.0993
28025SOL    HW186392   5.044   0.643   2.221  0.9752  0.7782 -0.3542
28025SOL    HW286393   4.984   0.567   2.104 -0.6335 -0.0080  0.9483
28026SOL     OW86394  10.181   3.720   2.426 -0.0322  0.0955  0.3014
28026SOL    HW186395  10.230   3.664   2.366 -0.0283  0.1797  0.2271
28026SOL    HW286396  10.226   3.804   2.424  0.5227 -0.1645  1.1171
28027SOL     OW86397  10.161   9.016   7.903 -0.4882 -0.2091 -0.4397
28027SOL    HW186398  10.228   9.080   7.926  0.8216 -1.2915 -1.0883
28027SOL    HW286399  10.152   8.961   7.981 -0.0719 -0.5058 -0.5957
28028SOL     OW86400   9.228   5.837   4.059  0.5099 -0.5758 -0.1794
28028SOL    HW186401   9.154   5.889   4.028  0.1502 -1.0104 -0.0559
28028SOL    HW286402   9.189   5.757   4.094  1.1006 -1.2507 -1.0038
28029SOL     OW86403   4.763   1.720   9.714 -0.1668  0.1914  0.2525
28029SOL    HW186404   4.803   1.803   9.688 -0.7891  0.1611 -0.8707
28029SOL    HW286405   4.705   1.744   9.787 -1.7242  1.1107 -1.2133
28030SOL     OW86406   0.204   9.683   2.059 -0.2181  0.3248  0.3509
28030SOL    HW186407   0.289   9.661   2.022 -0.4543  1.3712 -0.8865
28030SOL    HW286408   0.148   9.609   2.038  0.2954 -0.2211  0.8800
28031SOL     OW86409   5.405   1.108   1.628  0.1069 -0.0480 -0.7782
28031SOL    HW186410   5.415   1.187   1.682 -2.5002  1.6448 -2.5549
28031SOL    HW286411   5.334   1.059   1.670 -2.1973  1.4626 -2.6600
28032SOL     OW86412   8.437   5.181   0.443  0.0808  0.0953 -0.3802
28032SOL    HW186413   8.427   5.155   0.351 -0.2210 -1.2111  0.0117
28032SOL    HW286414   8.484   5.109   0.484 -0.5318  0.2759  0.6806
28033SOL     OW86415   3.439   3.769   7.178 -0.6887 -0.0763 -0.6199
28033SOL    HW186416   3.368   3.706   7.191 -0.3454 -0.0312  1.9909
28033SOL    HW286417   3.400   3.838   7.124 -2.7966  0.1420  1.0637
28034SOL     OW86418   3.782   3.712   1.635  0.2418 -0.5588  0.3927
28034SOL    HW186419   3.699   3.670   1.612 -0.1953  0.2062  0.5633
28034SOL    HW286420   3.769   3.742   1.725  0.7919 -0.6510  0.5039
28035SOL     OW86421   0.744   6.433   8.006 -0.3168 -0.1745  0.3269
28035SOL    HW186422   0.758   6.380   8.084  2.1816 -1.2295 -0.7503
28035SOL    HW286423   0.758   6.523   8.036 -1.0052 -0.3982  1.3955
28036SOL     OW86424   4.730   5.829   4.294  0.0475 -0.1273 -0.4253
28036SOL    HW186425   4.791   5.839   4.367  1.4271  1.5211 -1.7090
28036SOL    HW286426   4.782   5.852   4.216 -2.2181  1.5397 -1.5796
28037SOL     OW86427   4.282   9.197   1.117  0.0353  0.2597  0.3038
28037SOL    HW186428   4.335   9.234   1.047 -1.8632 -0.3907 -1.5845
28037SOL    HW286429   4.245   9.272   1.162 -1.2706  0.7440 -1.4836
28038SOL     OW86430   5.708   6.461   9.614  0.1465 -0.2690 -0.2389
28038SOL    HW186431   5.652   6.481   9.688 -0.7480 -0.0839 -0.9434
28038SOL    HW286432   5.684   6.525   9.547  2.0718  0.5953 -0.1523
28039SOL     OW86433   6.209  10.375   0.755 -0.0636 -0.3813 -0.3119
28039SOL    HW186434   6.219  10.280   0.754  1.0529 -0.3096  1.0301
28039SOL    HW286435   6.114  10.389   0.753 -0.2896 -1.5576  0.8432
28040SOL     OW86436   0.296   4.863   9.445  0.4391  0.9225  0.0524
28040SOL    HW186437   0.342   4.780   9.449 -0.7220  0.2206 -0.3818
28040SOL    HW286438   0.305   4.891   9.353 -1.1583  0.0454 -0.4166
28041SOL     OW86439   4.571   3.877   6.362 -0.1376  0.7572 -0.0238
28041SOL    HW186440   4.642   3.846   6.419 -0.7969  0.0055  0.4236
28041SOL    HW286441   4.615   3.916   6.287  0.7557 -0.7356 -0.3113
28042SOL     OW86442   4.117   8.360   6.301  0.3454  0.0559  0.9617
28042SOL    HW186443   4.197   8.324   6.340  1.8562  2.2726  0.0953
28042SOL    HW286444   4.144   8.391   6.215 -2.6149 -3.6091 -1.5996
28043SOL     OW86445   8.973   4.612  10.100 -0.1373 -0.4138 -0.2461
28043SOL    HW186446   8.908   4.674  10.134  0.3285  0.3846 -0.7501
28043SOL    HW286447   9.043   4.668  10.066  0.1771 -1.2145 -0.9627
28044SOL     OW86448  10.222   2.467   2.257  0.8340  0.1340  0.4604
28044SOL    HW186449  10.299   2.522   2.246  1.8110 -1.3678 -0.4704
28044SOL    HW286450  10.237   2.419   2.338  0.9324 -0.2499  0.2152
28045SOL     OW86451   8.541   2.725   6.449 -0.2878  0.3401  0.4819
28045SOL    HW186452   8.510   2.728   6.540  1.2298  1.5031  1.0075
28045SOL    HW286453   8.505   2.805   6.410 -0.5768  0.0626  0.1785
28046SOL     OW86454   4.776   4.581   7.802 -0.3574  0.3883 -0.4738
28046SOL    HW186455   4.745   4.495   7.830 -0.3141  0.5246  0.0075
28046SOL    HW286456   4.699   4.625   7.767 -0.5122  0.3845 -0.1379
28047SOL     OW86457   9.771   6.225   8.862  0.1633  0.4508 -0.1855
28047SOL    HW186458   9.824   6.300   8.833 -0.8918  2.2727  2.2077
28047SOL    HW286459   9.683   6.261   8.872 -0.4895 -1.2548  0.5341
28048SOL     OW86460   0.861   0.356   8.908 -0.2428 -0.1826  0.0066
28048SOL    HW186461   0.872   0.302   8.830 -1.3306 -1.2887  0.5930
28048SOL    HW286462   0.951   0.380   8.933  0.1044  0.7541 -1.9299
28049SOL     OW86463   5.966   5.742   3.482 -0.2939 -0.0566 -0.0678
28049SOL    HW186464   5.919   5.824   3.467 -0.0061  0.3425  1.1290
28049SOL    HW286465   5.981   5.740   3.576  1.1657 -0.6867 -0.2863
28050SOL     OW86466   1.672  10.442   8.716 -0.1382 -0.0728  0.5526
28050SOL    HW186467   1.623  10.506   8.767 -1.4383 -1.5453  1.2496
28050SOL    HW286468   1.614  10.366   8.712  1.1190 -1.0146 -0.7100
28051SOL     OW86469   2.882   9.334   5.972  0.1632 -0.1982  0.1153
28051SOL    HW186470   2.825   9.300   6.041  2.8307 -2.1615  1.5744
28051SOL    HW286471   2.876   9.270   5.901 -0.0069 -0.0151 -0.0357
28052SOL     OW86472   7.839   2.950   5.980 -0.0165 -0.4959 -0.6070
28052SOL    HW186473   7.923   2.978   5.943  0.9283  1.3739  2.4634
28052SOL    HW286474   7.850   2.857   5.999  1.3952 -0.2684 -0.2312
28053SOL     OW86475   2.867   6.956   9.299 -0.1918 -0.0942 -0.0909
28053SOL    HW186476   2.823   7.011   9.363  0.3283  0.8236 -0.5010
28053SOL    HW286477   2.839   6.867   9.320 -1.1441  0.3345  0.5038
28054SOL     OW86478   8.894   1.570   3.723  0.5133 -0.4831  0.2338
28054SOL    HW186479   8.926   1.501   3.781  0.5110 -0.7096 -0.0309
28054SOL    HW286480   8.812   1.600   3.762  0.3906 -0.8003  0.2183
28055SOL     OW86481   8.916   7.274   5.905  0.0158  0.7527  0.0255
28055SOL    HW186482   8.931   7.205   5.840  0.2932 -0.2591  1.1248
28055SOL    HW286483   8.844   7.326   5.869 -0.0643  0.0233 -0.9180
28056SOL     OW86484   4.915   3.760   7.346 -0.2339 -0.1228 -0.4883
28056SOL    HW186485   4.969   3.803   7.413 -1.1719 -0.2977  0.4002
28056SOL    HW286486   4.867   3.692   7.393 -0.5853 -0.5485 -1.4275
28057SOL     OW86487   0.857   8.783   6.926  0.1980 -0.1042  0.1354
28057SOL    HW186488   0.860   8.699   6.971 -0.2693 -0.0023  0.3684
28057SOL    HW286489   0.909   8.770   6.846  2.4952  0.2078  1.4848
28058SOL     OW86490   8.574   0.145   4.463  0.0683  0.1340 -0.0722
28058SOL    HW186491   8.509   0.215   4.455  0.8083  0.7213 -1.2092
28058SOL    HW286492   8.530   0.067   4.431 -0.8282  0.0024  1.3802
28059SOL     OW86493   9.716   6.237   7.301  0.0415 -0.1437 -0.3933
28059SOL    HW186494   9.678   6.324   7.291  0.0344  0.1250  1.6092
28059SOL    HW286495   9.651   6.178   7.262 -0.8568  0.5888 -0.0458
28060SOL     OW86496   3.167   4.179   4.900 -0.3653 -0.0132  0.1175
28060SOL    HW186497   3.079   4.152   4.873 -0.3450  0.2545 -0.2291
28060SOL    HW286498   3.151   4.242   4.971 -0.3776 -1.9530  1.9205
28061SOL     OW86499   2.107   0.711   6.040 -0.1045 -0.5710  0.1154
28061SOL    HW186500   2.044   0.777   6.012  0.1342  0.5566  2.0966
28061SOL    HW286501   2.094   0.704   6.134  0.7807 -2.4273  0.1414
28062SOL     OW86502   2.744   5.278   7.930  0.1764 -0.2731 -0.4266
28062SOL    HW186503   2.719   5.249   7.842 -3.2164 -1.3303  0.7092
28062SOL    HW286504   2.789   5.202   7.968 -0.4490 -0.7012 -0.5169
28063SOL     OW86505   2.603   6.507   4.508  0.2966  0.0158  0.2567
28063SOL    HW186506   2.531   6.508   4.571  1.4344 -1.3065  1.6187
28063SOL    HW286507   2.624   6.415   4.496  1.5998  0.3648 -0.3355
28064SOL     OW86508   4.359   1.608   9.468 -0.6534  0.4762 -0.2465
28064SOL    HW186509   4.366   1.592   9.562 -0.6250 -0.4136 -0.3870
28064SOL    HW286510   4.273   1.648   9.457 -1.0564 -0.2899  0.0533
28065SOL     OW86511   8.364   5.306   9.630 -0.0873 -0.3781 -0.5043
28065SOL    HW186512   8.286   5.335   9.678 -0.0083  0.0156 -0.6086
28065SOL    HW286513   8.336   5.224   9.588 -0.7035  0.1622 -1.1797
28066SOL     OW86514   8.093   1.233   0.197  0.3803 -0.0802  0.1883
28066SOL    HW186515   8.049   1.185   0.126  1.7336 -0.9952 -0.0569
28066SOL    HW286516   8.097   1.170   0.269 -0.4981  0.6694  0.9267
28067SOL     OW86517   6.486   8.654   5.053 -0.1631  0.0528 -0.1549
28067SOL    HW186518   6.434   8.575   5.040 -0.9270  0.4875  0.1745
28067SOL    HW286519   6.480   8.672   5.147 -0.4340  0.7918 -0.3027
28068SOL     OW86520   9.924   0.513   7.216  0.1436 -0.3667 -0.1203
28068SOL    HW186521   9.919   0.470   7.130 -0.9985  3.4572 -2.2200
28068SOL    HW286522   9.837   0.550   7.228  1.0691  1.4366  1.3863
28069SOL     OW86523   5.804   5.021   9.800  0.1050  0.0298  0.0077
28069SOL    HW186524   5.898   5.035   9.797 -0.0134  1.6284  1.7932
28069SOL    HW286525   5.793   4.941   9.851  0.4869  0.2175  0.3911
28070SOL     OW86526   0.456   6.630   4.543 -0.0792  0.1405 -0.1510
28070SOL    HW186527   0.373   6.584   4.529 -0.1305  0.5794 -1.4420
28070SOL    HW286528   0.517   6.589   4.482  0.5305  0.1340  0.4558
28071SOL     OW86529   4.203   9.561   0.412  0.1781 -0.1892 -0.0165
28071SOL    HW186530   4.130   9.499   0.407 -0.0266 -0.3076  2.9075
28071SOL    HW286531   4.169   9.641   0.373 -0.9257 -0.7405 -0.2227
28072SOL     OW86532   8.208   7.411   3.600  0.5570 -0.4339  0.4885
28072SOL    HW186533   8.136   7.355   3.627 -0.0378  0.2378  0.3122
28072SOL    HW286534   8.284   7.352   3.598 -0.1636 -1.3633 -0.2697
28073SOL     OW86535   8.174   9.451   4.811 -0.0398  0.1483  0.0737
28073SOL    HW186536   8.083   9.473   4.793 -0.5159 -1.3693  0.4441
28073SOL    HW286537   8.186   9.364   4.773  0.8203 -0.2972  1.2975
28074SOL     OW86538   0.594   0.502   4.247 -0.2716 -0.0129 -0.0700
28074SOL    HW186539   0.506   0.507   4.284  0.2158 -2.5555  1.6152
28074SOL    HW286540   0.650   0.544   4.312 -0.1022  0.8177 -0.7355
28075SOL     OW86541   5.133   4.650   2.338 -0.2504 -0.6710 -0.2656
28075SOL    HW186542   5.224   4.677   2.326  0.2424 -1.6317  1.0986
28075SOL    HW286543   5.084   4.732   2.339  0.8462 -0.0020  0.8541
28076SOL     OW86544   6.429   2.875   4.101 -0.0176 -0.3146 -0.0024
28076SOL    HW186545   6.369   2.869   4.026 -0.9197 -1.4917  0.7786
28076SOL    HW286546   6.508   2.914   4.064 -0.2965 -1.2000 -1.6729
28077SOL     OW86547   9.446   5.547   8.950  0.8022  0.1132 -0.3899
28077SOL    HW186548   9.450   5.531   8.855  1.9028 -2.6013  0.0321
28077SOL    HW286549   9.534   5.577   8.973  1.1360 -1.1229  0.0194
28078SOL     OW86550   0.358  10.477   6.480  0.0013  0.2797  0.0824
28078SOL    HW186551   0.361  10.381   6.477  1.0708  0.3130 -1.6293
28078SOL    HW286552   0.444  10.503   6.513 -0.1397  0.6519  0.1605
28079SOL     OW86553  10.569   9.667   8.799 -0.0264  0.1327  0.3709
28079SOL    HW186554  10.572   9.684   8.893 -0.9948 -0.5205  0.5423
28079SOL    HW286555  10.485   9.622   8.786  1.0231 -1.7069 -0.4694
28080SOL     OW86556   8.055   9.177   0.273 -0.1507 -0.7610  0.2217
28080SOL    HW186557   8.035   9.207   0.184 -2.2995  0.2996  0.9987
28080SOL    HW286558   8.122   9.239   0.304  0.5411 -1.0750 -0.5923
28081SOL     OW86559   1.330   9.853   6.610 -0.2039 -0.1521  0.4737
28081SOL    HW186560   1.248   9.814   6.638  0.1793 -0.5558  1.0603
28081SOL    HW286561   1.381   9.864   6.691  1.8052 -3.3817 -0.1555
28082SOL     OW86562   1.060  10.525   2.919 -0.1780  0.0605 -0.3898
28082SOL    HW186563   1.031  10.541   2.829  1.0741 -2.4741 -1.3663
28082SOL    HW286564   0.979  10.521   2.970 -1.1431 -0.9812 -1.9091
28083SOL     OW86565   0.785   9.145   6.789 -0.3284 -0.4459  0.1405
28083SOL    HW186566   0.740   9.090   6.853 -1.0921 -0.6158 -0.5320
28083SOL    HW286567   0.848   9.087   6.747 -0.8211 -0.7066 -0.2520
28084SOL     OW86568   4.088   2.911   6.125  0.2807 -0.1420 -0.0744
28084SOL    HW186569   4.015   2.858   6.092  0.4449 -0.1325 -0.4596
28084SOL    HW286570   4.058   3.001   6.114 -0.5371 -0.1326  1.7878
28085SOL     OW86571   4.663   1.634   3.360 -0.0638 -0.3080 -0.1588
28085SOL    HW186572   4.647   1.669   3.272 -1.5172  0.8271  0.5093
28085SOL    HW286573   4.599   1.564   3.370 -0.2069 -0.1354  0.1488
28086SOL     OW86574   3.052   3.107   5.622 -0.2440  0.2283  0.0786
28086SOL    HW186575   2.990   3.050   5.576 -0.2014 -0.6236  1.0385
28086SOL    HW286576   3.117   3.130   5.556 -0.5827 -0.3642 -0.4695
28087SOL     OW86577   3.490   9.092   4.725  0.3720  0.5126  0.0632
28087SOL    HW186578   3.451   9.067   4.641 -1.5333 -1.6733  1.4958
28087SOL    HW286579   3.573   9.045   4.728  0.3459  0.4245 -0.4823
28088SOL     OW86580  10.542  10.478   7.699  0.0208 -0.4741  0.4393
28088SOL    HW186581  10.517  10.569   7.717  1.0351 -0.4903  2.2451
28088SOL    HW286582  10.464  10.427   7.721 -0.5217 -0.0675 -0.4832
28089SOL     OW86583   8.935   2.358  10.226 -0.3738 -0.3519  0.3563
28089SOL    HW186584   9.010   2.324  10.275  0.0407 -0.5966 -0.4227
28089SOL    HW286585   8.973   2.395  10.147 -0.8973  1.2925  0.8412
28090SOL     OW86586   8.139   5.976   5.107  0.2666 -0.1826  0.2448
28090SOL    HW186587   8.085   6.034   5.161  0.7257  1.3266 -0.8365
28090SOL    HW286588   8.218   6.027   5.089  0.0454 -0.5100 -1.9680
28091SOL     OW86589   4.042   9.160   9.714 -0.1541  0.0246  0.3088
28091SOL    HW186590   4.013   9.250   9.702  0.6648  0.1329 -1.0897
28091SOL    HW286591   4.042   9.147   9.809 -0.3492  1.4677  0.5307
28092SOL     OW86592   1.709  10.071   9.978 -0.2977 -0.6500  0.9970
28092SOL    HW186593   1.798  10.039   9.990  0.9229  2.2400  0.5051
28092SOL    HW286594   1.669  10.065  10.064 -0.4507 -3.9519  0.8178
28093SOL     OW86595   7.017   3.378   8.514  0.2903 -0.0078  0.3587
28093SOL    HW186596   6.963   3.350   8.439  0.2198 -0.2817  0.5106
28093SOL    HW286597   6.959   3.370   8.589  0.7826 -1.1151  0.6430
28094SOL     OW86598  10.588   3.328   4.095  0.2479 -0.0128  0.2801
28094SOL    HW186599  10.669   3.283   4.118  0.2310 -0.3503 -0.3093
28094SOL    HW286600  10.614   3.395   4.032  0.0177 -0.4098 -0.2521
28095SOL     OW86601   7.426   0.610  10.525  0.3076  0.6412 -0.4670
28095SOL    HW186602   7.371   0.668  10.472 -0.4181  0.6945  0.3385
28095SOL    HW286603   7.380   0.601  10.608  0.1615 -1.4533 -0.7111
28096SOL     OW86604   0.004   6.547   7.297  0.2690 -0.5708 -0.2386
28096SOL    HW186605   0.095   6.528   7.272  0.5293  0.4100 -0.1046
28096SOL    HW286606   0.012   6.619   7.360 -0.7121  0.9922 -1.8010
28097SOL     OW86607  10.204   4.482   7.276  0.2455  0.8450  0.3614
28097SOL    HW186608  10.217   4.576   7.289  1.8295  0.4300  2.5711
28097SOL    HW286609  10.223   4.467   7.184 -2.1228  2.9285 -0.5674
28098SOL     OW86610   9.962   6.991   2.163  0.3250  0.5045 -0.2262
28098SOL    HW186611   9.990   7.079   2.189 -1.5880  1.3221 -0.7600
28098SOL    HW286612   9.883   6.974   2.215 -0.8548  0.2355 -1.9911
28099SOL     OW86613   2.497   8.536   0.110  0.1048  0.2903  0.2244
28099SOL    HW186614   2.475   8.618   0.065  0.8137  1.2388  1.5547
28099SOL    HW286615   2.591   8.524   0.096  0.2407  0.3491  1.0589
28100SOL     OW86616   7.487   7.160   2.259 -0.0053 -0.0135  0.4518
28100SOL    HW186617   7.501   7.254   2.247 -0.8104  0.5956  3.3720
28100SOL    HW286618   7.570   7.128   2.296 -0.0620 -0.2569  0.3695
28101SOL     OW86619   2.042   7.846   3.767  0.0221  0.3488  0.2435
28101SOL    HW186620   1.999   7.816   3.847  1.5135 -1.8639  0.3256
28101SOL    HW286621   1.995   7.802   3.696  1.8337 -1.9415  0.3230
28102SOL     OW86622   3.331   3.985   1.071  0.1267  0.4784 -0.0843
28102SOL    HW186623   3.245   3.973   1.030 -0.1428  2.4346 -0.2268
28102SOL    HW286624   3.316   3.971   1.164  0.1141 -1.1835 -0.3193
28103SOL     OW86625   5.906   5.688   2.224  0.1000  0.0686 -0.5745
28103SOL    HW186626   5.860   5.630   2.163 -0.9239  0.1353  0.0961
28103SOL    HW286627   5.926   5.632   2.299 -1.3775  0.6480  0.3140
28104SOL     OW86628  10.113   3.382   7.937 -0.0127 -0.0545  0.2730
28104SOL    HW186629  10.021   3.354   7.938  0.3012 -1.1609  0.4220
28104SOL    HW286630  10.153   3.330   7.867  0.0361  2.1272 -1.4328
28105SOL     OW86631   0.831   7.407   5.265  0.0027 -0.8251  0.7056
28105SOL    HW186632   0.826   7.332   5.206  0.8035 -0.2409 -0.1428
28105SOL    HW286633   0.828   7.369   5.353 -1.3070 -1.7053  0.3039
28106SOL     OW86634   3.438   0.764   0.049  0.1525 -0.2201  0.1754
28106SOL    HW186635   3.486   0.842   0.022  0.1044 -0.4604 -0.6178
28106SOL    HW286636   3.483   0.692   0.006  1.7114 -0.9378  2.7941
28107SOL     OW86637   3.056   0.180   0.442 -0.3009 -0.6657 -0.0820
28107SOL    HW186638   3.049   0.253   0.504 -0.4689  0.0306 -0.9099
28107SOL    HW286639   3.148   0.180   0.417 -0.7647  0.9081 -2.0091
28108SOL     OW86640   0.052   0.301   4.712 -0.3022 -0.1226  0.0365
28108SOL    HW186641   0.126   0.331   4.659 -0.3344  0.5662  0.3700
28108SOL    HW286642   0.068   0.208   4.724 -1.2502 -0.7399 -2.7604
28109SOL     OW86643   7.100   4.283   1.451  0.0085  0.5798  0.5070
28109SOL    HW186644   7.127   4.340   1.379 -0.7738  2.9733  1.9708
28109SOL    HW286645   7.016   4.246   1.422  0.4180  0.3175 -0.3822
28110SOL     OW86646   7.307   8.764   5.085 -0.0262  0.0268  0.0804
28110SOL    HW186647   7.286   8.843   5.035  0.7076  0.4218  0.3853
28110SOL    HW286648   7.373   8.719   5.032  0.1299  0.0153  0.2824
28111SOL     OW86649   3.449   7.053   5.549  0.4477  0.2294 -0.0502
28111SOL    HW186650   3.450   7.143   5.580  0.0187 -0.3291  1.6979
28111SOL    HW286651   3.357   7.027   5.554  0.7725 -0.8298  1.2116
28112SOL     OW86652   5.630   6.401   1.827  0.1401  0.5677  0.6539
28112SOL    HW186653   5.560   6.378   1.888  1.3428  0.2766  1.9900
28112SOL    HW286654   5.644   6.495   1.840  2.8022 -0.0744  3.6148
28113SOL     OW86655   3.481   7.059   5.261  0.2393 -0.2270  0.1756
28113SOL    HW186656   3.488   6.969   5.231  1.4412 -0.2813  0.5451
28113SOL    HW286657   3.448   7.053   5.351 -0.9160 -0.2152 -0.2414
28114SOL     OW86658   5.609   7.912   5.412  0.1300  0.3525 -0.4208
28114SOL    HW186659   5.679   7.849   5.430 -0.7109 -1.2765 -2.5431
28114SOL    HW286660   5.653   7.985   5.369  0.8343  0.3613  0.2927
28115SOL     OW86661   1.716   0.368   7.784 -0.0217 -0.3399 -1.0833
28115SOL    HW186662   1.790   0.331   7.832 -1.3978 -1.4757  0.2809
28115SOL    HW286663   1.689   0.300   7.724 -1.5876 -1.0295  0.3290
28116SOL     OW86664   4.671   0.702   0.221  0.1443 -0.4160 -0.6269
28116SOL    HW186665   4.705   0.716   0.309  2.3874  1.1110 -1.6371
28116SOL    HW286666   4.743   0.661   0.173  0.3187  1.9121 -2.5794
28117SOL     OW86667   9.470   1.959   7.131  0.5571 -0.3030  0.0850
28117SOL    HW186668   9.465   2.055   7.127  2.3963 -0.0351  2.0140
28117SOL    HW286669   9.544   1.937   7.075  1.1212 -0.4143  0.8564
28118SOL     OW86670   5.156   5.968   6.254 -0.4244  0.0525  0.1393
28118SOL    HW186671   5.089   5.928   6.309 -1.2739 -1.1676 -1.7031
28118SOL    HW286672   5.215   6.011   6.316 -1.7544 -0.5965  1.9333
28119SOL     OW86673   2.609   8.914   4.532 -0.0453  0.3017  0.7236
28119SOL    HW186674   2.575   8.867   4.456 -0.0496 -0.3586  1.1232
28119SOL    HW286675   2.660   8.986   4.495  0.0214 -0.0576  0.0952
28120SOL     OW86676   4.608   2.833   4.785  0.3893 -0.4492  0.0198
28120SOL    HW186677   4.579   2.747   4.755 -0.1835  0.1058 -1.0668
28120SOL    HW286678   4.685   2.853   4.732  0.5345 -0.2962  0.2845
28121SOL     OW86679   2.936   3.451   4.388 -0.5920  0.1074 -0.3686
28121SOL    HW186680   3.021   3.494   4.375  0.4063 -1.8423 -0.7390
28121SOL    HW286681   2.952   3.360   4.365 -2.4991 -0.5746  0.7794
28122SOL     OW86682   3.324   5.033   7.764 -0.1510 -0.0776 -0.7921
28122SOL    HW186683   3.230   5.030   7.749 -0.2278  2.0182 -1.0881
28122SOL    HW286684   3.361   5.063   7.680  0.6568  0.1255 -0.3816
28123SOL     OW86685   3.329   0.672   1.022 -0.2423  0.3279  0.0520
28123SOL    HW186686   3.314   0.590   1.069  0.5623  0.9726  1.4758
28123SOL    HW286687   3.240   0.706   1.006 -0.5525 -0.2197  0.5507
28124SOL     OW86688   3.026   2.579   4.160 -0.6063  0.0522  0.1295
28124SOL    HW186689   3.044   2.673   4.168 -1.5527  0.1704  1.0951
28124SOL    HW286690   3.100   2.537   4.204  0.5673  0.2558 -1.5404
28125SOL     OW86691   4.003   0.008   7.596  0.0492 -0.6395 -0.0209
28125SOL    HW186692   3.909   0.023   7.609  0.4672  2.4653  0.0317
28125SOL    HW286693   4.007  -0.072   7.543 -2.7775  0.4446 -2.1657
28126SOL     OW86694   0.848   6.720   7.227 -0.4616  0.3271 -0.2936
28126SOL    HW186695   0.821   6.771   7.303  1.5771  1.0901 -0.0093
28126SOL    HW286696   0.914   6.775   7.184  0.7172 -1.4133 -0.8253
28127SOL     OW86697   6.566  10.220   9.161  0.6505 -0.5331 -0.0673
28127SOL    HW186698   6.605  10.282   9.223 -1.7015  1.1552 -0.1302
28127SOL    HW286699   6.500  10.174   9.212 -1.5375  1.1013 -1.2851
28128SOL     OW86700   7.231   1.975   1.560  0.0830  0.1906  0.3045
28128SOL    HW186701   7.292   2.026   1.506  0.3168 -0.5113 -0.1027
28128SOL    HW286702   7.188   2.041   1.614 -0.3406  0.9631 -0.9122
28129SOL     OW86703   3.493  10.129   4.827 -0.2454  0.3264 -0.6025
28129SOL    HW186704   3.550  10.079   4.769 -0.5336  0.3883 -0.9419
28129SOL    HW286705   3.429  10.066   4.859 -0.5215  0.4405 -0.9177
28130SOL     OW86706   3.460   1.544   4.378 -0.0950 -0.1391 -0.3311
28130SOL    HW186707   3.532   1.554   4.315  0.6901  0.1833  0.5957
28130SOL    HW286708   3.391   1.601   4.345  1.6457  3.0162  0.9915
28131SOL     OW86709   4.504   3.027   5.421 -0.0617  0.4091 -0.3643
28131SOL    HW186710   4.560   3.075   5.482  1.1592 -0.6463 -0.6142
28131SOL    HW286711   4.421   3.076   5.421 -0.5546 -0.1850  3.0431
28132SOL     OW86712   5.547   1.355   1.745 -0.2643 -0.4928 -0.0925
28132SOL    HW186713   5.559   1.410   1.667  0.3472 -2.1891 -1.2490
28132SOL    HW286714   5.500   1.411   1.807 -2.2921  0.4136 -2.2968
28133SOL     OW86715   7.203   0.599   7.570 -0.8687  0.1292  0.2501
28133SOL    HW186716   7.131   0.644   7.526  0.0044  1.2596 -0.0698
28133SOL    HW286717   7.268   0.586   7.502  0.0017  0.8297  0.9250
28134SOL     OW86718   2.293   3.611   4.142  0.1444  0.0776  0.0793
28134SOL    HW186719   2.322   3.532   4.096 -0.1347 -1.1423  1.9006
28134SOL    HW286720   2.201   3.593   4.164 -1.4975  2.8443 -3.4490
28135SOL     OW86721   2.967   4.961   5.765  0.2484  0.5952 -0.1803
28135SOL    HW186722   2.958   5.046   5.723  1.0085  1.3844  1.1569
28135SOL    HW286723   3.040   4.919   5.719 -1.2656 -0.1185 -2.0195
28136SOL     OW86724   2.704   1.746   0.763 -0.0801  0.2569  0.7320
28136SOL    HW186725   2.765   1.766   0.834  0.9744  2.9441 -0.7975
28136SOL    HW286726   2.738   1.793   0.687 -1.3650 -2.1926 -1.5486
28137SOL     OW86727   8.512   4.613   7.238 -0.1315 -0.1924 -0.2583
28137SOL    HW186728   8.513   4.528   7.282 -2.9995  0.3370  1.0187
28137SOL    HW286729   8.433   4.612   7.184  0.7543  1.0103 -1.6571
28138SOL     OW86730   9.152   7.059   0.491  0.2613 -0.1340 -0.2114
28138SOL    HW186731   9.065   7.044   0.528  0.2103  1.4242  0.3863
28138SOL    HW286732   9.135   7.081   0.399 -0.0196  0.4840 -0.0182
28139SOL     OW86733   9.608   2.719   3.600 -0.3967 -0.1292  0.0626
28139SOL    HW186734   9.615   2.760   3.687  0.4869  3.1040 -1.3808
28139SOL    HW286735   9.699   2.710   3.571 -0.7070  1.2120 -1.4706
28140SOL     OW86736   1.564   1.166   2.183  0.3085 -0.6882 -0.1025
28140SOL    HW186737   1.609   1.242   2.147 -0.2101 -0.6942 -0.7685
28140SOL    HW286738   1.629   1.124   2.240  0.9439 -0.3643 -0.5879
28141SOL     OW86739   7.346   7.423   7.339 -0.4721  0.1583 -0.0984
28141SOL    HW186740   7.284   7.485   7.380 -1.0899 -0.2575 -0.3871
28141SOL    HW286741   7.430   7.443   7.380 -0.9493  0.1983  0.8956
28142SOL     OW86742   4.424   0.958   2.004  0.3750  0.2642  0.1193
28142SOL    HW186743   4.397   0.867   2.006 -2.1916  0.8888 -1.5592
28142SOL    HW286744   4.518   0.956   2.022  0.5015 -2.7355 -0.4737
28143SOL     OW86745   4.290   4.644   3.468 -0.9326 -0.3921 -0.7842
28143SOL    HW186746   4.324   4.681   3.386 -1.6428  0.0084 -0.9019
28143SOL    HW286747   4.290   4.717   3.529 -0.5637 -0.6526 -0.4712
28144SOL     OW86748   2.699   5.170   0.581 -0.2186  0.2564  0.1854
28144SOL    HW186749   2.716   5.083   0.618 -0.5890 -0.1029 -0.4664
28144SOL    HW286750   2.638   5.211   0.642  0.7548  0.4659  1.0431
28145SOL     OW86751   7.793   2.527   4.383 -0.1344 -0.8837 -0.4233
28145SOL    HW186752   7.699   2.540   4.389 -0.1625 -0.8037 -1.0267
28145SOL    HW286753   7.823   2.594   4.321  0.4383 -0.3522  0.4083
28146SOL     OW86754   0.208   5.455   7.409 -0.7102  0.1005 -0.6003
28146SOL    HW186755   0.234   5.387   7.346  1.6762  1.0678 -0.7471
28146SOL    HW286756   0.290   5.496   7.436 -1.9083  1.5301  1.1106
28147SOL     OW86757   6.236   5.684   5.880  0.0343 -0.1599  0.1676
28147SOL    HW186758   6.278   5.607   5.841 -1.2219 -0.6409 -0.3061
28147SOL    HW286759   6.275   5.759   5.835 -0.6498 -0.6603 -1.3188
28148SOL     OW86760   6.123   3.437  10.003 -0.4418 -0.4889  0.1717
28148SOL    HW186761   6.169   3.360   9.969  0.7949 -0.0494  0.7732
28148SOL    HW286762   6.055   3.455   9.938  0.0974 -1.2983 -0.6428
28149SOL     OW86763   0.729   3.172   3.447  0.5059  0.2252  0.1311
28149SOL    HW186764   0.702   3.126   3.368 -0.6789  0.7534  0.2161
28149SOL    HW286765   0.822   3.149   3.458  0.6621  0.0686 -1.3537
28150SOL     OW86766   4.269   4.968   4.845  0.2290 -0.6513  0.0684
28150SOL    HW186767   4.287   5.042   4.902 -3.4782  0.0760  0.5175
28150SOL    HW286768   4.246   5.007   4.760 -0.7820 -1.2908  0.0266
28151SOL     OW86769   4.602   7.244   9.310 -0.3222  0.2219  0.1345
28151SOL    HW186770   4.577   7.190   9.235 -0.0807 -0.6591  0.6652
28151SOL    HW286771   4.593   7.185   9.385  0.2004  0.8535  0.7013
28152SOL     OW86772   6.419   3.823   4.709 -0.6481  1.1122  0.1121
28152SOL    HW186773   6.496   3.869   4.675 -1.0363  1.7655  0.1021
28152SOL    HW286774   6.358   3.893   4.732 -0.8654  0.6319  1.0284
28153SOL     OW86775   0.593   8.828   9.217 -0.2319 -0.4832 -0.2060
28153SOL    HW186776   0.670   8.884   9.221 -0.9022  0.4519 -0.2213
28153SOL    HW286777   0.626   8.745   9.182  0.9409 -0.4305  0.7160
28154SOL     OW86778   5.430   4.535   7.999 -0.1378  0.3724  0.3767
28154SOL    HW186779   5.409   4.517   8.090 -2.0042 -0.2259 -0.1226
28154SOL    HW286780   5.388   4.619   7.981  0.2364  0.4983  0.0752
28155SOL     OW86781   7.977   2.751   0.854  0.0742  0.4421 -0.8596
28155SOL    HW186782   7.977   2.831   0.906 -1.2855 -0.6324  0.9319
28155SOL    HW286783   8.061   2.710   0.873 -0.3489  0.1248  0.4832
28156SOL     OW86784   9.709   7.946   3.020 -0.1471  0.3904  0.2936
28156SOL    HW186785   9.721   7.890   3.097  0.8582  0.5825  0.2938
28156SOL    HW286786   9.736   8.033   3.050  0.3087  0.4561 -0.2927
28157SOL     OW86787   2.800   7.722   1.305 -0.4701  0.5332 -0.7381
28157SOL    HW186788   2.878   7.708   1.251  0.8647 -0.9283  1.4255
28157SOL    HW286789   2.808   7.813   1.334 -1.3095  1.4038 -3.0401
28158SOL     OW86790   0.124   3.719   1.768  0.6967  0.5522 -0.1386
28158SOL    HW186791   0.197   3.681   1.719  1.0681  0.0704  0.7627
28158SOL    HW286792   0.166   3.773   1.835  0.2530 -0.2591  0.8129
28159SOL     OW86793   7.914   3.485   2.208  0.0613  0.1986  0.4178
28159SOL    HW186794   8.007   3.475   2.188  0.2864 -0.0605  1.5216
28159SOL    HW286795   7.912   3.540   2.286 -0.7158  0.1528  0.4365
28160SOL     OW86796   1.844   5.037   6.003  0.0137  0.3676  0.0103
28160SOL    HW186797   1.917   5.089   6.039  0.8150 -1.1546  0.6886
28160SOL    HW286798   1.858   4.949   6.039 -0.4926 -0.6706 -2.1908
28161SOL     OW86799   2.428   1.263   3.627 -0.2427 -0.4056  0.6374
28161SOL    HW186800   2.399   1.252   3.536  2.8251 -0.3047 -0.4625
28161SOL    HW286801   2.462   1.178   3.652 -0.7039 -0.3218  1.5906
28162SOL     OW86802   5.988   0.572   4.000 -0.1092 -0.1594 -0.8379
28162SOL    HW186803   5.925   0.520   4.050  1.5274 -0.5282  1.0044
28162SOL    HW286804   5.935   0.635   3.952 -1.8146  0.6427  1.8782
28163SOL     OW86805   7.162   4.398   3.758  0.2390  0.2107 -0.3165
28163SOL    HW186806   7.114   4.479   3.775 -1.2291 -0.9488  1.3550
28163SOL    HW286807   7.234   4.399   3.821 -0.3834 -0.2199  0.4290
28164SOL     OW86808   6.202   7.284   5.606 -0.0295  0.0159  0.1858
28164SOL    HW186809   6.248   7.346   5.663 -0.8910  0.2907  0.6038
28164SOL    HW286810   6.255   7.204   5.610  1.5417  0.9329 -0.9995
28165SOL     OW86811   3.994   8.051  10.370  0.2108 -0.4535 -0.6669
28165SOL    HW186812   3.998   8.022  10.279 -0.8568 -1.1780 -0.5100
28165SOL    HW286813   3.973   8.144  10.364 -1.2327 -0.7699 -1.1914
28166SOL     OW86814   5.270   1.458   8.971 -1.0371 -0.1649 -0.5064
28166SOL    HW186815   5.319   1.483   9.049 -0.3784  0.0995 -0.9998
28166SOL    HW286816   5.218   1.382   8.999 -1.2001  0.2372  0.3258
28167SOL     OW86817   3.299   0.939   3.589  0.3430  0.6577 -0.2217
28167SOL    HW186818   3.281   0.849   3.614  0.0752  0.6047 -0.5866
28167SOL    HW286819   3.307   0.986   3.671 -0.5664  0.5007 -0.0306
28168SOL     OW86820   0.932   9.803   6.315 -0.1318  0.6832 -0.1086
28168SOL    HW186821   1.017   9.842   6.335  0.6727 -1.1073  0.1132
28168SOL    HW286822   0.933   9.718   6.358 -1.5121  0.0532 -1.2208
28169SOL     OW86823   0.814   2.127   6.921 -0.0961  0.1014  0.4786
28169SOL    HW186824   0.754   2.136   6.994 -0.5879  1.7395 -0.0883
28169SOL    HW286825   0.874   2.201   6.930  1.6555 -1.2800  0.8215
28170SOL     OW86826   0.892   3.106   7.692 -0.7493 -0.1776 -0.0667
28170SOL    HW186827   0.908   3.032   7.634 -1.4324 -0.4829  0.1298
28170SOL    HW286828   0.881   3.181   7.634  3.0307  0.4475 -0.2365
28171SOL     OW86829   1.484   3.116   8.561  0.3504  0.7326 -0.3221
28171SOL    HW186830   1.445   3.189   8.610 -0.2436  1.4483 -1.8004
28171SOL    HW286831   1.574   3.145   8.544  1.3144 -0.4753  2.1875
28172SOL     OW86832   5.638   2.728   7.480 -0.7307 -0.2611  0.3052
28172SOL    HW186833   5.683   2.657   7.525 -3.4778 -2.1250  0.3633
28172SOL    HW286834   5.598   2.780   7.550 -0.6079 -0.0108  0.1908
28173SOL     OW86835   3.845   7.791   5.113  0.2033 -0.0861  0.1009
28173SOL    HW186836   3.885   7.707   5.088  0.4378  0.4616 -1.4250
28173SOL    HW286837   3.847   7.844   5.033 -0.6447  1.1126  0.8424
28174SOL     OW86838   4.038   8.267   2.004  0.6509  0.2124  0.5108
28174SOL    HW186839   4.102   8.198   1.983 -0.1482 -0.7503  1.1365
28174SOL    HW286840   4.088   8.332   2.053  1.1773 -0.5113  0.9584
28175SOL     OW86841   4.181   6.718   1.974  0.3012 -0.4725  0.0084
28175SOL    HW186842   4.163   6.765   2.055  2.0011  2.2194 -1.0343
28175SOL    HW286843   4.274   6.694   1.980  0.4631 -0.2053 -1.1295
28176SOL     OW86844  10.431   3.449   6.047  0.2736  0.3554 -0.0781
28176SOL    HW186845  10.366   3.479   6.110  0.6934  0.7243  0.1880
28176SOL    HW286846  10.391   3.374   6.004  0.6388 -1.0320  1.8705
28177SOL     OW86847   2.638   1.450   8.509  0.0838 -0.7494 -0.1072
28177SOL    HW186848   2.733   1.462   8.514  0.0163 -0.5422  0.8514
28177SOL    HW286849   2.602   1.519   8.564 -0.7038  0.0436 -1.5587
28178SOL     OW86850   4.895   7.647   6.165 -0.1418 -0.1639 -0.1536
28178SOL    HW186851   4.983   7.653   6.129 -0.7919 -1.2601 -2.0981
28178SOL    HW286852   4.898   7.573   6.225  0.5695  0.6650  0.8642
28179SOL     OW86853   8.852   3.306   4.077 -0.1600 -0.1041  0.7182
28179SOL    HW186854   8.906   3.358   4.018  1.4136 -0.6042  1.6375
28179SOL    HW286855   8.762   3.336   4.062 -0.0482 -1.1478 -2.8463
28180SOL     OW86856   9.540   8.806   0.831 -0.0633  0.2114  0.9280
28180SOL    HW186857   9.573   8.731   0.880 -0.7478  0.1208  1.2659
28180SOL    HW286858   9.487   8.855   0.894  0.5423  1.0921  0.7617
28181SOL     OW86859   4.799   2.439   8.285  0.1263 -0.5828  0.2262
28181SOL    HW186860   4.750   2.384   8.224  1.3278 -0.5738 -0.7835
28181SOL    HW286861   4.884   2.396   8.293  0.8171  0.6891  0.0253
28182SOL     OW86862   2.604   7.610   4.090 -0.2489  0.1448 -0.5775
28182SOL    HW186863   2.557   7.586   4.169 -0.3357  0.5483 -0.5015
28182SOL    HW286864   2.586   7.539   4.028  1.4202 -1.1930  0.3750
28183SOL     OW86865   0.815   3.472   0.605 -0.0727  0.6222 -0.4360
28183SOL    HW186866   0.740   3.503   0.553 -0.7753  0.4077  0.4173
28183SOL    HW286867   0.885   3.461   0.542 -0.9547  0.2014 -1.3709
28184SOL     OW86868   1.272   3.746   8.715 -0.1855  0.2128 -0.6386
28184SOL    HW186869   1.191   3.790   8.738  0.6059  0.8019  1.1633
28184SOL    HW286870   1.246   3.682   8.648 -2.4793 -0.9117  1.1821
28185SOL     OW86871   3.418   2.551   0.853 -0.4857  0.3087  0.1729
28185SOL    HW186872   3.490   2.591   0.903  0.5660 -0.3703 -0.7379
28185SOL    HW286873   3.343   2.608   0.869 -0.1367  0.2665  2.3003
28186SOL     OW86874   3.681   8.200   9.578 -0.2331 -0.1136 -0.2657
28186SOL    HW186875   3.680   8.170   9.669 -0.4127  0.0458 -0.2144
28186SOL    HW286876   3.641   8.287   9.581  1.0134  0.4895 -0.2890
28187SOL     OW86877   9.588   3.520   6.387  0.5907 -0.2778 -0.0189
28187SOL    HW186878   9.596   3.593   6.327  0.5624 -2.1652 -2.4779
28187SOL    HW286879   9.675   3.479   6.387  0.6584 -0.2061  1.4516
28188SOL     OW86880   0.857  10.228   8.024 -0.3546  0.0090 -0.6048
28188SOL    HW186881   0.907  10.184   7.955 -1.2581 -1.4949 -0.3445
28188SOL    HW286882   0.797  10.161   8.057  0.0128  0.7016  1.6172
28189SOL     OW86883   2.445   4.541   0.827  0.0051  0.2254  0.0505
28189SOL    HW186884   2.375   4.476   0.834  0.4953 -0.4538 -1.1757
28189SOL    HW286885   2.400   4.621   0.798 -0.5071  0.2913  0.9822
28190SOL     OW86886  10.269   8.867   9.439  0.0615 -0.6275  0.2250
28190SOL    HW186887  10.290   8.878   9.531  1.8079  3.5610 -0.4596
28190SOL    HW286888  10.346   8.824   9.402 -0.8367 -2.7512  0.6862
28191SOL     OW86889   5.597   1.386   5.145  0.5981 -0.2939  0.2387
28191SOL    HW186890   5.660   1.415   5.078  1.2862 -2.0011  0.0979
28191SOL    HW286891   5.644   1.396   5.228  0.7466 -0.7434  0.2116
28192SOL     OW86892   8.512   7.526   0.374 -0.3703 -0.5693 -0.1169
28192SOL    HW186893   8.482   7.441   0.406 -1.3063 -1.1747 -2.4149
28192SOL    HW286894   8.447   7.589   0.405 -0.6554 -0.9639  0.0829
28193SOL     OW86895   1.280   6.262   3.597  0.0001  0.3942  0.0241
28193SOL    HW186896   1.339   6.188   3.588 -0.1496  0.0559  1.5643
28193SOL    HW286897   1.215   6.250   3.527  1.5847  0.6752 -1.5698
28194SOL     OW86898   4.638   2.833   2.809 -0.6556 -0.4300  0.0293
28194SOL    HW186899   4.544   2.841   2.820 -0.6043  1.4670 -0.5988
28194SOL    HW286900   4.670   2.802   2.894 -1.6947  0.2926  0.6979
28195SOL     OW86901   6.870   9.415   4.306 -0.3213  0.3959  0.4214
28195SOL    HW186902   6.800   9.360   4.272  0.0187 -0.4650  1.0724
28195SOL    HW286903   6.842   9.439   4.395  0.7755 -1.0788  1.2140
28196SOL     OW86904   9.856   9.602   1.882 -0.0603  0.0518 -0.0149
28196SOL    HW186905   9.810   9.677   1.844 -2.2744 -0.7314  0.9997
28196SOL    HW286906   9.813   9.525   1.845  0.7690 -0.7312  0.5897
28197SOL     OW86907   0.746   1.264   9.867  0.2095  0.7289 -0.2370
28197SOL    HW186908   0.744   1.169   9.865 -0.5824  0.7324 -2.2937
28197SOL    HW286909   0.662   1.290   9.905  0.6811  0.6301  0.9069
28198SOL     OW86910   8.726   6.782   5.309 -1.0325 -0.4407  0.1220
28198SOL    HW186911   8.725   6.858   5.368  0.0220 -0.4513  0.1767
28198SOL    HW286912   8.674   6.810   5.234 -0.4532  0.4526  0.0273
28199SOL     OW86913   6.067   7.411   7.627  0.2992 -0.8935  0.0694
28199SOL    HW186914   6.017   7.468   7.568  0.4519  0.9066  1.5499
28199SOL    HW286915   6.124   7.360   7.570 -1.4100 -1.1698 -1.4930
28200SOL     OW86916   7.731   6.047   4.124 -0.0339  0.3484  0.1874
28200SOL    HW186917   7.798   5.991   4.086  0.8502  1.6563 -0.2385
28200SOL    HW286918   7.648   6.003   4.103  0.6440 -1.0086  0.2626
28201SOL     OW86919   9.262   7.652   4.111 -0.7639 -0.0128 -0.0372
28201SOL    HW186920   9.224   7.678   4.027 -0.4625  4.1771  0.8928
28201SOL    HW286921   9.356   7.647   4.093 -0.8986 -1.6389 -0.4266
28202SOL     OW86922   9.908   7.665   9.225 -0.2093 -0.8735 -0.4966
28202SOL    HW186923   9.838   7.632   9.281 -1.1576 -0.0689 -1.1770
28202SOL    HW286924   9.868   7.737   9.176  0.7025 -1.3083 -1.9389
28203SOL     OW86925   2.141   1.843   4.213  0.2126 -0.3874 -0.1775
28203SOL    HW186926   2.091   1.781   4.265 -0.1287  2.3884  3.1596
28203SOL    HW286927   2.224   1.798   4.195 -0.6189 -2.3533  0.6753
28204SOL     OW86928  10.069   8.937   5.097  0.1558 -0.4231  0.0030
28204SOL    HW186929  10.138   8.947   5.032 -0.3192 -1.5280 -0.7107
28204SOL    HW286930  10.031   8.851   5.079 -1.0894 -0.0484  0.6778
28205SOL     OW86931   4.269   0.656   4.103 -0.0405  0.4553  0.2712
28205SOL    HW186932   4.288   0.740   4.062 -0.6398  0.8803  0.8497
28205SOL    HW286933   4.187   0.670   4.150 -0.7343 -0.7822 -0.5335
28206SOL     OW86934   9.377   8.207   2.768 -0.3288  0.1386 -0.1024
28206SOL    HW186935   9.352   8.183   2.679 -1.3513  1.0625 -0.0907
28206SOL    HW286936   9.341   8.295   2.779  1.1343  0.6698  0.6882
28207SOL     OW86937   4.728   6.038   5.016 -0.4239  0.0690  0.3670
28207SOL    HW186938   4.794   5.977   5.049 -0.9218 -0.4993  0.3270
28207SOL    HW286939   4.715   6.100   5.088 -0.1679 -0.0832  0.5442
28208SOL     OW86940   5.876   2.238   7.737 -0.3709  0.1908 -0.4932
28208SOL    HW186941   5.868   2.227   7.642  2.5761  0.4141 -0.8542
28208SOL    HW286942   5.827   2.165   7.774 -3.8668  1.5497 -2.0204
28209SOL     OW86943   3.623   9.644   5.440 -0.5301  0.2729 -0.6258
28209SOL    HW186944   3.702   9.618   5.391  2.3830  0.0282  3.6594
28209SOL    HW286945   3.594   9.564   5.482  0.0418  1.2082  1.7031
28210SOL     OW86946   5.348   1.975   6.064 -0.1871  0.3349  0.2192
28210SOL    HW186947   5.286   2.041   6.095 -1.3805 -0.6117 -0.0987
28210SOL    HW286948   5.380   1.933   6.143  1.1720  1.7581  0.4855
28211SOL     OW86949  10.066   3.996   1.538 -0.0092 -0.0989  0.1307
28211SOL    HW186950  10.091   3.962   1.453 -0.6120  0.4124 -0.2592
28211SOL    HW286951  10.120   3.947   1.601  0.3379 -0.5687 -0.5287
28212SOL     OW86952   7.405   9.333  10.341 -0.3302 -0.4487 -0.0522
28212SOL    HW186953   7.419   9.264  10.407  1.2082 -0.0154  0.1202
28212SOL    HW286954   7.491   9.345  10.301 -0.7266  0.9205 -0.5347
28213SOL     OW86955   2.314   9.451   4.375 -0.1084 -0.0542 -0.1534
28213SOL    HW186956   2.380   9.429   4.309 -1.3043 -0.2050 -1.3441
28213SOL    HW286957   2.343   9.534   4.412  1.4673 -0.7950  0.3483
28214SOL     OW86958   4.849   3.469   4.217  0.7951 -0.6128 -0.3616
28214SOL    HW186959   4.866   3.437   4.128  0.7549  1.3178 -1.1325
28214SOL    HW286960   4.925   3.523   4.237 -0.1919  0.7505 -0.1402
28215SOL     OW86961   2.293   8.464   6.090 -0.2769  0.0643  0.2061
28215SOL    HW186962   2.233   8.514   6.146 -0.6838  0.1224 -0.2770
28215SOL    HW286963   2.370   8.520   6.082  0.4322 -0.5695  1.9285
28216SOL     OW86964   4.056   5.998   0.542 -0.0309  0.5374 -0.0162
28216SOL    HW186965   4.137   5.952   0.564 -0.3760 -1.4633 -2.5714
28216SOL    HW286966   3.988   5.931   0.546 -1.1520  1.6212 -0.3866
28217SOL     OW86967   2.027   2.920  10.195  0.5792  0.3116  0.7420
28217SOL    HW186968   2.065   2.995  10.151  1.7189 -0.2129  0.7842
28217SOL    HW286969   2.003   2.952  10.282 -0.1115  0.9222  0.3353
28218SOL     OW86970   0.749   3.562   1.790  0.1089 -0.3406  0.1659
28218SOL    HW186971   0.762   3.468   1.804  0.5286 -0.5269 -1.3704
28218SOL    HW286972   0.666   3.568   1.743  0.3774  0.0075 -0.2758
28219SOL     OW86973   9.708   6.920   1.372 -0.7681 -0.1194  0.1939
28219SOL    HW186974   9.627   6.871   1.388 -0.3031 -0.8038  0.4741
28219SOL    HW286975   9.727   6.963   1.455  0.1487 -1.4620  0.7240
28220SOL     OW86976   2.437   4.311   5.669 -0.2305  0.4354 -0.3732
28220SOL    HW186977   2.431   4.403   5.645  0.5693 -0.0474 -2.7297
28220SOL    HW286978   2.346   4.282   5.679 -0.4865  1.7384  1.8550
28221SOL     OW86979   9.236   9.763   7.281 -0.0522  0.6780 -0.3390
28221SOL    HW186980   9.301   9.706   7.240  0.5846  1.2589 -0.1638
28221SOL    HW286981   9.154   9.741   7.237 -0.0910 -1.2750  0.6134
28222SOL     OW86982   4.850  10.051   6.675  0.0773  0.0026 -0.6224
28222SOL    HW186983   4.837  10.011   6.590 -4.5400 -0.0583 -0.1377
28222SOL    HW286984   4.840  10.144   6.660 -1.8200 -0.0779 -0.1106
28223SOL     OW86985   0.743   4.684   2.127 -0.2031  1.2778 -0.2039
28223SOL    HW186986   0.660   4.651   2.160  0.2999 -1.6515 -1.5884
28223SOL    HW286987   0.723   4.718   2.040  0.0448  0.5166 -0.5624
28224SOL     OW86988   7.208   6.525   2.971  0.3922 -0.2776  0.4335
28224SOL    HW186989   7.186   6.432   2.985  0.4696 -0.2363  0.8279
28224SOL    HW286990   7.197   6.537   2.877  0.5721 -0.7385  0.3479
28225SOL     OW86991   5.635  10.491   7.952 -0.1101 -0.1604  0.4668
28225SOL    HW186992   5.601  10.578   7.973 -0.6198 -0.0289 -0.8309
28225SOL    HW286993   5.725  10.507   7.925  0.5238 -0.3201  2.2963
28226SOL     OW86994  10.363  10.326   8.322  0.1141  0.2979 -0.2215
28226SOL    HW186995  10.355  10.309   8.415  1.2376 -0.9060 -0.3013
28226SOL    HW286996  10.291  10.277   8.282 -0.9466  1.5838  0.0514
28227SOL     OW86997   6.916   0.891   9.823  0.5829 -0.0623 -0.0997
28227SOL    HW186998   6.834   0.924   9.788 -1.6108 -1.3036  3.3827
28227SOL    HW286999   6.932   0.942   9.902  1.2857 -2.0602  1.1368
28228SOL     OW87000   4.305   1.575   7.275  0.1117 -0.2171  0.0261
28228SOL    HW187001   4.384   1.620   7.306 -0.0244  0.6020 -0.7452
28228SOL    HW287002   4.270   1.532   7.352  1.6935 -1.1974  0.2516
28229SOL     OW87003   7.316   0.446   5.976 -0.2164  0.0782  0.3763
28229SOL    HW187004   7.358   0.523   6.013 -1.2148  0.5760  0.4983
28229SOL    HW287005   7.238   0.432   6.030 -0.2830 -0.7561  0.0862
28230SOL     OW87006   4.675   0.939   9.618 -0.5202  0.3394  0.2213
28230SOL    HW187007   4.687   0.882   9.694  0.9651 -0.1677 -0.3743
28230SOL    HW287008   4.712   1.023   9.644  0.0067  0.1597  0.0485
28231SOL     OW87009   3.708   0.552   4.876  0.6204  0.1828  0.0814
28231SOL    HW187010   3.745   0.469   4.906 -0.4014  0.4751  2.3280
28231SOL    HW287011   3.670   0.532   4.790  0.8438 -1.5479  0.3580
28232SOL     OW87012   0.138   9.638   1.661 -0.3356 -0.0831 -0.3859
28232SOL    HW187013   0.079   9.668   1.731  0.6624  2.2857 -0.4658
28232SOL    HW287014   0.089   9.656   1.581 -0.8957 -1.4631 -0.3830
28233SOL     OW87015   0.942   8.551  10.475  0.3718 -0.3520  0.0975
28233SOL    HW187016   0.923   8.620  10.412  0.0839  0.3142  0.9044
28233SOL    HW287017   0.857   8.509  10.492  0.1077  0.6087  1.3414
28234SOL     OW87018   8.203  10.584   2.689 -0.3163  0.0200 -0.0644
28234SOL    HW187019   8.143  10.641   2.736  0.7148  0.9366  0.1938
28234SOL    HW287020   8.206  10.621   2.601 -0.6963 -0.4728 -0.2861
28235SOL     OW87021   5.786   0.624   8.765 -0.3470 -0.7998  0.1185
28235SOL    HW187022   5.823   0.712   8.776 -0.6942 -0.6964  0.5002
28235SOL    HW287023   5.746   0.605   8.850 -1.3372 -0.8266 -0.3449
28236SOL     OW87024   3.171   3.960   6.299  0.2786 -0.5006  0.6557
28236SOL    HW187025   3.230   4.034   6.310  1.2045 -0.6863 -2.1567
28236SOL    HW287026   3.214   3.904   6.234 -1.3371 -2.4859  1.1752
28237SOL     OW87027   3.471   5.603   8.454 -0.1751  0.1551 -0.4322
28237SOL    HW187028   3.408   5.531   8.449 -2.1711  1.2907  3.8985
28237SOL    HW287029   3.435   5.670   8.396 -1.3431 -0.3367 -0.3152
28238SOL     OW87030   0.244   6.227   0.784 -0.1728 -0.0579  0.2323
28238SOL    HW187031   0.320   6.281   0.762 -0.5201  0.3892  0.1232
28238SOL    HW287032   0.262   6.194   0.872  0.2848 -0.2001  0.0885
28239SOL     OW87033   5.889   4.152   1.446 -0.2699  0.1560  0.0636
28239SOL    HW187034   5.964   4.143   1.505 -0.6715  0.1921  0.5865
28239SOL    HW287035   5.898   4.240   1.410  0.6986 -0.3344 -0.9425
28240SOL     OW87036   2.939   3.121   4.347  0.3365  0.1324 -0.4814
28240SOL    HW187037   2.882   3.044   4.347  0.9188 -0.4290 -3.5183
28240SOL    HW287038   2.947   3.145   4.255  0.6036  3.5772  0.3160
28241SOL     OW87039   9.841   3.183   3.335  0.3195 -0.0743 -0.0861
28241SOL    HW187040   9.935   3.200   3.322  0.1784 -0.1958 -1.4027
28241SOL    HW287041   9.838   3.112   3.400  1.1039  0.4002  0.4892
28242SOL     OW87042   6.176   7.606   1.110 -0.1168 -0.3828  0.2240
28242SOL    HW187043   6.211   7.657   1.183 -1.0503  0.0879  0.3518
28242SOL    HW287044   6.083   7.594   1.130 -0.8750  1.4477 -1.8007
28243SOL     OW87045   8.816   0.855   6.524 -0.3689 -0.1991 -0.1977
28243SOL    HW187046   8.862   0.899   6.596  1.0512 -3.5096  1.1044
28243SOL    HW287047   8.848   0.898   6.445  0.7122  1.2554  0.9708
28244SOL     OW87048   2.597   7.654   4.774 -0.0152  0.2247  0.3377
28244SOL    HW187049   2.626   7.568   4.803 -0.4358 -0.1554 -0.3505
28244SOL    HW287050   2.635   7.715   4.837  1.0493 -0.3875  0.3156
28245SOL     OW87051   3.867   2.709   7.837 -0.3924  0.3308 -0.1304
28245SOL    HW187052   3.800   2.697   7.904  0.7880  1.2082  1.2396
28245SOL    HW287053   3.933   2.642   7.857  0.2163  0.9373 -0.0890
28246SOL     OW87054   3.939   1.470   2.284 -0.0126 -0.0881  0.0261
28246SOL    HW187055   4.034   1.481   2.295 -0.0090 -1.2750  1.3578
28246SOL    HW287056   3.903   1.555   2.308  0.7002  0.3448 -0.3819
28247SOL     OW87057   8.199   4.328   8.270 -0.5247 -0.2523  0.7521
28247SOL    HW187058   8.180   4.422   8.274  0.8091  0.0227  1.1730
28247SOL    HW287059   8.213   4.303   8.361  0.1168 -0.6413  0.5503
28248SOL     OW87060   7.536   9.042   2.020  0.2433  0.4666  0.5103
28248SOL    HW187061   7.611   9.048   1.962 -0.6989 -1.1127 -0.9644
28248SOL    HW287062   7.486   9.122   2.004 -0.2026 -0.1178 -1.2051
28249SOL     OW87063   0.515  10.382   8.940 -0.8031  0.4107  0.0011
28249SOL    HW187064   0.467  10.427   9.010  1.1679  0.5292  1.3724
28249SOL    HW287065   0.526  10.449   8.872 -2.9461  0.2309 -0.6071
28250SOL     OW87066   6.121   1.146   8.494  0.0195  0.6119  0.4488
28250SOL    HW187067   6.069   1.073   8.460 -2.0898  0.9728  2.6495
28250SOL    HW287068   6.067   1.223   8.478  1.0940  1.3859  0.4415
28251SOL     OW87069   9.759   3.644   2.372  0.4416  0.6290  0.0251
28251SOL    HW187070   9.763   3.697   2.451  1.6637 -0.1698  0.5297
28251SOL    HW287071   9.825   3.682   2.314 -0.2359  1.0202 -0.5069
28252SOL     OW87072   9.877   6.910   2.837 -0.1039  0.0592  0.2335
28252SOL    HW187073   9.943   6.841   2.845 -1.8211 -1.7110 -0.0350
28252SOL    HW287074   9.917   6.975   2.779  0.9772 -1.4870 -0.8368
28253SOL     OW87075   4.025   4.025   8.032 -0.1172  0.2719  0.1827
28253SOL    HW187076   4.099   4.040   8.090 -0.6618  1.9929  0.4738
28253SOL    HW287077   4.061   3.970   7.961  0.6128 -1.6341  1.9228
28254SOL     OW87078   9.989   1.744   8.521  0.3967 -0.0729 -0.5871
28254SOL    HW187079  10.028   1.817   8.568 -1.4421  0.4596  0.2163
28254SOL    HW287080  10.048   1.728   8.447  1.9850  0.7558  0.4571
28255SOL     OW87081   4.206  10.192   7.060 -0.1271 -0.2449  0.0691
28255SOL    HW187082   4.224  10.166   7.151 -0.2632 -2.0131 -0.3624
28255SOL    HW287083   4.113  10.216   7.061 -0.4220 -1.3065  0.2178
28256SOL     OW87084   4.092   6.215   7.992 -0.2880 -0.3646  1.0322
28256SOL    HW187085   4.034   6.244   7.922  1.5874 -2.5731 -1.6806
28256SOL    HW287086   4.113   6.294   8.041  0.3558  1.9198 -2.5530
28257SOL     OW87087   0.310   0.195   4.182 -0.6310  0.3452  0.2524
28257SOL    HW187088   0.398   0.183   4.215 -0.3815  0.5516 -0.3232
28257SOL    HW287089   0.279   0.107   4.164 -0.3477  0.3042 -0.0382
28258SOL     OW87090   2.688   6.595   7.344  0.3659 -0.1746  0.2938
28258SOL    HW187091   2.651   6.681   7.361  2.1377  0.4463  1.2317
28258SOL    HW287092   2.783   6.608   7.346  0.7199 -2.3855  1.8902
28259SOL     OW87093   4.533   6.692   9.168 -0.0221 -0.5821  0.2155
28259SOL    HW187094   4.523   6.597   9.162  0.6132 -0.6736  0.5104
28259SOL    HW287095   4.603   6.712   9.106  0.0150 -0.3381  0.3381
28260SOL     OW87096   7.283   9.009   7.311 -0.1165  0.1283  0.0027
28260SOL    HW187097   7.363   8.960   7.293 -0.7633 -0.4966 -1.3224
28260SOL    HW287098   7.313   9.097   7.330  0.8539  0.2479 -1.7878
28261SOL     OW87099   8.437   6.864   1.828  0.0011  0.2660  0.2312
28261SOL    HW187100   8.388   6.921   1.888 -2.5970 -0.7014 -0.8508
28261SOL    HW287101   8.517   6.913   1.809 -0.5531  1.9955  2.0034
28262SOL     OW87102   5.623   6.873   5.677 -0.2276 -0.0988 -0.0948
28262SOL    HW187103   5.562   6.822   5.730 -1.4025 -0.0160 -1.3396
28262SOL    HW287104   5.585   6.961   5.675 -0.0891 -0.0546 -0.9188
28263SOL     OW87105   3.704   2.942   3.014  0.5479 -0.1308  0.1115
28263SOL    HW187106   3.637   3.009   3.027  1.5971  1.4433 -1.9697
28263SOL    HW287107   3.771   2.985   2.961  1.2133 -2.8726 -1.4550
28264SOL     OW87108   4.627   0.833   1.312 -0.0538 -0.0511 -0.3471
28264SOL    HW187109   4.682   0.876   1.246  1.2815 -2.0841 -0.6694
28264SOL    HW287110   4.625   0.741   1.285 -0.3675 -0.7489  1.8315
28265SOL     OW87111   1.336   9.501  10.546  0.3071  0.6632  0.2758
28265SOL    HW187112   1.282   9.442  10.598  2.9239 -0.5949  1.7998
28265SOL    HW287113   1.337   9.583  10.595 -1.3876  1.2320 -0.5794
28266SOL     OW87114   0.048   6.475   5.844  0.5215 -0.3418  0.1407
28266SOL    HW187115   0.017   6.486   5.754 -1.2809  0.1796  0.7874
28266SOL    HW287116   0.128   6.527   5.849 -1.1880  2.5581 -0.2622
28267SOL     OW87117   6.868  10.508   4.281 -0.0034 -0.4563  0.3568
28267SOL    HW187118   6.851  10.601   4.299  0.7949 -0.3377  0.5517
28267SOL    HW287119   6.882  10.504   4.187 -0.1138 -0.3937  0.3372
28268SOL     OW87120   8.541   1.796   1.829 -0.9923  0.4692 -0.3027
28268SOL    HW187121   8.453   1.764   1.846 -1.0022  0.2920 -0.6781
28268SOL    HW287122   8.529   1.863   1.761 -0.8113  0.2753 -0.5257
28269SOL     OW87123   6.326   8.468   0.981 -0.3295  0.2574  0.4064
28269SOL    HW187124   6.326   8.542   0.921 -0.5742  0.5603  0.7762
28269SOL    HW287125   6.233   8.453   1.000 -0.3555 -0.7809 -0.4434
28270SOL     OW87126   1.536   4.292   0.742  0.4763  0.7497  0.1448
28270SOL    HW187127   1.625   4.259   0.750  0.3322  0.5697  1.0627
28270SOL    HW287128   1.514   4.324   0.829 -1.2307 -1.4353  0.5843
28271SOL     OW87129   8.903   0.234   3.410 -0.4035 -0.1355  0.4838
28271SOL    HW187130   8.836   0.169   3.391  0.0743 -0.0103 -1.8758
28271SOL    HW287131   8.855   0.317   3.421 -0.6231  0.2683 -2.7533
28272SOL     OW87132   7.892   9.574   9.617  0.3196  0.1976 -0.5753
28272SOL    HW187133   7.938   9.490   9.623  0.9443  0.3570 -2.4331
28272SOL    HW287134   7.957   9.639   9.643 -0.3914  0.1173  1.6313
28273SOL     OW87135  10.084   5.898   7.623  0.0409 -0.1972  0.3155
28273SOL    HW187136  10.103   5.970   7.563  0.4975 -0.7165 -0.1758
28273SOL    HW287137  10.170   5.875   7.659 -0.1512 -0.2767  0.7264
28274SOL     OW87138   0.694   5.939   4.949 -0.1894 -0.2826 -0.5569
28274SOL    HW187139   0.784   5.964   4.926 -0.4056 -0.6520 -1.8512
28274SOL    HW287140   0.640   6.009   4.913 -0.3696  0.6449  1.3706
28275SOL     OW87141   7.905   8.432   4.162 -0.6506 -0.3082  0.7935
28275SOL    HW187142   7.982   8.378   4.147 -1.1019 -0.9231  0.6593
28275SOL    HW287143   7.878   8.413   4.252 -1.4536 -1.1615  0.3941
28276SOL     OW87144   4.210   7.899   2.691  0.2406 -0.1714 -0.2275
28276SOL    HW187145   4.207   7.946   2.607 -0.7348 -1.5437 -1.0008
28276SOL    HW287146   4.190   7.808   2.668  0.7094 -0.7196  1.4110
28277SOL     OW87147   2.123   1.866   9.366  1.0338  0.4267 -0.5184
28277SOL    HW187148   2.177   1.788   9.354 -0.8031 -0.5868 -2.8215
28277SOL    HW287149   2.057   1.841   9.430  1.6546  0.8123  0.2974
28278SOL     OW87150   9.301   2.011   9.435  0.1712 -0.2730 -0.5637
28278SOL    HW187151   9.325   2.102   9.415  1.5329 -0.8852 -1.9700
28278SOL    HW287152   9.206   2.012   9.443  0.2919  1.5874  1.2781
28279SOL     OW87153   2.182   3.709   9.483 -0.2976  0.3520  0.1222
28279SOL    HW187154   2.194   3.715   9.577 -0.3569  1.1360  0.0879
28279SOL    HW287155   2.225   3.627   9.458  1.0507  0.8734  0.6279
28280SOL     OW87156   4.370   4.303   4.223 -0.3606 -0.1723 -0.0711
28280SOL    HW187157   4.431   4.268   4.288 -1.0393 -1.3869 -0.0670
28280SOL    HW287158   4.320   4.227   4.193 -2.5525  0.9228  0.6350
28281SOL     OW87159   8.518  10.285   1.558 -0.1014  0.6485  0.0574
28281SOL    HW187160   8.578  10.213   1.578 -1.2009 -0.3477 -0.1504
28281SOL    HW287161   8.576  10.360   1.543  1.0920 -0.2741 -0.1379
28282SOL     OW87162   4.031   3.812   9.931 -0.2600 -0.2280  0.1088
28282SOL    HW187163   4.041   3.749   9.860  0.1357  1.1330 -1.0967
28282SOL    HW287164   4.114   3.860   9.932 -0.8998  0.9001  0.3505
28283SOL     OW87165   4.132   3.483   1.509 -0.1901 -0.2913  0.1453
28283SOL    HW187166   4.161   3.401   1.468  1.9330 -0.4390  1.7763
28283SOL    HW287167   4.065   3.456   1.571  0.0395 -0.7345  0.2076
28284SOL     OW87168   4.344   2.714   1.909 -0.3579  0.1049  0.2793
28284SOL    HW187169   4.403   2.727   1.984  0.6355 -0.7213 -0.3362
28284SOL    HW287170   4.352   2.621   1.888 -0.0342  0.4706 -1.3303
28285SOL     OW87171   5.496   4.027   5.744 -0.2019 -0.4688  0.1284
28285SOL    HW187172   5.470   3.940   5.773 -2.2020 -0.7255 -2.0705
28285SOL    HW287173   5.547   4.011   5.665  0.1623  0.3231  0.1966
28286SOL     OW87174   5.747   8.627   6.516  0.6649 -0.4532  0.0672
28286SOL    HW187175   5.738   8.585   6.602  0.9262  1.1346  0.9116
28286SOL    HW287176   5.842   8.629   6.501  0.6731  0.0683  0.1724
28287SOL     OW87177   1.729   6.029   2.119  0.1869  0.3625  0.5883
28287SOL    HW187178   1.782   5.950   2.131  0.1889  0.3811  0.6999
28287SOL    HW287179   1.739   6.050   2.026  1.0139  0.8069  0.7584
28288SOL     OW87180   6.349   3.861   7.213  0.3358 -0.3883 -0.2269
28288SOL    HW187181   6.332   3.899   7.127 -0.2445 -1.2196 -0.4886
28288SOL    HW287182   6.359   3.767   7.196  1.4791 -0.4065  0.4440
28289SOL     OW87183   0.838   3.260  10.067  0.6112 -0.0351  0.2407
28289SOL    HW187184   0.933   3.262  10.062  0.6291  0.8218  0.7603
28289SOL    HW287185   0.812   3.352  10.074 -0.3898 -0.0914 -1.9872
28290SOL     OW87186   2.882   5.900   1.710  0.3679  0.1646  0.6495
28290SOL    HW187187   2.972   5.927   1.689 -0.1910  1.6101 -0.0439
28290SOL    HW287188   2.881   5.806   1.696  1.5505  0.2598 -0.2110
28291SOL     OW87189   8.354   7.252   4.767 -0.2766  0.2196 -0.1574
28291SOL    HW187190   8.398   7.262   4.851  2.2868  0.9784 -1.4662
28291SOL    HW287191   8.373   7.333   4.719 -1.9006 -0.0605 -1.3861
28292SOL     OW87192   1.742   6.587   1.139 -0.4866 -0.1725  0.8410
28292SOL    HW187193   1.716   6.616   1.052 -2.6345  0.0161  1.4938
28292SOL    HW287194   1.699   6.648   1.199 -0.1623 -1.1002  2.0625
28293SOL     OW87195   1.544   0.447   3.416  0.3214 -0.3600  0.4600
28293SOL    HW187196   1.456   0.417   3.393  0.8582 -1.6929  0.0821
28293SOL    HW287197   1.602   0.400   3.357  1.5481 -2.1167  2.8825
28294SOL     OW87198   9.951   2.718   8.909 -0.4394 -0.5702  0.1665
28294SOL    HW187199   9.962   2.776   8.834 -2.8178  2.4400  1.8973
28294SOL    HW287200  10.018   2.651   8.898  1.3998  1.5311 -2.9219
28295SOL     OW87201   3.856   0.495   8.239 -0.1431  0.6698  0.2210
28295SOL    HW187202   3.882   0.522   8.327  1.1030  0.6767 -0.1321
28295SOL    HW287203   3.832   0.403   8.248  1.0446  0.3585  0.3743
28296SOL     OW87204   1.961   9.687   1.418  0.0711 -0.0116  0.2372
28296SOL    HW187205   1.886   9.741   1.444 -0.0626 -0.8647  1.7238
28296SOL    HW287206   1.929   9.638   1.342 -0.6123  0.2095  0.3719
28297SOL     OW87207   4.824   2.229   7.816  0.2019  0.1818  0.3976
28297SOL    HW187208   4.747   2.246   7.871  1.1267 -0.6499  2.0187
28297SOL    HW287209   4.863   2.316   7.803 -0.7088  0.5451  0.0095
28298SOL     OW87210   7.588   6.017   2.715 -0.4344  0.3722 -0.0536
28298SOL    HW187211   7.557   6.106   2.695 -0.3029  0.5909  0.6658
28298SOL    HW287212   7.679   6.030   2.741 -0.1339 -0.0980 -0.8602
28299SOL     OW87213   3.044   9.023   0.018 -0.1106  0.0447  0.3997
28299SOL    HW187214   3.094   8.944   0.039  0.0030 -0.1364 -0.5215
28299SOL    HW287215   3.015   9.056   0.103 -1.0032 -1.5401  0.7431
28300SOL     OW87216   5.053   4.589   7.855 -0.2250 -0.3917 -0.3988
28300SOL    HW187217   4.964   4.580   7.823 -0.0086  0.6525 -1.3279
28300SOL    HW287218   5.104   4.527   7.802 -0.1836 -0.0506 -0.7573
28301SOL     OW87219   2.047   0.175   4.201 -0.2218  0.8189  0.4379
28301SOL    HW187220   1.976   0.110   4.205  1.0018 -0.8331 -2.1438
28301SOL    HW287221   2.004   0.255   4.173 -1.3617  0.3772  0.8636
28302SOL     OW87222   3.382   9.168   2.441 -0.5583 -0.4076  0.6410
28302SOL    HW187223   3.398   9.149   2.349  2.1525  0.8466  0.7528
28302SOL    HW287224   3.289   9.190   2.446 -0.8380 -0.8548 -1.7160
28303SOL     OW87225   5.221   2.436   4.268 -0.3599  0.7857  0.3672
28303SOL    HW187226   5.280   2.498   4.225 -0.3683  1.3116  1.1070
28303SOL    HW287227   5.211   2.469   4.357 -1.3900  0.4324  0.3971
28304SOL     OW87228   9.944   2.095   5.122  0.2561 -0.3393 -0.3624
28304SOL    HW187229  10.027   2.073   5.079  0.0155 -0.8350 -0.5765
28304SOL    HW287230   9.879   2.090   5.052  0.2292  1.4471 -0.5231
28305SOL     OW87231   6.261   4.328   5.326  0.2856 -0.1480 -0.1367
28305SOL    HW187232   6.257   4.344   5.420  0.8310 -1.5494  0.1481
28305SOL    HW287233   6.212   4.401   5.287 -1.1817 -0.3105  1.3104
28306SOL     OW87234   9.535   8.720   1.861 -0.0060 -0.2039 -0.1436
28306SOL    HW187235   9.512   8.744   1.771  1.8119  1.5451 -0.2136
28306SOL    HW287236   9.615   8.668   1.852 -0.0943 -0.4468  0.4351
28307SOL     OW87237   6.830   0.613   3.180 -0.5649 -0.4894 -0.3261
28307SOL    HW187238   6.784   0.659   3.250 -1.5717  0.7565 -1.7358
28307SOL    HW287239   6.796   0.524   3.183  0.9340 -1.0781  2.0352
28308SOL     OW87240   4.842   7.936   2.285 -0.1456 -0.3124  0.5189
28308SOL    HW187241   4.888   8.008   2.243  0.6794 -0.5407  0.9850
28308SOL    HW287242   4.770   7.914   2.226 -1.4492  1.9730  1.1498
28309SOL     OW87243   2.974   3.299   7.744 -0.3958 -0.0310 -0.2097
28309SOL    HW187244   2.902   3.257   7.697  0.7338 -2.0169 -0.2876
28309SOL    HW287245   3.041   3.315   7.677  1.3081 -3.0635  0.5974
28310SOL     OW87246  10.353   1.691   0.284 -0.1289 -0.1325 -0.2588
28310SOL    HW187247  10.345   1.689   0.379 -0.6301  0.4849 -0.2842
28310SOL    HW287248  10.315   1.775   0.258 -0.4307 -0.4999 -1.0437
28311SOL     OW87249   5.672   8.318   6.348 -0.0850  0.7960 -0.1504
28311SOL    HW187250   5.762   8.314   6.383 -0.4801 -0.6799  0.7871
28311SOL    HW287251   5.649   8.411   6.353  1.4797  1.2418 -0.6611
28312SOL     OW87252   0.627   2.565   0.339  0.8964 -0.0875  0.5067
28312SOL    HW187253   0.577   2.644   0.360  0.7053 -0.1148  0.1579
28312SOL    HW287254   0.562   2.498   0.320  1.0594 -0.1336  0.0901
28313SOL     OW87255   0.419   2.009   0.686  0.2950 -0.3259 -0.0759
28313SOL    HW187256   0.328   2.038   0.693  0.8128  1.3992  0.1577
28313SOL    HW287257   0.441   2.021   0.594  0.3908 -0.3874 -0.0608
28314SOL     OW87258   4.995   8.696   7.908  0.2004 -0.1319  0.3149
28314SOL    HW187259   4.997   8.677   7.815  0.8061  0.0326  0.2944
28314SOL    HW287260   5.019   8.614   7.951  0.0979 -0.1586  0.3231
28315SOL     OW87261   9.926   8.073   9.990 -1.1193 -0.0886  0.2233
28315SOL    HW187262   9.879   8.130  10.051 -0.5389 -0.5578  1.1282
28315SOL    HW287263   9.926   7.988  10.033 -1.9266 -0.7735 -1.0932
28316SOL     OW87264   1.827   0.836  10.327  0.0360 -0.1211  0.4833
28316SOL    HW187265   1.808   0.743  10.343  1.0531 -0.2817  0.8217
28316SOL    HW287266   1.838   0.841  10.232 -1.0946 -0.1223  0.3357
28317SOL     OW87267   3.504   6.775   5.224 -0.5177  0.5407  0.2621
28317SOL    HW187268   3.528   6.702   5.281 -1.5690  0.6737  0.8966
28317SOL    HW287269   3.420   6.750   5.186 -0.9680  1.4577  0.5995
28318SOL     OW87270   8.156   1.412   4.199 -0.6978  0.1893 -0.2159
28318SOL    HW187271   8.244   1.390   4.232 -0.8780 -0.0674  0.1070
28318SOL    HW287272   8.146   1.358   4.120 -1.1061 -0.8617  0.5259
28319SOL     OW87273   3.633   7.647   3.644  0.2075 -0.5048  0.2088
28319SOL    HW187274   3.656   7.662   3.736  1.2186  1.2817 -0.2810
28319SOL    HW287275   3.660   7.557   3.627 -0.5614 -1.0724  1.7985
28320SOL     OW87276   8.832   5.056   8.250  0.2211  0.3660  0.0833
28320SOL    HW187277   8.916   5.021   8.221  0.2269 -0.7512  1.3283
28320SOL    HW287278   8.782   5.069   8.170  1.0946 -0.3000 -0.5867
28321SOL     OW87279   8.502   9.150   7.912 -0.1889  0.4898 -0.6877
28321SOL    HW187280   8.471   9.061   7.896  0.8366 -0.1645  0.7414
28321SOL    HW287281   8.493   9.194   7.828  0.5579 -1.3770 -1.8105
28322SOL     OW87282   5.000   8.949   8.123 -0.1568 -0.7905  0.3591
28322SOL    HW187283   5.008   8.864   8.079 -0.6661 -0.4777 -0.3554
28322SOL    HW287284   4.928   8.936   8.185 -1.4048 -0.4112 -0.9485
28323SOL     OW87285  10.145   2.975   4.089  0.1600 -0.3779 -0.6578
28323SOL    HW187286  10.184   3.061   4.108 -0.7771 -0.0601 -0.1308
28323SOL    HW287287  10.216   2.913   4.106  0.2714  0.1396  0.9390
28324SOL     OW87288  10.238   4.810   4.083  0.2079 -0.0513  0.4035
28324SOL    HW187289  10.323   4.844   4.110  0.6918 -0.8577 -0.0760
28324SOL    HW287290  10.175   4.857   4.137  1.0552 -0.5757  1.9031
28325SOL     OW87291   0.767  10.294   1.572 -0.2157 -0.5820 -0.1106
28325SOL    HW187292   0.674  10.290   1.552  0.0564 -1.5574 -1.2803
28325SOL    HW287293   0.771  10.339   1.657 -1.5946  1.4401 -1.0450
28326SOL     OW87294   0.594   2.972   7.724 -0.0626  0.9052  0.6389
28326SOL    HW187295   0.622   3.059   7.751  0.2178  0.8245  0.6074
28326SOL    HW287296   0.564   2.983   7.634  1.0292  0.7513  0.2439
28327SOL     OW87297   2.296   2.568   7.557  0.5579  0.8461  0.0397
28327SOL    HW187298   2.301   2.618   7.476 -1.1832 -0.4662 -0.9345
28327SOL    HW287299   2.387   2.557   7.584  1.4454 -1.1304 -3.2877
28328SOL     OW87300   1.842   8.946   8.729  0.3916 -0.0637 -0.3070
28328SOL    HW187301   1.914   9.008   8.745  0.1695  0.4957 -1.3535
28328SOL    HW287302   1.885   8.860   8.728  0.9271  0.1928 -0.1889
28329SOL     OW87303   8.947   6.758   3.160  0.0680  0.3204 -0.1122
28329SOL    HW187304   8.908   6.694   3.220 -0.2847  1.9258  1.4504
28329SOL    HW287305   9.013   6.708   3.111 -0.5184 -1.3317  0.7074
28330SOL     OW87306  10.426   9.495   9.667 -0.1237  0.1526  0.5416
28330SOL    HW187307  10.402   9.556   9.598 -1.1880 -0.3571  0.4359
28330SOL    HW287308  10.344   9.480   9.715 -0.4319 -2.7541 -0.6840
28331SOL     OW87309   6.107   3.196   8.663  0.5981 -0.2704  0.8173
28331SOL    HW187310   6.060   3.263   8.615  0.0823 -0.5425  0.9335
28331SOL    HW287311   6.173   3.164   8.602  1.5943  1.1041  1.1243
28332SOL     OW87312   6.376   3.986   5.007  0.2069 -0.3029  0.4542
28332SOL    HW187313   6.340   4.041   5.076 -0.1140 -0.2071  0.2137
28332SOL    HW287314   6.319   4.002   4.932 -0.5078 -1.7060  0.6635
28333SOL     OW87315   4.990  10.383   3.857 -0.3360  0.1285  0.2181
28333SOL    HW187316   5.011  10.291   3.843 -0.2034  0.5619 -3.1819
28333SOL    HW287317   4.899  10.392   3.826 -0.8666  0.9189  1.8781
28334SOL     OW87318   5.109   9.446   9.344 -0.0727 -0.2613  0.3368
28334SOL    HW187319   5.089   9.388   9.271  1.8978 -1.2313  0.4987
28334SOL    HW287320   5.203   9.435   9.359  0.0186  1.6055  1.5771
28335SOL     OW87321   6.679   8.185   8.344 -0.3222 -0.2239 -0.2498
28335SOL    HW187322   6.697   8.162   8.436  0.8080 -0.4799 -0.5209
28335SOL    HW287323   6.619   8.116   8.314 -2.4061  1.0170  0.8656
28336SOL     OW87324   7.097   6.945   4.814 -0.0761  0.2165  0.4080
28336SOL    HW187325   7.186   6.955   4.781 -0.3257  1.3075  0.0207
28336SOL    HW287326   7.075   7.031   4.851 -0.5335 -0.3883  1.6199
28337SOL     OW87327   3.592   8.520   1.462  0.1697 -0.4225  0.0654
28337SOL    HW187328   3.585   8.615   1.461 -1.9226 -0.5090  0.8529
28337SOL    HW287329   3.536   8.491   1.390 -0.8661 -1.0737  1.0890
28338SOL     OW87330   3.291   0.064   0.798  0.0127 -0.0034  0.1227
28338SOL    HW187331   3.386   0.072   0.793  0.1132 -1.1514 -0.1203
28338SOL    HW287332   3.259   0.154   0.793  0.9781  0.2720 -1.8803
28339SOL     OW87333   4.379   8.341   7.977 -0.5499 -0.1634 -0.0649
28339SOL    HW187334   4.317   8.303   7.913  0.7127  0.3969 -1.6873
28339SOL    HW287335   4.337   8.422   8.005 -0.6371  0.1531 -1.0609
28340SOL     OW87336  10.033   1.743   0.418 -0.0098 -0.0321  0.1874
28340SOL    HW187337  10.019   1.736   0.512 -0.5580 -0.0395  0.1115
28340SOL    HW287338  10.095   1.814   0.408  1.5390 -1.2566  0.6650
28341SOL     OW87339   7.932   8.184   1.133 -0.1990 -0.1047 -0.3445
28341SOL    HW187340   7.942   8.275   1.158  0.5404 -0.2910  0.0472
28341SOL    HW287341   7.943   8.135   1.214 -2.4926 -0.4609 -0.1681
28342SOL     OW87342   8.343   3.010   4.671  0.6282 -0.0544 -0.5242
28342SOL    HW187343   8.267   2.955   4.653  0.2117 -0.0990  1.1279
28342SOL    HW287344   8.329   3.041   4.761  2.7791 -0.4016 -0.0128
28343SOL     OW87345   9.833   7.253   4.198 -0.0703 -0.0741 -0.9702
28343SOL    HW187346   9.865   7.197   4.127 -1.4674  0.9502 -2.4901
28343SOL    HW287347   9.896   7.325   4.201 -0.7433  0.6077 -2.1916
28344SOL     OW87348   0.813   1.453   1.875  0.0063  0.8507 -0.1947
28344SOL    HW187349   0.749   1.516   1.909 -0.3133  0.0836  0.6904
28344SOL    HW287350   0.770   1.368   1.885  0.1493  0.5229 -2.0205
28345SOL     OW87351   4.874   4.218   7.134 -0.1264  0.0657 -0.1022
28345SOL    HW187352   4.782   4.240   7.147 -0.0246 -0.4918  2.0920
28345SOL    HW287353   4.875   4.123   7.123  0.1959  0.0500  0.0372
28346SOL     OW87354   8.078   8.040   0.777 -0.1172  0.2509 -0.1592
28346SOL    HW187355   7.999   8.001   0.815 -1.0880  1.4841 -0.8172
28346SOL    HW287356   8.047   8.082   0.696  0.3428  4.1602  1.4734
28347SOL     OW87357  10.581   6.142   9.182  0.4098 -0.0374  0.1127
28347SOL    HW187358  10.642   6.209   9.153 -1.0120  0.5087 -1.8288
28347SOL    HW287359  10.510   6.190   9.224  0.0084 -0.4317 -0.1093
28348SOL     OW87360  10.565   0.455   7.097  0.5320 -0.2479  0.2135
28348SOL    HW187361  10.555   0.409   7.014 -0.6590 -0.0418  0.2256
28348SOL    HW287362  10.488   0.429   7.148  0.6727  0.5032  0.8277
28349SOL     OW87363   5.615   5.574   5.274 -0.2198  0.5643  0.3952
28349SOL    HW187364   5.642   5.564   5.365  1.9679 -1.2616 -0.3489
28349SOL    HW287365   5.545   5.510   5.263 -0.2209  0.5090  0.7188
28350SOL     OW87366   0.373   4.428  10.136 -0.3756  0.2150  0.4146
28350SOL    HW187367   0.462   4.430  10.101  0.0423 -1.3183  1.2838
28350SOL    HW287368   0.317   4.416  10.059  0.0454  2.1175 -0.2423
28351SOL     OW87369   5.273   5.462   9.576 -0.0445  0.0029  0.0332
28351SOL    HW187370   5.303   5.531   9.635 -1.5416  1.7815 -1.1464
28351SOL    HW287371   5.339   5.458   9.508  0.3133 -0.0963  0.3848
28352SOL     OW87372   2.649   9.142   2.487 -0.0147  0.7637 -0.4677
28352SOL    HW187373   2.720   9.168   2.428 -0.3632 -0.0327 -1.2652
28352SOL    HW287374   2.585   9.213   2.482 -0.0708  0.6713 -1.1197
28353SOL     OW87375   2.065   9.554   6.008  0.2840 -0.4426  0.4576
28353SOL    HW187376   2.109   9.497   5.945  1.0073  1.7948 -1.2029
28353SOL    HW287377   1.974   9.558   5.977  0.2845 -0.5103  0.4472
28354SOL     OW87378   8.935   4.131   2.881  0.5137 -0.2183 -0.1221
28354SOL    HW187379   9.004   4.065   2.873 -1.6223 -2.6489  0.2563
28354SOL    HW287380   8.907   4.125   2.973 -0.9221 -0.0905 -0.5242
28355SOL     OW87381   3.726   8.630   5.467  0.4191  0.2420 -0.9922
28355SOL    HW187382   3.762   8.570   5.532  0.8793 -0.9118 -2.2749
28355SOL    HW287383   3.713   8.712   5.515 -0.1086 -0.8185  0.7705
28356SOL     OW87384   4.578   3.466   9.902  0.0372 -0.2365 -0.3796
28356SOL    HW187385   4.620   3.383   9.879  0.3598  0.0948 -1.0034
28356SOL    HW287386   4.486   3.444   9.915  0.0686 -0.6433 -0.8256
28357SOL     OW87387   1.578   8.129   4.965 -0.0827  0.2063  0.0737
28357SOL    HW187388   1.492   8.087   4.974 -0.3733  1.0206  1.4779
28357SOL    HW287389   1.588   8.143   4.871 -2.7311  2.5208  0.0078
28358SOL     OW87390  10.376   3.769  10.377 -0.1279 -0.3645  0.5457
28358SOL    HW187391  10.323   3.837  10.417  0.7148 -0.7770  2.4917
28358SOL    HW287392  10.313   3.701  10.351 -0.8127  0.4606  0.0073
28359SOL     OW87393   2.601   0.841  10.525 -0.2346 -0.4345 -0.0036
28359SOL    HW187394   2.525   0.795  10.489  0.3407 -1.9231  0.5876
28359SOL    HW287395   2.672   0.777  10.520  0.4337  0.1359  1.5287
28360SOL     OW87396   6.034   4.470   6.598 -0.1744 -0.4063 -0.7808
28360SOL    HW187397   6.070   4.552   6.631 -1.3630 -0.1386 -0.0941
28360SOL    HW287398   6.003   4.491   6.510 -1.3793  0.1750 -0.2461
28361SOL     OW87399   8.468   6.023   9.483  0.0820 -0.1148  0.5980
28361SOL    HW187400   8.448   5.962   9.553  0.6303 -1.0646 -0.0609
28361SOL    HW287401   8.505   6.099   9.527 -0.2942 -0.3833  1.3936
28362SOL     OW87402   6.824   3.391   0.968 -0.3756 -0.3043 -0.4101
28362SOL    HW187403   6.741   3.392   0.919 -0.1390  1.9477 -0.8605
28362SOL    HW287404   6.882   3.336   0.916 -1.2549 -1.0188 -0.6599
28363SOL     OW87405   2.041   7.741   4.656 -0.0340 -0.3569 -0.0724
28363SOL    HW187406   2.058   7.803   4.727  0.0308  0.0924 -0.4718
28363SOL    HW287407   1.969   7.780   4.607  0.9691  0.1538 -1.1867
28364SOL     OW87408   1.914   6.675   7.634 -0.0071 -0.5098 -0.5235
28364SOL    HW187409   1.868   6.616   7.693 -0.7547  0.3423 -0.2364
28364SOL    HW287410   1.958   6.738   7.691  0.9143 -0.8570 -0.8213
28365SOL     OW87411   3.370   7.914   1.343  0.1246 -0.0884 -0.3937
28365SOL    HW187412   3.357   7.987   1.404 -0.3309  0.4270 -1.0941
28365SOL    HW287413   3.413   7.846   1.395 -3.1621 -0.9623  1.4470
28366SOL     OW87414   2.664   6.178   8.791  0.1319  0.4381 -0.2426
28366SOL    HW187415   2.625   6.265   8.795  0.7436  0.7397 -0.7052
28366SOL    HW287416   2.589   6.118   8.794 -0.2621  0.9619  0.5054
28367SOL     OW87417   4.983   6.592   9.027  0.3944 -0.5075 -0.0287
28367SOL    HW187418   4.990   6.552   9.114 -1.4303 -0.4073  0.1994
28367SOL    HW287419   4.917   6.539   8.982  1.0220 -0.3076 -1.2258
28368SOL     OW87420   0.502   5.862   0.972 -0.2116 -0.2129  0.2039
28368SOL    HW187421   0.427   5.817   0.934  0.4079 -0.0435 -1.2838
28368SOL    HW287422   0.513   5.822   1.058 -1.4032 -0.9061  0.0572
28369SOL     OW87423   5.866   3.092   9.061  0.7308 -0.0604  0.4255
28369SOL    HW187424   5.895   3.026   9.124  0.1302 -0.6648  0.0786
28369SOL    HW287425   5.946   3.118   9.016  0.8607 -1.1301  0.0220
28370SOL     OW87426  10.242   6.930   0.972 -0.0405  0.2941  0.2683
28370SOL    HW187427  10.274   6.856   0.921 -1.6378 -0.0521 -0.3106
28370SOL    HW287428  10.253   6.902   1.063 -1.6293 -1.1797  0.0674
28371SOL     OW87429   8.257   5.095   9.525  0.0244  0.2780 -0.5684
28371SOL    HW187430   8.224   5.111   9.437  0.4939  0.6700 -0.6767
28371SOL    HW287431   8.239   5.002   9.541  2.0833 -0.4195 -1.9944
28372SOL     OW87432  10.103   7.467   3.413 -0.1190 -0.2816  0.7191
28372SOL    HW187433  10.014   7.433   3.405  0.3563 -1.3609 -0.2049
28372SOL    HW287434  10.127   7.492   3.323  0.8597 -0.9231  0.7928
28373SOL     OW87435   4.142   5.814   2.431  0.3595 -0.5065  0.1941
28373SOL    HW187436   4.098   5.800   2.347  0.1817 -1.0450  0.3677
28373SOL    HW287437   4.132   5.908   2.449 -2.4324 -0.8630  1.1254
28374SOL     OW87438   9.796   3.817   8.469  0.1347 -0.2517 -0.1236
28374SOL    HW187439   9.785   3.767   8.550 -1.8156  0.6708  0.2540
28374SOL    HW287440   9.809   3.907   8.499 -0.0225  0.0134 -0.8266
28375SOL     OW87441   0.191   0.515  10.432 -0.2990  0.5836 -0.1399
28375SOL    HW187442   0.097   0.500  10.423 -0.0673 -0.1704 -1.7776
28375SOL    HW287443   0.222   0.523  10.341  1.3179  0.1219  0.3405
28376SOL     OW87444   4.041   9.338   3.022  0.5701 -0.1422 -0.2913
28376SOL    HW187445   4.081   9.338   2.935 -2.4752  1.0261 -1.8405
28376SOL    HW287446   3.998   9.252   3.028  1.6373 -0.6359  0.5466
28377SOL     OW87447   6.490   4.581   7.032  0.5027  0.1468 -0.4755
28377SOL    HW187448   6.567   4.590   7.088 -0.6804 -0.8598  1.4193
28377SOL    HW287449   6.469   4.487   7.034 -2.7156  0.7178  1.9633
28378SOL     OW87450   4.872   5.517   7.747  0.0493 -0.1009  0.1438
28378SOL    HW187451   4.862   5.525   7.652 -0.9725  1.5171  0.3492
28378SOL    HW287452   4.807   5.578   7.783  1.2250  0.1895  1.8662
28379SOL     OW87453   2.791   9.396   1.110 -0.1260 -0.3590  0.4284
28379SOL    HW187454   2.764   9.408   1.019 -2.5556 -1.4441  0.9260
28379SOL    HW287455   2.769   9.478   1.153 -0.6043 -0.4520  0.3693
28380SOL     OW87456  10.174   4.098   0.923 -0.1640  0.1353  0.5129
28380SOL    HW187457  10.202   4.186   0.949  1.0674 -0.6113  1.8557
28380SOL    HW287458  10.171   4.101   0.827  0.8118  1.3720  0.5025
28381SOL     OW87459   9.629   5.253   9.032  0.1969 -0.0297  0.2129
28381SOL    HW187460   9.679   5.294   8.961 -0.1269 -1.2785 -0.7674
28381SOL    HW287461   9.643   5.311   9.107 -0.8349  2.3110 -1.2656
28382SOL     OW87462   7.499   8.685   7.465 -0.6695 -0.7955  0.0699
28382SOL    HW187463   7.489   8.726   7.379 -2.4368 -1.1586  0.0587
28382SOL    HW287464   7.427   8.623   7.470 -0.5556 -0.8281  1.7973
28383SOL     OW87465   4.857   6.063   9.322 -0.2428  0.3751  0.4232
28383SOL    HW187466   4.861   5.971   9.296 -1.3782  0.9687 -2.1282
28383SOL    HW287467   4.811   6.062   9.406  0.6122 -1.4143  0.9235
28384SOL     OW87468   4.652   6.513   9.975  0.0589  0.1315  0.2602
28384SOL    HW187469   4.575   6.548   9.930 -0.7836 -0.0739  1.5041
28384SOL    HW287470   4.668   6.429   9.932 -0.7972 -0.1112  0.3855
28385SOL     OW87471   1.407   1.828   2.527  0.0712 -0.3440  0.0210
28385SOL    HW187472   1.341   1.893   2.503  0.8103  0.1076 -0.8555
28385SOL    HW287473   1.404   1.824   2.623 -0.7198  0.1932  0.0244
28386SOL     OW87474   1.652  10.192  10.401 -0.4716 -0.6213 -0.1225
28386SOL    HW187475   1.682  10.219  10.488 -1.7699  0.8806 -0.0940
28386SOL    HW287476   1.726  10.211  10.343  0.1246 -0.9032  0.5295
28387SOL     OW87477   8.272   0.515   6.279 -0.0254 -0.2573 -0.3609
28387SOL    HW187478   8.195   0.514   6.335 -0.3619 -2.3038 -0.8011
28387SOL    HW287479   8.328   0.583   6.318 -1.6430  0.6625  0.4706
28388SOL     OW87480   6.718   3.064   1.372 -0.0557 -0.3452  0.5972
28388SOL    HW187481   6.774   3.120   1.318 -0.1115 -2.7287 -2.1425
28388SOL    HW287482   6.641   3.119   1.391  0.5419  1.0011 -0.6783
28389SOL     OW87483  10.266   2.892   2.884 -0.2292 -0.5683  0.2989
28389SOL    HW187484  10.262   2.852   2.971 -1.5544 -1.6585 -0.2309
28389SOL    HW287485  10.330   2.838   2.837  1.9894  1.1895  1.1039
28390SOL     OW87486   1.722   1.210   0.970 -0.0762 -0.2994 -0.6306
28390SOL    HW187487   1.815   1.209   0.948 -0.3776 -0.5493 -1.9523
28390SOL    HW287488   1.712   1.139   1.034  0.6935 -0.0356 -0.2021
28391SOL     OW87489  10.187   3.613   4.383 -0.4122 -0.0281  0.1165
28391SOL    HW187490  10.277   3.608   4.352  0.1066  1.7629  1.1572
28391SOL    HW287491  10.187   3.688   4.443 -2.3924 -0.5484  0.8323
28392SOL     OW87492   6.812   1.672   3.679 -0.8171  0.0177  0.0375
28392SOL    HW187493   6.819   1.673   3.584 -1.0360 -0.1378  0.0209
28392SOL    HW287494   6.871   1.601   3.706  0.2683  0.9146  0.1016
28393SOL     OW87495   9.998   7.971   8.912  0.8759  0.4251 -0.4461
28393SOL    HW187496   9.953   7.896   8.875  0.0651  0.0811  1.1471
28393SOL    HW287497  10.014   8.029   8.837 -1.8684  0.3829 -1.1718
28394SOL     OW87498   2.093   3.397   1.105 -0.0328 -0.0770  0.6089
28394SOL    HW187499   2.129   3.321   1.060  1.0354  0.5569  0.3542
28394SOL    HW287500   2.150   3.410   1.181  0.0307  0.6810  0.4419
28395SOL     OW87501   9.569   6.792   3.846 -0.1610  0.6363  0.3609
28395SOL    HW187502   9.567   6.834   3.932 -1.5162  1.1518  0.0923
28395SOL    HW287503   9.598   6.703   3.864  0.8292  1.1026  1.1806
28396SOL     OW87504   0.342   2.857   9.792  0.7612 -0.8145 -0.1583
28396SOL    HW187505   0.341   2.798   9.868  2.5100  1.0447  1.4608
28396SOL    HW287506   0.250   2.864   9.766  0.2509 -2.4951  0.9882
28397SOL     OW87507   2.002   2.548   4.231  0.4187 -0.3199 -0.4680
28397SOL    HW187508   2.059   2.491   4.180  0.6901  0.7173 -1.3681
28397SOL    HW287509   2.056   2.623   4.254  0.4243 -0.9542  1.7732
28398SOL     OW87510   8.940   3.584   1.309 -0.8232  0.1489 -0.4479
28398SOL    HW187511   9.021   3.600   1.357 -0.0860 -1.1159 -1.1940
28398SOL    HW287512   8.964   3.596   1.217 -0.9464 -1.9910 -0.8310
28399SOL     OW87513   4.333   0.151   9.170  0.0632 -0.2222 -0.1129
28399SOL    HW187514   4.289   0.115   9.247 -0.8738  1.3988  0.1658
28399SOL    HW287515   4.263   0.197   9.122  1.1392  1.1118 -0.4665
28400SOL     OW87516   6.551   6.803   2.340  0.5159 -0.5539 -0.4845
28400SOL    HW187517   6.520   6.892   2.329  1.6467 -0.1762 -0.7512
28400SOL    HW287518   6.493   6.750   2.284  0.0610  0.0469 -0.5893
28401SOL     OW87519   9.444   4.643   8.289  0.1069 -0.6074  0.8278
28401SOL    HW187520   9.463   4.558   8.248 -1.3587 -1.1525  1.2278
28401SOL    HW287521   9.452   4.626   8.383  0.1259 -0.2070  0.9003
28402SOL     OW87522   0.669   7.360   4.411 -0.1490 -0.4153  0.0430
28402SOL    HW187523   0.622   7.278   4.426 -0.4034 -0.0388  1.4604
28402SOL    HW287524   0.606   7.415   4.363 -1.0923 -0.0555  1.5898
28403SOL     OW87525   2.034   6.471   6.819  0.2160 -0.4232  0.1321
28403SOL    HW187526   2.118   6.459   6.863  0.1376  0.7515  0.6265
28403SOL    HW287527   1.972   6.490   6.890 -0.5975 -1.8035 -0.1672
28404SOL     OW87528   4.622   2.232   7.268 -0.4876 -0.1624 -0.0171
28404SOL    HW187529   4.598   2.324   7.254  0.7879  0.1064 -0.5447
28404SOL    HW287530   4.653   2.202   7.183  1.4602 -0.3413  0.7202
28405SOL     OW87531   2.639  10.041  10.579  0.1739  0.6318 -0.5005
28405SOL    HW187532   2.670  10.121  10.621 -1.1044  1.6785 -1.4783
28405SOL    HW287533   2.694   9.972  10.617 -0.7472  1.4791  2.7560
28406SOL     OW87534  10.543   9.358   0.610 -0.2482 -0.0654  0.3133
28406SOL    HW187535  10.588   9.279   0.639 -0.3935 -0.0665  0.5311
28406SOL    HW287536  10.613   9.413   0.574  0.1289  0.4525  1.7607
28407SOL     OW87537   0.993  10.549   7.687 -0.5630  0.0761 -0.4731
28407SOL    HW187538   1.053  10.614   7.649 -1.3019  2.8254  2.5661
28407SOL    HW287539   0.911  10.561   7.639 -1.1565  2.6654  1.0170
28408SOL     OW87540   1.602   9.275   5.556  0.0831  0.2148 -0.2874
28408SOL    HW187541   1.658   9.241   5.626 -2.3621 -0.1834  1.6397
28408SOL    HW287542   1.625   9.368   5.550  1.7128 -0.1680 -0.3966
28409SOL     OW87543   4.499   4.978   8.595 -0.5762  0.9152  0.2375
28409SOL    HW187544   4.512   5.058   8.545 -1.3159  0.7504 -0.2364
28409SOL    HW287545   4.554   4.989   8.672 -0.4832  1.7721  0.0618
28410SOL     OW87546   4.427   9.790   5.966 -0.5923  0.8784 -0.4013
28410SOL    HW187547   4.410   9.696   5.971  0.2445  0.6697 -1.2445
28410SOL    HW287548   4.382   9.818   5.887 -2.0744  1.4950  0.6101
28411SOL     OW87549   0.220   1.630   6.398  0.2713 -0.0353  0.2911
28411SOL    HW187550   0.165   1.557   6.427 -0.8892  1.3468  1.7274
28411SOL    HW287551   0.166   1.676   6.333  0.9651 -0.3580 -0.5423
28412SOL     OW87552   0.404   5.320   8.171 -0.6541 -0.1366  0.3839
28412SOL    HW187553   0.351   5.242   8.184 -0.8910  0.2224  1.6523
28412SOL    HW287554   0.381   5.350   8.082 -2.5529 -0.0138  0.8710
28413SOL     OW87555   2.400   6.767   9.663  1.0043 -0.5067  0.2065
28413SOL    HW187556   2.415   6.857   9.636  2.2447 -0.8236 -0.2226
28413SOL    HW287557   2.371   6.774   9.754 -3.6367  0.6157 -1.0851
28414SOL     OW87558   0.866   7.085   8.843 -0.2211 -0.1232  0.0260
28414SOL    HW187559   0.875   7.063   8.750 -1.5763  0.7687 -0.3498
28414SOL    HW287560   0.821   7.010   8.882  0.4237 -0.5340 -0.0169
28415SOL     OW87561   2.885  10.351   9.344 -0.0757  0.0748  0.3460
28415SOL    HW187562   2.811  10.408   9.324 -3.3136 -4.1629 -1.4163
28415SOL    HW287563   2.933  10.343   9.262  0.7418  0.6574  0.7515
28416SOL     OW87564   6.459   2.344   0.397 -0.0859  0.5239  0.4566
28416SOL    HW187565   6.417   2.426   0.422 -0.6665  0.1849  0.6024
28416SOL    HW287566   6.478   2.300   0.480  0.8776  0.8196  0.4121
28417SOL     OW87567   8.338   9.559   5.422 -0.4758 -0.1743  0.4949
28417SOL    HW187568   8.290   9.501   5.363  1.8508 -2.3493  0.5935
28417SOL    HW287569   8.354   9.638   5.369 -2.8563  0.0926  0.0439
28418SOL     OW87570   9.308   9.985   3.728  0.2684 -0.2740  0.0627
28418SOL    HW187571   9.309   9.892   3.751  2.4965 -0.2584  0.2321
28418SOL    HW287572   9.233  10.020   3.777 -2.5616 -2.4175 -2.3119
28419SOL     OW87573   7.406   1.419   1.608  0.7412 -0.1113 -0.2737
28419SOL    HW187574   7.483   1.394   1.658  0.6924  0.1080 -0.0850
28419SOL    HW287575   7.352   1.467   1.670  0.4149 -0.3336 -0.3833
28420SOL     OW87576   6.993   4.732   3.636  0.3303 -0.1018  0.1565
28420SOL    HW187577   6.938   4.803   3.605  1.7616  1.3007  0.6938
28420SOL    HW287578   7.083   4.762   3.621  0.9977 -1.3060  1.4581
28421SOL     OW87579   1.802   1.253   7.596  0.3300  0.0182 -0.1004
28421SOL    HW187580   1.793   1.313   7.669 -0.6502 -0.8560  0.5400
28421SOL    HW287581   1.819   1.168   7.637 -0.2197 -0.4809 -0.8712
28422SOL     OW87582   8.306   0.246   6.724  0.2964  0.4273 -0.5495
28422SOL    HW187583   8.303   0.314   6.791 -1.1941 -0.2739  0.1231
28422SOL    HW287584   8.324   0.294   6.643 -2.2102  1.8555 -0.3466
28423SOL     OW87585   5.649   1.048   6.766 -0.3586  0.0838 -0.4100
28423SOL    HW187586   5.688   1.135   6.777  0.8245  0.0296 -3.3578
28423SOL    HW287587   5.668   1.004   6.848  0.7928  1.9522  0.4075
28424SOL     OW87588   2.297   8.579   1.888 -0.2307 -0.6678 -0.7118
28424SOL    HW187589   2.348   8.657   1.866  2.5691 -2.1837 -0.1318
28424SOL    HW287590   2.287   8.532   1.805 -1.8000  0.1865 -1.0369
28425SOL     OW87591   9.575   3.540   0.741  0.4488 -0.8400  1.1534
28425SOL    HW187592   9.648   3.500   0.694  1.6387  0.0614  2.1762
28425SOL    HW287593   9.551   3.616   0.688  1.0527 -0.4597  1.4163
28426SOL     OW87594   9.602   3.113   9.631 -0.1217 -0.2618  0.1615
28426SOL    HW187595   9.572   3.198   9.665 -0.7462  0.3117 -1.6846
28426SOL    HW287596   9.666   3.136   9.563 -0.0223 -1.2832 -0.1086
28427SOL     OW87597   1.027   2.921  10.318  0.1713 -0.2320 -0.0327
28427SOL    HW187598   0.947   2.973  10.315  1.5116  1.9761  0.1162
28427SOL    HW287599   1.038   2.886  10.230 -1.3718 -1.3056  0.1676
28428SOL     OW87600   8.438  10.172   8.373  0.2209  0.5542  0.0207
28428SOL    HW187601   8.509  10.234   8.389  1.3309 -0.0308 -2.2622
28428SOL    HW287602   8.440  10.112   8.448  1.1412  1.4074  0.7038
28429SOL     OW87603   3.448   5.031   4.909 -0.1703  0.2682  0.0950
28429SOL    HW187604   3.427   4.943   4.880 -0.0181 -0.1150  1.1315
28429SOL    HW287605   3.408   5.039   4.995 -0.2447  1.2408 -0.0117
28430SOL     OW87606   4.814   3.001   4.622  0.1714  0.0330 -0.0526
28430SOL    HW187607   4.830   2.911   4.648  1.3045 -0.1680 -1.3198
28430SOL    HW287608   4.887   3.023   4.564  0.4586  2.1002  0.9996
28431SOL     OW87609   7.168   9.203   6.919 -0.5878 -0.3188 -0.6121
28431SOL    HW187610   7.095   9.247   6.875  0.3818  1.2111 -0.7584
28431SOL    HW287611   7.190   9.260   6.992 -0.6253 -1.6396  0.4778
28432SOL     OW87612   4.130   3.155   9.102  0.1447 -0.3805 -0.1950
28432SOL    HW187613   4.163   3.186   9.186 -2.9249  2.1357  0.2754
28432SOL    HW287614   4.091   3.069   9.122  2.9380 -1.7413 -0.0696
28433SOL     OW87615   8.906   8.272   6.751  0.3254 -0.0958  0.6870
28433SOL    HW187616   8.931   8.335   6.684  0.9013 -0.7464  0.2675
28433SOL    HW287617   8.978   8.209   6.752 -0.6403 -1.2382  0.4614
28434SOL     OW87618   6.970   9.915   0.232 -0.3369  0.2754  0.4902
28434SOL    HW187619   7.024   9.872   0.298 -0.3934 -0.3464  0.1366
28434SOL    HW287620   6.883   9.878   0.245 -0.8754  1.8262  1.5572
28435SOL     OW87621   7.285   4.039   9.470  0.4821 -0.9465  0.0268
28435SOL    HW187622   7.284   3.989   9.389  1.4517 -0.0247 -0.5835
28435SOL    HW287623   7.247   4.124   9.446 -0.1247 -0.9888  0.7799
28436SOL     OW87624   4.871   1.714   2.724  0.3777 -0.2814  0.1065
28436SOL    HW187625   4.950   1.695   2.674  0.7877  0.7232  0.3358
28436SOL    HW287626   4.884   1.804   2.755  0.9639 -1.3863  3.4870
28437SOL     OW87627   2.995   1.446   9.555  0.0120 -0.0603 -0.6644
28437SOL    HW187628   3.025   1.389   9.484 -1.1445 -0.6333 -0.6997
28437SOL    HW287629   3.073   1.456   9.611  0.6025 -0.5685 -1.3674
28438SOL     OW87630  10.558   4.348   2.327 -0.0895 -0.4277 -0.1498
28438SOL    HW187631  10.612   4.300   2.389 -1.4008  0.0652  1.4346
28438SOL    HW287632  10.495   4.283   2.295  1.0395 -0.8773 -1.6309
28439SOL     OW87633   0.314   6.083   1.000 -0.1517  0.5183  0.5820
28439SOL    HW187634   0.228   6.044   1.011 -0.1123  0.3227  0.2009
28439SOL    HW287635   0.373   6.009   0.983 -0.2793  0.8072 -1.3611
28440SOL     OW87636   9.306   8.185   9.848  0.6119  0.2515 -1.0063
28440SOL    HW187637   9.282   8.117   9.911  0.8080  0.1633 -1.0262
28440SOL    HW287638   9.331   8.260   9.901 -0.9653  0.7957 -0.9844
28441SOL     OW87639   9.829   7.071  10.485 -0.0900 -0.4404  0.0927
28441SOL    HW187640   9.840   6.980  10.457  1.3288  0.3632 -2.1716
28441SOL    HW287641   9.801   7.117  10.407 -0.0620  1.2166  1.0234
28442SOL     OW87642   3.526   0.369   2.796 -0.0474  0.0928  0.4139
28442SOL    HW187643   3.580   0.443   2.823 -0.6265  0.6814 -0.0032
28442SOL    HW287644   3.493   0.332   2.878  0.2662  0.2796  0.6259
28443SOL     OW87645   8.620  10.027   3.096 -0.0500 -0.6772  0.2729
28443SOL    HW187646   8.670   9.964   3.044  1.3475 -0.4102  1.2422
28443SOL    HW287647   8.642  10.112   3.059 -1.6835 -0.6898 -0.8248
28444SOL     OW87648   0.942   4.017   8.502 -0.4576  0.1032 -0.1424
28444SOL    HW187649   0.957   3.975   8.587 -0.5782  1.7566  0.7333
28444SOL    HW287650   0.847   4.015   8.491 -0.4658  0.1795 -0.0854
28445SOL     OW87651   5.688   1.334   8.294 -0.0238  0.4190 -0.5722
28445SOL    HW187652   5.683   1.406   8.231 -0.8713  1.5935  0.7769
28445SOL    HW287653   5.659   1.373   8.376 -0.2585 -1.4194  0.2520
28446SOL     OW87654   9.379   1.344   4.421  0.0676  0.7470  0.0776
28446SOL    HW187655   9.384   1.397   4.341  0.0217  1.7115  0.7088
28446SOL    HW287656   9.339   1.402   4.486  0.3925  0.0714  0.8943
28447SOL     OW87657   0.833   0.548   9.128  0.1400 -0.4123 -0.1122
28447SOL    HW187658   0.768   0.583   9.067  0.9303  0.5443 -0.4259
28447SOL    HW287659   0.820   0.599   9.208 -0.7241 -1.4919  0.4690
28448SOL     OW87660   1.979   1.854   7.006 -0.0119 -0.5543 -0.3035
28448SOL    HW187661   1.920   1.847   7.082  0.9143 -2.8267  0.3088
28448SOL    HW287662   1.922   1.841   6.930 -0.9576  1.7678 -0.0813
28449SOL     OW87663   4.025   9.224   8.144  0.0909 -0.8092 -0.3001
28449SOL    HW187664   3.964   9.201   8.213  0.7073 -1.7538 -0.0365
28449SOL    HW287665   3.975   9.279   8.084 -0.3224  0.3825  1.1092
28450SOL     OW87666  10.581   3.929   8.830  0.0373  0.2563  0.1493
28450SOL    HW187667  10.644   3.862   8.855  2.7767  3.4878  2.9643
28450SOL    HW287668  10.631   3.990   8.775 -1.1085  2.0611  1.0239
28451SOL     OW87669   7.474   9.068   6.328  0.3333 -0.2243 -0.8521
28451SOL    HW187670   7.446   9.017   6.404 -3.4470  2.0657 -0.4509
28451SOL    HW287671   7.421   9.035   6.256  1.1422  0.1520 -1.6323
28452SOL     OW87672   2.781   0.583   2.116  0.3081 -0.0559  0.1991
28452SOL    HW187673   2.831   0.502   2.101  0.1940 -0.2251  0.7062
28452SOL    HW287674   2.708   0.578   2.054  0.9294  0.2082 -0.5675
28453SOL     OW87675  10.008   3.881   8.853 -0.0324 -0.3330  0.1763
28453SOL    HW187676  10.073   3.813   8.844  0.6695  0.1873  1.1108
28453SOL    HW287677   9.946   3.847   8.918 -0.8143 -0.8941 -0.8276
28454SOL     OW87678   0.102   6.272   0.130 -0.1464  0.5438 -0.6263
28454SOL    HW187679   0.062   6.243   0.048 -0.1187  0.0845 -0.4789
28454SOL    HW287680   0.162   6.342   0.104 -0.2563  0.5083 -0.9785
28455SOL     OW87681   9.660   2.888   8.403  0.2278  0.3912 -0.4563
28455SOL    HW187682   9.633   2.820   8.465  0.1802  0.0689 -0.8257
28455SOL    HW287683   9.729   2.936   8.448  1.8785 -1.3233 -1.0132
28456SOL     OW87684   3.506   4.294   1.594 -0.1713  0.2556  0.0605
28456SOL    HW187685   3.472   4.383   1.607 -1.2234  0.4388 -2.9951
28456SOL    HW287686   3.429   4.244   1.564  1.0806 -0.7321 -1.6924
28457SOL     OW87687   5.318   3.037   3.063  0.1146  0.5886 -0.4107
28457SOL    HW187688   5.392   2.990   3.103  2.4423  1.1531 -3.6958
28457SOL    HW287689   5.294   2.983   2.988 -0.0842  2.4194 -1.7068
28458SOL     OW87690   7.591   4.096   3.772 -0.2733 -0.6104  0.4212
28458SOL    HW187691   7.663   4.035   3.786 -0.0561 -0.3007  0.6732
28458SOL    HW287692   7.536   4.086   3.850  0.8211  0.9567  1.4688
28459SOL     OW87693   9.472   6.733   3.104  0.6778 -0.0920 -0.0783
28459SOL    HW187694   9.508   6.821   3.113  0.5913 -0.1527  0.9666
28459SOL    HW287695   9.392   6.735   3.156  0.0656 -0.4574 -0.9916
28460SOL     OW87696   9.594   0.829   2.137  0.0308 -0.2705  0.7540
28460SOL    HW187697   9.679   0.858   2.170  0.0283 -0.2336  0.7291
28460SOL    HW287698   9.563   0.902   2.083 -0.0372 -0.2658  0.7988
28461SOL     OW87699   4.663   6.080   0.212 -0.3791  0.3462 -0.1970
28461SOL    HW187700   4.619   5.997   0.195  1.0713 -0.4851 -0.0491
28461SOL    HW287701   4.739   6.080   0.154  0.2531  1.0643  0.5985
28462SOL     OW87702   5.611   5.065   4.243 -0.2168 -0.3447  0.0019
28462SOL    HW187703   5.570   5.101   4.165 -0.7117 -1.2087 -0.1554
28462SOL    HW287704   5.699   5.102   4.244 -0.4239  0.1764 -0.6064
28463SOL     OW87705   3.489   8.767   4.048  0.2800  0.0041 -0.1439
28463SOL    HW187706   3.422   8.771   3.980 -1.8777  2.5592  1.9295
28463SOL    HW287707   3.554   8.832   4.021  0.8948 -0.9336 -1.0420
28464SOL     OW87708   3.314   9.874   1.631  0.4175  0.1885 -0.7340
28464SOL    HW187709   3.334   9.784   1.603 -2.0314 -0.7637  0.3360
28464SOL    HW287710   3.270   9.913   1.555 -1.7573 -0.7628 -0.0287
28465SOL     OW87711   7.955   0.322   5.750  0.0737 -0.1249 -0.9769
28465SOL    HW187712   8.044   0.287   5.742  0.2573  0.0632  0.1337
28465SOL    HW287713   7.922   0.326   5.660  1.2128 -0.1277 -1.4013
28466SOL     OW87714   9.503   9.307   5.589  0.3877 -0.2483 -0.3154
28466SOL    HW187715   9.502   9.314   5.494 -0.2813  0.9804 -0.2457
28466SOL    HW287716   9.550   9.226   5.607  1.4856  0.0571 -1.6575
28467SOL     OW87717   4.609   3.155   4.524  0.2820 -0.1355 -0.1776
28467SOL    HW187718   4.691   3.144   4.572  1.2962  1.5738 -1.4014
28467SOL    HW287719   4.637   3.181   4.436 -1.5377 -1.6451 -1.2730
28468SOL     OW87720   2.041   1.688   3.825  0.2011  0.1565 -0.3646
28468SOL    HW187721   2.014   1.642   3.745  1.9275 -1.3797 -0.1177
28468SOL    HW287722   1.959   1.702   3.873 -0.5351 -1.5612 -1.0321
28469SOL     OW87723   9.287   2.514   5.312  0.0307 -0.0033  0.7278
28469SOL    HW187724   9.206   2.485   5.352 -0.3661 -0.5768 -0.4748
28469SOL    HW287725   9.262   2.588   5.256  0.1431 -0.8411 -0.4645
28470SOL     OW87726   9.260   8.904   7.031 -0.1419  0.2123 -0.3869
28470SOL    HW187727   9.285   8.942   7.116  0.4254  2.4020 -1.4730
28470SOL    HW287728   9.306   8.820   7.028  1.3846  0.9631  0.6814
28471SOL     OW87729   4.073   6.445   3.718  0.5673  0.9037 -0.7037
28471SOL    HW187730   4.055   6.440   3.624  1.5198 -0.1024 -0.8505
28471SOL    HW287731   3.986   6.452   3.758 -0.4923 -4.2844 -1.3365
28472SOL     OW87732  10.219   9.491   6.425  0.5040  0.9160 -0.0335
28472SOL    HW187733  10.275   9.504   6.349  1.2013 -1.2335  0.0545
28472SOL    HW287734  10.279   9.468   6.496 -0.3678 -0.2943  0.3498
28473SOL     OW87735   8.445   4.461   7.843  0.0274 -0.2927  0.1692
28473SOL    HW187736   8.529   4.416   7.855  0.6915  0.3599 -1.7336
28473SOL    HW287737   8.458   4.546   7.885  0.4646 -0.0514 -0.4411
28474SOL     OW87738   8.841   0.889   9.932  0.9047 -1.0011 -0.2058
28474SOL    HW187739   8.870   0.939  10.008  0.1728 -1.0452  0.1143
28474SOL    HW287740   8.834   0.799   9.964  1.1977 -1.1336 -0.4996
28475SOL     OW87741   9.399   5.713   1.199 -0.4482  0.1745  0.0290
28475SOL    HW187742   9.402   5.756   1.113 -1.5608 -0.6915 -0.4879
28475SOL    HW287743   9.482   5.665   1.205 -0.3177  0.3188 -0.5341
28476SOL     OW87744   3.391   9.548   8.836  0.3441 -0.4693 -0.1746
28476SOL    HW187745   3.432   9.634   8.829 -0.1856  0.1564  2.9465
28476SOL    HW287746   3.432   9.496   8.767  1.5322  1.9159 -1.4028
28477SOL     OW87747   0.319   6.774   4.040  0.2299 -0.1826  0.2430
28477SOL    HW187748   0.349   6.713   3.973 -0.0906  0.4253 -0.4560
28477SOL    HW287749   0.376   6.850   4.031  0.0770 -0.0308  0.5490
28478SOL     OW87750   2.817   7.017   7.303  0.1939  0.1242 -0.2965
28478SOL    HW187751   2.744   6.956   7.288 -0.2489  1.0968 -2.5133
28478SOL    HW287752   2.895   6.969   7.275  0.0184  0.1001 -0.7490
28479SOL     OW87753   7.226   8.230   3.419 -0.5103  0.0294 -0.3425
28479SOL    HW187754   7.239   8.169   3.492 -0.3266 -0.1132 -0.4937
28479SOL    HW287755   7.173   8.301   3.457 -1.9193 -0.8912 -0.5152
28480SOL     OW87756   8.669   1.596   6.672  0.1669  0.4663 -0.1003
28480SOL    HW187757   8.597   1.652   6.699  1.0125  1.1769  0.7410
28480SOL    HW287758   8.657   1.515   6.721  1.9678  1.9128  2.9992
28481SOL     OW87759   6.036   9.114   8.984  0.4406 -0.5626 -0.8913
28481SOL    HW187760   6.107   9.066   8.941  0.1417 -0.0082 -2.0383
28481SOL    HW287761   6.079   9.187   9.027  0.4939  0.3634 -2.4415
28482SOL     OW87762   0.479   4.364   0.900  0.0897  0.0332  1.0150
28482SOL    HW187763   0.401   4.345   0.848  0.1054  0.4640  0.8311
28482SOL    HW287764   0.513   4.446   0.864 -0.2677  0.6969  2.1132
28483SOL     OW87765   7.325   7.756   3.396 -1.0378 -0.2809  0.0204
28483SOL    HW187766   7.280   7.830   3.355  1.5239  0.1356 -2.3691
28483SOL    HW287767   7.417   7.782   3.398 -0.4401 -2.2274  1.9574
28484SOL     OW87768   8.130   3.469   6.978  0.7500 -0.1624  0.3183
28484SOL    HW187769   8.109   3.384   6.940  0.8132  0.1928 -0.5352
28484SOL    HW287770   8.213   3.494   6.938  0.8801  0.1699  0.7860
28485SOL     OW87771   9.949   4.675   3.274 -0.6657  0.4900  0.1100
28485SOL    HW187772   9.906   4.681   3.359  0.6832 -0.9876  0.9524
28485SOL    HW287773   9.881   4.642   3.215 -0.9976 -0.8267  1.1780
28486SOL     OW87774   2.244   1.235   0.417  0.0585 -0.2910 -0.4548
28486SOL    HW187775   2.322   1.180   0.425  2.0545  2.3454 -0.5431
28486SOL    HW287776   2.200   1.202   0.338  1.0813 -1.7806 -0.4454
28487SOL     OW87777   0.285   6.445   7.603  0.4719  0.2309 -0.1498
28487SOL    HW187778   0.202   6.487   7.627 -0.5475 -1.1517 -1.0661
28487SOL    HW287779   0.339   6.517   7.570 -1.1597  0.8797 -1.5634
28488SOL     OW87780   9.057   0.363   7.499  0.1555 -0.2643 -0.0420
28488SOL    HW187781   9.043   0.292   7.437 -0.6300 -0.2143  0.0714
28488SOL    HW287782   9.140   0.402   7.472 -0.7352  0.5206 -1.8117
28489SOL     OW87783   8.383  10.359   8.613 -0.3169  0.0828 -0.1532
28489SOL    HW187784   8.414  10.448   8.631  0.6098 -0.1031 -0.7819
28489SOL    HW287785   8.435  10.304   8.672  0.6298 -0.2379 -1.2586
28490SOL     OW87786   1.177   8.766   9.842  0.4878  0.2667  0.4077
28490SOL    HW187787   1.232   8.721   9.779 -1.1633  0.8901 -1.5784
28490SOL    HW287788   1.106   8.705   9.862  0.2968  0.5570  0.6396
28491SOL     OW87789  10.072   4.088   2.382  0.5532 -0.2017  0.3774
28491SOL    HW187790   9.995   4.081   2.438  0.0759  0.3813 -0.1941
28491SOL    HW287791  10.051   4.034   2.306 -0.0113  1.2650 -0.5569
28492SOL     OW87792   0.025   1.584   4.062 -0.2198  0.0648  0.3776
28492SOL    HW187793  -0.051   1.616   4.013  1.8371  0.4271 -2.8666
28492SOL    HW287794   0.058   1.661   4.108 -0.1601  0.6186 -0.5642
28493SOL     OW87795   7.225   1.488   0.055  0.1836 -0.2271  0.3492
28493SOL    HW187796   7.290   1.522  -0.006  0.5607 -1.4161  0.0566
28493SOL    HW287797   7.226   1.550   0.128  2.3677 -0.7310  0.8138
28494SOL     OW87798   1.705   5.953   3.252  0.2108  0.5108 -0.3053
28494SOL    HW187799   1.682   5.941   3.159  0.4272  1.8287 -0.5425
28494SOL    HW287800   1.719   6.047   3.261  0.5434  0.3462  0.9963
28495SOL     OW87801   4.244   9.954   6.538 -0.5111 -0.3579 -0.6567
28495SOL    HW187802   4.265   9.941   6.630  0.7544  2.9328 -0.3253
28495SOL    HW287803   4.324   9.927   6.492 -0.8530 -1.2496 -0.7438
28496SOL     OW87804   1.907   7.102   2.339 -0.2553 -0.1262 -0.1450
28496SOL    HW187805   1.907   7.007   2.345 -3.1663 -0.3813 -2.1897
28496SOL    HW287806   1.969   7.121   2.268  1.1903 -0.3445  1.0132
28497SOL     OW87807   2.039   8.352   9.621 -0.1069  0.0001 -0.4114
28497SOL    HW187808   2.126   8.313   9.630  0.1510  0.5818 -0.3186
28497SOL    HW287809   2.041   8.428   9.679 -0.6113  0.1354 -0.5657
28498SOL     OW87810   4.451   6.111   7.101  0.3386  0.8122  0.4738
28498SOL    HW187811   4.434   6.064   7.019  1.0977  1.4576 -0.0684
28498SOL    HW287812   4.365   6.144   7.128  0.2251  1.4544 -0.6111
28499SOL     OW87813   5.691   9.917   9.347  0.2229  0.7958 -0.4768
28499SOL    HW187814   5.698   9.871   9.264  2.0117 -2.5861  1.3392
28499SOL    HW287815   5.771   9.968   9.353  0.7744 -0.0831 -0.2457
28500SOL     OW87816   0.503   6.516   5.103 -0.3898  0.1639  0.5111
28500SOL    HW187817   0.576   6.577   5.087  0.1866 -1.0285 -1.8149
28500SOL    HW287818   0.534   6.462   5.176  1.2188 -0.4533 -0.5565
28501SOL     OW87819   3.702   1.628   7.943  0.0228  0.0151 -0.0436
28501SOL    HW187820   3.725   1.674   8.023  1.4896 -1.3438  0.3572
28501SOL    HW287821   3.623   1.672   7.912  0.0134  1.2230  1.5859
28502SOL     OW87822   0.513   1.575   8.778  0.3391  0.0345 -0.0082
28502SOL    HW187823   0.572   1.512   8.736  1.0652 -0.1646  1.2433
28502SOL    HW287824   0.433   1.526   8.795  0.7091 -0.4185  0.4779
28503SOL     OW87825   8.219   2.663   8.020 -0.0341 -0.5080 -0.4279
28503SOL    HW187826   8.181   2.719   8.088 -0.6838 -0.7839 -0.5596
28503SOL    HW287827   8.254   2.725   7.955 -0.1568 -0.2531 -0.2526
28504SOL     OW87828   5.745  10.158   6.642 -0.2029 -0.1036 -0.2085
28504SOL    HW187829   5.808  10.220   6.605  0.2395 -0.2769  0.2404
28504SOL    HW287830   5.710  10.111   6.566 -0.8376  0.9504 -0.5993
28505SOL     OW87831   9.651   5.101   7.052  0.2163 -0.2586  0.0205
28505SOL    HW187832   9.659   5.173   7.115 -0.9242 -0.7328  0.7372
28505SOL    HW287833   9.741   5.077   7.031  0.6107  0.9493  0.2608
28506SOL     OW87834   7.505   6.290   2.665 -0.3858 -0.0763  0.6212
28506SOL    HW187835   7.563   6.351   2.619 -0.9396 -0.7336 -1.0494
28506SOL    HW287836   7.417   6.311   2.633 -0.6285 -1.4348  0.3095
28507SOL     OW87837   9.078  10.350   1.942 -0.1668 -0.4404 -0.6033
28507SOL    HW187838   9.004  10.348   1.881 -0.8119  1.6195  0.0440
28507SOL    HW287839   9.113  10.439   1.934 -0.3091 -0.0850  2.0334
28508SOL     OW87840   1.995   4.979   5.528 -0.0165  0.0901  0.0296
28508SOL    HW187841   1.965   4.893   5.557 -1.3294  0.2574 -0.7334
28508SOL    HW287842   2.041   5.016   5.603 -0.4289 -0.8159  0.7410
28509SOL     OW87843   5.991   3.352   5.338 -0.2461  0.1003  0.4052
28509SOL    HW187844   5.941   3.350   5.257 -0.0532  0.5056  0.2733
28509SOL    HW287845   6.064   3.291   5.323 -0.5099 -0.2318  0.4736
28510SOL     OW87846   6.425   8.055   5.366 -0.0497 -0.1584 -0.1050
28510SOL    HW187847   6.520   8.043   5.369  0.2262  1.9563  1.4734
28510SOL    HW287848   6.406   8.068   5.273  0.8875 -2.4181 -0.6811
28511SOL     OW87849  10.420  10.026   7.143  0.0206 -0.1730  0.0372
28511SOL    HW187850  10.363  10.104   7.144 -0.0895 -0.2346 -0.9997
28511SOL    HW287851  10.359   9.952   7.137  0.0606 -0.4355  2.1382
28512SOL     OW87852  10.514   5.889   4.024 -0.3303 -0.0343  0.5334
28512SOL    HW187853  10.422   5.886   4.001 -0.2638 -0.2308  0.2987
28512SOL    HW287854  10.550   5.960   3.971 -0.1414 -0.5994 -0.1013
28513SOL     OW87855   8.047   2.482   4.472  0.3839 -0.1364 -0.3799
28513SOL    HW187856   8.079   2.564   4.432 -0.0181 -1.0492 -2.7669
28513SOL    HW287857   7.958   2.473   4.439 -0.0295 -0.9092  0.9085
28514SOL     OW87858   6.245   8.651   4.347 -0.8388  0.3326 -0.3644
28514SOL    HW187859   6.179   8.682   4.285 -0.6185 -0.4705 -1.0144
28514SOL    HW287860   6.303   8.596   4.295  0.6378  1.4127  0.0938
28515SOL     OW87861   9.208  10.352   3.962 -0.0241 -0.1536 -0.2263
28515SOL    HW187862   9.209  10.262   3.995  0.3283 -0.7781 -1.8575
28515SOL    HW287863   9.254  10.403   4.028  1.7883 -1.5745 -0.3235
28516SOL     OW87864   4.501   4.685   0.633 -0.1349  0.3976 -0.0585
28516SOL    HW187865   4.478   4.645   0.549 -2.1702 -0.4847  0.8505
28516SOL    HW287866   4.539   4.769   0.610 -0.7519  0.2182 -1.8551
28517SOL     OW87867  10.008   6.231   4.517  0.0011  0.4111  0.4302
28517SOL    HW187868  10.088   6.228   4.464 -0.1770 -0.9707  0.2199
28517SOL    HW287869   9.937   6.241   4.454 -0.1452 -0.4241  0.4474
28518SOL     OW87870  10.143   5.381   1.557  0.0872  0.0731  0.1295
28518SOL    HW187871  10.160   5.313   1.492  0.0141  1.2956 -1.2162
28518SOL    HW287872  10.124   5.459   1.506  0.2681  1.1486  1.6287
28519SOL     OW87873   3.150   6.405   9.976  0.3227  0.2309  0.3742
28519SOL    HW187874   3.246   6.411   9.970  0.3594 -0.8801 -0.4960
28519SOL    HW287875   3.132   6.312   9.966 -0.9615  0.6146 -1.3186
28520SOL     OW87876   3.350   3.333   9.867 -0.0158 -0.2633  0.1063
28520SOL    HW187877   3.360   3.352   9.960  0.8949  0.8535 -0.2053
28520SOL    HW287878   3.262   3.365   9.845 -1.0409 -2.2862  0.9664
28521SOL     OW87879   3.951   8.167   1.549 -0.2761  0.4571  0.4296
28521SOL    HW187880   3.888   8.225   1.506 -0.3532 -0.7316 -1.1799
28521SOL    HW287881   3.898   8.095   1.583  0.1455 -0.5007 -0.8479
28522SOL     OW87882   4.742   3.801   3.680 -0.7620  0.4944  0.4281
28522SOL    HW187883   4.745   3.893   3.654  0.6641  1.0584  2.3670
28522SOL    HW287884   4.665   3.766   3.635  0.0455  1.9719 -2.3750
28523SOL     OW87885   1.321   6.913   3.090  0.5742  0.3721  0.0448
28523SOL    HW187886   1.400   6.870   3.057 -0.3498  0.4914 -2.5121
28523SOL    HW287887   1.336   7.006   3.074  0.3706  0.5249  0.6857
28524SOL     OW87888   3.509   9.174   8.411 -0.3121  0.2726  0.0910
28524SOL    HW187889   3.468   9.260   8.414  0.4144  0.6660 -0.7892
28524SOL    HW287890   3.440   9.116   8.376 -0.9231  0.4064  1.0509
28525SOL     OW87891   7.780   7.794   8.253 -0.0117 -0.0041  0.5232
28525SOL    HW187892   7.837   7.794   8.330  0.2354  1.3309  0.3698
28525SOL    HW287893   7.703   7.744   8.280 -0.2790  1.0899  1.9202
28526SOL     OW87894   1.027   2.027   5.590  0.5096 -0.6297  0.5558
28526SOL    HW187895   0.996   2.049   5.503 -0.9166  0.6476  1.3302
28526SOL    HW287896   1.068   2.107   5.622  0.4008 -0.8560  1.2965
28527SOL     OW87897   3.718   4.012   1.294 -0.3654 -0.5737  0.3889
28527SOL    HW187898   3.691   4.098   1.325  1.1970  0.2009 -0.2696
28527SOL    HW287899   3.812   4.008   1.312 -0.1755 -1.6450 -0.6753
28528SOL     OW87900   5.729  10.380   2.631  0.1165 -0.1201  0.6215
28528SOL    HW187901   5.691  10.311   2.578  1.1187 -0.3674  0.2022
28528SOL    HW287902   5.769  10.440   2.568 -4.0127  3.0655  0.5760
28529SOL     OW87903   9.965   6.854   1.918 -0.1964 -0.1501 -0.2450
28529SOL    HW187904   9.942   6.901   1.998 -2.7566 -1.7544  0.0618
28529SOL    HW287905   9.971   6.923   1.851  0.3978  1.0254  0.9757
28530SOL     OW87906   4.154   8.595   3.962 -0.0730  0.2743  0.2188
28530SOL    HW187907   4.172   8.666   4.023 -0.7371 -1.0768  2.0945
28530SOL    HW287908   4.132   8.521   4.018 -1.3803 -0.8706 -1.6915
28531SOL     OW87909   2.818   3.668   2.571  0.1507  0.3572 -0.6465
28531SOL    HW187910   2.856   3.660   2.484  0.3206 -0.0391 -0.5365
28531SOL    HW287911   2.806   3.578   2.601  1.2750  0.4831  0.2507
28532SOL     OW87912   0.916   2.717   7.134 -0.4562  0.4046 -0.1975
28532SOL    HW187913   0.885   2.657   7.201  0.3615  0.4033  0.1927
28532SOL    HW287914   0.973   2.663   7.078 -0.3658  0.6284 -0.3246
28533SOL     OW87915   0.797   0.998   9.898  0.1570 -0.0165  0.4413
28533SOL    HW187916   0.873   0.985   9.841 -1.5563 -1.5191 -1.6498
28533SOL    HW287917   0.812   0.940   9.972  0.8905 -0.5327 -0.1015
28534SOL     OW87918  10.322   1.332   4.539 -0.0668 -0.0231  0.1826
28534SOL    HW187919  10.262   1.391   4.492 -0.4061 -0.6926 -0.2451
28534SOL    HW287920  10.336   1.374   4.624  0.6848  1.2959 -0.5637
28535SOL     OW87921   5.442   0.131   8.104  0.2356  0.5447  0.1845
28535SOL    HW187922   5.486   0.141   8.188 -0.2174  0.4353  0.4397
28535SOL    HW287923   5.404   0.043   8.106  0.1725  0.5618 -0.1098
28536SOL     OW87924  10.043   5.970   1.161  0.3260  0.2634  0.3283
28536SOL    HW187925  10.116   6.019   1.200 -0.3864 -0.4608  2.7793
28536SOL    HW287926   9.987   5.948   1.236 -2.3075  0.5813 -1.4250
28537SOL     OW87927   2.291   5.493   7.773 -0.1007  0.2936 -0.0404
28537SOL    HW187928   2.297   5.524   7.683 -0.5179  0.0975 -0.1367
28537SOL    HW287929   2.246   5.409   7.767  2.4890 -1.2251  0.0238
28538SOL     OW87930   1.370   3.059   6.314  0.0198 -0.3340 -0.0609
28538SOL    HW187931   1.289   3.103   6.290  0.9017  0.4230 -1.9081
28538SOL    HW287932   1.370   3.057   6.409 -0.7486  2.4593  0.0862
28539SOL     OW87933   5.515   0.046   1.498 -0.3359  0.8639  0.0501
28539SOL    HW187934   5.496   0.140   1.499 -0.1910  0.9215 -1.1945
28539SOL    HW287935   5.493   0.018   1.409 -1.1782 -0.4530  0.6480
28540SOL     OW87936   6.642   1.099   2.622 -0.5871 -0.1376 -0.1896
28540SOL    HW187937   6.550   1.085   2.598 -0.7791 -3.6105  1.9544
28540SOL    HW287938   6.638   1.137   2.710  0.1154  1.3720 -0.7671
28541SOL     OW87939   5.781   5.942   4.454  0.6486 -0.0394 -0.2075
28541SOL    HW187940   5.755   5.977   4.369 -4.7755  2.6770  2.0876
28541SOL    HW287941   5.743   5.854   4.458 -0.6520  0.5039 -0.0896
28542SOL     OW87942   1.011   0.294   2.588 -0.0995 -0.2390  0.2652
28542SOL    HW187943   1.104   0.299   2.610 -0.0760 -0.3607  0.2011
28542SOL    HW287944   0.970   0.253   2.664  0.3980 -3.2243 -0.9240
28543SOL     OW87945   3.577   0.323   1.982  0.2281  0.1306  0.9197
28543SOL    HW187946   3.487   0.353   1.991  0.5404  1.8733 -0.9766
28543SOL    HW287947   3.597   0.282   2.066 -2.5339 -0.9992  1.1401
28544SOL     OW87948   0.067   0.298   8.803  0.3285 -0.3900 -0.5168
28544SOL    HW187949  -0.018   0.261   8.827  0.5015 -0.6001 -0.2306
28544SOL    HW287950   0.063   0.389   8.833 -0.4547  0.1168 -2.0529
28545SOL     OW87951   6.373   9.930   5.641 -0.1476 -0.3170 -0.4481
28545SOL    HW187952   6.395  10.010   5.593  2.0237 -1.4727 -1.5303
28545SOL    HW287953   6.278   9.925   5.637 -0.3042  1.9212 -0.8097
28546SOL     OW87954   4.115   9.388   6.357  0.3323  0.7481  0.5176
28546SOL    HW187955   4.185   9.427   6.410  2.2554 -1.9229  0.1506
28546SOL    HW287956   4.117   9.295   6.380 -0.4047 -0.0875 -2.4222
28547SOL     OW87957   3.322   6.172   2.893  0.2620  0.2210 -0.6080
28547SOL    HW187958   3.325   6.077   2.892  0.9613  0.2090  0.7616
28547SOL    HW287959   3.359   6.198   2.808  0.9872 -0.7032 -0.5861
28548SOL     OW87960   2.695   3.778   0.460  0.0432 -0.4160  0.5048
28548SOL    HW187961   2.791   3.781   0.462  0.1531 -2.5858  0.8555
28548SOL    HW287962   2.673   3.780   0.367  0.7890 -4.6535  0.0233
28549SOL     OW87963   6.283   4.065   4.742  0.1370  0.3077  0.0360
28549SOL    HW187964   6.213   4.051   4.679  0.6684  0.8425 -0.6929
28549SOL    HW287965   6.304   4.158   4.734  0.8244  0.1865  0.3469
28550SOL     OW87966   0.249   6.509   3.057  0.5260  0.0278  0.4753
28550SOL    HW187967   0.161   6.522   3.094  0.6366  1.9559  0.1312
28550SOL    HW287968   0.236   6.441   2.991 -0.5391 -0.3318  1.0197
28551SOL     OW87969   2.197   4.269   4.373  0.2815 -0.1999 -0.4798
28551SOL    HW187970   2.275   4.250   4.321  1.2252  2.3056 -0.1609
28551SOL    HW287971   2.223   4.344   4.428 -1.4066 -1.2416  1.9075
28552SOL     OW87972   9.917   5.115   1.231 -0.3902 -0.3767  0.1877
28552SOL    HW187973   9.905   5.083   1.321  0.1712 -0.2074  0.3243
28552SOL    HW287974   9.910   5.210   1.239  0.9897 -0.2644  0.2728
28553SOL     OW87975   8.904   0.369   9.966 -0.1660 -0.3893 -0.2070
28553SOL    HW187976   8.840   0.343   9.899 -1.9938  1.3986  0.7310
28553SOL    HW287977   8.851   0.379  10.046  1.0307  2.3540  0.3326
28554SOL     OW87978   1.784   1.306   1.717  0.3926  0.2621 -0.2765
28554SOL    HW187979   1.815   1.221   1.687  0.3690  0.4781 -0.9128
28554SOL    HW287980   1.735   1.342   1.643  1.7299  1.5103 -0.5883
28555SOL     OW87981   6.545   4.122   0.558 -0.3067  0.0283 -1.0130
28555SOL    HW187982   6.466   4.170   0.585  0.4179  0.4592  0.4533
28555SOL    HW287983   6.617   4.175   0.591  0.6222 -0.2691 -2.4956
28556SOL     OW87984   4.263   6.636   6.786  0.0924 -0.1300 -0.0288
28556SOL    HW187985   4.251   6.629   6.691 -1.4116  0.0815  0.1250
28556SOL    HW287986   4.273   6.730   6.802 -0.2943 -0.1044  0.0780
28557SOL     OW87987   7.833   1.219   0.351  0.0783  0.3870  0.3800
28557SOL    HW187988   7.824   1.246   0.443 -1.8936 -1.1841  0.7226
28557SOL    HW287989   7.914   1.169   0.349  0.5747  1.1363  1.0716
28558SOL     OW87990   1.785   2.648   8.484 -0.1526  0.1401  0.2672
28558SOL    HW187991   1.751   2.729   8.447 -1.8771 -0.6562  0.0404
28558SOL    HW287992   1.790   2.666   8.578  0.5389  0.8624  0.1060
28559SOL     OW87993   3.856   1.526   8.380  0.1798 -0.3194  0.1435
28559SOL    HW187994   3.791   1.596   8.386  1.1644  0.6559 -0.0252
28559SOL    HW287995   3.938   1.572   8.362  0.8435 -1.5416 -0.0695
28560SOL     OW87996   4.084   9.537   9.511  0.0387  0.2249 -0.0923
28560SOL    HW187997   4.049   9.527   9.600  0.0553  1.6382  0.0950
28560SOL    HW287998   4.016   9.500   9.455 -0.4166  0.2128  0.4510
28561SOL     OW87999   5.401   5.142   7.611  0.0139 -0.0727 -0.1560
28561SOL    HW188000   5.406   5.076   7.681 -0.6116  1.3477  1.2875
28561SOL    HW288001   5.491   5.173   7.602 -0.1213  0.7621  1.0891
28562SOL     OW88002   4.599   7.690   2.907  0.2869 -0.5750 -0.2242
28562SOL    HW188003   4.599   7.706   2.812  1.0001  1.2234  0.0521
28562SOL    HW288004   4.691   7.686   2.931  0.1280  0.2975  0.5872
28563SOL     OW88005   9.711   5.294   9.952  0.5948 -0.2802 -0.4641
28563SOL    HW188006   9.655   5.289   9.874 -0.5740  1.2724  0.2267
28563SOL    HW288007   9.680   5.372   9.999  2.4345 -0.1758  0.6653
28564SOL     OW88008   1.717   3.872   6.288  0.1302  0.0814 -0.1325
28564SOL    HW188009   1.733   3.826   6.206 -1.5782  0.3511 -0.6644
28564SOL    HW288010   1.637   3.832   6.323  1.0025 -0.2678  1.5984
28565SOL     OW88011   6.046   3.118   1.148 -0.4430 -0.0632  0.6772
28565SOL    HW188012   5.977   3.158   1.095 -0.3662 -2.4192 -1.3893
28565SOL    HW288013   6.001   3.051   1.200  0.0971 -0.8801  0.1203
28566SOL     OW88014   8.786   0.173   4.618 -0.2365 -0.9554 -0.0413
28566SOL    HW188015   8.852   0.203   4.556 -1.2072  2.8147  0.4718
28566SOL    HW288016   8.710   0.152   4.564  0.2590 -1.9343 -0.3799
28567SOL     OW88017   8.030   7.033   6.659 -0.3222 -0.6997 -0.2145
28567SOL    HW188018   7.936   7.047   6.644 -0.3391  0.8148  1.0974
28567SOL    HW288019   8.068   7.120   6.656  0.4896 -0.8407  2.6440
28568SOL     OW88020   0.600  10.446  10.488  0.0432  0.1249  0.6580
28568SOL    HW188021   0.660  10.520  10.478  0.6989 -0.4327  0.4566
28568SOL    HW288022   0.647  10.383  10.542  1.0262 -1.7527 -2.1630
28569SOL     OW88023   2.384   9.458   8.544  0.3214  0.0791  0.1705
28569SOL    HW188024   2.318   9.449   8.475  1.0119  2.0005 -0.8071
28569SOL    HW288025   2.466   9.429   8.503  0.6963  1.0342  0.2180
28570SOL     OW88026   9.521   6.623   4.345 -0.1103  0.2881  0.1011
28570SOL    HW188027   9.533   6.681   4.270  1.8032  1.1507  1.0036
28570SOL    HW288028   9.481   6.679   4.412 -2.0546 -0.5401 -0.2849
28571SOL     OW88029   4.512   9.614   2.012  0.2081 -0.0508  0.2283
28571SOL    HW188030   4.540   9.565   2.089 -1.3632 -1.3757  0.0058
28571SOL    HW288031   4.478   9.696   2.048 -0.0200 -0.4319  0.9032
28572SOL     OW88032   3.492   3.553   5.165  0.0910  0.5227  0.3619
28572SOL    HW188033   3.536   3.563   5.249 -0.5023 -0.0824  0.7511
28572SOL    HW288034   3.543   3.608   5.105 -0.3357  2.1168  1.4038
28573SOL     OW88035   4.653   6.620   4.239 -0.8532 -0.0022  0.1520
28573SOL    HW188036   4.648   6.526   4.258 -0.8972  0.0901  0.6012
28573SOL    HW288037   4.596   6.632   4.163 -0.6814 -0.3722 -0.0404
28574SOL     OW88038   1.460   7.917   8.148  0.4965 -0.0179 -0.2727
28574SOL    HW188039   1.510   7.884   8.222  1.8593  1.1873 -0.6062
28574SOL    HW288040   1.369   7.898   8.169  0.9698 -0.8729  1.0848
28575SOL     OW88041   2.627   5.724   0.278  0.1973 -0.0303 -0.2453
28575SOL    HW188042   2.718   5.755   0.274  0.1904  0.2317  1.0018
28575SOL    HW288043   2.632   5.631   0.257  0.4349  0.4382 -2.4488
28576SOL     OW88044   2.237   9.954   0.999  0.0766 -0.5476 -0.0474
28576SOL    HW188045   2.319   9.935   0.954 -0.4180  0.7852 -1.6344
28576SOL    HW288046   2.177   9.981   0.929 -1.1290  0.3515  1.2700
28577SOL     OW88047   9.572   7.325   7.430  0.1898  0.9902 -0.0028
28577SOL    HW188048   9.645   7.353   7.374  0.8677  2.2711  1.4353
28577SOL    HW288049   9.506   7.394   7.420 -0.3707  0.3951 -0.4577
28578SOL     OW88050   8.754   2.983   6.272  0.4575 -0.1649  0.3184
28578SOL    HW188051   8.739   3.039   6.197  0.2208 -1.0719 -0.3336
28578SOL    HW288052   8.700   3.020   6.342  0.9383  0.8747  0.1434
28579SOL     OW88053   5.602   4.061   9.211 -0.4559 -0.4986 -0.1343
28579SOL    HW188054   5.643   4.012   9.283 -0.7578  0.3912  0.6563
28579SOL    HW288055   5.675   4.084   9.153  0.1670  0.9308  1.1701
28580SOL     OW88056  10.481   2.902   8.094 -0.3078 -0.1051  0.4044
28580SOL    HW188057  10.454   2.926   8.006 -0.7490 -1.3508  0.1779
28580SOL    HW288058  10.446   2.813   8.107  1.0187 -0.5360  1.2702
28581SOL     OW88059   8.418   7.430   4.332 -0.4670  0.1141  0.6629
28581SOL    HW188060   8.331   7.470   4.338 -0.1199  1.0887 -0.4394
28581SOL    HW288061   8.403   7.347   4.287 -0.4188  1.9230 -2.9943
28582SOL     OW88062   5.874   2.485   6.581  0.5303 -0.0671 -0.2211
28582SOL    HW188063   5.857   2.513   6.490  1.3802 -1.5453 -0.8668
28582SOL    HW288064   5.965   2.456   6.580  0.3475 -0.7214  0.9521
28583SOL     OW88065   8.553   2.894   7.185 -0.3377  0.0446  0.3310
28583SOL    HW188066   8.591   2.943   7.112 -1.1197 -0.0815 -0.1675
28583SOL    HW288067   8.614   2.908   7.258 -0.0019  0.8875 -0.1035
28584SOL     OW88068   8.344   3.621   1.759  0.1486 -0.7344 -0.1093
28584SOL    HW188069   8.367   3.530   1.774  1.1294 -0.3095  1.2159
28584SOL    HW288070   8.325   3.656   1.846 -0.1028  0.3541 -0.5748
28585SOL     OW88071   9.856   5.603   5.485 -0.6591 -0.4668 -0.4988
28585SOL    HW188072   9.807   5.554   5.418 -1.5988 -0.5920  0.2713
28585SOL    HW288073   9.845   5.551   5.565  1.4351 -0.9463 -0.4697
28586SOL     OW88074   0.562   5.912  10.495 -0.1687  0.0430 -0.0725
28586SOL    HW188075   0.513   5.842  10.451  1.4036 -0.6207 -0.8497
28586SOL    HW288076   0.599   5.870  10.573  0.5992  0.0688 -0.4215
28587SOL     OW88077   1.688   5.094   9.609  0.2679  0.5814 -0.2303
28587SOL    HW188078   1.697   5.023   9.672  0.5147  0.0015 -0.9184
28587SOL    HW288079   1.602   5.132   9.628  0.4385  0.5677  0.6102
28588SOL     OW88080   8.173   7.123   5.377  0.3312  0.2561 -0.1654
28588SOL    HW188081   8.094   7.148   5.329  0.3334  0.1958 -0.2005
28588SOL    HW288082   8.186   7.031   5.355 -1.0278 -0.4789  1.7917
28589SOL     OW88083   9.826   8.553  10.255  0.3703  0.6454  0.3592
28589SOL    HW188084   9.896   8.495  10.286 -0.8585 -0.3708  1.3659
28589SOL    HW288085   9.769   8.496  10.203  0.6935  1.6439 -1.1514
28590SOL     OW88086   3.304   5.690   4.921  0.2865  0.8286 -0.2739
28590SOL    HW188087   3.322   5.605   4.962 -1.3047  0.6340  0.0884
28590SOL    HW288088   3.314   5.753   4.992  0.8019  0.8748 -0.3843
28591SOL     OW88089   8.864   6.974   9.124 -0.4268  0.2654 -0.1121
28591SOL    HW188090   8.771   6.950   9.118 -0.1693 -0.9131  0.3460
28591SOL    HW288091   8.910   6.891   9.132  0.5857  0.8902  0.8399
28592SOL     OW88092   0.296   1.866   1.182  0.1731  0.1001  0.1703
28592SOL    HW188093   0.368   1.924   1.157  1.4617 -1.1185  0.9362
28592SOL    HW288094   0.318   1.836   1.270 -2.0829  0.9171  1.0906
28593SOL     OW88095   0.268   9.584   0.016  0.4333 -0.6307 -0.4896
28593SOL    HW188096   0.270   9.538   0.100 -2.5801  2.3287  1.4238
28593SOL    HW288097   0.210   9.531  -0.039  0.7368 -1.5012  0.0088
28594SOL     OW88098   7.217   3.763   6.470  0.4357 -0.4203 -0.3227
28594SOL    HW188099   7.218   3.741   6.563  1.0477  0.3739 -0.1249
28594SOL    HW288100   7.127   3.749   6.442  0.1083 -0.0552  0.5416
28595SOL     OW88101   1.593   6.616   6.359  0.2120 -0.0521  0.0264
28595SOL    HW188102   1.581   6.679   6.430  2.8846  0.2711  0.3140
28595SOL    HW288103   1.670   6.565   6.385 -0.5065 -1.9214 -1.2833
28596SOL     OW88104   7.289   2.148  10.018 -0.2690  0.0131  0.4721
28596SOL    HW188105   7.237   2.085  10.068 -0.6650  0.2997  0.4228
28596SOL    HW288106   7.338   2.197  10.084  2.1915 -2.1608  0.4228
28597SOL     OW88107   9.410   7.396   2.594 -0.2467  0.0295  0.0484
28597SOL    HW188108   9.412   7.423   2.685 -2.0209 -0.6082  0.3319
28597SOL    HW288109   9.341   7.329   2.590 -0.1384 -0.0477 -1.7245
28598SOL     OW88110   0.954   9.503   4.269  0.1193 -0.4265 -0.2499
28598SOL    HW188111   0.938   9.575   4.207  0.9957 -0.6096 -0.7053
28598SOL    HW288112   1.009   9.542   4.337 -0.4811 -0.3399  0.1959
28599SOL     OW88113   9.182   1.026   7.209 -0.0882  0.1672 -0.0557
28599SOL    HW188114   9.211   0.958   7.148 -1.3487 -0.7536  0.3401
28599SOL    HW288115   9.141   1.092   7.154  1.3380  0.7630 -0.4656
28600SOL     OW88116   9.599   8.246   0.154  0.2197 -0.2781 -0.4474
28600SOL    HW188117   9.602   8.173   0.092 -1.2121 -0.1051 -0.7573
28600SOL    HW288118   9.512   8.285   0.141  1.0097  1.6071 -0.4296
28601SOL     OW88119   2.740   1.538   5.130 -0.0817  0.1125  0.2279
28601SOL    HW188120   2.805   1.594   5.172 -0.8375 -0.5879  2.4443
28601SOL    HW288121   2.791   1.482   5.071  1.2460  0.1071  1.3224
28602SOL     OW88122   7.932   1.640   1.954 -0.7297  0.2270 -0.2400
28602SOL    HW188123   7.904   1.563   1.905 -0.7230 -0.8964  1.4693
28602SOL    HW288124   7.969   1.606   2.035  2.1572  1.8315 -0.7152
28603SOL     OW88125  10.551   0.455   8.530 -0.4933 -0.0603  0.2246
28603SOL    HW188126  10.617   0.512   8.569  0.1117 -1.3931  1.2361
28603SOL    HW288127  10.586   0.432   8.444 -1.0938  1.6277 -0.5274
28604SOL     OW88128   8.543   3.002   7.673  0.1888  0.0561 -0.3540
28604SOL    HW188129   8.488   3.008   7.595  1.2476 -0.5620 -1.1847
28604SOL    HW288130   8.609   2.936   7.651 -0.2932 -1.1748  1.5785
28605SOL     OW88131   4.426   4.813   8.964 -0.2463  0.3360 -0.2396
28605SOL    HW188132   4.366   4.884   8.943  0.6292  0.7811 -1.4063
28605SOL    HW288133   4.493   4.853   9.020  0.2370  0.4460 -0.8819
28606SOL     OW88134   2.645   8.452   0.731  0.4383 -0.3856  0.4238
28606SOL    HW188135   2.722   8.505   0.751 -0.7664  0.5490  3.1210
28606SOL    HW288136   2.621   8.476   0.642  1.3091  1.8755  0.7348
28607SOL     OW88137   8.756   9.527   5.582  0.1800 -0.1831 -0.3002
28607SOL    HW188138   8.756   9.437   5.613  0.7474 -0.1148 -0.0852
28607SOL    HW288139   8.665   9.555   5.589  0.0915 -0.5693  0.1419
28608SOL     OW88140   9.349   9.587   2.580  0.0739 -0.0982 -0.2227
28608SOL    HW188141   9.262   9.571   2.544  0.0113  1.3894 -0.8176
28608SOL    HW288142   9.402   9.515   2.547 -0.7861 -0.6676 -0.3936
28609SOL     OW88143   5.919   4.570   4.329  0.3656 -0.1867  0.2413
28609SOL    HW188144   5.959   4.656   4.321  1.1462 -0.5704 -0.1294
28609SOL    HW288145   5.973   4.513   4.274 -1.1556 -0.5753 -0.9020
28610SOL     OW88146   8.323   1.906   3.130  0.6352 -0.5552  0.1087
28610SOL    HW188147   8.326   1.990   3.085  0.5084  0.1777  1.4275
28610SOL    HW288148   8.397   1.857   3.094  0.6552  0.0768 -0.7417
28611SOL     OW88149   8.258   1.587   7.986  0.2688  0.2603  0.0515
28611SOL    HW188150   8.251   1.673   8.028 -1.4346 -0.3983  1.2327
28611SOL    HW288151   8.175   1.543   8.007 -0.2261 -0.5707 -3.0907
28612SOL     OW88152   9.373   9.024   0.711  0.2636 -0.0829 -0.1607
28612SOL    HW188153   9.398   9.001   0.621  0.5948  1.4243 -0.4794
28612SOL    HW288154   9.455   9.049   0.753 -0.2940  3.2197 -0.7033
28613SOL     OW88155   4.749   7.452   5.500 -0.5064  0.0934  0.0921
28613SOL    HW188156   4.688   7.524   5.485 -0.5953  0.0674  0.3168
28613SOL    HW288157   4.704   7.374   5.467 -0.0967  0.2507 -0.8564
28614SOL     OW88158   5.273   8.854   7.524 -0.3905  0.3102 -0.8923
28614SOL    HW188159   5.183   8.860   7.556  0.5102  1.1709  1.7854
28614SOL    HW288160   5.302   8.945   7.516  0.4277  0.0350 -1.1323
28615SOL     OW88161   1.543  10.245   2.900 -0.1202 -0.4003  0.2462
28615SOL    HW188162   1.600  10.179   2.939  0.4364  0.2408  0.5471
28615SOL    HW288163   1.518  10.209   2.815  0.7515 -0.6842  0.1006
28616SOL     OW88164   3.939   0.931   7.413  0.1765  0.0786  0.6726
28616SOL    HW188165   3.851   0.942   7.375  1.0326 -0.0130 -1.4811
28616SOL    HW288166   3.957   1.015   7.455 -1.1682 -0.1151  1.7201
28617SOL     OW88167   2.885   1.897   9.547  0.3838  0.4710 -0.4310
28617SOL    HW188168   2.976   1.925   9.556  0.6945 -0.2264 -1.2405
28617SOL    HW288169   2.889   1.822   9.488 -0.7687  0.7115 -0.8462
28618SOL     OW88170   2.413   6.836   8.476  0.7420 -0.1843  0.7293
28618SOL    HW188171   2.433   6.921   8.436  1.4211 -0.4222  0.5588
28618SOL    HW288172   2.497   6.803   8.506  0.6830 -1.3863 -0.3549
28619SOL     OW88173   7.747   2.780   9.685 -0.4463  0.3708  0.1788
28619SOL    HW188174   7.659   2.764   9.718 -0.5263  0.8205  0.1823
28619SOL    HW288175   7.798   2.805   9.762 -0.1896 -0.3856  0.2625
28620SOL     OW88176   5.817   7.492   2.221 -0.0415  0.5390  0.5781
28620SOL    HW188177   5.781   7.560   2.277 -1.0975  0.8217 -0.4189
28620SOL    HW288178   5.875   7.442   2.279  0.7889  2.2873  1.3181
28621SOL     OW88179   3.691  10.536   2.369  0.3869 -0.7808 -0.5606
28621SOL    HW188180   3.747  10.595   2.419 -1.5866  0.7528 -0.0399
28621SOL    HW288181   3.710  10.558   2.278  0.2804  0.0941 -0.3845
28622SOL     OW88182   9.150   9.721   5.294 -0.2849 -0.3106  0.0105
28622SOL    HW188183   9.119   9.810   5.308  0.1658 -0.1508  0.0043
28622SOL    HW288184   9.074   9.666   5.314  0.1052 -0.0748  2.4589
28623SOL     OW88185   1.902  10.286  10.282  0.6946 -0.4133 -0.7819
28623SOL    HW188186   1.947  10.256  10.361  3.3283  4.2810 -0.0963
28623SOL    HW288187   1.968  10.278  10.212 -0.1724 -0.7332 -1.5789
28624SOL     OW88188   9.754   6.683   4.135 -0.8676 -0.3689 -0.1601
28624SOL    HW188189   9.684   6.748   4.127 -2.3838 -2.0126 -0.8362
28624SOL    HW288190   9.781   6.689   4.227 -1.3711  0.7819 -0.0618
28625SOL     OW88191   0.708   8.512   5.450 -0.1468 -0.3195  0.0254
28625SOL    HW188192   0.766   8.479   5.518 -1.0653 -0.1903  0.8882
28625SOL    HW288193   0.626   8.466   5.464 -1.1037  1.4836  0.5294
28626SOL     OW88194   3.518   6.526   1.423 -1.3072 -0.1853 -0.1532
28626SOL    HW188195   3.537   6.620   1.429 -1.2008 -0.2752  0.9754
28626SOL    HW288196   3.578   6.494   1.355  2.1221 -0.2896  2.6571
28627SOL     OW88197   7.359   6.430   1.831  0.2891  0.0840  0.3278
28627SOL    HW188198   7.426   6.421   1.763  3.8935  0.8639  3.4862
28627SOL    HW288199   7.323   6.342   1.842  1.1116 -0.4604 -1.1115
28628SOL     OW88200   1.168   5.500   0.333 -0.1723  0.2589  0.0802
28628SOL    HW188201   1.073   5.509   0.321 -0.3008  0.5030  1.2170
28628SOL    HW288202   1.202   5.486   0.244 -1.3574 -0.6598 -0.2503
28629SOL     OW88203   4.365   4.053   6.894  0.2948 -0.7092 -0.4471
28629SOL    HW188204   4.341   4.021   6.807 -3.5511 -1.0511  0.5598
28629SOL    HW288205   4.423   3.985   6.929  1.2412 -0.9725 -2.3720
28630SOL     OW88206   5.482   8.355  10.281 -0.6327 -0.1244 -0.4158
28630SOL    HW188207   5.480   8.374  10.375 -0.8012  1.4304 -0.7159
28630SOL    HW288208   5.490   8.259  10.277  0.0327 -0.1759  1.1789
28631SOL     OW88209   4.652   7.194   3.472 -0.0764 -0.1280  0.0906
28631SOL    HW188210   4.706   7.254   3.523  0.1168  1.4231 -1.7926
28631SOL    HW288211   4.703   7.177   3.393 -0.4409 -2.2810  0.2474
28632SOL     OW88212   4.297   6.276   3.689  0.0278 -0.2364 -0.5764
28632SOL    HW188213   4.223   6.333   3.708 -0.7446 -1.8353  1.7200
28632SOL    HW288214   4.281   6.243   3.601 -1.4257  0.3011 -0.5238
28633SOL     OW88215   8.001   2.174   6.577  0.5169 -0.2925 -0.1215
28633SOL    HW188216   8.007   2.121   6.498 -0.0285  1.0219 -1.0805
28633SOL    HW288217   7.937   2.129   6.632  1.3416 -1.5416 -0.1373
28634SOL     OW88218   2.928   7.947   9.514  0.5593  0.2268 -0.3090
28634SOL    HW188219   2.833   7.946   9.528  0.1235  0.0767 -2.6949
28634SOL    HW288220   2.961   7.874   9.565 -0.6298  0.1354  0.3788
28635SOL     OW88221   3.079   9.117   2.380 -0.4962 -0.2718  0.3386
28635SOL    HW188222   3.040   9.052   2.322 -1.0023 -0.3984  0.8184
28635SOL    HW288223   3.069   9.081   2.468 -1.3167  0.7107  0.6758
28636SOL     OW88224   1.015   7.387   6.107 -0.6735 -0.5450  0.3102
28636SOL    HW188225   1.092   7.433   6.073 -0.3779 -0.4067  1.1422
28636SOL    HW288226   0.943   7.415   6.050 -0.0481 -0.9553 -0.6953
28637SOL     OW88227   8.717   3.429   2.312  0.3677 -0.1436 -0.4148
28637SOL    HW188228   8.784   3.478   2.264 -0.4648  0.7181 -0.7302
28637SOL    HW288229   8.766   3.381   2.379  1.2852  0.5697 -0.5521
28638SOL     OW88230   9.134   4.194   4.074  0.0869 -0.0957  0.5494
28638SOL    HW188231   9.088   4.110   4.082 -0.6908  0.3802  1.2506
28638SOL    HW288232   9.223   4.175   4.102 -0.5966 -0.2554  2.7957
28639SOL     OW88233  10.278   0.049   9.967 -0.2460 -0.1567  0.4338
28639SOL    HW188234  10.333  -0.027   9.985  0.9172  0.9981  2.0699
28639SOL    HW288235  10.193   0.027  10.005 -0.0198 -0.7785  0.5874
28640SOL     OW88236  10.101   5.438   5.850 -0.5606  0.5058 -0.2000
28640SOL    HW188237  10.187   5.401   5.868 -1.9675 -2.3595  1.2838
28640SOL    HW288238  10.094   5.436   5.754  0.4108 -0.7784 -0.2795
28641SOL     OW88239   1.844   4.732   3.460  0.3097 -0.0717  0.6784
28641SOL    HW188240   1.767   4.783   3.484  0.4760  0.5565 -0.0995
28641SOL    HW288241   1.810   4.663   3.403  0.2354 -0.1921  0.8668
28642SOL     OW88242   0.805   2.226   5.096  0.5218 -0.5699 -0.6414
28642SOL    HW188243   0.733   2.165   5.113  0.1905 -0.3762 -1.3116
28642SOL    HW288244   0.880   2.169   5.075  1.0238 -0.8372  1.5628
28643SOL     OW88245   0.578   1.412   0.981  0.1493 -0.0051 -0.4040
28643SOL    HW188246   0.621   1.380   0.901  1.5185  1.0567 -0.1268
28643SOL    HW288247   0.582   1.507   0.974 -1.7025  0.1284 -0.0871
28644SOL     OW88248   3.747  10.070   4.684  0.2438  0.2164  0.2544
28644SOL    HW188249   3.773  10.130   4.753  1.3265 -0.5470  0.5392
28644SOL    HW288250   3.829  10.045   4.641 -0.4445  1.1014 -1.6972
28645SOL     OW88251   3.163   3.704   1.015  0.7429 -0.1425  0.0110
28645SOL    HW188252   3.246   3.727   0.973  0.5729  0.0356 -0.2291
28645SOL    HW288253   3.108   3.781   1.003  0.3983 -0.4168 -0.2003
28646SOL     OW88254   5.409   0.396   8.653  0.0868  0.6642  0.5146
28646SOL    HW188255   5.367   0.475   8.687 -1.3944 -0.3273  1.0906
28646SOL    HW288256   5.388   0.397   8.559  0.5745  1.2376  0.4044
28647SOL     OW88257   9.926   2.432   5.875 -0.0820 -0.2878 -0.2494
28647SOL    HW188258   9.872   2.477   5.811  0.0899 -2.3771 -1.9693
28647SOL    HW288259   9.992   2.386   5.823  2.7384  1.2696  1.6982
28648SOL     OW88260   9.239   2.873   2.724 -0.6970  0.0617  0.1525
28648SOL    HW188261   9.313   2.921   2.685  0.7181 -0.9361  1.5002
28648SOL    HW288262   9.270   2.783   2.732 -1.0261  0.1179  3.1698
28649SOL     OW88263   1.383   9.669   8.365  0.4208 -0.2354  1.1365
28649SOL    HW188264   1.399   9.590   8.313  0.7568  0.5698 -0.0091
28649SOL    HW288265   1.396   9.640   8.456  0.6915 -1.4561  0.7321
28650SOL     OW88266   4.183   2.365   3.350 -0.2056  0.1432  0.1575
28650SOL    HW188267   4.113   2.303   3.372  0.6929 -0.6137  0.9874
28650SOL    HW288268   4.186   2.367   3.255 -1.9778  0.9203  0.0793
28651SOL     OW88269   0.823   2.352   7.653  0.2571  0.5903 -0.2409
28651SOL    HW188270   0.755   2.419   7.645 -0.2856  0.1301  0.4514
28651SOL    HW288271   0.778   2.276   7.691  0.9760 -0.0003 -0.5537
28652SOL     OW88272   5.690   7.966   0.531 -0.0841 -0.0901 -0.2964
28652SOL    HW188273   5.741   8.008   0.600  0.4892 -0.0271 -0.7532
28652SOL    HW288274   5.731   7.995   0.449 -1.2458  0.4715 -0.7030
28653SOL     OW88275   4.186   6.788   8.667  0.1011 -0.0679 -0.4017
28653SOL    HW188276   4.194   6.855   8.599 -0.0246  0.0956 -0.2539
28653SOL    HW288277   4.272   6.788   8.709 -0.4833  1.3666  0.8770
28654SOL     OW88278   2.565   4.101   7.823  0.4175 -0.0378  0.5100
28654SOL    HW188279   2.644   4.076   7.872  1.1988  2.2227  0.5486
28654SOL    HW288280   2.501   4.033   7.844  1.8941 -1.1404  1.6798
28655SOL     OW88281   0.046   8.555   1.470  0.1234  0.1070 -0.0786
28655SOL    HW188282   0.028   8.633   1.417  0.6162 -1.6796 -3.1580
28655SOL    HW288283   0.139   8.561   1.490 -0.0574  0.7863  0.5907
28656SOL     OW88284   9.678   9.145   7.150  0.1896  0.1698  0.2137
28656SOL    HW188285   9.732   9.218   7.177 -1.8897  1.7141  0.4650
28656SOL    HW288286   9.680   9.084   7.225 -0.2419  1.2880  1.1618
28657SOL     OW88287   9.980   0.861   1.764 -0.0474  0.2600 -0.5253
28657SOL    HW188288   9.945   0.949   1.759  1.4660  1.0037  0.9086
28657SOL    HW288289   9.983   0.831   1.673  0.8716  2.3004 -1.2211
28658SOL     OW88290   5.581   7.812   4.365  0.1166  0.5849 -0.4727
28658SOL    HW188291   5.543   7.865   4.434  2.8999  2.5654 -0.2887
28658SOL    HW288292   5.616   7.735   4.410 -1.0005  0.2065 -0.2257
28659SOL     OW88293   4.877   7.715   3.677 -0.6477  1.0367 -0.2433
28659SOL    HW188294   4.813   7.779   3.647 -0.4866  1.0049 -0.6537
28659SOL    HW288295   4.961   7.746   3.643 -0.2954  1.5699  1.0279
28660SOL     OW88296   3.560  10.040   5.739  0.5347  0.0403 -0.3037
28660SOL    HW188297   3.487  10.055   5.680  1.5004 -1.6859 -2.0593
28660SOL    HW288298   3.638  10.058   5.686  1.4278 -0.2527  0.8580
28661SOL     OW88299   3.761   9.015   1.860 -0.1332  0.1985 -0.6145
28661SOL    HW188300   3.809   8.936   1.884 -1.2749 -0.8233 -1.5932
28661SOL    HW288301   3.826   9.069   1.814  0.8116  0.1165  0.5746
28662SOL     OW88302   7.121   1.712   7.618  0.3170  0.7445 -0.2599
28662SOL    HW188303   7.061   1.765   7.671  0.1975  0.5096 -0.1555
28662SOL    HW288304   7.204   1.760   7.620  0.3589  0.6606  0.2714
28663SOL     OW88305   1.068   4.953   0.648  0.5322  0.0970 -0.0400
28663SOL    HW188306   1.103   4.987   0.566 -1.5218  0.4788 -0.8008
28663SOL    HW288307   1.121   4.875   0.666  0.9451 -0.0503 -1.7732
28664SOL     OW88308   1.512   2.578   9.131  0.4043 -0.6160 -0.3394
28664SOL    HW188309   1.453   2.654   9.125 -0.1378 -1.0731 -0.8917
28664SOL    HW288310   1.545   2.581   9.221  1.1675  0.8432 -0.6450
28665SOL     OW88311   0.804   6.969   8.557  0.0828 -0.3489 -0.5603
28665SOL    HW188312   0.827   6.902   8.621  0.8088  0.2966 -0.1310
28665SOL    HW288313   0.859   6.949   8.481  1.5071  0.6858  0.1541
28666SOL     OW88314   4.560   5.182   8.327 -0.8377  0.3329 -0.2047
28666SOL    HW188315   4.471   5.177   8.361 -0.9169  0.9534 -0.3090
28666SOL    HW288316   4.549   5.189   8.232 -0.7584  1.9969 -0.1282
28667SOL     OW88317   8.136   1.793   9.433 -0.0211 -0.2057 -0.0560
28667SOL    HW188318   8.079   1.865   9.407 -1.0944 -0.4982  1.3551
28667SOL    HW288319   8.221   1.834   9.451 -0.1150  0.4191 -0.9980
28668SOL     OW88320   3.369  10.022   9.439  0.6463  0.6238  0.0233
28668SOL    HW188321   3.398  10.023   9.531 -1.0525  1.1089  0.6000
28668SOL    HW288322   3.355  10.114   9.418 -1.9843  0.3835  0.3573
28669SOL     OW88323   1.665   1.993   0.434  0.3184  0.0982 -0.1325
28669SOL    HW188324   1.746   2.034   0.404  0.6267 -0.3112  0.1321
28669SOL    HW288325   1.599   2.062   0.426  0.9089  0.7864  0.6810
28670SOL     OW88326   9.436   9.788   6.040  0.1454 -0.3572 -0.4524
28670SOL    HW188327   9.514   9.760   5.991 -0.0436 -2.1244  0.1919
28670SOL    HW288328   9.363   9.759   5.987 -0.0728 -2.8949  1.0869
28671SOL     OW88329   1.828   0.139   3.390 -0.1557 -0.5728 -0.2781
28671SOL    HW188330   1.791   0.200   3.326 -1.7331 -2.1321 -0.9414
28671SOL    HW288331   1.899   0.096   3.343 -0.9391 -1.3020 -0.8295
28672SOL     OW88332   0.530   5.185   8.408 -0.1196  0.1133 -0.4552
28672SOL    HW188333   0.562   5.249   8.472 -0.6553 -0.1150  0.0573
28672SOL    HW288334   0.479   5.237   8.346  1.0627  0.4504 -1.1735
28673SOL     OW88335  10.202   3.434   2.049  0.2167  0.2274  0.3389
28673SOL    HW188336  10.226   3.492   1.977  1.0794 -0.5877 -0.0590
28673SOL    HW288337  10.127   3.385   2.016  1.8575 -1.6274 -0.8864
28674SOL     OW88338   2.152   3.900   4.940 -0.9056  0.3447 -0.1188
28674SOL    HW188339   2.201   3.883   5.020  1.4079  2.9506 -0.8054
28674SOL    HW288340   2.062   3.875   4.960  0.0787 -1.5218  2.3596
28675SOL     OW88341   5.659   5.272   5.368  0.7322  0.2305 -0.6106
28675SOL    HW188342   5.719   5.346   5.376  1.2833  0.0519 -2.6194
28675SOL    HW288343   5.714   5.199   5.341 -0.0542 -0.5190 -0.2326
28676SOL     OW88344   4.171   9.541   3.178 -0.5866  0.9876 -0.2467
28676SOL    HW188345   4.097   9.552   3.238 -1.4746  0.5143 -1.2087
28676SOL    HW288346   4.141   9.474   3.116  0.6567  0.7881 -0.6639
28677SOL     OW88347   4.703   4.669   0.369  0.4287  0.6824 -0.4720
28677SOL    HW188348   4.765   4.651   0.299 -0.4281 -0.6315 -0.9292
28677SOL    HW288349   4.656   4.586   0.382 -2.0258  1.9164 -0.9429
28678SOL     OW88350   6.812   5.650   1.833  0.0330  0.2353 -0.3344
28678SOL    HW188351   6.859   5.585   1.886 -0.6201  0.2329  0.2646
28678SOL    HW288352   6.741   5.680   1.890 -2.6484 -2.0129 -2.2037
28679SOL     OW88353   4.009   4.194   1.000  0.1163 -0.0075 -0.5630
28679SOL    HW188354   3.931   4.235   0.963  0.2728 -0.5394 -1.5211
28679SOL    HW288355   4.011   4.106   0.961  2.9575  1.0482 -3.2442
28680SOL     OW88356  10.192   8.098   9.952  0.1403  0.7759 -0.2356
28680SOL    HW188357  10.099   8.111   9.973  0.1792  0.6953 -0.0180
28680SOL    HW288358  10.201   8.133   9.863 -0.1594  0.5330 -0.3623
28681SOL     OW88359   2.431   9.078   0.145  0.4804  0.0798  0.1530
28681SOL    HW188360   2.478   9.115   0.070  1.3461  0.7641  1.0044
28681SOL    HW288361   2.358   9.029   0.107  1.4008 -0.2912 -1.1615
28682SOL     OW88362   1.349   3.908   9.022 -0.5133  0.1260  0.7111
28682SOL    HW188363   1.396   3.908   8.939 -0.1158 -0.6925  0.9183
28682SOL    HW288364   1.282   3.975   9.013 -0.8147 -0.3143 -0.4705
28683SOL     OW88365   5.587   9.092  10.565 -0.5381 -0.0286 -0.1306
28683SOL    HW188366   5.616   9.004  10.589  0.1153  0.3473  0.4926
28683SOL    HW288367   5.501   9.102  10.606  0.1275  0.2366  1.2371
28684SOL     OW88368   4.535   4.459   6.591 -0.2883  0.0708  0.2349
28684SOL    HW188369   4.547   4.376   6.637 -0.0538 -0.5487 -0.9027
28684SOL    HW288370   4.445   4.457   6.561 -1.2792  1.6153  2.7774
28685SOL     OW88371   8.014   5.023   0.606  0.4194 -0.1330  0.3636
28685SOL    HW188372   7.950   5.090   0.583 -1.5601 -1.6406  1.2050
28685SOL    HW288373   8.060   5.005   0.524 -1.1482  0.0905 -0.6201
28686SOL     OW88374   6.851   2.987   9.902 -0.4583  0.0837 -0.2879
28686SOL    HW188375   6.943   2.992   9.927  0.0295 -0.4285 -1.8597
28686SOL    HW288376   6.804   2.982   9.985  1.0366 -1.5164  0.5254
28687SOL     OW88377   8.560  10.296   8.816  0.2332  0.3832  0.5090
28687SOL    HW188378   8.656  10.295   8.816  0.2473 -1.1826  1.3357
28687SOL    HW288379   8.536  10.311   8.907 -0.2878 -0.5695  0.5399
28688SOL     OW88380   3.430   7.980   7.747  0.6820 -0.2953 -0.0341
28688SOL    HW188381   3.373   7.924   7.694  0.3162 -0.3390  0.4000
28688SOL    HW288382   3.409   7.955   7.838  1.0838 -0.0086  0.1348
28689SOL     OW88383   7.130   3.514   6.267  0.0329  0.2525  0.0907
28689SOL    HW188384   7.130   3.608   6.246 -1.8319  0.3331  0.2778
28689SOL    HW288385   7.043   3.484   6.242 -1.1875 -0.4134  4.3721
28690SOL     OW88386   5.211   1.811   5.409  0.0736  0.0116  0.4833
28690SOL    HW188387   5.126   1.815   5.365 -0.4653  0.6001  1.5494
28690SOL    HW288388   5.241   1.721   5.395 -0.2309  0.0895 -0.7825
28691SOL     OW88389   4.548   0.147   3.023  0.5862 -0.3550 -0.0676
28691SOL    HW188390   4.576   0.073   3.078 -0.4608  0.9228  2.3131
28691SOL    HW288391   4.454   0.134   3.013  0.8968 -1.1025 -2.5000
28692SOL     OW88392   8.984   7.827   2.312 -0.0316  0.0600  0.1974
28692SOL    HW188393   8.932   7.853   2.236 -0.4711  1.3454  0.9000
28692SOL    HW288394   9.023   7.909   2.343  0.9389 -0.6018  0.7708
28693SOL     OW88395  10.103   4.417   3.293  0.4038 -0.1909  0.5586
28693SOL    HW188396  10.198   4.414   3.279  0.5387 -0.9017  1.5167
28693SOL    HW288397  10.081   4.510   3.288  1.6659  0.3747  3.3167
28694SOL     OW88398   7.131   4.067   3.750  0.2837 -0.4394  0.0053
28694SOL    HW188399   7.134   4.068   3.846 -0.1215  0.5642  0.0215
28694SOL    HW288400   7.099   3.980   3.727 -0.3663 -0.4234  0.8127
28695SOL     OW88401   0.637  10.344   8.261  0.1555 -0.2264 -0.0050
28695SOL    HW188402   0.675  10.306   8.340  0.4015 -1.6085 -0.7385
28695SOL    HW288403   0.552  10.377   8.288  1.2783  1.7084  1.3883
28696SOL     OW88404   1.529   7.411   2.173 -0.6202  0.5305  0.1241
28696SOL    HW188405   1.554   7.477   2.238  2.1274  0.5205 -0.7883
28696SOL    HW288406   1.445   7.441   2.139 -1.2981  1.4445  2.4378
28697SOL     OW88407   9.718   1.455   7.010 -0.6319 -0.3943 -0.5454
28697SOL    HW188408   9.622   1.454   7.010 -0.6500 -0.6549  0.8900
28697SOL    HW288409   9.742   1.436   6.919 -1.9231 -2.1521 -0.5709
28698SOL     OW88410   9.855   0.931   8.246 -0.0110 -0.5680  0.1544
28698SOL    HW188411   9.891   0.925   8.335  0.1072  2.1146  0.3806
28698SOL    HW288412   9.923   0.978   8.196 -0.9189 -0.2436 -0.8122
28699SOL     OW88413   0.266   3.409   5.939 -0.3213  0.2454 -0.3148
28699SOL    HW188414   0.307   3.447   5.861  0.0725 -2.2728 -1.4456
28699SOL    HW288415   0.248   3.318   5.914  1.5466 -1.2269  3.1415
28700SOL     OW88416   6.008   7.486   5.545 -0.1179 -0.2502 -0.1226
28700SOL    HW188417   6.067   7.414   5.565 -0.4314 -0.4397  0.1348
28700SOL    HW288418   5.983   7.472   5.453  1.8473  1.0022 -0.9133
28701SOL     OW88419   2.454   3.014   2.847  0.0166 -0.0197 -0.5428
28701SOL    HW188420   2.467   3.099   2.804  0.0681 -0.2757 -1.0446
28701SOL    HW288421   2.436   3.036   2.938 -1.8681  0.6536 -1.0199
28702SOL     OW88422   7.588   1.424   4.796  0.2716  0.1603  0.4474
28702SOL    HW188423   7.578   1.330   4.807 -0.5007  0.4046  2.1798
28702SOL    HW288424   7.601   1.436   4.702  1.7675 -1.7703  0.3383
28703SOL     OW88425   0.521   7.743   2.139  0.0417 -0.7640  0.4345
28703SOL    HW188426   0.500   7.809   2.073 -0.2711 -0.6051  0.6905
28703SOL    HW288427   0.572   7.789   2.205  0.2140 -0.8852  0.3855
28704SOL     OW88428   2.457   6.087   6.589 -0.1332 -0.1147  0.5303
28704SOL    HW188429   2.460   6.015   6.526  0.8221 -0.6232  1.1286
28704SOL    HW288430   2.373   6.077   6.633  0.3622 -1.4232  1.2228
28705SOL     OW88431   0.980   9.335   1.154 -0.2196 -0.0265  0.2829
28705SOL    HW188432   1.039   9.410   1.162 -0.1584 -0.0565  0.1297
28705SOL    HW288433   0.893   9.373   1.162 -0.1794  0.0196  0.5018
28706SOL     OW88434   9.851   2.001   2.884 -0.6327 -0.4161 -0.4318
28706SOL    HW188435   9.767   2.009   2.838 -0.6464  0.0187 -0.3338
28706SOL    HW288436   9.836   1.932   2.949 -0.7823 -0.6437 -0.7072
28707SOL     OW88437   1.111   4.226   2.080 -0.6962  0.4407  0.4117
28707SOL    HW188438   1.080   4.261   1.996 -0.4298  2.1559  0.9875
28707SOL    HW288439   1.199   4.264   2.090 -0.1757 -0.8379  0.8463
28708SOL     OW88440   9.695   0.975   8.870 -0.2757  0.1180 -0.1185
28708SOL    HW188441   9.599   0.977   8.871 -0.3270  0.4807 -2.0121
28708SOL    HW288442   9.721   1.067   8.875  0.0797 -0.0332  2.0809
28709SOL     OW88443  10.516   9.763   4.152 -0.5708 -0.0680 -0.3045
28709SOL    HW188444  10.530   9.681   4.200 -1.1672 -0.0220 -0.0492
28709SOL    HW288445  10.490   9.826   4.218 -0.9478  0.1141 -0.6215
28710SOL     OW88446   3.054   2.789   4.639  0.0345  0.3717 -0.4042
28710SOL    HW188447   3.128   2.837   4.602 -1.1786  1.8228 -1.0501
28710SOL    HW288448   3.009   2.853   4.695  0.5926 -1.1573  1.9384
28711SOL     OW88449   9.281   9.007   5.695 -0.2314 -1.3263 -0.4206
28711SOL    HW188450   9.240   8.991   5.780 -0.6526 -1.9509 -0.7361
28711SOL    HW288451   9.341   8.933   5.684  0.4537 -0.7980 -0.2879
28712SOL     OW88452   4.435   9.640   3.835  0.5813 -0.4750 -0.1266
28712SOL    HW188453   4.368   9.698   3.802 -0.2819 -0.8802  0.8623
28712SOL    HW288454   4.390   9.557   3.852  1.0685 -0.4410  1.5466
28713SOL     OW88455   5.377   4.380   1.537  0.7039 -0.2964 -0.3778
28713SOL    HW188456   5.440   4.448   1.563 -0.2487  0.4225  0.1308
28713SOL    HW288457   5.389   4.371   1.442  0.7162  0.7375 -0.4852
28714SOL     OW88458   1.490   6.735   9.131  0.1062  0.3369  0.0679
28714SOL    HW188459   1.577   6.739   9.171  0.4035  1.4556 -0.6232
28714SOL    HW288460   1.429   6.736   9.205  0.6497 -2.1662  0.6528
28715SOL     OW88461   6.564  10.475   4.698 -0.0474 -0.1799  0.6716
28715SOL    HW188462   6.636  10.490   4.636 -0.2772 -2.6632 -0.2861
28715SOL    HW288463   6.606  10.435   4.774 -0.2447 -0.3343  0.6991
28716SOL     OW88464   4.205   4.787   6.833  0.3427  0.1285  0.0602
28716SOL    HW188465   4.223   4.736   6.753  1.2808 -0.0663  0.3840
28716SOL    HW288466   4.173   4.871   6.801  0.7511  0.0664 -0.5294
28717SOL     OW88467   2.185   9.585   7.291  0.1751  0.1028 -0.3636
28717SOL    HW188468   2.119   9.653   7.306 -0.0934  0.7742 -3.7360
28717SOL    HW288469   2.268   9.628   7.311 -0.1672  0.4704  0.3054
28718SOL     OW88470   7.169   8.532   7.848  0.3220  0.0686  0.0065
28718SOL    HW188471   7.225   8.455   7.850  0.6718  0.2996 -0.6366
28718SOL    HW288472   7.084   8.500   7.818  0.1377 -0.2609  0.8587
28719SOL     OW88473   2.004   1.261   5.959 -0.3485  0.0639  0.4693
28719SOL    HW188474   1.998   1.226   5.870  2.6928  1.0376 -0.2647
28719SOL    HW288475   1.915   1.288   5.981 -1.1833 -0.1071 -2.3162
28720SOL     OW88476   5.776  10.350   0.591  0.2076  0.2204 -0.3041
28720SOL    HW188477   5.753  10.277   0.533 -0.7502  0.7263 -0.5860
28720SOL    HW288478   5.795  10.423   0.531  1.9664  0.0102 -0.0575
28721SOL     OW88479   5.169   5.470   3.531 -0.5544  0.7826 -0.2188
28721SOL    HW188480   5.135   5.509   3.612 -2.5453 -0.2658 -0.4918
28721SOL    HW288481   5.149   5.535   3.463 -0.2329  1.0218 -0.0841
28722SOL     OW88482   1.919   9.370   0.112  0.4402  1.0519 -0.0287
28722SOL    HW188483   1.915   9.423   0.032  1.2301  1.8505  0.4498
28722SOL    HW288484   1.914   9.280   0.081 -1.2735  1.3829 -0.8399
28723SOL     OW88485   4.499   7.876   0.497 -0.2836  0.1459  0.7782
28723SOL    HW188486   4.454   7.819   0.435 -0.2285 -0.8090  1.5878
28723SOL    HW288487   4.432   7.901   0.560 -0.2755  0.8730  0.5028
28724SOL     OW88488   3.814   7.611   0.544 -0.9577 -0.3295 -0.0343
28724SOL    HW188489   3.908   7.631   0.553 -1.0170 -0.1530  0.2086
28724SOL    HW288490   3.809   7.552   0.469 -0.5652 -0.9155  0.3901
28725SOL     OW88491   6.494   9.423   0.526 -0.1799  0.3516 -0.1776
28725SOL    HW188492   6.505   9.518   0.533 -0.7291  0.5015 -1.1847
28725SOL    HW288493   6.475   9.408   0.433 -1.6421 -0.5878  0.2428
28726SOL     OW88494   9.803   1.336   8.045 -0.1082  0.2462 -0.3630
28726SOL    HW188495   9.756   1.370   8.121  0.3860  0.6912 -0.2596
28726SOL    HW288496   9.744   1.354   7.971  0.1415  1.3373 -0.3135
28727SOL     OW88497   6.795   9.326   5.613  0.0407  0.5055 -1.0011
28727SOL    HW188498   6.711   9.319   5.658  0.2844  4.2761  0.3467
28727SOL    HW288499   6.859   9.293   5.676 -0.2786 -2.9604 -2.2519
28728SOL     OW88500   4.579   5.793   4.938 -0.2416 -0.1715  0.2256
28728SOL    HW188501   4.602   5.882   4.963  0.8257 -0.4218  0.1828
28728SOL    HW288502   4.502   5.803   4.883  0.1028  0.7626 -0.1106
28729SOL     OW88503   7.522   8.117   3.466  0.1407 -0.4551  0.0333
28729SOL    HW188504   7.444   8.172   3.465  0.8957  0.6555 -0.8792
28729SOL    HW288505   7.533   8.092   3.558  0.0072  1.2671  0.5458
28730SOL     OW88506   4.493   7.290   8.134 -0.4093 -0.4758 -0.0093
28730SOL    HW188507   4.580   7.254   8.117  0.0953  1.9866 -3.9361
28730SOL    HW288508   4.489   7.300   8.229  2.5178 -3.0172  0.5373
28731SOL     OW88509   3.434   4.194   0.581 -0.0491  0.3710 -0.1908
28731SOL    HW188510   3.488   4.173   0.657  1.7530 -1.0577 -1.7577
28731SOL    HW288511   3.469   4.277   0.549  2.2502 -1.1196 -1.9087
28732SOL     OW88512   9.955   7.043  10.188  0.0153  0.1559  0.2276
28732SOL    HW188513   9.915   7.067  10.104 -1.1768  0.6895  0.9160
28732SOL    HW288514   9.978   6.951  10.179  1.1077  0.5279 -1.1308
28733SOL     OW88515   3.242   4.480   3.924  0.2142 -0.3208  0.1412
28733SOL    HW188516   3.258   4.397   3.969 -0.9492 -0.8885 -0.4493
28733SOL    HW288517   3.322   4.531   3.939  1.9120 -2.3622 -1.3362
28734SOL     OW88518   3.829   9.840   6.978 -0.0581 -0.1073  0.0588
28734SOL    HW188519   3.884   9.821   7.054 -1.1443  1.3636  1.2539
28734SOL    HW288520   3.866   9.920   6.941  0.0814 -0.4736 -0.6147
28735SOL     OW88521   2.958   0.871   7.770  0.9005  0.6605 -0.0648
28735SOL    HW188522   2.875   0.901   7.735  1.2468  1.0087 -0.6004
28735SOL    HW288523   3.024   0.927   7.728  1.5636 -0.8379 -1.1326
28736SOL     OW88524   7.791   7.971   5.608 -0.3552  0.0697  0.2568
28736SOL    HW188525   7.704   7.977   5.570 -0.4732 -0.2253  0.4803
28736SOL    HW288526   7.804   7.878   5.625 -0.6556  0.2823  1.7606
28737SOL     OW88527   9.093   7.410   8.300 -0.7479 -0.4915  0.2053
28737SOL    HW188528   9.170   7.388   8.247 -0.0542  2.1140 -0.0332
28737SOL    HW288529   9.045   7.328   8.308  2.7549 -2.6569  1.6216
28738SOL     OW88530   9.745   9.269   2.883  0.6118  0.5707 -0.1850
28738SOL    HW188531   9.689   9.234   2.952  0.8822  1.1277  0.3245
28738SOL    HW288532   9.687   9.276   2.807  0.4594 -0.6126 -0.1983
28739SOL     OW88533   4.758   9.284   5.959  0.0338  0.3539  0.2274
28739SOL    HW188534   4.799   9.370   5.954 -1.1304  1.0698  2.1254
28739SOL    HW288535   4.685   9.289   5.897  0.0190  0.6822  0.2721
28740SOL     OW88536   5.539   3.831   7.670  0.4494 -0.0456  0.1399
28740SOL    HW188537   5.550   3.786   7.754 -0.4049 -1.8257 -0.6428
28740SOL    HW288538   5.446   3.857   7.669  0.4045 -0.2124 -0.3288
28741SOL     OW88539   5.609   6.380   3.013 -0.2889  0.1417 -0.0194
28741SOL    HW188540   5.540   6.347   2.956 -0.2594  0.1538 -0.0623
28741SOL    HW288541   5.663   6.435   2.956 -0.4938  0.4812  0.1159
28742SOL     OW88542   3.814   3.639   9.940 -0.0863 -0.2968 -0.2667
28742SOL    HW188543   3.728   3.678   9.956 -0.6351 -1.3805 -0.5313
28742SOL    HW288544   3.872   3.715   9.927 -0.9101  0.4532  0.2987
28743SOL     OW88545   4.852   5.763   5.363  0.1497 -0.1526 -0.4912
28743SOL    HW188546   4.777   5.793   5.415  0.0380 -0.4513 -0.4779
28743SOL    HW288547   4.915   5.834   5.370  0.8735 -0.9210  1.5527
28744SOL     OW88548   3.900   6.840   6.193 -0.2765  0.3165  0.1518
28744SOL    HW188549   3.909   6.898   6.118 -1.1561 -0.4391 -0.5713
28744SOL    HW288550   3.906   6.752   6.156  0.3458 -0.0724  1.1258
28745SOL     OW88551   6.420   5.883   2.246 -0.3716 -0.2640  0.0429
28745SOL    HW188552   6.333   5.843   2.239 -0.3889 -0.3280  0.6198
28745SOL    HW288553   6.463   5.836   2.317 -0.3890  0.7152  0.7256
28746SOL     OW88554   1.637   2.320   9.468 -0.8018  0.0138  0.3710
28746SOL    HW188555   1.691   2.262   9.414 -1.4777 -0.9324  0.6717
28746SOL    HW288556   1.698   2.382   9.506 -0.1394 -0.1225 -0.4484
28747SOL     OW88557   8.783   5.556   8.463 -0.4904  0.2408  0.2267
28747SOL    HW188558   8.823   5.469   8.465 -0.2652  0.3459  1.1233
28747SOL    HW288559   8.819   5.600   8.541  0.3381  1.5641 -0.8472
28748SOL     OW88560  10.180   1.206   7.608  1.1126 -0.1355  0.0794
28748SOL    HW188561  10.194   1.173   7.697  1.1026 -0.6867 -0.1199
28748SOL    HW288562  10.165   1.127   7.556 -0.8663  0.2882 -0.0693
28749SOL     OW88563   9.519   9.328   5.297  0.1746 -0.3030  0.3335
28749SOL    HW188564   9.578   9.254   5.280  1.1079  0.3857  0.5587
28749SOL    HW288565   9.462   9.330   5.220  2.1938  0.6858 -1.2300
28750SOL     OW88566   2.376   8.868  10.419  0.2629 -0.5636  0.8557
28750SOL    HW188567   2.367   8.815  10.339 -0.3245 -0.0893  0.6022
28750SOL    HW288568   2.438   8.819  10.473 -1.4980 -2.3939  1.3351
28751SOL     OW88569   0.575   5.627   5.763  0.0567 -0.3039  0.0752
28751SOL    HW188570   0.583   5.550   5.818 -1.1048  1.0421  2.2856
28751SOL    HW288571   0.500   5.609   5.706  0.3680 -1.1649 -0.0629
28752SOL     OW88572   5.831   0.163   8.105  0.2196 -0.5682 -0.3240
28752SOL    HW188573   5.874   0.230   8.052  0.8482 -1.7996 -1.4158
28752SOL    HW288574   5.900   0.129   8.162 -0.3825  0.5394  1.1328
28753SOL     OW88575   5.473   5.948   0.717 -0.2190  0.3472  0.2758
28753SOL    HW188576   5.426   5.927   0.799 -1.4403  2.2676  0.1119
28753SOL    HW288577   5.538   6.012   0.743 -0.0222  0.3092 -0.1244
28754SOL     OW88578   4.969  10.371   5.084 -0.2333 -0.3506 -0.2339
28754SOL    HW188579   5.039  10.430   5.112 -0.7830  0.4319 -0.4391
28754SOL    HW288580   4.888  10.420   5.103 -0.7194 -1.2108 -0.0390
28755SOL     OW88581   4.066   5.998   7.249  0.4757 -0.0330  0.0882
28755SOL    HW188582   4.029   5.953   7.173 -0.0365  0.1657  0.2167
28755SOL    HW288583   4.125   6.063   7.212 -1.5243  1.7076 -0.2859
28756SOL     OW88584   8.534  10.063   2.108  0.0063  0.1839 -0.0618
28756SOL    HW188585   8.593  10.137   2.122  1.7551 -1.0127 -0.6138
28756SOL    HW288586   8.471  10.093   2.043  0.7447  1.1581 -0.3410
28757SOL     OW88587   0.119   8.267   2.928 -0.3183  0.2564  0.0173
28757SOL    HW188588   0.130   8.245   3.021 -0.4467 -1.8443 -0.4024
28757SOL    HW288589   0.033   8.306   2.923  0.0603  1.2628  0.9058
28758SOL     OW88590  10.333  10.130   6.622 -0.1714 -0.4696 -0.2444
28758SOL    HW188591  10.415  10.096   6.586 -0.2228 -1.7796  0.8046
28758SOL    HW288592  10.286  10.166   6.546  1.3142  0.2215 -0.8686
28759SOL     OW88593   7.438   8.701   0.955 -0.0760  0.2167  0.1063
28759SOL    HW188594   7.375   8.742   1.015 -0.3994 -0.6712  0.3875
28759SOL    HW288595   7.519   8.749   0.970 -0.6319  1.2750 -0.1412
28760SOL     OW88596   1.410   7.374   7.845  0.1091 -0.6063  0.6027
28760SOL    HW188597   1.370   7.424   7.774  0.8251 -0.7696  0.0723
28760SOL    HW288598   1.477   7.432   7.880 -0.0874 -0.6146  1.0025
28761SOL     OW88599   1.818   7.313   0.501 -0.1956  0.5971  0.7570
28761SOL    HW188600   1.857   7.397   0.474 -0.2229  0.2471 -0.4453
28761SOL    HW288601   1.866   7.247   0.451 -0.6017 -0.0513  1.2110
28762SOL     OW88602   8.899  10.212   2.113 -0.0228 -0.0797 -0.1661
28762SOL    HW188603   8.811  10.243   2.134 -1.4790 -3.3692 -0.7373
28762SOL    HW288604   8.929  10.270   2.043 -2.0231  0.7089 -0.4339
28763SOL     OW88605   7.289   9.177   3.479 -0.5288  0.3961 -0.2712
28763SOL    HW188606   7.317   9.121   3.552  1.7684  1.5590 -0.1721
28763SOL    HW288607   7.229   9.241   3.519 -0.2284  0.2915  0.3540
28764SOL     OW88608   3.001  10.182   8.866  0.1677 -0.1367  0.0161
28764SOL    HW188609   3.007  10.228   8.949  0.3000  0.5617 -0.3677
28764SOL    HW288610   2.968  10.248   8.804  1.1355 -0.3138 -0.7203
28765SOL     OW88611   0.840   2.091   0.507 -0.2055 -0.2614  0.1181
28765SOL    HW188612   0.846   2.079   0.412 -1.8836  0.1062 -0.0595
28765SOL    HW288613   0.828   2.185   0.520  0.3013 -0.2722  0.7159
28766SOL     OW88614   0.823   7.797   5.229  0.6710  0.1498  0.1664
28766SOL    HW188615   0.888   7.852   5.273  0.8350  0.6611 -0.6801
28766SOL    HW288616   0.758   7.778   5.296  0.9756  0.8003  0.6612
28767SOL     OW88617   0.566   4.042   0.042 -0.1343  0.5561 -0.6425
28767SOL    HW188618   0.480   4.009   0.017  0.3122 -0.6366 -0.6482
28767SOL    HW288619   0.549   4.100   0.116 -1.2538  2.5744 -2.3682
28768SOL     OW88620   3.814   1.122   7.110 -0.3132  0.3160  0.5962
28768SOL    HW188621   3.731   1.114   7.062 -0.7118 -0.6462  1.4081
28768SOL    HW288622   3.790   1.163   7.193 -0.0624 -0.3692  1.0187
28769SOL     OW88623   1.121   9.977   7.224  0.0188  0.1184 -0.2575
28769SOL    HW188624   1.168  10.047   7.178  0.7110  0.2756  0.6668
28769SOL    HW288625   1.148   9.986   7.315 -1.5123 -0.0402  0.2331
28770SOL     OW88626   3.187   0.391   9.253 -0.0417  0.1037  0.1891
28770SOL    HW188627   3.197   0.453   9.181 -2.5991 -0.2659 -0.6000
28770SOL    HW288628   3.215   0.307   9.216  0.0605  0.1695  0.1168
28771SOL     OW88629   9.312   5.572   7.375  0.4447  0.6733 -0.1565
28771SOL    HW188630   9.298   5.506   7.442  2.6266 -1.6232 -1.7648
28771SOL    HW288631   9.307   5.524   7.292 -2.0185  3.3448 -1.7652
28772SOL     OW88632   0.210   5.817   8.118 -0.0892 -0.1988  0.7339
28772SOL    HW188633   0.214   5.735   8.168 -0.5516 -0.9993 -0.4751
28772SOL    HW288634   0.300   5.849   8.118  0.3620 -1.3797  0.2036
28773SOL     OW88635   0.618   5.676   9.643  0.2517 -0.2329 -0.0210
28773SOL    HW188636   0.605   5.771   9.635  1.5121 -0.0962 -0.6591
28773SOL    HW288637   0.629   5.646   9.553  1.2832 -0.7611  0.2737
28774SOL     OW88638   0.385   9.782   4.899  0.5349  0.2262  0.4731
28774SOL    HW188639   0.381   9.805   4.807 -2.6191 -0.1321  0.4094
28774SOL    HW288640   0.347   9.857   4.945  0.6634 -0.2077  1.3203
28775SOL     OW88641   2.210   8.826   2.751  0.4124  0.2605  0.3882
28775SOL    HW188642   2.303   8.848   2.759  0.6477 -1.1553  2.0290
28775SOL    HW288643   2.197   8.753   2.811 -1.6837  0.1316 -0.1416
28776SOL     OW88644  10.199   1.076   2.160 -0.0709 -0.3948  0.0470
28776SOL    HW188645  10.141   1.040   2.227  0.3819  0.5428  0.9759
28776SOL    HW288646  10.235   1.155   2.200 -0.9053  1.0178 -1.8559
28777SOL     OW88647   8.421   3.887   8.726  0.0377 -0.4403  0.6385
28777SOL    HW188648   8.414   3.970   8.680 -0.6940  0.1663  1.7942
28777SOL    HW288649   8.369   3.899   8.805 -1.3295 -2.5046  0.1353
28778SOL     OW88650   0.244  10.053   4.252 -0.3173  0.2635 -0.5087
28778SOL    HW188651   0.282   9.968   4.276 -0.9178  0.2620  0.4730
28778SOL    HW288652   0.278  10.114   4.317  1.1389  1.0630 -1.9568
28779SOL     OW88653   8.731   9.288   8.241  0.3119 -0.1742 -0.2103
28779SOL    HW188654   8.719   9.377   8.208  0.8565  0.4398  1.1863
28779SOL    HW288655   8.717   9.295   8.335 -0.0507 -1.6601 -0.1366
28780SOL     OW88656   5.822   6.723   9.175  0.0802  0.4477  0.0641
28780SOL    HW188657   5.743   6.727   9.122 -0.5080 -0.4759  0.8142
28780SOL    HW288658   5.880   6.663   9.128  0.3988  1.2414 -0.5615
28781SOL     OW88659   1.088   6.168   3.117  0.1208 -0.2109  0.3466
28781SOL    HW188660   1.032   6.183   3.041  0.2579 -0.5063  0.1862
28781SOL    HW288661   1.121   6.254   3.140 -0.6126  0.0124  0.6093
28782SOL     OW88662   2.981   7.354   1.807  0.4674  0.7198 -0.5054
28782SOL    HW188663   2.909   7.294   1.786  0.3333  0.4537  0.6715
28782SOL    HW288664   2.941   7.424   1.858  1.3816 -0.7571  2.4792
28783SOL     OW88665   8.472   6.155   8.361  0.2089  0.0039 -0.4340
28783SOL    HW188666   8.426   6.099   8.299 -1.3646  1.4484 -0.6352
28783SOL    HW288667   8.562   6.121   8.362 -0.1418 -1.0981 -2.2205
28784SOL     OW88668   6.688   7.526   0.976  0.0073  0.1000  0.2233
28784SOL    HW188669   6.635   7.525   1.056  0.4298  1.4606  0.5463
28784SOL    HW288670   6.759   7.588   0.995 -0.5528  1.3804 -1.6135
28785SOL     OW88671   3.868   4.490   4.322 -0.2713 -0.1027 -0.2947
28785SOL    HW188672   3.833   4.424   4.382 -0.3322  0.5329  0.3802
28785SOL    HW288673   3.962   4.473   4.319 -0.0024  0.9185  1.3397
28786SOL     OW88674   1.606  10.295   9.602  0.7614 -0.5098 -0.1773
28786SOL    HW188675   1.656  10.219   9.631 -1.6844 -1.2932  2.4295
28786SOL    HW288676   1.551  10.318   9.677 -2.0119  0.9000 -2.4490
28787SOL     OW88677   7.332   2.485   6.905  0.0249 -0.6212  0.4642
28787SOL    HW188678   7.393   2.423   6.943  0.2196 -0.3255  0.6406
28787SOL    HW288679   7.363   2.497   6.815  0.9730  0.4510  0.9043
28788SOL     OW88680   4.671   1.251   2.254  0.0881  0.6891 -0.6418
28788SOL    HW188681   4.618   1.190   2.305  1.7952 -1.7470 -1.6007
28788SOL    HW288682   4.762   1.232   2.280  0.7305  2.5269 -1.3375
28789SOL     OW88683   4.799   7.204   5.340 -0.1079  0.1057 -0.4823
28789SOL    HW188684   4.717   7.156   5.338 -0.3164  0.4848 -1.4596
28789SOL    HW288685   4.866   7.136   5.351 -0.2970 -0.6054 -3.0480
28790SOL     OW88686  10.191   5.094   1.427 -0.1843  0.4287  0.3602
28790SOL    HW188687  10.161   5.092   1.336  2.3176  2.9967 -0.6599
28790SOL    HW288688  10.200   5.002   1.451 -0.0553 -0.3323 -2.3107
28791SOL     OW88689   2.690   0.285   3.727 -0.2884 -0.1635  0.0523
28791SOL    HW188690   2.764   0.226   3.713  1.0071  1.5025 -0.4549
28791SOL    HW288691   2.686   0.296   3.822 -0.7681 -1.3133  0.1748
28792SOL     OW88692   1.526   0.688   8.516 -0.5912  0.1944 -0.5540
28792SOL    HW188693   1.616   0.685   8.483  0.4884  0.3531  2.1565
28792SOL    HW288694   1.502   0.596   8.528 -0.5254  0.1747 -0.5731
28793SOL     OW88695   5.970   3.413   7.170 -0.3245 -0.1885  0.1576
28793SOL    HW188696   5.885   3.406   7.127  0.6320  0.1951 -1.8975
28793SOL    HW288697   6.028   3.449   7.103  0.9948  1.6323  2.1424
28794SOL     OW88698   4.496   7.847   7.276  0.2885 -0.1751  0.2062
28794SOL    HW188699   4.517   7.941   7.280 -0.5726  0.0652 -0.5719
28794SOL    HW288700   4.406   7.842   7.308  0.5443 -0.8186  0.8275
28795SOL     OW88701   9.160   3.521   8.905 -0.3090  0.1670 -0.2328
28795SOL    HW188702   9.251   3.534   8.880 -0.5959  1.8596 -0.5731
28795SOL    HW288703   9.110   3.549   8.828 -1.1246  0.6793  0.4571
28796SOL     OW88704   3.802   0.859  10.526  0.5748  0.5427  0.2805
28796SOL    HW188705   3.777   0.906  10.605  0.1669  1.9149 -0.6233
28796SOL    HW288706   3.866   0.916  10.483  2.2509 -1.0573  0.5349
28797SOL     OW88707   2.277   1.653   9.847  0.8571  0.4619  0.5485
28797SOL    HW188708   2.238   1.727   9.800  2.7394  0.4422 -1.1676
28797SOL    HW288709   2.338   1.692   9.909  0.0584  0.4001  1.3962
28798SOL     OW88710   9.995   5.753   3.509  0.2880  0.4180 -0.1558
28798SOL    HW188711   9.918   5.708   3.543  0.8384  0.2082  0.8811
28798SOL    HW288712  10.001   5.834   3.560 -0.1877  1.2575 -1.3944
28799SOL     OW88713   8.489  10.041   3.589 -0.2244  0.1715 -0.1470
28799SOL    HW188714   8.481   9.947   3.572  2.5129 -0.1940  0.1057
28799SOL    HW288715   8.492  10.081   3.502  1.0948 -0.2808 -0.3249
28800SOL     OW88716   6.634   0.185   9.862 -0.8732 -0.4391  0.2034
28800SOL    HW188717   6.549   0.145   9.877 -1.6373  0.5386 -1.2020
28800SOL    HW288718   6.639   0.196   9.767  1.0203 -0.8516  0.2086
28801SOL     OW88719   5.957   0.626   8.150  0.0112  0.2482  0.6160
28801SOL    HW188720   6.039   0.660   8.184 -0.7212  1.9630  0.7523
28801SOL    HW288721   5.890   0.688   8.180 -1.1244 -0.1916 -0.8609
28802SOL     OW88722   0.985   0.402   2.170 -0.8868  0.2846 -0.1471
28802SOL    HW188723   1.066   0.431   2.212 -0.6336 -0.7259  0.0797
28802SOL    HW288724   1.012   0.331   2.112 -1.5583  0.1709 -0.3319
28803SOL     OW88725   8.365   2.356   6.857 -0.3906 -0.5855 -0.2409
28803SOL    HW188726   8.438   2.324   6.803 -0.8405 -1.4329 -0.3624
28803SOL    HW288727   8.290   2.303   6.830 -0.6190 -1.0517  1.2488
28804SOL     OW88728  10.227   3.522  10.329 -0.9891 -0.7509  0.7489
28804SOL    HW188729  10.264   3.489  10.411 -2.3827 -1.8900  0.9756
28804SOL    HW288730  10.275   3.476  10.260 -1.0889 -1.2263  0.9924
28805SOL     OW88731   3.239   1.657   8.255  0.5741  0.1053  0.6033
28805SOL    HW188732   3.257   1.750   8.267 -1.5514  0.8040 -1.0423
28805SOL    HW288733   3.216   1.648   8.162  0.4733 -2.0206  0.7748
28806SOL     OW88734   0.961   1.965   8.075  0.3870  0.0610  0.0174
28806SOL    HW188735   1.001   1.979   7.989  0.1125 -0.9759 -0.2935
28806SOL    HW288736   0.990   2.040   8.127  1.9450 -0.1542 -0.4774
28807SOL     OW88737   8.153   9.205   3.764  0.3966  0.3561  0.4213
28807SOL    HW188738   8.100   9.262   3.708 -1.9965 -1.5500  0.6063
28807SOL    HW288739   8.225   9.261   3.794 -1.3316  3.0174 -0.0869
28808SOL     OW88740   1.138   5.084   1.549  0.1548  0.0464  0.2544
28808SOL    HW188741   1.154   5.042   1.633 -1.9381 -1.1056  0.1562
28808SOL    HW288742   1.051   5.124   1.558  0.1917  0.4969 -1.1246
28809SOL     OW88743   3.404   3.175   1.070  0.9086 -0.1678 -0.2493
28809SOL    HW188744   3.467   3.231   1.116  0.1954 -0.8686  1.6598
28809SOL    HW288745   3.445   3.089   1.069  0.4832 -0.3752 -0.0230
28810SOL     OW88746  10.233   8.041   0.767  0.3946  0.6551  0.2439
28810SOL    HW188747  10.277   8.124   0.781 -0.6735  1.3892 -0.5942
28810SOL    HW288748  10.240   7.995   0.851  0.2898  1.9314  0.9685
28811SOL     OW88749   6.444   9.712   0.545 -0.1685 -0.3355  0.6735
28811SOL    HW188750   6.359   9.674   0.568 -0.3613 -0.4451 -0.2069
28811SOL    HW288751   6.429   9.758   0.462  1.2786 -2.8466 -1.1122
28812SOL     OW88752   3.946   3.623  10.536 -0.0207  0.1963  0.4700
28812SOL    HW188753   3.870   3.658  10.583 -0.3479  1.8505 -1.1814
28812SOL    HW288754   3.917   3.618  10.445  0.9252 -1.9513  0.2291
28813SOL     OW88755   0.512   5.688   7.703 -0.3320 -0.3804  0.2312
28813SOL    HW188756   0.442   5.715   7.762  0.7365  2.4109  0.3907
28813SOL    HW288757   0.592   5.713   7.748  0.8735 -3.6844  0.1491
28814SOL     OW88758   2.162   6.668   1.344 -0.2982 -0.2665 -0.7385
28814SOL    HW188759   2.203   6.584   1.364  1.9192  0.8846 -0.1057
28814SOL    HW288760   2.216   6.732   1.390 -0.0066  1.8073 -3.7339
28815SOL     OW88761   2.071   8.881   8.117  0.2405  0.2456  0.3734
28815SOL    HW188762   2.009   8.939   8.073  0.0156  1.4587  2.1845
28815SOL    HW288763   2.023   8.846   8.192  1.3153  0.1639  1.0494
28816SOL     OW88764   4.337   1.190   8.768 -0.3682  0.4556 -0.2724
28816SOL    HW188765   4.345   1.283   8.786 -1.0147  0.6553 -0.9429
28816SOL    HW288766   4.332   1.184   8.672 -0.3820 -0.2614 -0.2356
28817SOL     OW88767   5.133   1.837   1.577  0.0766  0.0221 -0.1838
28817SOL    HW188768   5.201   1.858   1.641  1.0630  0.1750 -1.2590
28817SOL    HW288769   5.051   1.865   1.619  0.4873 -1.4454  1.7051
28818SOL     OW88770   8.170   4.874   6.010  0.3635 -0.8334 -0.1351
28818SOL    HW188771   8.178   4.779   5.996  1.2998 -1.1202  1.8961
28818SOL    HW288772   8.136   4.881   6.099  1.0252  0.7445  0.0181
28819SOL     OW88773   0.650   0.487   8.919  0.0323  0.2123 -0.1119
28819SOL    HW188774   0.728   0.433   8.927  0.1636  0.4710  0.3840
28819SOL    HW288775   0.667   0.543   8.843 -0.0439 -0.3289 -0.5386
28820SOL     OW88776   1.580   9.290   8.250  0.3678  0.5031 -0.0623
28820SOL    HW188777   1.662   9.249   8.277 -0.0128  0.3823  0.9599
28820SOL    HW288778   1.528   9.218   8.215 -0.0578  0.2039  1.1466
28821SOL     OW88779  10.381   2.460   4.917 -0.0329  0.2949  0.2856
28821SOL    HW188780  10.371   2.513   4.839  2.0561 -0.8385 -0.8282
28821SOL    HW288781  10.459   2.495   4.961 -0.9565  0.6749  1.7094
28822SOL     OW88782   0.177   4.313   6.710 -0.1339 -0.0341  0.0015
28822SOL    HW188783   0.228   4.237   6.684 -0.4944 -1.1867  2.3802
28822SOL    HW288784   0.238   4.368   6.759 -0.4550 -0.0208  0.3994
28823SOL     OW88785   4.132   7.151   1.894 -0.1790  0.2680  0.0466
28823SOL    HW188786   4.095   7.167   1.807 -0.5674 -0.4311  0.0817
28823SOL    HW288787   4.224   7.128   1.877  0.2758  2.0099 -0.0379
28824SOL     OW88788   1.901   4.115   9.903 -0.0784 -0.2320  0.1715
28824SOL    HW188789   1.963   4.050   9.870  0.1018  0.8200 -1.6435
28824SOL    HW288790   1.818   4.092   9.862 -0.7088 -0.9751  1.7483
28825SOL     OW88791   5.356   5.219   1.910 -0.1029 -0.2908 -0.3031
28825SOL    HW188792   5.287   5.285   1.920  0.2740  0.0591  0.0141
28825SOL    HW288793   5.434   5.270   1.888 -0.1807 -0.7706 -1.7758
28826SOL     OW88794   6.247   1.689   5.463  0.1103  0.4733 -0.2856
28826SOL    HW188795   6.281   1.720   5.379 -0.4096 -0.1181 -0.7236
28826SOL    HW288796   6.211   1.767   5.505 -0.3567  0.6303 -0.9723
28827SOL     OW88797   5.291   9.313   9.118  0.1050  0.1899  0.2542
28827SOL    HW188798   5.381   9.301   9.090 -0.2250  0.5908 -1.0222
28827SOL    HW288799   5.248   9.230   9.099  0.5615 -0.6570  2.5072
28828SOL     OW88800   5.189  10.529   5.166  0.0589  0.4597  0.4833
28828SOL    HW188801   5.212  10.506   5.076  0.6026  0.5319  0.6006
28828SOL    HW288802   5.165  10.622   5.163 -0.6966  0.2621  0.2745
28829SOL     OW88803   3.598   9.825   3.493 -0.1034 -0.4361 -0.0403
28829SOL    HW188804   3.558   9.859   3.573 -0.1587  0.7773 -0.5638
28829SOL    HW288805   3.685   9.797   3.519  0.4922  1.4520  0.1574
28830SOL     OW88806   7.791   6.579   1.090 -0.0589  0.1083  0.0575
28830SOL    HW188807   7.822   6.589   1.000 -0.6958  2.0596  0.0035
28830SOL    HW288808   7.699   6.553   1.081  0.5202 -2.1651  0.1985
28831SOL     OW88809   0.195   5.871   2.532 -0.2820 -0.7367  0.2383
28831SOL    HW188810   0.233   5.889   2.446 -1.7558 -0.3748 -0.3696
28831SOL    HW288811   0.258   5.812   2.574  0.9262 -0.1635 -0.7065
28832SOL     OW88812   0.326   1.774   9.298 -0.2094 -0.1854  0.2851
28832SOL    HW188813   0.415   1.807   9.312 -0.5367 -0.0878  2.6342
28832SOL    HW288814   0.273   1.822   9.362 -2.1868  0.5500 -1.7962
28833SOL     OW88815   6.082   9.759   7.551  0.1664 -0.4366  0.1497
28833SOL    HW188816   6.093   9.711   7.469  2.7776 -0.7077  0.5805
28833SOL    HW288817   6.018   9.708   7.600 -1.1450 -0.4863 -1.5350
28834SOL     OW88818   3.235  10.288   4.641  0.0732 -0.2185 -0.0050
28834SOL    HW188819   3.312  10.342   4.659  0.4642 -0.4872 -0.7987
28834SOL    HW288820   3.173  10.311   4.709  1.4733 -1.2246  1.7039
28835SOL     OW88821   0.395   7.308   1.649  0.2769 -0.1915 -0.1277
28835SOL    HW188822   0.409   7.390   1.697 -1.3270 -0.8494  1.6248
28835SOL    HW288823   0.300   7.303   1.637 -0.1911 -3.3316  3.0084
28836SOL     OW88824  10.549   7.970   7.726  0.1188 -0.3087 -0.3575
28836SOL    HW188825  10.527   7.895   7.781 -1.2444  0.0953 -0.3378
28836SOL    HW288826  10.622   8.012   7.772 -1.6669  0.6464  1.7633
28837SOL     OW88827   6.300   9.187   1.369  0.1019  0.4582  0.2598
28837SOL    HW188828   6.242   9.140   1.429 -0.0132  0.8336  0.4420
28837SOL    HW288829   6.372   9.126   1.352  0.3463  0.5065  1.0958
28838SOL     OW88830   6.257   6.701   7.048  0.0094 -0.0839  0.1335
28838SOL    HW188831   6.278   6.677   6.958  0.1166  1.4684 -0.2812
28838SOL    HW288832   6.293   6.789   7.059  0.0562 -0.2721  1.7195
28839SOL     OW88833   8.853   9.871   9.916 -0.0809 -0.2664 -0.6694
28839SOL    HW188834   8.925   9.933   9.928 -0.2680 -0.4138  1.4947
28839SOL    HW288835   8.829   9.844  10.004  0.1436 -3.6433 -1.5133
28840SOL     OW88836   4.256   2.281   1.113  0.0066  0.0729  0.0654
28840SOL    HW188837   4.189   2.215   1.130 -0.3840  0.7405  1.2065
28840SOL    HW288838   4.222   2.332   1.040 -0.9966  0.7288  0.9637
28841SOL     OW88839   9.797   4.881   2.085 -0.2309 -0.0598 -0.2566
28841SOL    HW188840   9.779   4.973   2.106  0.1581 -0.3526  1.5268
28841SOL    HW288841   9.744   4.832   2.147 -0.9115 -1.0846 -1.5946
28842SOL     OW88842   3.491   2.999  10.226 -0.0935  0.4463  0.6744
28842SOL    HW188843   3.471   2.937  10.296  1.0526  0.5665  1.1333
28842SOL    HW288844   3.407   3.014  10.182 -0.7014 -0.1361  1.6063
28843SOL     OW88845   5.756   7.035   1.613 -0.5768  0.3484  0.5624
28843SOL    HW188846   5.799   6.951   1.595  1.8392  1.3601  1.1936
28843SOL    HW288847   5.711   7.057   1.531 -0.6768 -1.2264  0.1690
28844SOL     OW88848   2.077   5.199   5.180 -0.1024  0.2198 -0.2755
28844SOL    HW188849   2.088   5.212   5.086  1.4336  1.0260 -0.0258
28844SOL    HW288850   2.025   5.275   5.209  0.2642  0.4947 -0.3337
28845SOL     OW88851   9.980   0.565   5.060  0.6881 -0.1665  0.1119
28845SOL    HW188852  10.043   0.635   5.042 -0.2385  0.6674  0.0588
28845SOL    HW288853   9.950   0.582   5.149 -0.5193  0.2957 -0.3657
28846SOL     OW88854   1.331   1.560   9.507 -0.3090 -0.2537  0.3067
28846SOL    HW188855   1.324   1.540   9.600  1.8057 -1.8134  0.1995
28846SOL    HW288856   1.307   1.478   9.463 -1.7572  0.5951 -0.6023
28847SOL     OW88857   5.936   8.851   8.682  0.4992  0.3538 -0.1567
28847SOL    HW188858   5.904   8.938   8.659  0.5674  0.9021  1.6482
28847SOL    HW288859   5.861   8.793   8.670  0.3129  0.7465 -0.8945
28848SOL     OW88860   7.035   0.373   1.731 -0.1283 -0.6042 -0.2465
28848SOL    HW188861   7.068   0.451   1.685  1.4512 -1.0247  0.1000
28848SOL    HW288862   6.941   0.373   1.714 -0.3601  1.9508  0.5983
28849SOL     OW88863   5.435   0.399   7.767 -0.1710  0.6331 -0.1630
28849SOL    HW188864   5.467   0.415   7.679 -0.6513  1.1618 -0.2394
28849SOL    HW288865   5.506   0.350   7.809 -0.6244 -1.1473 -1.3566
28850SOL     OW88866   6.889   5.479   6.628 -0.1887 -0.3169  0.0282
28850SOL    HW188867   6.796   5.461   6.644 -0.9387  1.8543 -1.3219
28850SOL    HW288868   6.901   5.460   6.535 -0.0133  1.8020 -0.4500
28851SOL     OW88869   2.457   0.961   4.728 -0.7290  0.4192  0.5565
28851SOL    HW188870   2.440   0.908   4.805 -2.5171 -2.8174 -1.8222
28851SOL    HW288871   2.552   0.972   4.726 -0.3461 -2.1433  1.6151
28852SOL     OW88872   9.120   6.788   8.927 -0.1631  1.0556 -0.5622
28852SOL    HW188873   9.067   6.750   8.856  1.4429  0.4923 -1.5235
28852SOL    HW288874   9.203   6.741   8.922  0.1063  1.2263  1.5362
28853SOL     OW88875   8.791   3.725   6.879  0.5491  0.5519 -0.1265
28853SOL    HW188876   8.831   3.649   6.837  0.7751  0.2885  0.5528
28853SOL    HW288877   8.712   3.742   6.828  2.4872  2.3604 -2.7995
28854SOL     OW88878   4.830   6.220   4.799  0.1502  0.1697  0.1828
28854SOL    HW188879   4.798   6.188   4.883  0.9692 -2.1614 -0.2956
28854SOL    HW288880   4.885   6.295   4.820  0.3530 -0.3849  1.7235
28855SOL     OW88881   8.031  10.057   0.504  0.4848  0.2962 -0.9773
28855SOL    HW188882   8.122  10.074   0.480  0.2397  1.9811 -0.8194
28855SOL    HW288883   8.016  10.112   0.581  0.3264 -2.5900  1.2315
28856SOL     OW88884   4.055   5.812   8.908  0.6402 -0.1066 -0.4745
28856SOL    HW188885   4.149   5.812   8.890  0.8579 -0.0306  0.5712
28856SOL    HW288886   4.048   5.853   8.994 -0.3279 -0.3437 -0.4335
28857SOL     OW88887   5.657   5.158  10.557  0.0065  0.1639 -0.0193
28857SOL    HW188888   5.617   5.235  10.597 -0.6462 -1.0214  1.6830
28857SOL    HW288889   5.610   5.146  10.475  0.1187  1.5545 -0.3145
28858SOL     OW88890   3.172   6.804   6.424  0.3076 -0.0115  0.0261
28858SOL    HW188891   3.231   6.873   6.453  1.6414 -1.3140  0.5354
28858SOL    HW288892   3.178   6.806   6.328  0.0886  0.7596  0.0209
28859SOL     OW88893   6.262   0.385   0.382 -0.0108  0.8743  0.0164
28859SOL    HW188894   6.319   0.414   0.311  0.1594  2.2975  0.6902
28859SOL    HW288895   6.322   0.346   0.446  0.0282  0.9683  0.0383
28860SOL     OW88896   3.289   4.199   5.228 -0.7172 -0.0358 -0.3224
28860SOL    HW188897   3.346   4.196   5.304  1.4393 -0.0980 -1.8423
28860SOL    HW288898   3.298   4.288   5.194 -1.0591 -0.2261 -0.9271
28861SOL     OW88899   8.694   6.573   3.977  0.4645  0.2915 -0.8638
28861SOL    HW188900   8.710   6.485   3.942 -2.1534  0.0857 -1.7798
28861SOL    HW288901   8.745   6.631   3.922  3.4642 -0.6571  0.6781
28862SOL     OW88902   9.606   7.435   5.880  0.0236 -0.2535  0.1719
28862SOL    HW188903   9.630   7.511   5.933 -0.0042  1.2536 -1.8748
28862SOL    HW288904   9.674   7.429   5.814 -0.6060 -1.3112 -0.4096
28863SOL     OW88905   1.679   2.847   8.315 -0.1384  0.5988 -0.7085
28863SOL    HW188906   1.693   2.940   8.295  0.9550  0.2354 -1.7453
28863SOL    HW288907   1.728   2.800   8.247  0.4607 -0.7369  0.5875
28864SOL     OW88908   8.097   1.399   6.195 -0.2309 -0.1094  0.3758
28864SOL    HW188909   8.152   1.350   6.134 -1.7554 -0.2715 -0.9564
28864SOL    HW288910   8.149   1.475   6.220  0.6644 -0.3561 -0.6749
28865SOL     OW88911   2.875   4.784   6.714  0.2360 -0.0173 -0.1935
28865SOL    HW188912   2.969   4.785   6.731 -0.0803 -0.0085  1.8537
28865SOL    HW288913   2.861   4.849   6.645  1.3813  2.3980  1.7338
28866SOL     OW88914   4.923   4.307   5.477 -0.5244 -0.3723  0.4243
28866SOL    HW188915   4.842   4.341   5.441  0.6300 -0.4155 -2.4671
28866SOL    HW288916   4.917   4.212   5.465 -0.6886 -0.5348  1.6888
28867SOL     OW88917   7.250  10.564  10.125  0.1198 -0.7011 -0.3069
28867SOL    HW188918   7.160  10.560  10.159  0.4693  0.3282  0.8145
28867SOL    HW288919   7.295  10.624  10.185  1.4796 -0.9674 -1.0370
28868SOL     OW88920  10.553   2.903  10.050 -0.0277  0.0049 -0.5725
28868SOL    HW188921  10.517   2.830   9.998 -0.5720 -0.0136 -0.1742
28868SOL    HW288922  10.476   2.955  10.074  0.3440  0.6145 -0.7039
28869SOL     OW88923   0.690   0.361  10.050 -0.5489 -0.3320  0.4006
28869SOL    HW188924   0.667   0.338  10.141  0.2989  0.1897  0.7581
28869SOL    HW288925   0.755   0.295  10.026 -1.2360 -0.8545 -0.0608
28870SOL     OW88926   8.968   7.594   0.022  0.5768  0.2160  0.7132
28870SOL    HW188927   9.029   7.667   0.033 -0.0234  1.1126 -1.3966
28870SOL    HW288928   8.904   7.606   0.093  0.2855  1.9976  0.2205
28871SOL     OW88929   6.412   5.124   4.518  0.3259 -0.2734  0.0057
28871SOL    HW188930   6.491   5.142   4.569  0.4991 -0.5785 -0.1518
28871SOL    HW288931   6.430   5.161   4.431 -0.5523  1.5946  0.5652
28872SOL     OW88932   2.439   0.759   6.464 -0.1275 -0.1237 -0.1209
28872SOL    HW188933   2.469   0.789   6.550  0.6500  0.1592 -0.4782
28872SOL    HW288934   2.385   0.831   6.431 -4.6534 -2.0483  2.1060
28873SOL     OW88935   4.611   3.970   0.002  0.0953  0.4521 -0.5728
28873SOL    HW188936   4.537   4.004   0.053  0.0415 -0.3090 -0.1355
28873SOL    HW288937   4.573   3.946  -0.083  0.2304  1.9498 -1.0893
28874SOL     OW88938   1.959   8.314   3.710  0.1282 -0.2150 -0.5779
28874SOL    HW188939   2.031   8.374   3.731  0.9922 -0.7224 -1.9641
28874SOL    HW288940   1.891   8.371   3.674 -0.1323  0.2486  0.5912
28875SOL     OW88941   4.677   7.170   4.763  0.0235  0.1387  0.0436
28875SOL    HW188942   4.756   7.161   4.817 -1.1945 -1.8873  1.6365
28875SOL    HW288943   4.673   7.088   4.713 -2.0869 -0.7300  1.5112
28876SOL     OW88944   6.661   7.562   4.964  0.5633 -0.2270 -0.5190
28876SOL    HW188945   6.593   7.621   4.933 -0.6411 -0.9210  0.7179
28876SOL    HW288946   6.727   7.619   5.003 -0.1261  0.3625 -0.2114
28877SOL     OW88947   1.677   4.730  10.558  0.1654  0.3709 -0.2602
28877SOL    HW188948   1.759   4.721  10.510 -0.8154 -0.1859 -1.8983
28877SOL    HW288949   1.639   4.813  10.527  0.4612  1.0405  1.0913
28878SOL     OW88950   2.435   2.827   1.411 -0.2424 -0.0873 -0.0987
28878SOL    HW188951   2.404   2.771   1.482  0.9143  1.3645  1.6323
28878SOL    HW288952   2.357   2.844   1.358 -0.8012 -2.5151 -0.1473
28879SOL     OW88953  10.152  10.361   5.376  0.0278  0.1667  0.1621
28879SOL    HW188954  10.058  10.350   5.361  0.1333  0.6590 -0.8984
28879SOL    HW288955  10.187  10.387   5.291  1.5600 -2.7140 -0.2061
28880SOL     OW88956   9.228   9.691   5.891  0.2377 -0.7529  0.4298
28880SOL    HW188957   9.199   9.644   5.813  0.0716  0.7711 -0.4488
28880SOL    HW288958   9.150   9.694   5.947 -0.0800 -0.4668 -0.0294
28881SOL     OW88959   3.857   3.503   4.001 -0.3016 -0.2656 -0.3901
28881SOL    HW188960   3.859   3.408   3.997  1.6111 -0.3923  1.5846
28881SOL    HW288961   3.923   3.531   3.938 -0.3392 -0.2694 -0.4318
28882SOL     OW88962   4.814   1.114   1.325  0.3158  0.4860 -0.2947
28882SOL    HW188963   4.753   1.066   1.380 -1.7763  0.0524 -2.8007
28882SOL    HW288964   4.775   1.201   1.316  0.9231  0.7332 -0.6322
28883SOL     OW88965   7.639   0.898   2.628 -0.3018 -0.5158  0.7733
28883SOL    HW188966   7.606   0.843   2.699 -1.2042  1.0764  1.6489
28883SOL    HW288967   7.606   0.857   2.548 -0.7501 -1.3678  1.3840
28884SOL     OW88968   4.501   4.201   9.987  0.0819 -0.6549 -0.0223
28884SOL    HW188969   4.482   4.244   9.904 -0.4126 -0.4078  0.2159
28884SOL    HW288970   4.576   4.250  10.022  0.2113 -0.6805 -0.2619
28885SOL     OW88971   5.777  10.453   3.145  0.3545  0.2001  0.4626
28885SOL    HW188972   5.691  10.411   3.146  1.1950 -1.6149  0.4682
28885SOL    HW288973   5.799  10.464   3.237 -0.2659  1.5914  0.4693
28886SOL     OW88974   0.856   4.081   0.768  0.7571 -0.0133  0.1904
28886SOL    HW188975   0.854   4.015   0.699 -2.0808 -0.2997  0.4073
28886SOL    HW288976   0.821   4.160   0.727  0.0871  0.1233  0.9919
28887SOL     OW88977   9.425   3.279   5.305  0.0463  0.7084  0.0542
28887SOL    HW188978   9.373   3.357   5.286  2.5274  2.7973  1.2795
28887SOL    HW288979   9.499   3.285   5.244  0.0218 -1.0301 -0.1983
28888SOL     OW88980   7.242   0.422   3.494  0.2529 -0.3692 -0.0314
28888SOL    HW188981   7.313   0.421   3.430 -0.7063 -0.1301 -1.1304
28888SOL    HW288982   7.194   0.341   3.478  0.7143 -0.9269  1.2476
28889SOL     OW88983   2.936   7.529   2.160 -0.0367  0.0433 -0.0819
28889SOL    HW188984   2.976   7.556   2.242 -0.5298 -2.4701  1.0943
28889SOL    HW288985   2.842   7.541   2.174 -0.0109  2.1324 -1.3391
28890SOL     OW88986   8.464   6.123   4.750  0.8427 -0.0918  0.1034
28890SOL    HW188987   8.436   6.208   4.785 -0.5494 -1.3780  2.3710
28890SOL    HW288988   8.447   6.129   4.656 -1.6327  1.2850  0.5462
28891SOL     OW88989   4.350   2.318   2.684 -1.0864 -0.3555 -0.5288
28891SOL    HW188990   4.418   2.309   2.618  1.2657 -0.6286  1.7714
28891SOL    HW288991   4.331   2.228   2.712  0.8536 -0.1703  1.7847
28892SOL     OW88992   6.517   1.550   2.313  0.1795  0.0622  0.4512
28892SOL    HW188993   6.440   1.554   2.256 -1.7349 -1.8308  2.6975
28892SOL    HW288994   6.551   1.462   2.301  0.1926 -0.1124  1.6484
28893SOL     OW88995   3.702   7.660   5.336  0.0586 -0.1340 -0.4339
28893SOL    HW188996   3.773   7.598   5.352  1.2662  1.1565 -0.5678
28893SOL    HW288997   3.737   7.720   5.270 -2.0550 -0.8987 -2.4049
28894SOL     OW88998   3.792   9.310   2.471  0.1118  0.2966 -0.5975
28894SOL    HW188999   3.804   9.235   2.529 -2.7429  0.4095  0.2497
28894SOL    HW289000   3.706   9.344   2.493  0.7161  2.9636 -1.9924
28895SOL     OW89001   2.436   5.329   3.788  0.5520 -0.1331 -0.0442
28895SOL    HW189002   2.434   5.390   3.862  0.1819  0.6073 -0.6565
28895SOL    HW289003   2.354   5.280   3.795 -0.5819  1.5253 -1.2684
28896SOL     OW89004   7.933   4.367   0.459  0.1340 -0.1199  0.6071
28896SOL    HW189005   7.880   4.439   0.493  0.9550  0.8883 -0.2072
28896SOL    HW289006   7.934   4.303   0.530 -1.5738  0.1467  0.8967
28897SOL     OW89007   7.288   1.926   3.567 -1.0387 -0.0073  0.0353
28897SOL    HW189008   7.372   1.965   3.592 -0.0349 -1.9189 -0.1454
28897SOL    HW289009   7.224   1.970   3.622  0.2459  0.6397  1.0708
28898SOL     OW89010   7.625   1.026   6.726  0.2448 -0.2604  0.0972
28898SOL    HW189011   7.560   0.957   6.739  0.2812 -0.1454  1.0045
28898SOL    HW289012   7.695   1.004   6.788  2.0885 -1.5511 -2.2779
28899SOL     OW89013   3.176   3.234   0.392  0.0996 -0.3694  0.7596
28899SOL    HW189014   3.105   3.211   0.332  0.9188 -0.2847 -0.2632
28899SOL    HW289015   3.140   3.217   0.479 -0.5934 -1.9966  0.1969
28900SOL     OW89016   0.390   4.491   7.148 -0.3203 -0.1791 -0.2807
28900SOL    HW189017   0.365   4.428   7.215  0.7474  0.2985  0.6014
28900SOL    HW289018   0.414   4.570   7.197 -0.9167  0.6811 -1.3184
28901SOL     OW89019   6.013   7.034   6.633 -0.3589 -0.1736 -0.1964
28901SOL    HW189020   5.996   7.102   6.568  1.1440 -0.3479 -0.7998
28901SOL    HW289021   6.040   7.082   6.712  0.7803 -0.0473 -0.6464
28902SOL     OW89022   6.216   8.376   1.440  0.2699 -0.2431 -0.5532
28902SOL    HW189023   6.240   8.291   1.404  3.2598  0.9586 -1.7715
28902SOL    HW289024   6.290   8.399   1.497  0.0307  1.8996 -1.0096
28903SOL     OW89025   7.483   0.039   3.170 -0.0319 -0.0447 -0.0258
28903SOL    HW189026   7.540   0.068   3.242  0.1153 -2.7409  1.0693
28903SOL    HW289027   7.401   0.014   3.213 -0.5111 -0.2460 -1.0204
28904SOL     OW89028   9.001  10.474   6.880 -0.1353  0.4114 -0.4934
28904SOL    HW189029   9.038  10.509   6.961 -0.0612 -0.4420 -0.1416
28904SOL    HW289030   9.058  10.400   6.858 -1.5093 -0.8078 -0.0453
28905SOL     OW89031   8.293   8.997   0.924  0.6282  0.1985  0.0345
28905SOL    HW189032   8.379   8.978   0.962  0.3184 -1.1581  0.1065
28905SOL    HW289033   8.310   9.007   0.830  0.9750  0.7291  0.1505
28906SOL     OW89034   3.056   2.098   3.627  0.0216  0.1477 -0.3876
28906SOL    HW189035   3.150   2.099   3.649  0.4571 -0.4729 -2.0594
28906SOL    HW289036   3.025   2.015   3.661 -0.0631  0.5800  0.6311
28907SOL     OW89037   3.156   5.485   9.743  0.2533 -0.4748 -0.0311
28907SOL    HW189038   3.068   5.453   9.724  0.1767  0.0592 -0.5966
28907SOL    HW289039   3.149   5.580   9.735  0.8924 -0.4326 -0.1307
28908SOL     OW89040   6.381   6.703   2.123 -0.3386  0.1011 -0.6498
28908SOL    HW189041   6.408   6.639   2.058 -0.7355  0.7139 -1.4332
28908SOL    HW289042   6.381   6.787   2.077  3.0173  1.2043  1.0450
28909SOL     OW89043   1.649   4.867   8.545  0.3965  0.4609  0.6946
28909SOL    HW189044   1.684   4.942   8.594  0.1132  0.8399  0.3270
28909SOL    HW289045   1.606   4.906   8.469  0.7009 -0.1116  0.2230
28910SOL     OW89046   6.584   4.434  10.376 -0.3928  0.3346 -0.1139
28910SOL    HW189047   6.512   4.497  10.375  0.6015  1.5318 -1.4913
28910SOL    HW289048   6.590   4.402  10.286  0.2508 -0.4030  0.1743
28911SOL     OW89049   4.140   1.322  10.572  0.6262 -0.0874  0.6945
28911SOL    HW189050   4.096   1.276  10.643 -0.4633 -0.4903 -0.2140
28911SOL    HW289051   4.115   1.413  10.584 -1.5879 -0.4642 -0.5416
28912SOL     OW89052   3.652  10.155   3.632  0.2878  0.4766  0.1155
28912SOL    HW189053   3.621  10.080   3.682 -1.3389  0.3647 -0.9997
28912SOL    HW289054   3.747  10.153   3.642  0.2257 -1.3491  0.6056
28913SOL     OW89055   0.668   4.784   9.197  0.6255 -0.6570 -0.7253
28913SOL    HW189056   0.742   4.837   9.169  0.0077  0.5164 -0.2032
28913SOL    HW289057   0.592   4.841   9.188  0.1686 -0.8111  1.5594
28914SOL     OW89058   3.111   2.650   6.066  0.4632  0.0308  0.4089
28914SOL    HW189059   3.184   2.706   6.089  2.2108 -1.4884 -1.0509
28914SOL    HW289060   3.151   2.567   6.041 -1.6533 -0.5316 -1.5237
28915SOL     OW89061   4.911   2.384   9.802  0.2710  0.2555 -0.0900
28915SOL    HW189062   4.848   2.312   9.792 -0.3767  1.0409 -2.1545
28915SOL    HW289063   4.858   2.460   9.827  0.7811  0.3542  0.7486
28916SOL     OW89064   1.149   1.328   9.578 -0.1690  0.3317  0.2243
28916SOL    HW189065   1.055   1.338   9.565  0.0391  0.7017 -1.1491
28916SOL    HW289066   1.161   1.331   9.673 -1.2892  2.7698  0.3661
28917SOL     OW89067   8.669  10.356   2.694  0.2941  0.2618 -0.2280
28917SOL    HW189068   8.591  10.343   2.639  0.2041 -0.2781  0.0146
28917SOL    HW289069   8.740  10.314   2.644  0.4508  0.8435 -0.4974
28918SOL     OW89070   7.681   5.896   9.058 -0.4782 -0.2191  0.7701
28918SOL    HW189071   7.627   5.975   9.061  1.0074  0.8298  2.0467
28918SOL    HW289072   7.623   5.826   9.086 -3.0467 -0.5112 -4.1999
28919SOL     OW89073   3.529   0.980  10.486 -0.5160  0.6886 -0.2129
28919SOL    HW189074   3.622   0.960  10.499 -0.5790  0.2784 -0.3718
28919SOL    HW289075   3.509   1.044  10.554 -0.9299 -1.6682  2.0093
28920SOL     OW89076   5.096   3.936   7.535  0.0482  0.5666 -0.6302
28920SOL    HW189077   5.031   3.994   7.574  0.8838  0.0692  1.6687
28920SOL    HW289078   5.153   3.911   7.608  1.3947 -0.9074 -2.0930
28921SOL     OW89079   5.147   0.619   2.369 -0.2928  0.2737  0.1150
28921SOL    HW189080   5.153   0.599   2.463 -0.7009 -0.8211 -0.0811
28921SOL    HW289081   5.237   0.624   2.339 -0.1403  1.2565  0.6800
28922SOL     OW89082   7.422   3.689   5.670  0.2871 -0.6559  0.2251
28922SOL    HW189083   7.333   3.700   5.637  0.5769 -0.7549 -0.6073
28922SOL    HW289084   7.471   3.651   5.597  1.2523  0.3594  0.3171
28923SOL     OW89085   0.104   1.171   5.432 -0.1677 -0.3393  0.1690
28923SOL    HW189086   0.168   1.238   5.407 -1.6063  0.8106 -0.6304
28923SOL    HW289087   0.028   1.221   5.461 -0.3990 -1.6780  2.0028
28924SOL     OW89088   5.826   7.030   4.299 -0.3292 -0.5421 -0.1341
28924SOL    HW189089   5.827   7.087   4.376  3.6739 -2.1570  1.2726
28924SOL    HW289090   5.783   6.950   4.330 -1.0053 -0.2985 -0.4183
28925SOL     OW89091   3.258   8.969   4.840  0.4786 -1.1109 -0.2267
28925SOL    HW189092   3.306   9.029   4.784 -0.1042 -1.1714 -0.8004
28925SOL    HW289093   3.170   8.964   4.801 -0.0382 -0.8955  0.8685
28926SOL     OW89094   4.483   2.735   0.317  0.1987  0.0730  0.1964
28926SOL    HW189095   4.407   2.683   0.342 -1.3441  1.5584 -1.1440
28926SOL    HW289096   4.449   2.825   0.308  2.1339  0.8066 -0.2962
28927SOL     OW89097   0.172   3.630   9.171 -0.6827  0.3529 -0.6299
28927SOL    HW189098   0.166   3.721   9.201 -1.8235  0.7922 -2.1037
28927SOL    HW289099   0.125   3.580   9.239 -1.1451  1.0211 -0.4456
28928SOL     OW89100   8.079   0.095   6.860  0.2303  0.0601  0.8253
28928SOL    HW189101   8.016   0.096   6.788 -0.9523 -1.7534  1.7833
28928SOL    HW289102   8.148   0.156   6.831 -0.4108 -0.2486 -1.6176
28929SOL     OW89103   6.557   1.617   8.260  0.1412 -0.3614 -0.0641
28929SOL    HW189104   6.514   1.684   8.313 -0.7466 -0.6876 -0.3437
28929SOL    HW289105   6.494   1.597   8.191 -0.3148 -2.6100  0.9124
28930SOL     OW89106   0.209   6.431   4.507 -0.3298  0.3878  0.1331
28930SOL    HW189107   0.270   6.424   4.433 -0.5030  0.1606  0.0109
28930SOL    HW289108   0.137   6.484   4.475 -1.1977 -1.0653 -0.3996
28931SOL     OW89109   2.163   2.198   0.473 -0.1779  0.4413  0.5422
28931SOL    HW189110   2.078   2.212   0.515 -0.3728 -1.9918  1.0921
28931SOL    HW289111   2.150   2.230   0.383 -1.9945 -0.6860  0.3368
28932SOL     OW89112   7.119   5.551   6.079 -0.1025 -0.3821  0.0171
28932SOL    HW189113   7.036   5.579   6.041  0.4978  1.1956 -0.1991
28932SOL    HW289114   7.141   5.620   6.142  0.7561 -1.0834  0.5092
28933SOL     OW89115   1.584   5.671   8.278  0.2698  0.0387 -0.0054
28933SOL    HW189116   1.543   5.585   8.265 -1.6650  0.6865  1.4584
28933SOL    HW289117   1.601   5.702   8.189 -0.4723 -1.1722 -0.6098
28934SOL     OW89118  10.058   5.377   2.802  0.5287  0.1464 -0.0241
28934SOL    HW189119  10.017   5.455   2.839  1.5832  0.5749  0.2947
28934SOL    HW289120  10.147   5.405   2.781  0.7831 -0.8571 -0.3326
28935SOL     OW89121   6.620   4.367   0.334 -0.5077  0.0481 -0.1668
28935SOL    HW189122   6.562   4.427   0.287 -1.1950 -1.6023 -1.5114
28935SOL    HW289123   6.648   4.304   0.268  1.8485  0.0614  0.7548
28936SOL     OW89124   2.445   3.432   0.982 -0.5390  0.3854  0.2002
28936SOL    HW189125   2.496   3.359   1.018 -0.2168  0.8162  0.6136
28936SOL    HW289126   2.391   3.462   1.054  0.4505  1.5539  0.4810
28937SOL     OW89127   9.421   0.688   0.119  0.7008 -0.3504  0.3723
28937SOL    HW189128   9.449   0.761   0.175 -1.1077  0.0094  0.8765
28937SOL    HW289129   9.407   0.615   0.180 -0.4444 -0.2072  0.3010
28938SOL     OW89130   2.506   2.309   3.567  0.0351 -0.2618 -0.0310
28938SOL    HW189131   2.474   2.297   3.657 -0.4768  2.6008  0.2707
28938SOL    HW289132   2.600   2.323   3.577 -0.2273  1.5662  0.3145
28939SOL     OW89133   7.713   8.246   0.957  0.9592  0.2004 -0.4078
28939SOL    HW189134   7.786   8.235   1.018  0.2643 -0.2751  0.3600
28939SOL    HW289135   7.750   8.226   0.872  1.5467 -0.7896  0.0684
28940SOL     OW89136   7.907   8.213   2.233  0.3593  0.2677  0.7661
28940SOL    HW189137   7.816   8.237   2.251  0.3951  1.4446 -0.5021
28940SOL    HW289138   7.957   8.293   2.245  0.8453  0.2919 -1.0345
28941SOL     OW89139   8.057   8.936   2.728 -0.0554  0.2590 -0.5112
28941SOL    HW189140   7.976   8.970   2.766  0.6642  1.3025  0.1385
28941SOL    HW289141   8.029   8.885   2.651 -1.4088 -0.5181  0.4611
28942SOL     OW89142   8.978   2.759   4.668  0.0661 -0.2928 -0.0230
28942SOL    HW189143   8.898   2.787   4.622  0.8119  0.7542 -0.7597
28942SOL    HW289144   9.048   2.773   4.603  0.9007 -0.7531  0.7602
28943SOL     OW89145   8.224   3.538   7.240 -0.2818  0.0125 -0.5465
28943SOL    HW189146   8.231   3.461   7.297  1.6465 -0.2794 -1.1091
28943SOL    HW289147   8.208   3.503   7.153  0.9902  0.1902 -0.8731
28944SOL     OW89148   8.048   9.101  10.574 -0.0089  0.4069 -0.1475
28944SOL    HW189149   8.057   9.196  10.574 -0.2408  0.4399  1.2950
28944SOL    HW289150   8.108   9.072  10.505  1.9254  1.4486  1.0139
28945SOL     OW89151   9.886   5.576   3.187 -0.1078  0.5232 -0.2856
28945SOL    HW189152   9.959   5.568   3.249  0.1042  2.2786 -0.2685
28945SOL    HW289153   9.917   5.639   3.121 -1.0217  0.0811 -1.1659
28946SOL     OW89154   0.179   5.724   5.961 -0.1504  0.4816 -0.1160
28946SOL    HW189155   0.174   5.791   6.030 -0.5250  0.0149  0.3192
28946SOL    HW289156   0.179   5.774   5.879  1.1318  1.0881  0.2279
28947SOL     OW89157   9.145   1.816   8.783  0.1065 -0.3079  0.1130
28947SOL    HW189158   9.156   1.847   8.693 -1.5935  0.9873  0.3032
28947SOL    HW289159   9.052   1.830   8.802  0.4488 -0.4614  2.1003
28948SOL     OW89160   2.625   1.439   9.342 -0.6178 -0.7420 -0.1944
28948SOL    HW189161   2.575   1.419   9.421 -0.3681 -1.9844 -0.3388
28948SOL    HW289162   2.619   1.534   9.334 -0.7709 -0.6031  1.2359
28949SOL     OW89163   1.751   7.285   4.718 -0.4088 -0.1891 -0.6706
28949SOL    HW189164   1.726   7.363   4.767 -0.2157 -0.1378 -0.6521
28949SOL    HW289165   1.673   7.230   4.718 -0.8403  0.4006 -1.4705
28950SOL     OW89166   6.203   5.171   1.772  0.1001  0.2724  0.0422
28950SOL    HW189167   6.281   5.180   1.826 -0.4960 -0.0213  0.9863
28950SOL    HW289168   6.163   5.089   1.800 -1.2212  1.0276  0.5215
28951SOL     OW89169   5.275   2.441   9.400  0.5278 -0.2478  0.4934
28951SOL    HW189170   5.309   2.507   9.461  0.0984  0.8175 -0.3868
28951SOL    HW289171   5.353   2.397   9.366  0.9602  1.0677 -0.2847
28952SOL     OW89172   5.241   1.632   3.314 -0.2359  0.5226 -0.1028
28952SOL    HW189173   5.328   1.639   3.352 -0.6476  0.5527  0.8659
28952SOL    HW289174   5.187   1.694   3.364 -1.1034 -0.4355  0.1851
28953SOL     OW89175   1.989   3.224   6.808  0.2048 -0.1754 -0.9249
28953SOL    HW189176   1.931   3.296   6.781  0.7445  0.5577 -0.1756
28953SOL    HW289177   1.929   3.151   6.827 -0.3011 -0.1918 -2.4381
28954SOL     OW89178   7.944   7.387   8.567  0.3446 -0.0560  0.1798
28954SOL    HW189179   7.940   7.294   8.545 -1.4905  0.2310 -0.9202
28954SOL    HW289180   8.011   7.393   8.635 -0.8745 -2.4648  1.7334
28955SOL     OW89181   7.243   9.302   5.236  0.1556  0.0824  0.2843
28955SOL    HW189182   7.195   9.233   5.189  0.7698 -0.2399  0.1174
28955SOL    HW289183   7.199   9.383   5.211 -0.0366 -0.1679 -0.2032
28956SOL     OW89184   1.574   7.902   4.239 -0.0601  0.4172 -0.5195
28956SOL    HW189185   1.604   7.925   4.151 -0.3492 -0.9496 -1.0077
28956SOL    HW289186   1.482   7.879   4.227  0.1012 -0.5486 -0.0336
28957SOL     OW89187   3.088   3.949   0.979 -0.2011 -0.5285 -0.1337
28957SOL    HW189188   3.104   4.002   0.901  0.6406 -0.8621 -0.1958
28957SOL    HW289189   2.994   3.954   0.993 -0.2439  0.2474 -0.6653
28958SOL     OW89190   3.289   7.162   3.208 -0.1295  0.7910  0.4265
28958SOL    HW189191   3.313   7.224   3.140  2.0153  0.0958  0.4797
28958SOL    HW289192   3.210   7.118   3.175  1.6216 -0.5181 -2.3032
28959SOL     OW89193   5.503   1.048   9.678 -0.3058 -0.0608 -0.4297
28959SOL    HW189194   5.466   0.968   9.714 -0.7983  0.3518  0.0121
28959SOL    HW289195   5.490   1.113   9.747  2.3216 -0.1495  0.2486
28960SOL     OW89196   2.282   1.772   6.861  0.2864  0.0367  0.4941
28960SOL    HW189197   2.278   1.722   6.779 -0.9721 -0.7481  0.9964
28960SOL    HW289198   2.235   1.717   6.924  0.8854  0.8123  1.6472
28961SOL     OW89199   6.278  10.598   5.463 -0.5362 -0.2074  0.0151
28961SOL    HW189200   6.216  10.637   5.401 -1.2317  0.2040  0.9446
28961SOL    HW289201   6.243  10.620   5.550  0.7408 -0.2557  0.5703
28962SOL     OW89202   7.246   9.601   6.204  0.1337 -0.4524 -0.5994
28962SOL    HW189203   7.197   9.539   6.258  0.1897  0.3788  0.4277
28962SOL    HW289204   7.179   9.647   6.153 -0.2759  1.1033  1.2412
28963SOL     OW89205   2.934   0.581  10.545 -0.9961  0.3284  0.1720
28963SOL    HW189206   2.986   0.532  10.608 -0.4821  1.9815  1.1067
28963SOL    HW289207   2.977   0.667  10.540 -0.6241  0.0930 -2.9262
28964SOL     OW89208   8.283   6.916   4.366  0.6357 -0.3402  0.1654
28964SOL    HW189209   8.347   6.855   4.329  0.5370 -0.0192 -0.5490
28964SOL    HW289210   8.244   6.868   4.438  0.3335 -1.2556 -0.5793
28965SOL     OW89211   9.074   6.624   3.858  0.1594 -0.0675  0.8101
28965SOL    HW189212   9.159   6.639   3.816  0.2054  3.1844  1.7899
28965SOL    HW289213   9.094   6.622   3.952 -0.5459 -2.4199  0.9748
28966SOL     OW89214  10.019   8.234   0.415 -0.4302 -0.6422 -0.3466
28966SOL    HW189215   9.955   8.196   0.355  0.2309 -1.6809 -0.4361
28966SOL    HW289216  10.061   8.158   0.455 -1.3841  0.0103  2.0429
28967SOL     OW89217   6.764   9.593   3.184 -0.4006  0.0880 -0.0476
28967SOL    HW189218   6.816   9.641   3.248  0.8275 -0.3757 -0.6731
28967SOL    HW289219   6.692   9.653   3.163 -0.3874  0.5590  1.1572
28968SOL     OW89220   7.482   2.234   9.141  0.0801  0.1988  0.1798
28968SOL    HW189221   7.527   2.168   9.195 -0.6315 -0.0797  0.4497
28968SOL    HW289222   7.466   2.189   9.058  3.1726  1.3298 -1.1644
28969SOL     OW89223   0.058   4.789   4.057 -0.1561  0.3827  0.3874
28969SOL    HW189224  -0.003   4.836   4.113  0.9594  2.0920  0.2312
28969SOL    HW289225   0.145   4.814   4.089  0.4899 -0.8162 -0.3428
28970SOL     OW89226   9.997   0.505   8.120 -0.3139 -0.2593 -0.5883
28970SOL    HW189227  10.048   0.458   8.055  0.5147 -1.5471  0.9150
28970SOL    HW289228  10.055   0.575   8.150  0.7680 -1.8410  1.2602
28971SOL     OW89229   3.769   1.608   6.131 -0.2392 -0.1182  0.3391
28971SOL    HW189230   3.758   1.656   6.048  0.2566 -0.9211 -0.2099
28971SOL    HW289231   3.859   1.576   6.127 -0.1624 -0.0239  1.2756
28972SOL     OW89232   2.432  10.210   5.410 -0.0410 -0.3881 -0.0934
28972SOL    HW189233   2.473  10.126   5.389  1.5768  0.5319 -0.7636
28972SOL    HW289234   2.383  10.234   5.331 -1.8260 -1.3972  0.6414
28973SOL     OW89235   6.646   7.265   4.798  0.1178 -0.2206 -0.4177
28973SOL    HW189236   6.580   7.221   4.850 -1.6022  0.8590 -1.5868
28973SOL    HW289237   6.711   7.296   4.862 -2.4203  1.9914  1.3012
28974SOL     OW89238   9.868   8.627   0.433 -0.1971 -0.3683 -0.4239
28974SOL    HW189239   9.959   8.645   0.407  0.3839  2.1896  2.8013
28974SOL    HW289240   9.821   8.624   0.350  2.3311  1.4625 -2.1016
28975SOL     OW89241   0.512   7.502  10.090 -0.1579  0.2493  0.2106
28975SOL    HW189242   0.468   7.574  10.045  1.3528  0.5832 -0.7922
28975SOL    HW289243   0.563   7.458  10.022 -2.6696 -3.1673  0.3137
28976SOL     OW89244   9.269   3.170   3.154 -0.4444 -0.1631  0.3632
28976SOL    HW189245   9.209   3.241   3.178 -1.4024 -0.8010 -0.0881
28976SOL    HW289246   9.220   3.117   3.092 -0.3581 -2.1608  1.9112
28977SOL     OW89247   8.034   3.376   7.878  0.2232  0.6829  0.6656
28977SOL    HW189248   7.980   3.437   7.827  1.7301  1.0479 -0.5853
28977SOL    HW289249   8.039   3.416   7.965 -3.8842 -0.8344  1.8442
28978SOL     OW89250   8.789   9.005   6.532 -0.3182  0.1885 -0.0146
28978SOL    HW189251   8.770   9.007   6.438 -1.0697 -0.2185  0.1250
28978SOL    HW289252   8.775   8.914   6.557  1.3178 -0.0417  0.2149
28979SOL     OW89253   0.661   6.742   5.548  0.2999 -0.3578 -0.3604
28979SOL    HW189254   0.705   6.660   5.526  1.6533 -0.1460  1.3752
28979SOL    HW289255   0.711   6.810   5.502  0.1363 -0.3470 -0.5265
28980SOL     OW89256   6.370   2.858   3.805 -0.5854  0.5088 -0.6252
28980SOL    HW189257   6.400   2.928   3.746  0.6244  2.1590  1.7509
28980SOL    HW289258   6.439   2.792   3.800 -0.4885  0.6383 -1.0447
28981SOL     OW89259   6.376   2.605   1.490 -0.0457 -0.6231  0.3270
28981SOL    HW189260   6.454   2.549   1.494 -0.4625 -1.3805 -1.2661
28981SOL    HW289261   6.314   2.555   1.437 -1.4111  0.2321  1.0667
28982SOL     OW89262   5.468   9.753   8.853 -0.0271  0.5224 -0.0809
28982SOL    HW189263   5.530   9.682   8.870  2.1995  1.8094 -2.2164
28982SOL    HW289264   5.460   9.756   8.757 -0.0293  3.1128 -0.0782
28983SOL     OW89265   2.600   9.814   2.778  0.2162 -0.4117  0.3502
28983SOL    HW189266   2.652   9.893   2.795  0.7863 -0.9838  1.3830
28983SOL    HW289267   2.591   9.812   2.682  0.6791  0.5965  0.2687
28984SOL     OW89268   0.889   2.610   2.381  0.0834  0.1409 -0.2768
28984SOL    HW189269   0.959   2.632   2.320 -1.4484  0.5058 -1.9696
28984SOL    HW289270   0.839   2.541   2.337 -0.8898  0.1915  0.7022
28985SOL     OW89271   7.786   2.163   0.837  0.0744 -0.1298  0.0428
28985SOL    HW189272   7.809   2.184   0.928  0.7190  1.2171 -0.4061
28985SOL    HW289273   7.738   2.081   0.843 -0.3718  0.2096  1.6685
28986SOL     OW89274   8.466   5.468   1.011 -0.1300 -0.4272 -0.0473
28986SOL    HW189275   8.533   5.411   1.048 -0.9862 -0.3258  1.7617
28986SOL    HW289276   8.438   5.523   1.084 -2.1331 -0.4203 -0.7450
28987SOL     OW89277   7.774   7.607   8.849 -0.2482 -0.1382 -0.3439
28987SOL    HW189278   7.852   7.656   8.825  0.2317 -0.7164  0.0131
28987SOL    HW289279   7.790   7.578   8.939 -0.6134 -0.7476 -0.4671
28988SOL     OW89280   4.181   2.080   2.454 -0.3588  0.9745 -0.1165
28988SOL    HW189281   4.121   2.118   2.390 -0.4738 -1.0754 -1.3256
28988SOL    HW289282   4.262   2.066   2.405  0.1248  0.9472  0.6784
28989SOL     OW89283   2.395   8.056   3.435  0.1748  0.3156  0.5230
28989SOL    HW189284   2.397   8.131   3.376  0.8334 -1.2741 -1.5865
28989SOL    HW289285   2.319   8.072   3.490 -1.1154  1.4126 -1.4402
28990SOL     OW89286   3.921   0.234   5.899 -0.4105 -0.2119 -0.2787
28990SOL    HW189287   3.882   0.172   5.961 -0.8527  0.6228  0.2872
28990SOL    HW289288   3.882   0.211   5.815 -0.4287 -0.8210 -0.1092
28991SOL     OW89289   8.042   0.784   2.864 -0.0507  0.5166  0.2849
28991SOL    HW189290   8.004   0.730   2.795  1.9906 -0.3095 -0.2863
28991SOL    HW289291   8.136   0.782   2.846  0.4856  0.8254  2.6944
28992SOL     OW89292   3.142   8.514   8.849  0.1450 -0.0219  0.1090
28992SOL    HW189293   3.138   8.549   8.760  1.1660  1.0072  0.4445
28992SOL    HW289294   3.232   8.481   8.857 -0.0051 -0.2956  0.6881
28993SOL     OW89295   6.788   7.896   6.978 -0.5207 -0.1238  0.3966
28993SOL    HW189296   6.709   7.886   6.924 -1.1245 -1.6504  1.5052
28993SOL    HW289297   6.788   7.989   7.002 -1.9281 -0.0687  0.3088
28994SOL     OW89298   9.417   3.003   7.399  0.1504 -0.2615 -0.1716
28994SOL    HW189299   9.358   3.074   7.426 -1.4714 -0.5963 -2.5035
28994SOL    HW289300   9.372   2.923   7.426  0.2556 -0.4774 -0.6192
28995SOL     OW89301   7.362   2.468   3.809 -0.8570  0.0978 -0.1994
28995SOL    HW189302   7.396   2.445   3.896  1.1968 -2.3398 -1.5047
28995SOL    HW289303   7.382   2.561   3.799  2.3493 -0.3767  0.5668
28996SOL     OW89304   3.815   6.425   0.766 -0.7622 -0.2689  0.0340
28996SOL    HW189305   3.880   6.359   0.744 -1.4442 -0.3980 -1.7617
28996SOL    HW289306   3.735   6.376   0.782 -0.9562  0.0290 -0.0041
28997SOL     OW89307   3.803   7.569  10.170  0.0255  0.0198  0.6190
28997SOL    HW189308   3.845   7.516  10.102 -1.1872  1.3817 -1.3158
28997SOL    HW289309   3.875   7.614  10.214  0.8401 -0.7911  0.1505
28998SOL     OW89310   7.584   2.080   3.291 -0.4691  0.1094  0.0368
28998SOL    HW189311   7.492   2.064   3.309 -0.2613  0.5274  1.6808
28998SOL    HW289312   7.585   2.159   3.237 -1.0606  0.4345  0.4888
28999SOL     OW89313   1.747   5.881   8.792  0.3316 -0.2475 -0.4607
28999SOL    HW189314   1.740   5.854   8.884 -0.2190  1.3342 -0.0221
28999SOL    HW289315   1.661   5.863   8.755  0.3921 -0.3822 -0.5388
29000SOL     OW89316   2.541   1.021   2.048 -0.4216  0.8414 -0.1392
29000SOL    HW189317   2.493   0.940   2.060 -0.0651  0.7035  0.4114
29000SOL    HW289318   2.485   1.089   2.087 -1.9328  1.2967 -2.8728
29001SOL     OW89319   5.862   4.152   9.785  0.0735 -0.4446 -0.3470
29001SOL    HW189320   5.777   4.108   9.774  1.0500 -2.2464 -1.0912
29001SOL    HW289321   5.924   4.095   9.741  1.6387  1.0593 -0.1790
29002SOL     OW89322   4.643   2.420   7.680 -0.2746 -0.0275  0.5852
29002SOL    HW189323   4.690   2.368   7.615 -0.0851 -2.1367  2.3116
29002SOL    HW289324   4.552   2.421   7.649  0.0769  0.2730 -0.4607
29003SOL     OW89325   0.590   9.818   2.274  0.4888  0.4095  0.1019
29003SOL    HW189326   0.618   9.794   2.362 -1.2592 -2.1394  0.0690
29003SOL    HW289327   0.497   9.800   2.272  0.2843  1.3546 -2.0031
29004SOL     OW89328   6.137   9.204   3.722  0.6233  0.5132  0.1400
29004SOL    HW189329   6.087   9.229   3.800  1.0335 -1.6534  1.2067
29004SOL    HW289330   6.193   9.279   3.704 -0.8096  1.7997  0.7754
29005SOL     OW89331   3.990   5.136   1.387 -0.0728  0.2987 -0.0914
29005SOL    HW189332   3.934   5.110   1.313  0.2060  0.8996 -0.5218
29005SOL    HW289333   4.068   5.082   1.376  0.2883  0.9252 -0.6851
29006SOL     OW89334   8.888   6.238   9.774 -0.1572  0.2095  0.2397
29006SOL    HW189335   8.932   6.320   9.754 -2.4835  1.5037  0.0406
29006SOL    HW289336   8.899   6.226   9.868 -1.6357  1.9608  0.6792
29007SOL     OW89337   1.186  10.454   3.874 -0.0115  0.3737 -0.2759
29007SOL    HW189338   1.119  10.521   3.887  1.2191  1.5183  0.3662
29007SOL    HW289339   1.187  10.404   3.956 -0.9772 -0.5227 -0.7800
29008SOL     OW89340   3.742   8.312   8.250  0.0911 -0.1041 -0.4840
29008SOL    HW189341   3.678   8.246   8.278 -0.2269 -0.1786 -1.3641
29008SOL    HW289342   3.818   8.261   8.222  0.4874 -0.0209  0.4162
29009SOL     OW89343  10.231   8.679   4.802 -0.1315  0.0602 -0.4002
29009SOL    HW189344  10.241   8.605   4.862  0.4981  0.2136 -0.3045
29009SOL    HW289345  10.272   8.650   4.721 -1.0884 -0.1914 -0.8037
29010SOL     OW89346   3.000   0.084   0.185  0.0370 -0.3794 -0.4855
29010SOL    HW189347   2.926   0.024   0.200 -1.3798  0.6419 -2.8386
29010SOL    HW289348   3.029   0.108   0.273 -0.2832 -3.3252  0.5248
29011SOL     OW89349   0.056   6.698   8.471  0.3386  0.4776 -0.3340
29011SOL    HW189350   0.134   6.646   8.450  1.8719  2.3605  0.3565
29011SOL    HW289351  -0.016   6.650   8.430  1.9117 -1.0691 -1.4818
29012SOL     OW89352   2.794   8.841  10.083  0.4888 -0.3305 -0.1460
29012SOL    HW189353   2.861   8.868  10.146 -0.0038 -1.7663  1.0582
29012SOL    HW289354   2.739   8.918  10.073  1.5857  0.4734 -0.1748
29013SOL     OW89355   2.189   1.213   4.216 -0.3287 -0.5063 -0.1380
29013SOL    HW189356   2.178   1.224   4.121 -0.8570 -1.7683 -0.2450
29013SOL    HW289357   2.283   1.208   4.229 -0.2378  0.0074 -0.5485
29014SOL     OW89358   5.658   6.563   8.177 -0.5763  0.1954  0.2408
29014SOL    HW189359   5.712   6.636   8.205  1.1548 -0.4650 -1.2179
29014SOL    HW289360   5.622   6.590   8.093  0.0687 -0.6057 -0.3035
29015SOL     OW89361   0.304   7.465   0.192 -0.0540 -0.5944  0.1738
29015SOL    HW189362   0.335   7.382   0.156  0.3967  0.2811 -1.5732
29015SOL    HW289363   0.344   7.532   0.136 -0.2059  0.8260  1.6781
29016SOL     OW89364   2.986   4.877   5.323 -0.0545  0.2572  0.4169
29016SOL    HW189365   2.949   4.835   5.245  0.6859 -0.8638  0.6441
29016SOL    HW289366   3.032   4.954   5.289 -2.3563  1.6099  0.1096
29017SOL     OW89367   8.649   7.712   8.211  0.0504 -0.1370 -0.2737
29017SOL    HW189368   8.668   7.805   8.218 -0.5845 -0.0031 -0.3242
29017SOL    HW289369   8.725   7.669   8.251  0.2547  0.4003 -0.0774
29018SOL     OW89370   1.652   0.377   7.455  0.2480  0.0551 -0.4839
29018SOL    HW189371   1.630   0.454   7.508 -1.3681 -1.3913  1.0772
29018SOL    HW289372   1.746   0.363   7.471  0.8950  2.4182 -1.8602
29019SOL     OW89373   9.864   9.708   2.191 -0.2581  0.3487 -0.2857
29019SOL    HW189374   9.911   9.690   2.273  0.2289  0.2162 -0.5917
29019SOL    HW289375   9.915   9.662   2.124 -1.2635 -0.4476 -0.5166
29020SOL     OW89376   6.761   6.573   0.583 -0.5687  0.4936  0.1289
29020SOL    HW189377   6.697   6.507   0.559 -2.6245  2.3441  0.2211
29020SOL    HW289378   6.777   6.558   0.676  1.0207 -1.4447 -0.3917
29021SOL     OW89379   9.789   8.754   4.786  0.1855  0.4792 -0.3058
29021SOL    HW189380   9.708   8.758   4.837 -0.2842  2.1678 -1.1072
29021SOL    HW289381   9.760   8.766   4.695  1.3912  1.9011 -0.5245
29022SOL     OW89382   3.333   1.893   5.416  0.5567 -0.1540 -0.5226
29022SOL    HW189383   3.275   1.960   5.453 -1.0206 -0.1716 -2.7691
29022SOL    HW289384   3.413   1.941   5.392  0.8115  0.2173  0.9493
29023SOL     OW89385   4.588   9.888  10.296 -0.5888 -0.6316 -0.5102
29023SOL    HW189386   4.506   9.908  10.252 -0.5930  1.9474  0.5334
29023SOL    HW289387   4.636   9.970  10.298  0.3679 -1.1308  2.2660
29024SOL     OW89388   8.101  10.509   4.344  0.4278  0.0692 -1.0541
29024SOL    HW189389   8.038  10.572   4.309 -0.4137 -1.2729 -2.0273
29024SOL    HW289390   8.160  10.562   4.398 -1.6132  1.3417  0.0439
29025SOL     OW89391   4.266   3.209   3.103  0.2596 -0.1530  0.0876
29025SOL    HW189392   4.213   3.135   3.135 -1.4431  0.9664 -0.0160
29025SOL    HW289393   4.272   3.268   3.178 -1.7560  1.3928 -0.8772
29026SOL     OW89394   6.100   3.381   6.044  0.2747  0.9464  0.1294
29026SOL    HW189395   6.068   3.443   5.978 -0.2932  1.2496  0.6791
29026SOL    HW289396   6.042   3.306   6.035 -0.5246  1.4345  1.0228
29027SOL     OW89397   0.025   6.494   3.213 -0.0996 -0.8759 -0.5260
29027SOL    HW189398  -0.051   6.551   3.227  0.2801  0.3503 -2.8979
29027SOL    HW289399   0.049   6.464   3.301 -1.7001  0.8186  0.5708
29028SOL     OW89400   1.756   6.255   9.140 -0.2162  0.6358 -0.3706
29028SOL    HW189401   1.796   6.197   9.205  0.0973 -0.1693 -1.2536
29028SOL    HW289402   1.750   6.340   9.184  0.8423  0.3396  0.3879
29029SOL     OW89403   7.626   2.254   1.644 -0.2438 -0.0698 -0.5327
29029SOL    HW189404   7.625   2.347   1.663  3.0629 -0.3500  1.8106
29029SOL    HW289405   7.718   2.233   1.630 -0.6096 -3.2280  0.8316
29030SOL     OW89406   3.366   5.422   1.583  0.0639 -0.4120 -0.0782
29030SOL    HW189407   3.357   5.387   1.494  1.6514 -2.4841  0.4729
29030SOL    HW289408   3.433   5.490   1.575  0.7131 -1.0654 -0.4076
29031SOL     OW89409  10.216   9.800   8.180  0.6426  0.3106 -0.0792
29031SOL    HW189410  10.143   9.791   8.118 -0.5902  1.5759  1.1196
29031SOL    HW289411  10.214   9.720   8.231 -1.1897  1.0798  1.1866
29032SOL     OW89412   5.306   1.786   4.869 -0.3814 -0.6282 -0.1412
29032SOL    HW189413   5.349   1.745   4.794  1.0884  2.3721 -1.0934
29032SOL    HW289414   5.334   1.734   4.944  1.4618 -1.3343 -1.2484
29033SOL     OW89415   4.718   6.869   8.668 -0.8175  0.1945 -0.1445
29033SOL    HW189416   4.659   6.941   8.691 -2.0047 -0.6320 -0.5297
29033SOL    HW289417   4.747   6.888   8.579 -0.0088  0.9030  0.2504
29034SOL     OW89418   3.108   1.132   9.666 -0.4864  0.4743  0.2893
29034SOL    HW189419   3.014   1.132   9.647 -0.2837  0.1388 -0.7426
29034SOL    HW289420   3.143   1.202   9.611 -0.0953  0.4916  0.5593
29035SOL     OW89421   7.182   6.024  10.096 -0.5298 -0.3105 -0.3912
29035SOL    HW189422   7.223   6.103  10.132 -1.4240  0.7566 -1.6429
29035SOL    HW289423   7.098   6.018  10.141  0.8056 -2.4407  2.0964
29036SOL     OW89424   5.549   5.930   2.430 -0.4991 -0.2337 -0.2396
29036SOL    HW189425   5.617   5.906   2.366  1.1962 -1.1363  1.7711
29036SOL    HW289426   5.479   5.868   2.415  0.2456 -0.9918 -0.6762
29037SOL     OW89427   1.570   8.621   8.328  0.2424  0.2904 -0.2957
29037SOL    HW189428   1.652   8.571   8.324  1.0636  1.3274  1.8222
29037SOL    HW289429   1.577   8.671   8.410 -1.7273  1.7829 -0.9669
29038SOL     OW89430   5.928   6.355   5.736 -0.1681 -0.8146  0.6994
29038SOL    HW189431   5.896   6.419   5.799 -1.3121 -1.0774  0.4112
29038SOL    HW289432   5.863   6.285   5.739  0.3677 -1.3426  0.0531
29039SOL     OW89433   4.793   9.399   2.376  0.2594 -0.4046  0.3615
29039SOL    HW189434   4.835   9.336   2.317  0.1119 -0.1394 -0.0319
29039SOL    HW289435   4.776   9.476   2.321  2.7664  1.0106  1.3914
29040SOL     OW89436   7.894   3.592   8.372  0.5657 -0.3684 -0.1645
29040SOL    HW189437   7.865   3.509   8.335  2.4713 -0.5950 -1.2758
29040SOL    HW289438   7.908   3.573   8.465  1.4399 -1.4643 -0.4944
29041SOL     OW89439   7.430   0.135   4.667 -0.0046  0.2796  0.6917
29041SOL    HW189440   7.494   0.136   4.596 -0.1717  0.8716  0.5504
29041SOL    HW289441   7.477   0.173   4.742 -0.2661  0.9538  0.5186
29042SOL     OW89442   3.107   9.127   7.262  0.8281 -0.1054 -0.0639
29042SOL    HW189443   3.118   9.061   7.194 -0.8170  1.4249 -1.9661
29042SOL    HW289444   3.120   9.211   7.217 -1.7390  1.0464  1.0910
29043SOL     OW89445   4.794   3.432   2.733 -0.4350  0.2471 -0.4238
29043SOL    HW189446   4.723   3.461   2.676 -1.0373  0.9296  0.6508
29043SOL    HW289447   4.784   3.483   2.813  0.6132 -0.4323  0.1700
29044SOL     OW89448   2.726   0.322   0.241  0.2219 -0.3859  0.4660
29044SOL    HW189449   2.716   0.228   0.227  2.8175 -0.4051 -2.3616
29044SOL    HW289450   2.648   0.361   0.201 -0.2192 -1.2330  0.4737
29045SOL     OW89451   7.952   2.369   1.995  0.5926  0.3772 -0.3692
29045SOL    HW189452   8.002   2.310   2.051  1.3315  0.1422 -1.2430
29045SOL    HW289453   7.987   2.353   1.907 -0.9460  0.2870 -1.0030
29046SOL     OW89454   3.903   9.690   4.746 -0.0042 -0.3625  0.2177
29046SOL    HW189455   3.949   9.614   4.781  0.2075  0.1510  1.0918
29046SOL    HW289456   3.964   9.729   4.684  0.0134 -0.7217  0.0092
29047SOL     OW89457   1.094   1.122   4.065  0.8062  0.2662 -0.1401
29047SOL    HW189458   1.160   1.063   4.101  1.6880  1.2010 -0.1597
29047SOL    HW289459   1.038   1.067   4.012  1.6801 -0.5308 -0.2574
29048SOL     OW89460   5.065   2.700   7.847  0.3630  0.0147  0.0447
29048SOL    HW189461   5.032   2.623   7.894 -2.7734  0.2572 -1.5359
29048SOL    HW289462   5.092   2.666   7.762  0.5727  0.4400 -0.0620
29049SOL     OW89463   2.618   7.892   6.152 -0.1030  0.0441  0.0784
29049SOL    HW189464   2.677   7.848   6.091 -0.3243 -0.6073  0.3265
29049SOL    HW289465   2.591   7.823   6.213 -1.3124  0.2694 -0.1753
29050SOL     OW89466   4.722   7.496   1.241 -0.1005 -0.3194  0.1678
29050SOL    HW189467   4.669   7.484   1.163  0.6130  0.6270 -0.4852
29050SOL    HW289468   4.733   7.591   1.248  2.3342 -0.4987 -0.3061
29051SOL     OW89469   6.183   5.093   8.888  0.0897 -0.2279  0.1167
29051SOL    HW189470   6.175   5.182   8.921 -1.1630 -0.3512  0.1867
29051SOL    HW289471   6.242   5.101   8.813  0.5781  0.5308  0.5660
29052SOL     OW89472   0.348   1.072   9.837 -0.3153 -0.4242 -0.2878
29052SOL    HW189473   0.344   1.009   9.909 -1.9379 -0.5695 -0.4643
29052SOL    HW289474   0.294   1.032   9.768 -1.7215  1.3226 -0.2564
29053SOL     OW89475   0.710   5.460   1.957  0.4105 -0.0901  0.1650
29053SOL    HW189476   0.684   5.368   1.959  0.0896 -0.0306 -0.7640
29053SOL    HW289477   0.653   5.500   1.892  2.3366  0.1966 -1.4375
29054SOL     OW89478   8.102   8.704   3.460 -0.7449  0.1938  0.3238
29054SOL    HW189479   8.156   8.687   3.382 -2.4106  1.2441 -1.1241
29054SOL    HW289480   8.155   8.763   3.513  0.3236 -0.3419 -0.1056
29055SOL     OW89481   5.187   4.232   4.036  0.0160 -0.2486 -0.1944
29055SOL    HW189482   5.093   4.243   4.048 -0.2411 -0.3426 -1.8608
29055SOL    HW289483   5.211   4.300   3.972  0.7802 -1.1934 -0.9420
29056SOL     OW89484   3.482   7.055   8.576  0.2238 -1.0522  0.0680
29056SOL    HW189485   3.426   7.071   8.651 -1.7892  0.4677 -1.6285
29056SOL    HW289486   3.459   6.967   8.546 -0.1319 -1.0359  0.2925
29057SOL     OW89487   4.671   9.103   5.174 -0.5781  0.2984 -0.0266
29057SOL    HW189488   4.615   9.180   5.176  0.9245  1.4245  1.1385
29057SOL    HW289489   4.713   9.105   5.088 -1.2570  0.2383 -0.3611
29058SOL     OW89490  10.337   0.735   0.163  0.1691  0.1874 -0.0490
29058SOL    HW189491  10.404   0.725   0.095  0.2914  2.4566 -0.3204
29058SOL    HW289492  10.386   0.728   0.245  0.1493 -1.6735 -0.1448
29059SOL     OW89493   1.026   5.778   0.085 -0.2889 -0.2569  0.1391
29059SOL    HW189494   1.119   5.777   0.063 -0.1069  2.0579  0.5663
29059SOL    HW289495   1.022   5.818   0.172 -1.7270  0.8011 -0.3642
29060SOL     OW89496   2.191   5.326   8.478  0.1101 -0.1465  0.0945
29060SOL    HW189497   2.275   5.280   8.488 -0.1689 -0.9470 -1.0247
29060SOL    HW289498   2.214   5.409   8.437  0.3958 -0.2417  0.0568
29061SOL     OW89499   3.899   6.394   4.083  0.3893 -0.0066 -0.0993
29061SOL    HW189500   3.986   6.432   4.077 -0.5049  2.0778 -1.2410
29061SOL    HW289501   3.896   6.330   4.012  0.2799  1.6497 -1.6703
29062SOL     OW89502   4.003   2.811   9.662 -0.5676 -0.4420  0.0184
29062SOL    HW189503   4.090   2.815   9.623 -0.2396 -0.7740  0.7153
29062SOL    HW289504   3.974   2.721   9.647 -1.2671 -0.0438 -1.2047
29063SOL     OW89505   3.260   7.636   0.946  0.8411  0.0802  0.5428
29063SOL    HW189506   3.176   7.665   0.983  0.5459  1.3640 -1.0167
29063SOL    HW289507   3.322   7.703   0.974  0.8914  0.3121 -0.1166
29064SOL     OW89508   8.652   9.277   5.683  0.1106 -0.7276  0.2486
29064SOL    HW189509   8.621   9.250   5.769 -1.6150  0.2447 -0.0245
29064SOL    HW289510   8.678   9.195   5.639  0.4798 -1.2817  1.4666
29065SOL     OW89511   4.143   7.612   8.436  0.2365  0.4263  0.0674
29065SOL    HW189512   4.103   7.595   8.522  0.1164 -0.1682 -0.0982
29065SOL    HW289513   4.237   7.614   8.453  0.2565 -0.4309  0.1023
29066SOL     OW89514   7.506   7.803   3.034 -0.1369 -0.3000  0.0088
29066SOL    HW189515   7.595   7.773   3.018  0.4128  0.8781  0.6934
29066SOL    HW289516   7.504   7.824   3.127 -0.7379  0.9004 -0.2539
29067SOL     OW89517   1.038   6.968   0.747 -0.0916 -0.0709  0.1398
29067SOL    HW189518   1.124   7.009   0.736 -0.5183  0.5766 -0.9118
29067SOL    HW289519   1.019   6.978   0.841  0.5480  0.6872  0.2007
29068SOL     OW89520   3.044   9.558   5.856  0.1408  1.1523  0.3115
29068SOL    HW189521   2.962   9.606   5.848  0.7826  2.2836  0.2815
29068SOL    HW289522   3.022   9.482   5.910 -1.2203  0.6766 -0.8612
29069SOL     OW89523   4.562   8.371   9.836 -0.6229  0.8211 -0.2100
29069SOL    HW189524   4.480   8.386   9.882 -0.4185 -0.7142  0.7205
29069SOL    HW289525   4.549   8.288   9.790  0.1730  0.9069 -0.6074
29070SOL     OW89526   9.420   1.005   3.352 -0.1493  0.2311  0.1460
29070SOL    HW189527   9.444   1.039   3.438  0.2614 -0.7253  0.4219
29070SOL    HW289528   9.349   0.943   3.369  1.6832 -2.0197  0.1920
29071SOL     OW89529   4.827   8.431   1.050 -0.4067 -0.0089 -0.1550
29071SOL    HW189530   4.918   8.433   1.018 -0.5118 -1.0327 -0.5647
29071SOL    HW289531   4.833   8.462   1.140  0.1533  1.2123 -0.5911
29072SOL     OW89532   9.155   8.478   0.620  0.4828 -0.0850 -0.3628
29072SOL    HW189533   9.081   8.513   0.570  0.0272  0.4687  0.6889
29072SOL    HW289534   9.224   8.543   0.609  0.1850  0.3336  0.2120
29073SOL     OW89535   0.767   4.700   8.238 -0.1544  0.3164  0.2075
29073SOL    HW189536   0.731   4.643   8.170  1.5309  0.4955 -0.8995
29073SOL    HW289537   0.716   4.780   8.231 -0.5208  0.0454 -0.3365
29074SOL     OW89538   5.921   5.293   8.192 -0.4692 -0.2131 -0.0508
29074SOL    HW189539   5.871   5.217   8.161 -1.9838  1.0130 -0.7890
29074SOL    HW289540   5.952   5.335   8.111  0.8400 -0.3422  0.3693
29075SOL     OW89541   0.326   5.464   7.952 -0.0782 -0.3456 -0.0490
29075SOL    HW189542   0.233   5.451   7.933 -0.5133  0.5461  1.3302
29075SOL    HW289543   0.360   5.510   7.876 -0.7742 -0.6282 -0.5438
29076SOL     OW89544  10.468   0.482   1.276 -0.1640 -0.3468  0.0307
29076SOL    HW189545  10.427   0.417   1.333  0.3262 -1.2855 -0.6344
29076SOL    HW289546  10.527   0.430   1.221  1.7686  0.9119  0.8107
29077SOL     OW89547   2.341   9.494   7.576  0.7137  0.0578 -0.3981
29077SOL    HW189548   2.280   9.427   7.545 -1.8425  2.4624 -0.9893
29077SOL    HW289549   2.364   9.543   7.497  1.0552  0.9872  0.2681
29078SOL     OW89550  10.472   2.652   7.205  0.3080  0.2805  0.5704
29078SOL    HW189551  10.540   2.593   7.236  1.1873  0.7099 -0.4989
29078SOL    HW289552  10.518   2.715   7.150 -0.8955  0.8204  0.1559
29079SOL     OW89553   4.439   5.693   2.585 -0.5519 -0.1651  0.5076
29079SOL    HW189554   4.402   5.609   2.610  0.3218 -1.4297 -2.0639
29079SOL    HW289555   4.464   5.682   2.493  2.6324  1.8015  0.9668
29080SOL     OW89556   1.993   4.778   8.080  0.0619 -0.4127  0.1404
29080SOL    HW189557   1.939   4.699   8.082  0.6303 -0.8239 -0.2286
29080SOL    HW289558   2.002   4.798   7.987 -0.8438  0.6297  0.2673
29081SOL     OW89559  10.384   9.212   2.952  0.1647  0.0778 -0.4571
29081SOL    HW189560  10.437   9.256   3.018 -0.2901  0.4524 -0.3381
29081SOL    HW289561  10.318   9.277   2.927  0.1766 -0.1450 -1.0945
29082SOL     OW89562   7.982   8.791   2.498 -0.0966 -0.2285  0.5381
29082SOL    HW189563   8.075   8.785   2.475  0.1361  2.4059  0.4355
29082SOL    HW289564   7.939   8.818   2.417 -0.4575  1.4409  1.2405
29083SOL     OW89565  10.421   9.038   5.067 -0.5016 -0.2622  0.4472
29083SOL    HW189566  10.417   8.959   5.012  0.0777 -1.0478  1.4851
29083SOL    HW289567  10.514   9.055   5.076 -0.6262  0.4843  0.3345
29084SOL     OW89568   7.674   2.064   9.178  0.3769  0.3601  0.3385
29084SOL    HW189569   7.709   1.987   9.223 -0.6161  0.6629  1.7189
29084SOL    HW289570   7.657   2.035   9.089 -2.5149 -1.8807  1.4715
29085SOL     OW89571   4.067   1.782   1.509 -0.1425 -0.1091 -0.3359
29085SOL    HW189572   4.154   1.744   1.498  0.2763  1.1487 -1.6520
29085SOL    HW289573   4.023   1.769   1.425 -0.1067  1.8855 -0.7248
29086SOL     OW89574   1.097   6.914   2.150  0.1344 -0.3702  0.1629
29086SOL    HW189575   1.177   6.862   2.141 -0.2208 -0.9492  0.2463
29086SOL    HW289576   1.105   6.955   2.236  2.1318  2.7441 -1.3050
29087SOL     OW89577   9.742  10.001   6.267 -0.6322  0.4782 -0.2520
29087SOL    HW189578   9.778   9.974   6.183 -0.8792  1.3292 -0.6453
29087SOL    HW289579   9.739  10.096   6.263 -0.4180  0.5501  0.8205
29088SOL     OW89580   5.175   7.017   0.451 -0.2967  0.3414  0.3559
29088SOL    HW189581   5.245   7.075   0.420  0.6641  0.4488  2.5481
29088SOL    HW289582   5.096   7.049   0.407  0.7653  1.1928 -0.9961
29089SOL     OW89583   5.495   5.030   8.811  0.1294  0.6957 -0.7236
29089SOL    HW189584   5.474   4.938   8.823 -2.0607  1.3469  1.0029
29089SOL    HW289585   5.533   5.058   8.894  2.5518  1.0025 -1.8323
29090SOL     OW89586   5.951   8.370   4.965  0.7039 -0.2038  0.1072
29090SOL    HW189587   6.009   8.389   4.891 -0.4214  1.4279 -0.4250
29090SOL    HW289588   5.997   8.406   5.041  1.4080 -0.9805  0.0606
29091SOL     OW89589   0.922   5.610   8.124 -0.0957  0.8136 -0.2957
29091SOL    HW189590   0.979   5.533   8.127 -0.9165  0.2101  0.3221
29091SOL    HW289591   0.963   5.668   8.060  1.2096  0.4033  0.1441
29092SOL     OW89592   3.578   4.303   9.600 -0.3272 -0.1898  0.4287
29092SOL    HW189593   3.529   4.292   9.682 -1.1363 -0.7114 -0.1114
29092SOL    HW289594   3.561   4.393   9.574  0.1993  0.0803  0.9978
29093SOL     OW89595   0.555   3.938   8.273 -0.1654  0.3522 -0.0260
29093SOL    HW189596   0.648   3.960   8.263 -0.1203 -0.0592 -0.5880
29093SOL    HW289597   0.554   3.871   8.341  0.3353 -1.9237 -2.0762
29094SOL     OW89598   4.747   4.569   0.706 -0.3011 -0.6061 -0.2165
29094SOL    HW189599   4.811   4.627   0.747 -1.2848  0.0927  0.3600
29094SOL    HW289600   4.671   4.625   0.689 -0.1785 -1.0270 -2.4032
29095SOL     OW89601   8.399   3.770   1.126  0.1306  0.0304 -0.0611
29095SOL    HW189602   8.345   3.842   1.159  0.0562 -0.5111  1.0237
29095SOL    HW289603   8.407   3.788   1.032 -0.3175  1.1672  0.0994
29096SOL     OW89604   1.415   6.561   5.996  0.0085 -0.0051  0.5925
29096SOL    HW189605   1.478   6.632   6.006 -0.5893  0.5826  0.2741
29096SOL    HW289606   1.464   6.491   5.952  0.9183 -0.2460  1.9420
29097SOL     OW89607   5.456   8.807   6.732 -0.0761  0.0742  0.5895
29097SOL    HW189608   5.501   8.723   6.738 -0.1975 -0.0128  0.3198
29097SOL    HW289609   5.507   8.866   6.787 -0.2113 -0.2734  1.0961
29098SOL     OW89610   2.599   6.779   7.578  0.5912 -0.5646 -0.6562
29098SOL    HW189611   2.601   6.854   7.519 -1.5869  1.9723  2.1525
29098SOL    HW289612   2.691   6.762   7.600  1.3271 -0.6348 -3.4575
29099SOL     OW89613   3.480   9.195   5.118  0.6436  0.7149  0.2070
29099SOL    HW189614   3.539   9.205   5.043  1.5127  0.8507  0.8863
29099SOL    HW289615   3.416   9.129   5.091  1.4595  0.1337 -0.3346
29100SOL     OW89616   3.512   3.627   8.019 -0.0589  0.2451 -0.2232
29100SOL    HW189617   3.517   3.585   7.933 -3.4274 -1.2366  0.1374
29100SOL    HW289618   3.508   3.721   7.999  1.2028  0.0654 -1.4831
29101SOL     OW89619   5.980   1.074   4.201  0.3748 -0.5079  0.5497
29101SOL    HW189620   5.977   0.979   4.186 -2.7037 -0.4882  0.4266
29101SOL    HW289621   6.041   1.106   4.135  0.6212 -2.3000 -0.1568
29102SOL     OW89622   0.514   2.141   8.261  0.2989  0.1853 -0.2665
29102SOL    HW189623   0.465   2.135   8.343  0.7163  2.2371  0.1942
29102SOL    HW289624   0.536   2.050   8.239  1.2982 -0.3741  2.5998
29103SOL     OW89625   1.579   8.366   2.741  0.5127 -0.3346  0.0878
29103SOL    HW189626   1.522   8.325   2.806 -2.0255  0.4818 -1.4777
29103SOL    HW289627   1.600   8.452   2.778 -0.7861  0.0621 -0.0110
29104SOL     OW89628   8.362   2.356   0.243 -0.2977  0.6504 -0.1645
29104SOL    HW189629   8.447   2.332   0.206  0.7325  0.2915  2.2598
29104SOL    HW289630   8.299   2.328   0.177  1.4273  1.0319 -2.0932
29105SOL     OW89631   3.544   1.261   8.848  0.5128 -0.4683 -0.1435
29105SOL    HW189632   3.538   1.346   8.805 -0.3204 -0.8175 -0.7544
29105SOL    HW289633   3.600   1.276   8.924  0.8713  0.4808 -0.5834
29106SOL     OW89634   1.741   6.753   0.227  0.4183 -0.6419 -0.3386
29106SOL    HW189635   1.645   6.758   0.229  0.4670  0.1653  0.7251
29106SOL    HW289636   1.763   6.691   0.296  0.7018  0.2823  0.4291
29107SOL     OW89637   0.029   8.883   1.844 -0.4294 -0.1336  0.1320
29107SOL    HW189638   0.012   8.977   1.840  0.4235  0.0094 -0.3029
29107SOL    HW289639   0.064   8.861   1.758  0.2090 -0.6803  0.5235
29108SOL     OW89640   0.742   3.021   5.986 -0.6961 -0.1627  0.1107
29108SOL    HW189641   0.828   2.998   6.022 -0.6292  0.0335  0.0765
29108SOL    HW289642   0.694   2.938   5.984 -1.6246  0.1702  3.0798
29109SOL     OW89643   6.815  10.487   3.655  0.0482  0.3763  0.5491
29109SOL    HW189644   6.904  10.479   3.691  1.0743 -0.2742 -1.9462
29109SOL    HW289645   6.772  10.406   3.682  1.0701 -0.4992 -0.3525
29110SOL     OW89646   3.564   9.950   2.652  0.2827  0.1978 -0.5755
29110SOL    HW189647   3.472   9.924   2.641  0.9095 -1.8833 -1.2021
29110SOL    HW289648   3.612   9.868   2.657  2.0963  1.2485  0.1400
29111SOL     OW89649   6.840   7.468   1.569  0.2635  0.4769  0.1093
29111SOL    HW189650   6.905   7.398   1.577  1.1739  1.1331 -1.1336
29111SOL    HW289651   6.774   7.447   1.635  0.1325 -1.9387 -0.6760
29112SOL     OW89652   0.715   6.716   5.034  0.3408 -0.1771  0.5151
29112SOL    HW189653   0.680   6.795   5.076  1.9587  0.5936  0.4860
29112SOL    HW289654   0.786   6.687   5.092 -0.3847 -1.7805  0.6639
29113SOL     OW89655   8.603   0.554   2.690  0.2669  1.1655 -0.6664
29113SOL    HW189656   8.692   0.576   2.717  0.2939  1.2878 -0.8508
29113SOL    HW289657   8.564   0.638   2.665 -0.4228  1.3416  0.9051
29114SOL     OW89658   8.851   0.457   7.337 -0.1086  0.7307 -0.0811
29114SOL    HW189659   8.937   0.487   7.367  0.2355 -1.5984  1.5134
29114SOL    HW289660   8.866   0.429   7.247  1.2280 -1.0893  0.6607
29115SOL     OW89661   4.296   7.033   0.327 -0.1216 -0.1528  0.0596
29115SOL    HW189662   4.357   7.077   0.387 -1.3835  1.7988  0.0007
29115SOL    HW289663   4.214   7.028   0.376 -0.3528 -1.3182 -0.4237
29116SOL     OW89664  10.303   1.357   8.188  0.5966 -0.8486 -0.0649
29116SOL    HW189665  10.397   1.344   8.169  1.0737 -0.7657  2.0401
29116SOL    HW289666  10.280   1.284   8.245 -0.5826 -0.7372 -0.3826
29117SOL     OW89667   5.492   1.748   6.695  0.1254 -0.3741  0.0067
29117SOL    HW189668   5.583   1.770   6.678  0.1940  1.0490  1.9694
29117SOL    HW289669   5.494   1.692   6.772 -0.5963 -1.6840 -0.8712
29118SOL     OW89670   5.792   3.288   2.784 -0.0094 -0.2371 -0.3185
29118SOL    HW189671   5.883   3.314   2.795 -0.0180 -0.8922  1.5883
29118SOL    HW289672   5.771   3.236   2.862 -1.3773 -1.9412 -1.7250
29119SOL     OW89673   4.707   0.440   5.087  0.0978  0.4548 -0.0411
29119SOL    HW189674   4.675   0.521   5.127  0.0013 -0.6047  2.1915
29119SOL    HW289675   4.763   0.401   5.154  0.3558 -1.1912 -1.1560
29120SOL     OW89676   3.753   3.278   4.438  0.0746 -0.2254  0.2296
29120SOL    HW189677   3.746   3.241   4.527 -1.5700  0.3535  0.3774
29120SOL    HW289678   3.668   3.260   4.398 -1.2654  4.0556  0.6218
29121SOL     OW89679   8.672  10.336   8.417 -0.1469  0.2552 -0.4263
29121SOL    HW189680   8.718  10.309   8.338  1.0973  1.5594 -0.1723
29121SOL    HW289681   8.730  10.310   8.489 -0.8020 -0.0076  0.0232
29122SOL     OW89682   1.047   3.249   0.993  0.5428  0.3945  0.4657
29122SOL    HW189683   1.025   3.325   0.938  0.4387  1.0346  1.3613
29122SOL    HW289684   0.968   3.195   0.991  1.1804 -0.5540 -1.5055
29123SOL     OW89685   1.874  10.039   9.371 -0.1554 -0.5727 -0.0132
29123SOL    HW189686   1.805  10.092   9.331  0.8975  1.2694  0.4518
29123SOL    HW289687   1.838  10.013   9.456 -0.0975  0.9197  0.5052
29124SOL     OW89688   6.652   0.953   2.199  0.6389  0.0337 -0.1028
29124SOL    HW189689   6.582   0.902   2.156  0.4937 -0.0726  0.2555
29124SOL    HW289690   6.660   1.032   2.145  0.2942  0.0108 -0.1941
29125SOL     OW89691   5.338   5.733   9.623 -0.8355  0.0511  0.2737
29125SOL    HW189692   5.321   5.802   9.560 -0.2516 -0.2042 -0.1685
29125SOL    HW289693   5.406   5.769   9.681  1.2519 -0.9882 -1.4002
29126SOL     OW89694   4.259  10.404   7.376 -0.4640 -0.0234  0.2167
29126SOL    HW189695   4.278  10.386   7.468 -0.9704  1.6238  0.6790
29126SOL    HW289696   4.259  10.318   7.334  0.1927 -0.7627  1.6659
29127SOL     OW89697   6.167   7.632   7.758 -0.0842 -0.7088 -0.3357
29127SOL    HW189698   6.227   7.689   7.710  0.5033 -0.7609  0.3096
29127SOL    HW289699   6.159   7.554   7.703  2.3493 -1.7318  0.6005
29128SOL     OW89700   0.785   3.985   4.598  0.0155 -0.2671  0.2680
29128SOL    HW189701   0.758   3.921   4.664  0.7335  1.5008  2.3856
29128SOL    HW289702   0.861   3.945   4.556  0.8861 -0.5569  2.0318
29129SOL     OW89703   0.087  10.020   9.949  0.5317 -0.2776  0.4402
29129SOL    HW189704   0.142  10.066  10.012 -1.1278  2.1782  0.2493
29129SOL    HW289705   0.139  10.016   9.869  0.7793  1.2821  0.4935
29130SOL     OW89706   8.455   7.802   4.453 -0.2517  0.0357  0.1606
29130SOL    HW189707   8.427   7.761   4.371  0.6325  0.8175 -0.5535
29130SOL    HW289708   8.419   7.890   4.450  0.1340  0.2060  0.4129
29131SOL     OW89709   5.891   6.295   0.593  0.2326 -0.2963  0.0992
29131SOL    HW189710   5.798   6.301   0.571  0.3150  1.2602  0.0940
29131SOL    HW289711   5.924   6.384   0.582  1.7774 -0.8771 -0.0916
29132SOL     OW89712   1.795   5.143   4.048 -0.1894  0.2132 -0.0418
29132SOL    HW189713   1.717   5.092   4.067  0.2969 -0.5472 -0.0350
29132SOL    HW289714   1.762   5.225   4.012 -0.9991  0.0939  0.3940
29133SOL     OW89715   7.043   6.940   1.745  0.4844 -0.0913 -0.1214
29133SOL    HW189716   6.958   6.911   1.711  0.3028 -0.1507  0.3872
29133SOL    HW289717   7.086   6.861   1.775  0.4126  0.0349  0.3137
29134SOL     OW89718   6.890   9.732   6.557  0.2245  0.7740 -0.0428
29134SOL    HW189719   6.861   9.784   6.482  1.2084 -0.7532 -1.5365
29134SOL    HW289720   6.905   9.645   6.522  1.8152  0.2779  1.6995
29135SOL     OW89721   0.097   4.152   0.956 -0.4186 -0.2920  0.2066
29135SOL    HW189722   0.107   4.239   0.918  1.1201 -0.8118 -0.6489
29135SOL    HW289723   0.103   4.166   1.051  0.3635  0.4666  0.0521
29136SOL     OW89724  10.175   9.825   7.440  0.1014 -0.8922 -0.3016
29136SOL    HW189725  10.221   9.909   7.445 -1.2109 -0.2021  0.9855
29136SOL    HW289726  10.174   9.804   7.346 -1.7220  1.8270 -1.0247
29137SOL     OW89727   2.481   1.203   4.248 -0.3477  0.7222 -0.7897
29137SOL    HW189728   2.554   1.260   4.273 -0.5138 -0.5508  3.2723
29137SOL    HW289729   2.447   1.169   4.331 -3.9774 -0.7583 -2.6548
29138SOL     OW89730   9.924   0.051   4.824 -0.4913 -0.2529  0.2198
29138SOL    HW189731  10.016   0.053   4.799 -0.3264 -0.5283  0.7795
29138SOL    HW289732   9.925   0.040   4.919 -1.0944  1.2903  0.4410
29139SOL     OW89733   9.124   4.827   6.940  0.0879  0.5490  0.0981
29139SOL    HW189734   9.195   4.765   6.957  1.6821  2.2775  0.1291
29139SOL    HW289735   9.088   4.800   6.856 -1.8475 -2.6342  1.7424
29140SOL     OW89736   8.208   3.232   7.737  0.2004  0.2237 -0.0621
29140SOL    HW189737   8.161   3.155   7.770 -1.6563  0.8600 -1.0970
29140SOL    HW289738   8.191   3.300   7.803 -0.0297  0.3658 -0.2702
29141SOL     OW89739   2.366   2.504   5.745 -0.2593  0.2326 -0.3523
29141SOL    HW189740   2.354   2.418   5.705  1.2059 -1.5332  2.6088
29141SOL    HW289741   2.371   2.485   5.839  3.1787  3.1227  0.2358
29142SOL     OW89742   4.814   5.369   7.016 -0.5853  0.1336 -0.3520
29142SOL    HW189743   4.777   5.454   7.041 -0.1354  0.6723 -1.4394
29142SOL    HW289744   4.748   5.305   7.043 -0.9758  0.8305  0.3926
29143SOL     OW89745   6.101   0.567   6.284  0.3895  0.4006  0.2093
29143SOL    HW189746   6.184   0.561   6.236 -0.7321 -0.7615 -1.6793
29143SOL    HW289747   6.034   0.578   6.217 -1.2856 -1.6005  1.4345
29144SOL     OW89748   0.574   7.134   5.351 -0.1347  0.0129  0.6270
29144SOL    HW189749   0.580   7.229   5.346  3.5680 -0.1046 -0.2412
29144SOL    HW289750   0.592   7.113   5.442  0.8153  0.1278  0.4758
29145SOL     OW89751   0.506   0.209   5.696  0.3832 -0.7598 -0.1926
29145SOL    HW189752   0.411   0.211   5.683  0.6154  1.4368 -2.1366
29145SOL    HW289753   0.524   0.118   5.722 -2.4088 -0.7744  2.2366
29146SOL     OW89754   7.522   2.224   9.792 -0.1310  0.5190  0.2560
29146SOL    HW189755   7.455   2.187   9.734  2.5179 -0.8474 -2.1419
29146SOL    HW289756   7.513   2.174   9.873 -0.4725 -1.3427 -0.8748
29147SOL     OW89757   6.608   8.250   3.836 -1.2439  0.6387 -0.1984
29147SOL    HW189758   6.636   8.211   3.753  1.3069  0.0658  0.8123
29147SOL    HW289759   6.525   8.208   3.857  0.2508 -2.6013 -0.3101
29148SOL     OW89760   7.639   1.276   6.843  0.3416  0.1398  0.5290
29148SOL    HW189761   7.659   1.260   6.936  1.4652 -0.6238  0.1806
29148SOL    HW289762   7.628   1.189   6.806 -1.8536  0.4912  0.2731
29149SOL     OW89763   6.873  10.083   1.744  0.1304 -0.2671  0.6152
29149SOL    HW189764   6.831  10.024   1.682  0.2120  1.2085 -0.8966
29149SOL    HW289765   6.961  10.097   1.708 -0.1680  1.4126  0.4765
29150SOL     OW89766   6.016   1.852   3.883  0.2286 -0.0413 -0.0237
29150SOL    HW189767   6.056   1.913   3.820 -1.6922 -0.3541 -1.6354
29150SOL    HW289768   5.958   1.907   3.936  0.5578 -0.0586  0.3630
29151SOL     OW89769   9.840   6.560   9.860  0.3774  0.2511 -0.2936
29151SOL    HW189770   9.798   6.578   9.776 -0.8973 -1.4473 -0.0655
29151SOL    HW289771   9.860   6.467   9.858 -1.2463 -0.2319  1.9145
29152SOL     OW89772   9.601   7.184   3.951  0.0736  0.4313  0.5296
29152SOL    HW189773   9.526   7.241   3.969  0.2028  0.4587  0.9817
29152SOL    HW289774   9.615   7.136   4.033 -0.6324 -0.9496 -0.1165
29153SOL     OW89775   2.162   7.535   1.314  0.1859 -0.6875 -0.0387
29153SOL    HW189776   2.217   7.611   1.333  0.1642 -0.8658  0.7617
29153SOL    HW289777   2.100   7.567   1.249 -0.2441  0.1739  0.7720
29154SOL     OW89778   9.525   6.324   8.846 -1.2441 -0.1655 -0.3596
29154SOL    HW189779   9.507   6.415   8.868 -2.2086 -0.2217 -0.8377
29154SOL    HW289780   9.491   6.314   8.757  1.3183 -0.3024 -1.3911
29155SOL     OW89781   3.843   4.500   5.195 -0.1684  0.0539 -0.3173
29155SOL    HW189782   3.822   4.593   5.186 -0.8366 -0.1963 -1.4327
29155SOL    HW289783   3.862   4.471   5.106  0.1107 -0.8737  0.0344
29156SOL     OW89784   8.452   1.737   6.794  0.1575  0.2642  0.4217
29156SOL    HW189785   8.361   1.708   6.796  0.3755 -0.4270  0.2585
29156SOL    HW289786   8.484   1.723   6.883 -0.0683  1.0920  0.6454
29157SOL     OW89787   4.639   8.456   4.777 -0.1332 -0.2412  0.4856
29157SOL    HW189788   4.714   8.416   4.821 -0.7029  0.3446  2.0498
29157SOL    HW289789   4.673   8.540   4.744  0.0810 -0.2915  0.5774
29158SOL     OW89790   8.055   3.845   2.988 -0.0677 -0.4066  0.0531
29158SOL    HW189791   8.077   3.930   3.025 -0.9687 -0.3814  0.5591
29158SOL    HW289792   7.985   3.863   2.926  1.5149 -0.4249 -1.8374
29159SOL     OW89793   2.828   8.527   1.159  0.4071 -0.1483 -0.3668
29159SOL    HW189794   2.747   8.545   1.110  0.6739  2.6058  0.0995
29159SOL    HW289795   2.851   8.437   1.133 -1.7381 -0.3168 -1.9953
29160SOL     OW89796   1.692   1.587   5.858  0.2014  0.5149 -0.3933
29160SOL    HW189797   1.603   1.615   5.880  0.3473 -0.1821  1.2397
29160SOL    HW289798   1.720   1.534   5.933  1.9128  0.5251 -0.9750
29161SOL     OW89799   9.764   9.684   5.247 -0.1982  0.1952  0.1812
29161SOL    HW189800   9.751   9.715   5.336  0.3017  0.2272  0.2484
29161SOL    HW289801   9.676   9.683   5.208 -0.7365 -1.7791  1.3121
29162SOL     OW89802   1.380   4.023   8.456 -0.1548  0.6683  0.3061
29162SOL    HW189803   1.377   3.981   8.370  0.6783  1.6367 -0.2189
29162SOL    HW289804   1.292   4.011   8.491 -0.6888  0.7471 -0.9332
29163SOL     OW89805   5.133   3.705   8.860 -0.3107 -0.2953 -0.4821
29163SOL    HW189806   5.076   3.769   8.903  0.5801  1.2950 -1.5512
29163SOL    HW289807   5.074   3.634   8.835 -2.2147  1.8755 -2.7557
29164SOL     OW89808   8.487   6.790   6.935  0.0019 -0.0650 -0.3643
29164SOL    HW189809   8.464   6.841   6.858  0.7840 -0.7061 -1.0330
29164SOL    HW289810   8.522   6.855   6.997 -1.0584  0.5147 -0.3566
29165SOL     OW89811   5.151   7.228   3.205  0.3963 -0.2574  0.4303
29165SOL    HW189812   5.242   7.203   3.187  0.3039 -0.9104  0.8408
29165SOL    HW289813   5.147   7.240   3.300  0.3684  1.0998  0.2811
29166SOL     OW89814   2.171   1.740   6.450 -0.1030  0.0853  0.4879
29166SOL    HW189815   2.248   1.711   6.499  0.5418 -0.3610 -0.7403
29166SOL    HW289816   2.116   1.663   6.445 -1.1477  0.6588  2.2290
29167SOL     OW89817   7.176   5.182  10.373 -0.7424 -0.5346  0.4644
29167SOL    HW189818   7.190   5.154  10.283  0.3689 -0.1202  0.4882
29167SOL    HW289819   7.118   5.257  10.366  0.1866  0.1603 -0.0158
29168SOL     OW89820   6.647   3.174   4.814  0.3816 -0.7029  0.1932
29168SOL    HW189821   6.689   3.090   4.796  3.3491  0.5266  0.8366
29168SOL    HW289822   6.588   3.156   4.887  0.7822 -2.2746  0.1646
29169SOL     OW89823   4.434   1.542   4.420 -0.0587  0.3365 -0.4299
29169SOL    HW189824   4.369   1.514   4.485 -0.2595  1.5180 -0.1050
29169SOL    HW289825   4.509   1.569   4.472 -0.1926  1.2185 -0.6841
29170SOL     OW89826   4.703  10.003   9.702  0.0983 -0.2640  0.1736
29170SOL    HW189827   4.698   9.943   9.628  3.0874 -0.0353 -0.3225
29170SOL    HW289828   4.746  10.081   9.667  0.2272  0.4401  1.8210
29171SOL     OW89829   7.354   5.730   4.641  0.0283 -0.1467 -0.0096
29171SOL    HW189830   7.368   5.686   4.557 -1.3895 -0.7376  0.0318
29171SOL    HW289831   7.380   5.821   4.625  0.5146 -0.4291 -0.8595
29172SOL     OW89832   8.041   6.658   3.268  0.3087 -0.0574 -0.7187
29172SOL    HW189833   8.120   6.712   3.263 -0.0014  0.3936 -0.7632
29172SOL    HW289834   8.025   6.631   3.177 -0.3181  0.9200 -0.9183
29173SOL     OW89835   1.011   1.805   2.904 -0.2214  0.3116 -0.4293
29173SOL    HW189836   1.074   1.831   2.972  0.1374  0.4591 -0.8169
29173SOL    HW289837   1.049   1.727   2.864  0.0222  0.7604 -1.0847
29174SOL     OW89838   3.833   5.456   7.537 -0.1680 -0.1357 -0.3156
29174SOL    HW189839   3.892   5.409   7.478  0.3820 -1.6024  1.3231
29174SOL    HW289840   3.748   5.451   7.495 -0.2769 -3.3183  0.0982
29175SOL     OW89841   8.048   4.574   8.419 -0.3832  0.0716 -0.2336
29175SOL    HW189842   8.087   4.539   8.499 -0.8407 -0.4340 -0.2245
29175SOL    HW289843   7.958   4.542   8.420 -0.9334  1.5604 -0.0472
29176SOL     OW89844   1.424   0.847   7.412 -0.0326  0.5778 -0.1353
29176SOL    HW189845   1.427   0.930   7.459  0.6272  0.6868 -0.3649
29176SOL    HW289846   1.336   0.813   7.430 -0.1049  1.0448  0.4357
29177SOL     OW89847   7.767   0.320   7.782 -0.4873 -0.4504  0.2584
29177SOL    HW189848   7.857   0.317   7.812  0.1078  2.2888 -0.9072
29177SOL    HW289849   7.717   0.350   7.857  0.0198  0.4547  0.2559
29178SOL     OW89850   6.965   3.183   7.613  0.0489  0.1731 -0.2415
29178SOL    HW189851   7.043   3.225   7.648  0.4112  0.7670 -1.6882
29178SOL    HW289852   6.900   3.254   7.609 -0.3699 -0.1703  0.3541
29179SOL     OW89853   9.859   6.604   0.326  0.4019  0.1872  0.1825
29179SOL    HW189854   9.806   6.542   0.375 -0.9613  0.5649 -0.7243
29179SOL    HW289855   9.868   6.680   0.384  1.8023 -0.6857  1.1669
29180SOL     OW89856   6.738   6.122   9.146 -0.7067 -0.1720 -0.0326
29180SOL    HW189857   6.660   6.154   9.191 -0.1232  0.1584  0.7716
29180SOL    HW289858   6.711   6.112   9.055 -1.7574 -0.3227  0.2834
29181SOL     OW89859   9.404   3.917   2.166 -0.4111 -0.5278 -0.0657
29181SOL    HW189860   9.400   3.862   2.244  0.8076 -0.1192  0.3070
29181SOL    HW289861   9.334   3.982   2.179 -0.3367 -0.5732  0.6001
29182SOL     OW89862   4.036   9.850   2.339  0.1100 -0.0677  0.5155
29182SOL    HW189863   4.110   9.793   2.357 -0.7662 -1.8350 -1.1899
29182SOL    HW289864   4.045   9.874   2.247 -0.1799  1.6526  0.8910
29183SOL     OW89865  10.056   9.570   0.685 -0.0410 -0.1904 -0.2763
29183SOL    HW189866  10.088   9.503   0.625  0.4280 -0.0818 -0.1547
29183SOL    HW289867  10.086   9.653   0.647 -0.8210 -0.0299 -0.5511
29184SOL     OW89868   1.817   5.890   0.424 -0.7025 -0.2074  0.4619
29184SOL    HW189869   1.733   5.859   0.459 -1.0522  1.0586  0.8068
29184SOL    HW289870   1.837   5.968   0.476  1.9590 -1.8426  2.1431
29185SOL     OW89871   1.384   0.766   5.175  0.0955 -0.2420 -0.0640
29185SOL    HW189872   1.395   0.672   5.184 -2.3633 -0.4810  1.3407
29185SOL    HW289873   1.443   0.791   5.104 -0.1272 -3.0206 -1.3191
29186SOL     OW89874   8.977   5.660   2.450  0.2578 -0.8585 -0.1596
29186SOL    HW189875   8.949   5.677   2.540 -0.3385 -0.9645 -0.3178
29186SOL    HW289876   8.895   5.642   2.403  0.6807 -2.2917 -0.3935
29187SOL     OW89877   2.502  10.152   4.399 -0.4786 -0.0516  0.3792
29187SOL    HW189878   2.560  10.133   4.325 -0.7841 -0.2167  0.1815
29187SOL    HW289879   2.561  10.182   4.468 -0.1976  0.2020  0.0369
29188SOL     OW89880   6.617   9.189   4.903 -0.0138 -0.3810  0.0823
29188SOL    HW189881   6.639   9.138   4.825  0.1607  1.3088 -1.0281
29188SOL    HW289882   6.701   9.202   4.947  0.0138 -0.6026  0.0999
29189SOL     OW89883   3.360   3.593   2.330 -0.1843 -0.2379 -0.1811
29189SOL    HW189884   3.399   3.582   2.417  0.7508  0.9239 -0.4255
29189SOL    HW289885   3.299   3.666   2.340  0.2755  0.2159 -0.5860
29190SOL     OW89886   2.722  10.567   3.388  0.3217  0.0730 -0.5608
29190SOL    HW189887   2.783  10.512   3.436 -0.4489 -0.6099 -0.3388
29190SOL    HW289888   2.771  10.596   3.311  1.2742  0.4592  0.1695
29191SOL     OW89889   7.594   1.962   2.866  0.0599 -0.4440 -0.4401
29191SOL    HW189890   7.639   1.974   2.950  1.8016  0.6014 -1.4612
29191SOL    HW289891   7.503   1.987   2.884  0.5509  0.4529  0.9736
29192SOL     OW89892   8.288   0.909   5.876 -0.4384 -0.0772 -0.5815
29192SOL    HW189893   8.198   0.906   5.844 -0.7960 -0.4988  0.4124
29192SOL    HW289894   8.327   0.828   5.844 -1.1242 -1.0486  0.9031
29193SOL     OW89895  10.509   6.616   8.239  0.0928 -0.4650 -0.0528
29193SOL    HW189896  10.421   6.607   8.201 -0.5222 -1.1395  1.4604
29193SOL    HW289897  10.529   6.529   8.275 -0.4408  0.6633  3.3526
29194SOL     OW89898   9.147   1.064   4.503  0.3453  0.0979  0.1173
29194SOL    HW189899   9.102   1.066   4.587 -0.6067 -1.5635 -0.2969
29194SOL    HW289900   9.240   1.062   4.526  0.1155  0.2526  1.1069
29195SOL     OW89901   6.950   3.291   3.894  0.0362 -0.1312 -0.2361
29195SOL    HW189902   6.901   3.319   3.971  0.3990 -0.6682  0.1989
29195SOL    HW289903   6.994   3.371   3.863  0.7844 -0.1230  0.7797
29196SOL     OW89904   3.190   9.418   5.626  0.0915 -0.1152 -0.2208
29196SOL    HW189905   3.143   9.454   5.702  0.5583 -0.2777  0.1559
29196SOL    HW289906   3.141   9.340   5.602 -0.6177  0.4609 -0.7010
29197SOL     OW89907   8.938   9.263   5.715 -0.4746 -0.5406 -0.0070
29197SOL    HW189908   8.957   9.177   5.680 -1.6626 -0.8712  0.1058
29197SOL    HW289909   8.843   9.273   5.705 -0.7301 -0.2336  2.1449
29198SOL     OW89910   9.539   3.989   7.527  0.0237  0.0788 -0.3455
29198SOL    HW189911   9.537   4.064   7.586  0.0708 -0.0256 -0.2107
29198SOL    HW289912   9.485   4.016   7.452  0.9966  0.7051 -0.8496
29199SOL     OW89913   8.189   7.199   9.037 -0.0425  0.1540 -0.1100
29199SOL    HW189914   8.273   7.234   9.006  0.1581 -0.3288 -0.1129
29199SOL    HW289915   8.209   7.158   9.121 -0.2496 -0.0766 -0.1713
29200SOL     OW89916   9.213   2.768   1.480  0.1866  0.1411 -0.5855
29200SOL    HW189917   9.181   2.857   1.495  0.8380  0.2310  0.4315
29200SOL    HW289918   9.162   2.736   1.406 -0.4576  1.1589 -0.6072
29201SOL     OW89919   0.941   5.693   1.372 -0.0133 -0.3339  0.1575
29201SOL    HW189920   1.027   5.667   1.406 -0.2115 -2.1400 -0.6037
29201SOL    HW289921   0.899   5.737   1.446  1.5551  0.6025  0.5441
29202SOL     OW89922   2.312  10.192   9.772 -0.2896 -0.1676  0.6167
29202SOL    HW189923   2.360  10.173   9.691 -0.3571 -0.4367  0.6408
29202SOL    HW289924   2.317  10.287   9.780 -2.9134  0.2476 -1.3593
29203SOL     OW89925   8.154   4.164   0.528 -0.0488  0.0465  0.1487
29203SOL    HW189926   8.110   4.107   0.466  0.5757 -0.2668 -0.0205
29203SOL    HW289927   8.119   4.139   0.614 -0.0024 -0.3806  0.0454
29204SOL     OW89928   2.187   9.058   3.271 -0.4800 -0.3518  0.4526
29204SOL    HW189929   2.133   9.108   3.210  0.4129  1.2256  0.8928
29204SOL    HW289930   2.232   9.125   3.323  1.8344 -1.6015  0.1689
29205SOL     OW89931   5.717   6.059   0.371  0.8631  0.8618 -0.0143
29205SOL    HW189932   5.726   5.967   0.392 -2.5778  0.0511 -1.3869
29205SOL    HW289933   5.758   6.069   0.285  1.2614  0.6156  0.1498
29206SOL     OW89934   1.264  10.189   8.045  0.4957 -0.1779 -0.2608
29206SOL    HW189935   1.209  10.176   7.968 -0.6713 -1.6837  0.7573
29206SOL    HW289936   1.225  10.264   8.090 -0.5442 -0.9682  0.2265
29207SOL     OW89937   4.210   9.128   7.061 -0.1303 -0.1908  0.0173
29207SOL    HW189938   4.260   9.157   7.137  0.8131 -0.4580 -0.4805
29207SOL    HW289939   4.209   9.204   7.003 -0.6424 -0.0617  0.1943
29208SOL     OW89940   4.405   3.341   8.337 -0.0026  0.2889 -0.1170
29208SOL    HW189941   4.409   3.421   8.285  2.2345  1.1601  1.2326
29208SOL    HW289942   4.460   3.279   8.290 -0.2664  0.1466 -0.2377
29209SOL     OW89943   6.634   5.049   5.918 -0.0027 -0.2532  0.0666
29209SOL    HW189944   6.687   4.971   5.907  0.0926 -0.1221 -0.4267
29209SOL    HW289945   6.589   5.060   5.834  0.4853  0.5857 -0.0997
29210SOL     OW89946   9.974   8.044   8.078  0.3147  0.0842 -0.2638
29210SOL    HW189947  10.038   7.978   8.051 -1.1247 -1.7125  0.4947
29210SOL    HW289948   9.968   8.104   8.003 -0.6125 -2.4369 -2.3553
29211SOL     OW89949   8.764   6.963   0.899  0.3375  0.4963  0.0153
29211SOL    HW189950   8.680   6.978   0.856 -1.0085 -1.8036  1.5709
29211SOL    HW289951   8.763   7.021   0.975 -0.8091 -0.8496  1.0992
29212SOL     OW89952   8.504   2.723   0.422  0.3597 -0.2238  0.7550
29212SOL    HW189953   8.527   2.646   0.474  0.1960  0.4766  1.9222
29212SOL    HW289954   8.533   2.703   0.333  1.4984 -1.0936  1.3051
29213SOL     OW89955   2.522   9.946   8.528  0.0643  0.1553 -0.2473
29213SOL    HW189956   2.430   9.929   8.549  0.5990  0.1271  2.4885
29213SOL    HW289957   2.539  10.033   8.565  1.0406  0.3680 -1.1400
29214SOL     OW89958   1.341   0.451   1.045  0.1915  0.5349  0.0235
29214SOL    HW189959   1.252   0.418   1.033  0.3405 -1.0433  2.4469
29214SOL    HW289960   1.396   0.387   1.000  0.1616  1.3099 -1.1572
29215SOL     OW89961   7.699   8.521   1.081 -0.2876 -0.1686 -0.1634
29215SOL    HW189962   7.641   8.504   1.155  0.4205  0.7895  0.6387
29215SOL    HW289963   7.781   8.479   1.104  0.0993  0.5666 -0.1509
29216SOL     OW89964   7.437   1.666   6.265 -0.4237 -0.0939 -0.5656
29216SOL    HW189965   7.438   1.589   6.321 -0.1586  0.1983 -0.1527
29216SOL    HW289966   7.480   1.734   6.318 -0.7936  0.3744 -0.8612
29217SOL     OW89967   8.429  10.498   9.631  0.3574 -0.3770 -0.0301
29217SOL    HW189968   8.500  10.449   9.673 -1.3528 -1.7170  1.4668
29217SOL    HW289969   8.387  10.434   9.573 -0.7597 -0.1934  0.5421
29218SOL     OW89970   6.286   1.497   5.103 -0.0138 -0.0158 -0.3168
29218SOL    HW189971   6.299   1.514   5.010  3.4907  0.1861  0.0996
29218SOL    HW289972   6.351   1.431   5.125 -1.1184 -0.4596  1.9184
29219SOL     OW89973   6.003   4.547   4.622 -0.6907 -0.3933  0.2394
29219SOL    HW189974   5.991   4.560   4.528 -2.0870 -0.9852  0.3094
29219SOL    HW289975   6.029   4.455   4.631  0.0244 -0.1860  0.4084
29220SOL     OW89976   4.466   7.545  10.132  0.2209  0.1236 -0.0548
29220SOL    HW189977   4.534   7.496  10.180 -0.0899 -1.1162 -0.8313
29220SOL    HW289978   4.425   7.479  10.076  1.1864  1.6609 -2.7335
29221SOL     OW89979   6.083   9.208   8.423 -0.7525 -0.3269  0.2213
29221SOL    HW189980   6.123   9.231   8.506 -1.3261 -3.3243  1.4292
29221SOL    HW289981   6.025   9.283   8.404 -0.7210  0.3892  2.5704
29222SOL     OW89982   8.811   6.756   5.656  0.4596  0.5648  0.2935
29222SOL    HW189983   8.728   6.754   5.609  1.6659  1.9021 -2.0481
29222SOL    HW289984   8.798   6.821   5.725 -0.6195  0.2279  0.4330
29223SOL     OW89985   5.449   3.080   0.656  0.1201 -0.2414  0.0402
29223SOL    HW189986   5.451   2.987   0.677 -1.9147  0.0179  1.7610
29223SOL    HW289987   5.530   3.115   0.693 -0.4707 -0.8849  2.0748
29224SOL     OW89988   1.657   4.962   8.878 -0.1797  0.5117  0.2220
29224SOL    HW189989   1.616   5.030   8.824 -0.8036  0.4421  0.5961
29224SOL    HW289990   1.738   5.002   8.910  0.0639  0.6463 -0.5384
29225SOL     OW89991   3.647  10.188   3.171 -0.1788  0.4623 -0.2788
29225SOL    HW189992   3.579  10.255   3.161  0.0817  0.5538 -1.6289
29225SOL    HW289993   3.665  10.158   3.082  1.4320  0.3034  0.0638
29226SOL     OW89994   4.590   3.485   2.564  0.2108 -0.4402 -0.0015
29226SOL    HW189995   4.636   3.536   2.498 -0.5957 -0.6280 -0.7270
29226SOL    HW289996   4.514   3.448   2.518 -0.4145 -0.5095  1.0382
29227SOL     OW89997   5.287   6.129   1.308  0.7577 -0.0853 -0.0906
29227SOL    HW189998   5.212   6.159   1.359  0.7019  0.1139 -0.2856
29227SOL    HW289999   5.347   6.090   1.372 -0.3550 -2.0161 -0.1560
29228SOL     OW90000   3.337   6.381   5.783  0.4484  0.4799 -0.0636
29228SOL    HW190001   3.429   6.376   5.812  0.3006  0.8397  0.4841
29228SOL    HW290002   3.308   6.290   5.779  1.5434  0.1756 -2.6161
29229SOL     OW90003   8.886   4.817   4.818 -0.0458 -0.4579 -0.3151
29229SOL    HW190004   8.872   4.772   4.734  1.2304  0.7521 -1.2277
29229SOL    HW290005   8.949   4.887   4.797 -0.9059  0.8720  1.3273
29230SOL     OW90006   6.101   0.061   3.791 -0.0588 -0.0354 -0.5378
29230SOL    HW190007   6.067   0.144   3.757 -0.8804 -0.0945  0.1080
29230SOL    HW290008   6.073   0.060   3.882 -1.0750 -1.5450 -0.8293
29231SOL     OW90009   0.221   4.190   3.384  0.1529 -0.3167  0.6030
29231SOL    HW190010   0.193   4.101   3.364 -0.6368 -0.0285  0.3851
29231SOL    HW290011   0.306   4.180   3.428  0.8060 -1.0861 -0.7985
29232SOL     OW90012   0.478   1.791   0.322 -0.2872  0.4560  0.1888
29232SOL    HW190013   0.470   1.885   0.307  1.1094  0.8558  1.7026
29232SOL    HW290014   0.390   1.757   0.309 -0.2175  1.3381 -4.1486
29233SOL     OW90015   9.318   8.733   2.583 -0.7761 -0.1020  0.5361
29233SOL    HW190016   9.383   8.688   2.638 -1.7997  0.3826  2.2104
29233SOL    HW290017   9.253   8.665   2.563 -0.9671 -0.0156  0.8554
29234SOL     OW90018   6.066   2.731   0.540  0.3033 -0.0807  0.0719
29234SOL    HW190019   5.987   2.742   0.594  1.4372  0.7318  1.6351
29234SOL    HW290020   6.035   2.686   0.462 -1.4227 -1.3625  1.4013
29235SOL     OW90021   4.409   1.106  10.245 -0.2883  0.3830  0.8964
29235SOL    HW190022   4.486   1.065  10.283 -0.0179 -0.1695 -0.1955
29235SOL    HW290023   4.346   1.113  10.317  0.8044  0.9230  1.8173
29236SOL     OW90024   7.393   1.559  10.440  0.0463 -1.0668 -0.2762
29236SOL    HW190025   7.335   1.568  10.365  0.8752 -1.3905 -0.9846
29236SOL    HW290026   7.475   1.599  10.411 -0.5701  1.9259  1.6539
29237SOL     OW90027   1.552   5.078   5.515 -0.1605 -0.6930 -0.4643
29237SOL    HW190028   1.530   4.988   5.490  0.5445 -0.8034 -0.7103
29237SOL    HW290029   1.498   5.132   5.458 -1.2300 -0.9489  0.2714
29238SOL     OW90030   3.635   7.106   3.605 -0.0411  0.0833 -0.4556
29238SOL    HW190031   3.597   7.048   3.540  0.5977 -1.3432  0.3859
29238SOL    HW290032   3.608   7.068   3.689  0.8690  0.6672  0.1195
29239SOL     OW90033   6.154   6.824   3.701 -0.5566 -0.7252 -0.1995
29239SOL    HW190034   6.117   6.738   3.720  0.8601 -0.5361  4.6692
29239SOL    HW290035   6.100   6.885   3.751 -0.7498  1.1558 -2.5295
29240SOL     OW90036   8.638   1.865   5.233  0.3154  0.5865  0.1362
29240SOL    HW190037   8.649   1.807   5.308  0.5252  0.0163 -0.3319
29240SOL    HW290038   8.722   1.909   5.224  0.3511  0.5155  0.1204
29241SOL     OW90039   8.592   2.285   1.694 -0.4612  0.4006 -0.2325
29241SOL    HW190040   8.510   2.328   1.668 -1.1935 -1.5988 -1.4982
29241SOL    HW290041   8.655   2.312   1.627 -0.8266 -0.1932 -0.8275
29242SOL     OW90042   5.279   7.690   8.230  0.0136  0.1448 -0.1224
29242SOL    HW190043   5.200   7.660   8.184  0.3671 -1.5573  0.3054
29242SOL    HW290044   5.300   7.775   8.190 -0.6884 -0.4678 -1.8798
29243SOL     OW90045   9.422  10.450   7.706  0.1702 -0.6349 -0.5270
29243SOL    HW190046   9.419  10.427   7.799  0.5172 -0.8683 -0.5676
29243SOL    HW290047   9.407  10.544   7.703  2.2427 -0.2214 -0.0357
29244SOL     OW90048   4.307   4.619   2.913 -0.3715 -0.3063 -0.3789
29244SOL    HW190049   4.304   4.715   2.908 -1.0684 -0.3498 -1.1348
29244SOL    HW290050   4.358   4.593   2.836 -0.1754 -0.5478 -0.1698
29245SOL     OW90051   7.262   1.745   0.659 -0.3094 -0.1969 -0.2588
29245SOL    HW190052   7.342   1.693   0.660  0.1857  0.5258  1.3270
29245SOL    HW290053   7.255   1.779   0.748 -2.6702 -0.6619 -0.2147
29246SOL     OW90054   3.929   8.311  10.226 -0.1395  0.2829  0.7962
29246SOL    HW190055   3.903   8.292  10.136 -0.9976 -0.6821  1.2347
29246SOL    HW290056   3.986   8.387  10.218 -0.2807  0.2759 -0.5541
29247SOL     OW90057   2.119   4.787   3.626  0.5347 -0.7799  0.0551
29247SOL    HW190058   2.086   4.802   3.537 -0.5090  1.4168  0.7405
29247SOL    HW290059   2.045   4.750   3.673  0.1388  0.7629  0.6935
29248SOL     OW90060   0.780   8.544   8.670 -0.4489  0.9409 -0.4234
29248SOL    HW190061   0.806   8.494   8.748 -1.3286  2.2727  0.7647
29248SOL    HW290062   0.858   8.594   8.647 -0.3279  0.9113 -0.0913
29249SOL     OW90063   1.228   6.839   1.399  0.2369  0.5585 -0.3311
29249SOL    HW190064   1.227   6.895   1.476  1.2178  0.3095 -0.1151
29249SOL    HW290065   1.158   6.775   1.415 -0.1628  1.0584 -0.0738
29250SOL     OW90066   3.777   4.363   0.005 -0.2508  0.2108  0.2386
29250SOL    HW190067   3.685   4.342  -0.013 -0.2471  0.5034 -0.1178
29250SOL    HW290068   3.816   4.379  -0.080  0.6163 -1.7936  0.2036
29251SOL     OW90069  10.042   7.103   1.390  0.0598 -0.2430  0.4453
29251SOL    HW190070   9.977   7.149   1.444  1.0254  0.0444  1.4007
29251SOL    HW290071  10.118   7.094   1.447  1.3190  0.5394 -1.0220
29252SOL     OW90072   8.006   4.458   6.740 -0.2488  0.2154  0.7920
29252SOL    HW190073   7.925   4.407   6.739 -0.6478  0.8096  1.6960
29252SOL    HW290074   8.054   4.426   6.817  0.4563 -0.2492  0.1675
29253SOL     OW90075   4.842   2.403   8.675 -0.0219  0.6192  0.1989
29253SOL    HW190076   4.807   2.441   8.756  1.9314  0.2637  1.2670
29253SOL    HW290077   4.886   2.323   8.703  1.7300  1.0934 -0.9921
29254SOL     OW90078   3.112   1.899   6.429 -0.0331 -0.4173 -0.3606
29254SOL    HW190079   3.023   1.894   6.395 -0.3611  1.0084  0.2427
29254SOL    HW290080   3.114   1.978   6.483  2.0947  0.7120 -1.9017
29255SOL     OW90081   5.032   8.776  10.476  0.2817  0.5673  0.8981
29255SOL    HW190082   4.966   8.814  10.418  1.3438  0.4376 -0.4436
29255SOL    HW290083   5.093   8.732  10.417  2.6332  2.2829  1.9087
29256SOL     OW90084   8.788   9.155   3.354  0.3368  0.4008  0.4825
29256SOL    HW190085   8.764   9.097   3.282  1.2210 -2.0634  2.0708
29256SOL    HW290086   8.873   9.192   3.328  1.0641 -1.1344  0.5693
29257SOL     OW90087   4.584   9.935   6.631 -0.6235 -0.4299  0.3473
29257SOL    HW190088   4.664   9.882   6.621 -1.6473 -1.8691 -0.5236
29257SOL    HW290089   4.609  10.003   6.694  0.8736 -1.7146  1.2343
29258SOL     OW90090   7.534   1.924   1.273  0.1535  0.3448  0.0067
29258SOL    HW190091   7.458   1.947   1.219 -0.8820 -2.5625  0.0740
29258SOL    HW290092   7.512   1.956   1.360 -0.8890 -0.2191 -0.0350
29259SOL     OW90093   6.807   1.391   4.147  0.5244 -0.0102  0.0359
29259SOL    HW190094   6.892   1.411   4.186  0.4676 -0.7363  0.5550
29259SOL    HW290095   6.798   1.454   4.076  1.9720 -0.6085 -0.7134
29260SOL     OW90096   2.005   2.675   9.965  0.2925 -0.3937 -0.0564
29260SOL    HW190097   2.056   2.755   9.949 -0.2272  1.2352  4.6701
29260SOL    HW290098   1.914   2.705   9.966 -0.3087 -1.9509 -1.9664
29261SOL     OW90099   5.760   1.268   7.979 -1.1210 -0.2929  0.1040
29261SOL    HW190100   5.672   1.269   7.941 -1.1044  1.6995 -0.0108
29261SOL    HW290101   5.746   1.246   8.072 -1.8691  0.9574  0.3089
29262SOL     OW90102   9.794   0.095   2.348  0.8741  0.6284  0.3471
29262SOL    HW190103   9.719   0.038   2.331  0.1143  1.3956  1.0721
29262SOL    HW290104   9.785   0.166   2.285 -0.8128  2.3956  2.4374
29263SOL     OW90105   9.590   3.679   2.928 -0.1143  0.3798  0.6773
29263SOL    HW190106   9.547   3.593   2.936  1.8496 -0.8723 -1.0167
29263SOL    HW290107   9.624   3.680   2.838 -0.2060  3.0323  0.6086
29264SOL     OW90108   2.871   4.047   4.586 -0.3067  0.3082 -0.6649
29264SOL    HW190109   2.834   4.004   4.663 -1.4307  0.2606 -1.2045
29264SOL    HW290110   2.807   4.029   4.517  1.4511 -1.0337 -2.0283
29265SOL     OW90111   9.361   3.180   1.092 -0.3940 -0.1420  0.0813
29265SOL    HW190112   9.401   3.194   1.006 -0.4370 -1.9917 -0.2933
29265SOL    HW290113   9.279   3.229   1.088  0.0537  0.5794 -0.5732
29266SOL     OW90114   7.532   9.217   8.029  0.2218 -0.2002 -0.2246
29266SOL    HW190115   7.520   9.300   7.983  1.7696 -0.2537 -0.8134
29266SOL    HW290116   7.496   9.151   7.970  0.9266 -0.1281 -0.7555
29267SOL     OW90117   9.304   9.152   8.429 -0.3834  0.5389 -0.2722
29267SOL    HW190118   9.228   9.122   8.479 -0.3614 -1.3214 -1.2839
29267SOL    HW290119   9.267   9.206   8.359 -0.6129  1.0411  0.2265
29268SOL     OW90120   5.594   5.467   9.459  0.1784 -0.8974  0.4885
29268SOL    HW190121   5.650   5.510   9.524 -0.0431  1.2007 -0.6262
29268SOL    HW290122   5.656   5.426   9.398  0.6540  1.9643 -1.1114
29269SOL     OW90123   9.437   6.406   4.574 -0.9978 -0.4233 -0.0552
29269SOL    HW190124   9.341   6.412   4.565 -1.0230 -2.2365 -1.5126
29269SOL    HW290125   9.470   6.451   4.496 -0.7610 -1.8962 -0.8375
29270SOL     OW90126   4.984   7.316   5.636  0.5331 -0.5677  0.1803
29270SOL    HW190127   4.985   7.264   5.555 -1.9924 -0.5065  0.0377
29270SOL    HW290128   5.037   7.264   5.698  0.0464 -2.1240 -0.6500
29271SOL     OW90129   9.830   1.168   5.090  0.2574  0.0551 -0.8742
29271SOL    HW190130   9.870   1.085   5.118  1.9670  0.1024 -2.9522
29271SOL    HW290131   9.897   1.234   5.107  0.1704  0.5092 -2.2227
29272SOL     OW90132   3.969   2.404   1.034 -0.5703  0.1606 -0.2534
29272SOL    HW190133   3.874   2.397   1.035 -0.5450 -0.6860 -1.5439
29272SOL    HW290134   3.988   2.479   1.090 -1.9961  0.4103 -0.0650
29273SOL     OW90135   4.696   6.573   8.692 -0.1629  0.2047 -0.2374
29273SOL    HW190136   4.767   6.558   8.629  0.2859  0.5249  0.1847
29273SOL    HW290137   4.686   6.668   8.694 -1.0909  0.1322 -0.8138
29274SOL     OW90138   1.280   8.174   2.284 -0.3540 -0.0196  0.3544
29274SOL    HW190139   1.367   8.141   2.261 -0.1436 -0.4692  1.6738
29274SOL    HW290140   1.297   8.257   2.329 -0.7554  0.9206 -1.1777
29275SOL     OW90141   8.651   0.762   4.723 -0.2368  0.5745  0.3734
29275SOL    HW190142   8.715   0.691   4.727 -0.8515  0.0460  1.0798
29275SOL    HW290143   8.627   0.767   4.630  1.0908  1.0308  0.0393
29276SOL     OW90144   0.291   6.498   1.600 -0.2176 -0.1216 -0.5892
29276SOL    HW190145   0.323   6.433   1.537 -1.5705 -1.0355 -0.3717
29276SOL    HW290146   0.264   6.447   1.676 -0.1012  0.8262  0.1068
29277SOL     OW90147   3.371   3.908   1.627 -0.6848  0.4826  0.0990
29277SOL    HW190148   3.431   3.902   1.552  0.6053 -1.6296  1.2057
29277SOL    HW290149   3.295   3.856   1.601  0.1591 -1.0385  0.5403
29278SOL     OW90150   3.912   6.861   4.609  0.1828 -0.0191  0.7095
29278SOL    HW190151   3.958   6.895   4.533  0.4998 -2.0566 -0.0875
29278SOL    HW290152   3.980   6.853   4.677  0.2750  0.1517  0.6380
29279SOL     OW90153   2.878   5.341   8.986  0.4936 -0.4063  0.6524
29279SOL    HW190154   2.817   5.400   9.031  0.1327 -0.1552 -0.1459
29279SOL    HW290155   2.823   5.271   8.951  0.6810 -0.2821  0.0909
29280SOL     OW90156   4.081   0.518   7.493 -0.4916 -0.5978  0.0726
29280SOL    HW190157   4.021   0.592   7.491 -0.5090 -0.5500 -3.3039
29280SOL    HW290158   4.039   0.453   7.549 -2.3715  0.4791 -0.0301
29281SOL     OW90159   7.790  10.369   1.555  0.6305 -0.4833  0.6592
29281SOL    HW190160   7.744  10.288   1.534  0.6008 -0.8997  2.1943
29281SOL    HW290161   7.752  10.434   1.497 -0.6661 -1.1796  0.6842
29282SOL     OW90162   9.802   0.451   6.237 -0.2086  0.4640 -0.3362
29282SOL    HW190163   9.816   0.454   6.143  0.9716  0.1769 -0.1828
29282SOL    HW290164   9.875   0.400   6.271 -1.0374 -0.1013  0.6643
29283SOL     OW90165   1.082   3.834   0.758 -0.5993  0.6598  0.2024
29283SOL    HW190166   1.043   3.797   0.838 -0.0804  0.8399  0.5449
29283SOL    HW290167   1.008   3.847   0.699 -1.2019  1.8109  1.1581
29284SOL     OW90168   9.232   4.594   1.753  0.5816  0.3104 -0.2924
29284SOL    HW190169   9.251   4.620   1.662 -0.2395 -1.7022 -1.1017
29284SOL    HW290170   9.167   4.657   1.783  1.7537  1.7439 -0.6516
29285SOL     OW90171   8.586   5.501   9.265 -0.6651  0.5645  0.2453
29285SOL    HW190172   8.681   5.504   9.263 -0.5420 -1.6312 -1.4608
29285SOL    HW290173   8.558   5.561   9.196 -0.3223 -1.0640 -1.3898
29286SOL     OW90174   2.542   7.407   7.798  0.3197  0.0719 -0.4575
29286SOL    HW190175   2.458   7.363   7.814 -0.1792  0.8721 -0.8477
29286SOL    HW290176   2.605   7.356   7.849 -0.1627 -1.3594 -1.2359
29287SOL     OW90177   5.017  10.313   0.366  0.3044 -0.1328  1.2444
29287SOL    HW190178   5.081  10.244   0.346  0.3339 -0.2325  1.6737
29287SOL    HW290179   5.012  10.314   0.461  0.0078  0.1922  1.2266
29288SOL     OW90180   7.367   8.431   4.798  0.1954 -0.2528  0.5033
29288SOL    HW190181   7.457   8.407   4.775 -0.3543 -0.6270 -1.3743
29288SOL    HW290182   7.351   8.386   4.881  1.3257 -1.1781  0.2449
29289SOL     OW90183   9.629   2.284   7.192  0.1544 -0.0270  0.4868
29289SOL    HW190184   9.697   2.258   7.130  1.4244 -0.7603  2.1350
29289SOL    HW290185   9.677   2.316   7.268 -1.3568 -0.0137  1.4705
29290SOL     OW90186   5.431   1.876   6.303  0.2325 -0.5886  0.2463
29290SOL    HW190187   5.418   1.906   6.392 -0.0839 -1.5722  0.5504
29290SOL    HW290188   5.517   1.833   6.304  0.9003  0.6797 -0.2973
29291SOL     OW90189   1.757   7.244  10.497  0.0769  0.5319 -0.0929
29291SOL    HW190190   1.797   7.185  10.433  0.8726 -0.2727  1.0865
29291SOL    HW290191   1.699   7.187  10.547 -0.9706  1.2669 -0.4421
29292SOL     OW90192   9.440   0.423   8.206  0.5725  0.2424  0.0944
29292SOL    HW190193   9.518   0.425   8.151 -0.4316 -0.0809 -1.4138
29292SOL    HW290194   9.374   0.471   8.155 -0.1870  0.6390  1.3926
29293SOL     OW90195   9.369  10.134  10.206  0.0828 -0.3139  0.4517
29293SOL    HW190196   9.363  10.047  10.167  1.4007  0.4365 -1.6101
29293SOL    HW290197   9.450  10.133  10.256 -2.2447 -1.7168  4.7532
29294SOL     OW90198   9.712   7.650   6.028  0.1277 -0.0727 -0.6467
29294SOL    HW190199   9.726   7.636   6.121  1.2917 -1.3228 -0.9879
29294SOL    HW290200   9.798   7.638   5.988 -0.6010 -0.9701 -2.0332
29295SOL     OW90201   2.918   0.642   9.899  0.1132  0.0680 -0.0362
29295SOL    HW190202   2.902   0.642   9.805  1.3697  0.4303 -0.2685
29295SOL    HW290203   3.013   0.644   9.908  0.0104  1.0144  1.2404
29296SOL     OW90204   2.773   1.616   1.178 -0.1282  0.3035 -0.5099
29296SOL    HW190205   2.855   1.665   1.168 -1.8971  3.4333 -1.0103
29296SOL    HW290206   2.764   1.603   1.272 -0.0615  1.9588 -0.2406
29297SOL     OW90207   8.131   9.598   1.937  0.2047  0.1288  0.8937
29297SOL    HW190208   8.039   9.582   1.915  0.5256 -0.3813 -0.1007
29297SOL    HW290209   8.160   9.665   1.876  1.1681 -1.4758 -0.4914
29298SOL     OW90210   7.205   0.777   5.281  0.2891 -0.3791 -0.1456
29298SOL    HW190211   7.263   0.846   5.249  0.8744 -1.6526 -2.0459
29298SOL    HW290212   7.260   0.698   5.279 -1.5889 -1.7772 -2.6883
29299SOL     OW90213   0.385   8.598   5.013  0.2477  0.0620 -0.5413
29299SOL    HW190214   0.436   8.604   4.933  1.9522 -1.7860  0.3144
29299SOL    HW290215   0.314   8.537   4.993  0.7434 -0.4937 -0.6222
29300SOL     OW90216  10.372   4.206   3.051  0.5178  0.4106  0.0639
29300SOL    HW190217  10.413   4.267   2.990 -2.5978 -1.7835 -4.8301
29300SOL    HW290218  10.281   4.200   3.021 -0.6791 -2.7121  3.5807
29301SOL     OW90219   4.756   2.832   1.523 -0.0631 -0.4654  0.2850
29301SOL    HW190220   4.669   2.795   1.538  0.0903 -0.4870  1.2092
29301SOL    HW290221   4.740   2.919   1.486 -0.4673 -0.5751  0.2001
29302SOL     OW90222   9.015   5.173   7.869 -0.1312  0.0200 -0.0173
29302SOL    HW190223   8.964   5.235   7.922  0.5780  1.1388 -0.6151
29302SOL    HW290224   9.020   5.094   7.923  0.1808  0.9677  1.3930
29303SOL     OW90225   2.506  10.527   1.367  0.4883 -0.3529 -0.1184
29303SOL    HW190226   2.582  10.512   1.423  1.1404  0.7678 -0.6672
29303SOL    HW290227   2.532  10.599   1.309 -0.8630 -0.1811 -0.5606
29304SOL     OW90228   8.885   7.298   4.812  1.0808  0.2853 -0.2135
29304SOL    HW190229   8.852   7.370   4.757  0.9484 -0.0902 -0.6291
29304SOL    HW290230   8.979   7.312   4.816  0.8807  1.5492  1.2343
29305SOL     OW90231   9.305   7.904   5.140 -0.0360  0.2512 -0.4290
29305SOL    HW190232   9.246   7.889   5.067 -1.8688  3.5339  0.1671
29305SOL    HW290233   9.276   7.842   5.207 -2.4356  1.2321 -0.4381
29306SOL     OW90234   2.719   2.218   4.279  0.3624 -0.1558  0.1120
29306SOL    HW190235   2.766   2.298   4.304 -0.3512  0.7418 -1.2933
29306SOL    HW290236   2.720   2.218   4.184  2.0190 -2.8777  0.0331
29307SOL     OW90237   7.221   1.261   0.244  0.3181  0.2250 -0.0757
29307SOL    HW190238   7.280   1.322   0.200 -0.2401  0.1094 -1.0156
29307SOL    HW290239   7.184   1.208   0.173  0.8406 -1.2667  0.7189
29308SOL     OW90240   6.013   2.247   4.443 -0.1251  1.1306  0.1466
29308SOL    HW190241   6.021   2.319   4.505  0.7009 -0.4667  1.9821
29308SOL    HW290242   5.921   2.223   4.446 -0.1179  1.1621  0.6170
29309SOL     OW90243   6.943   3.887   8.978 -0.4038  0.1176 -0.5499
29309SOL    HW190244   6.856   3.891   8.937 -0.5717  1.3940 -0.1070
29309SOL    HW290245   7.000   3.933   8.916 -0.4388  1.0528  0.1055
29310SOL     OW90246   0.693   9.343   2.639  0.0675 -0.0930  0.1622
29310SOL    HW190247   0.668   9.323   2.729 -1.8637 -2.1022 -0.7319
29310SOL    HW290248   0.687   9.260   2.593  2.2513  0.6273 -1.6051
29311SOL     OW90249  10.324   7.561   1.150 -0.1680  0.5026 -0.1620
29311SOL    HW190250  10.413   7.582   1.120  0.6090  0.8710  2.2210
29311SOL    HW290251  10.273   7.640   1.130  0.3878  0.8604 -0.1965
29312SOL     OW90252   4.328   3.071   6.179  0.3145  0.7304 -0.2139
29312SOL    HW190253   4.309   3.156   6.139 -0.5809  0.3065 -0.7214
29312SOL    HW290254   4.283   3.008   6.123  1.0753 -0.0957  0.0816
29313SOL     OW90255   4.365   5.919   1.489  0.1818  0.3274 -0.2368
29313SOL    HW190256   4.343   5.826   1.489  2.4683 -0.2820  1.1209
29313SOL    HW290257   4.290   5.961   1.446 -1.4516 -1.9822  0.1472
29314SOL     OW90258   3.636   3.934   6.682  0.5972  0.0334 -0.1337
29314SOL    HW190259   3.654   4.000   6.749  2.5310 -0.9156  0.3605
29314SOL    HW290260   3.656   3.978   6.599 -0.5813  0.8160 -0.0302
29315SOL     OW90261   0.644   0.922   7.614  0.4118  0.2416 -0.0907
29315SOL    HW190262   0.590   0.855   7.657  0.6102  0.0251 -0.1739
29315SOL    HW290263   0.727   0.920   7.662  1.0251 -0.7509 -1.1337
29316SOL     OW90264   2.483   3.476   7.304  0.2494 -0.6608  0.1244
29316SOL    HW190265   2.554   3.461   7.366  0.3364 -0.0372  0.1750
29316SOL    HW290266   2.527   3.498   7.222  0.1147  0.4428  0.3349
29317SOL     OW90267   9.925   9.076   2.955  0.6224  0.4513  0.0481
29317SOL    HW190268   9.905   9.169   2.956  2.7057  1.0679 -2.8745
29317SOL    HW290269  10.004   9.068   3.009  1.0776  0.6082 -0.5789
29318SOL     OW90270   9.442   0.087   1.426  0.3841  0.1282  0.2886
29318SOL    HW190271   9.352   0.072   1.455 -0.0386  1.0185 -0.5149
29318SOL    HW290272   9.490   0.110   1.506 -0.6326  1.9636  0.4152
29319SOL     OW90273   2.002   3.594   3.786  0.0886  0.1382  0.1854
29319SOL    HW190274   1.950   3.674   3.784  1.0704  0.8458  1.3420
29319SOL    HW290275   2.067   3.605   3.717 -0.4674 -0.1727 -0.3977
29320SOL     OW90276   9.037   3.177   0.119 -0.1316 -0.3392  0.0360
29320SOL    HW190277   9.119   3.198   0.074 -0.3757  1.2808  0.2999
29320SOL    HW290278   8.968   3.208   0.060 -0.4758  0.8719  1.0415
29321SOL     OW90279   4.140   6.919   7.146  0.3647  0.1699  0.1757
29321SOL    HW190280   4.050   6.899   7.118 -0.4441  0.5498  2.3078
29321SOL    HW290281   4.139   7.013   7.162  1.8130  0.5927 -1.8683
29322SOL     OW90282   2.326   7.049   0.647  0.2348 -0.6257  0.4216
29322SOL    HW190283   2.411   7.084   0.619  0.9989 -3.0959 -0.6615
29322SOL    HW290284   2.289   7.010   0.568 -1.1071 -1.1660  1.2778
29323SOL     OW90285   0.938   9.385  10.153  0.4202 -0.2950 -0.2696
29323SOL    HW190286   0.887   9.466  10.160 -0.5924 -0.7581 -1.7700
29323SOL    HW290287   1.024   9.408  10.189 -0.1365  1.1518  0.2429
29324SOL     OW90288   6.442   2.497   6.198  0.0161 -0.2588  0.1117
29324SOL    HW190289   6.451   2.474   6.105  1.6315 -0.9536  0.4027
29324SOL    HW290290   6.506   2.566   6.212  1.2807 -1.5676  1.1270
29325SOL     OW90291  10.194   3.210   1.405  0.2242 -0.2512  0.1810
29325SOL    HW190292  10.136   3.230   1.479 -1.4216  0.1264 -1.1460
29325SOL    HW290293  10.223   3.296   1.375 -0.5090 -0.2759 -0.6462
29326SOL     OW90294   6.501   7.036   6.425 -0.4204 -0.3969 -0.2069
29326SOL    HW190295   6.467   7.023   6.513  0.1056 -0.1975  0.0227
29326SOL    HW290296   6.487   7.129   6.407 -1.3146 -0.6037 -0.6674
29327SOL     OW90297   9.417   2.284   4.308 -0.5540  0.3073 -0.5143
29327SOL    HW190298   9.350   2.332   4.259 -1.0710 -1.7905 -1.9917
29327SOL    HW290299   9.492   2.280   4.248 -0.0230  0.4227  0.1258
29328SOL     OW90300   8.179  10.466   7.318  0.2705  0.2369 -0.4289
29328SOL    HW190301   8.084  10.457   7.326  0.1054  0.0481 -2.2415
29328SOL    HW290302   8.212  10.377   7.308  0.7343  0.2506  0.7056
29329SOL     OW90303   0.983   0.439   9.354  0.0421 -0.2424 -0.1486
29329SOL    HW190304   0.923   0.420   9.427  0.2054 -2.6145 -0.5558
29329SOL    HW290305   0.926   0.446   9.277  0.1214 -0.8091 -0.2643
29330SOL     OW90306   9.225   0.924   5.718  0.0827  0.1676 -0.3794
29330SOL    HW190307   9.152   0.962   5.669  0.6425  1.7551 -0.0444
29330SOL    HW290308   9.233   0.835   5.683 -2.0926 -0.1180 -0.2959
29331SOL     OW90309   6.270   1.437  10.382 -0.0307 -0.0226  0.0048
29331SOL    HW190310   6.227   1.490  10.314 -1.3256 -0.9069  0.0907
29331SOL    HW290311   6.198   1.405  10.436  0.8296 -0.8753  0.6732
29332SOL     OW90312   9.014   9.739  10.474 -0.8559  0.2849 -0.0633
29332SOL    HW190313   8.949   9.708  10.410 -2.5806  0.8091  1.3766
29332SOL    HW290314   9.000   9.833  10.480  0.7894  0.5963 -0.4858
29333SOL     OW90315   4.314   8.548   7.716 -0.2040 -0.3994 -0.0650
29333SOL    HW190316   4.264   8.469   7.739 -0.0030  0.1846  2.8105
29333SOL    HW290317   4.253   8.620   7.732 -0.5863  0.1171 -3.2430
29334SOL     OW90318   5.756   7.096   5.946  0.0332  0.1011  0.2461
29334SOL    HW190319   5.735   7.116   5.855 -0.7561 -0.9381  0.1763
29334SOL    HW290320   5.851   7.103   5.951  0.0714  0.3290 -0.6159
29335SOL     OW90321   3.062   1.485   5.657 -0.5900  0.0980  0.1370
29335SOL    HW190322   3.114   1.514   5.732 -0.7649  1.0119 -0.0923
29335SOL    HW290323   2.972   1.508   5.680 -0.8647 -1.0905  0.3438
29336SOL     OW90324   2.288   8.173   3.766  0.0458  0.2311 -0.0590
29336SOL    HW190325   2.246   8.098   3.723 -0.8688  0.0247  1.1422
29336SOL    HW290326   2.242   8.249   3.730  0.6827  0.2093 -0.9559
29337SOL     OW90327   6.274   1.790   1.189 -0.6757  0.0049  0.4389
29337SOL    HW190328   6.180   1.808   1.176 -1.3244 -2.8028  0.7448
29337SOL    HW290329   6.299   1.738   1.113  0.5599  0.3783  0.5748
29338SOL     OW90330   0.654   2.573   7.685  0.2542  0.0170 -0.1945
29338SOL    HW190331   0.674   2.642   7.748 -0.3306  1.5221 -1.5710
29338SOL    HW290332   0.575   2.604   7.640 -0.5998 -2.0449 -0.1999
29339SOL     OW90333   3.730   0.130   8.368  0.3451 -0.3340 -0.5166
29339SOL    HW190334   3.670   0.060   8.396 -1.0059  0.4678 -1.3054
29339SOL    HW290335   3.715   0.200   8.431  0.0619  0.0555 -1.0080
29340SOL     OW90336   2.692   4.175   3.079 -0.2903 -0.0742  0.7032
29340SOL    HW190337   2.649   4.122   3.012 -1.5608  1.8564 -0.0919
29340SOL    HW290338   2.620   4.209   3.133  0.3293  1.7633  0.4533
29341SOL     OW90339   2.299   4.211   4.126  0.1347 -0.2719 -0.1724
29341SOL    HW190340   2.255   4.128   4.107  1.3800 -0.6980 -1.2899
29341SOL    HW290341   2.288   4.263   4.046  1.1522 -0.1573 -0.2433
29342SOL     OW90342   8.035   1.996   3.162 -0.0645  0.3130 -0.2965
29342SOL    HW190343   7.972   1.931   3.130  1.4318 -1.6776  0.5952
29342SOL    HW290344   8.120   1.963   3.134  0.8712  1.0722  1.4740
29343SOL     OW90345   1.596   6.957   5.908 -0.2059  0.1688  0.3820
29343SOL    HW190346   1.614   6.875   5.953 -0.8680  0.6496  1.5741
29343SOL    HW290347   1.622   7.025   5.970  1.5644  0.9192 -1.0728
29344SOL     OW90348   6.075   4.930   9.758  0.2946 -0.7866  0.0506
29344SOL    HW190349   6.126   4.867   9.808  0.4306  0.1152  1.0873
29344SOL    HW290350   6.135   5.002   9.740 -0.0775 -0.5833 -0.4334
29345SOL     OW90351   1.343   1.384   3.605  0.0285  0.1902  0.3421
29345SOL    HW190352   1.285   1.389   3.529  0.9952  1.0584 -0.3768
29345SOL    HW290353   1.287   1.359   3.677 -1.0099 -0.1735 -0.5733
29346SOL     OW90354   6.743   0.365   3.208 -0.3653  0.0266 -0.2154
29346SOL    HW190355   6.693   0.291   3.173 -0.3924 -0.0321 -0.0540
29346SOL    HW290356   6.805   0.325   3.270 -0.2417  0.1173 -0.2810
29347SOL     OW90357   7.767   0.226   9.319  0.3461 -0.8717 -0.6215
29347SOL    HW190358   7.677   0.212   9.348  1.5052 -1.3360  3.3041
29347SOL    HW290359   7.770   0.318   9.293 -1.4572 -1.1326 -1.9402
29348SOL     OW90360   5.094   6.098   4.792  0.2704 -0.1882  0.2987
29348SOL    HW190361   5.035   6.024   4.805 -0.2947  0.0039 -1.0274
29348SOL    HW290362   5.039   6.166   4.751  1.5055 -0.2005 -1.4913
29349SOL     OW90363   2.373   8.812   9.305  0.4443  0.0897  0.0822
29349SOL    HW190364   2.318   8.816   9.384 -0.4350 -0.4496 -0.4795
29349SOL    HW290365   2.325   8.754   9.246  2.6607 -2.1531  0.3358
29350SOL     OW90366   4.157   7.003   6.435  0.5070 -0.2880 -0.0291
29350SOL    HW190367   4.213   7.048   6.499 -0.0334  1.6957 -0.8463
29350SOL    HW290368   4.218   6.958   6.377  1.1646  0.3356  0.1611
29351SOL     OW90369   4.440  10.586   8.253 -0.1828 -0.4352 -0.2158
29351SOL    HW190370   4.413  10.585   8.161  1.9077  0.0319 -0.8919
29351SOL    HW290371   4.392  10.659   8.292  0.0442  0.3192 -1.3234
29352SOL     OW90372   0.829  10.004   0.565 -0.2903 -0.0852  0.3575
29352SOL    HW190373   0.742  10.001   0.526  0.1106 -1.8535 -0.5461
29352SOL    HW290374   0.889   9.999   0.491  0.5322 -1.0908  1.0527
29353SOL     OW90375   3.616   9.795   9.017  0.0595 -1.1151 -0.3481
29353SOL    HW190376   3.597   9.787   8.924  0.7612 -0.7412 -0.5235
29353SOL    HW290377   3.589   9.884   9.040  0.4393 -1.0028 -0.3283
29354SOL     OW90378   8.658   3.922  10.221 -0.0056 -0.1140 -0.0830
29354SOL    HW190379   8.627   3.964  10.141 -0.4471 -0.3450 -0.0338
29354SOL    HW290380   8.656   3.829  10.202 -1.1515 -0.2349  0.5568
29355SOL     OW90381   2.578   4.875   8.088  0.1283 -0.3290 -0.1358
29355SOL    HW190382   2.560   4.782   8.074  1.3500 -0.4889 -0.7998
29355SOL    HW290383   2.580   4.885   8.183  0.2939 -1.0523 -0.0561
29356SOL     OW90384   1.433   2.147   7.470 -0.5365 -0.2729 -0.7453
29356SOL    HW190385   1.484   2.078   7.427  0.0087  0.6489 -1.6114
29356SOL    HW290386   1.486   2.169   7.547 -1.3126 -1.6369  0.2285
29357SOL     OW90387  10.251   4.606   9.488 -0.1897 -0.4073 -0.3266
29357SOL    HW190388  10.187   4.651   9.543 -1.1873 -1.3519 -0.6811
29357SOL    HW290389  10.231   4.513   9.498  1.3095 -0.7549 -0.2425
29358SOL     OW90390   6.771   4.678   2.197 -0.0347  0.1889 -0.1631
29358SOL    HW190391   6.855   4.717   2.175  0.4736 -1.2426 -0.8883
29358SOL    HW290392   6.713   4.753   2.212  1.3295  1.1978  0.2743
29359SOL     OW90393   6.434   5.068   0.356 -0.3781 -0.5022 -0.1584
29359SOL    HW190394   6.377   5.120   0.300  0.2324  1.4382  0.9548
29359SOL    HW290395   6.514   5.056   0.304  0.3535  1.6543  0.3630
29360SOL     OW90396   6.417   0.117   7.628  0.5907  0.5443  0.0750
29360SOL    HW190397   6.504   0.157   7.629  1.6567 -1.6073  1.2780
29360SOL    HW290398   6.434   0.025   7.647 -1.8922 -0.1246 -0.6505
29361SOL     OW90399   7.032   4.879   9.596 -0.3480 -0.3466  0.1649
29361SOL    HW190400   6.954   4.933   9.610 -0.3631 -0.6580  1.3903
29361SOL    HW290401   7.060   4.854   9.684  1.3324  0.0185 -0.2272
29362SOL     OW90402   3.640   2.323   5.376  0.3836  0.6989 -0.1599
29362SOL    HW190403   3.632   2.342   5.282 -3.3901  2.1339  0.2974
29362SOL    HW290404   3.617   2.230   5.383  1.8699  0.2537 -0.6973
29363SOL     OW90405   0.532   1.776   7.205  0.4332 -0.2731 -0.1001
29363SOL    HW190406   0.450   1.732   7.182  0.3026  0.0223 -0.2142
29363SOL    HW290407   0.578   1.787   7.121  0.0690  0.5833 -0.1997
29364SOL     OW90408   9.914   7.372   0.851 -0.1627 -0.1735 -0.2536
29364SOL    HW190409   9.965   7.300   0.815 -0.0574  0.2211 -0.9182
29364SOL    HW290410   9.971   7.414   0.915 -0.7001 -1.4769  1.1174
29365SOL     OW90411   8.740   5.422   8.210  0.6323  0.1844  0.6705
29365SOL    HW190412   8.729   5.476   8.288  1.0003  1.0148  0.1579
29365SOL    HW290413   8.651   5.392   8.190  0.5457 -0.1233  1.4512
29366SOL     OW90414   4.380   1.540   1.999 -0.0270 -0.2209  0.2428
29366SOL    HW190415   4.407   1.594   2.072 -1.0265  0.5160  0.0889
29366SOL    HW290416   4.413   1.452   2.020 -0.1696  0.0135  1.4928
29367SOL     OW90417   5.485   8.455   8.336 -0.0147  0.0567 -0.3279
29367SOL    HW190418   5.535   8.481   8.414  0.0606  0.6773 -0.5735
29367SOL    HW290419   5.548   8.410   8.280  0.0064 -0.1117 -0.1696
29368SOL     OW90420   8.365   1.471   7.406 -0.0640 -0.0211  0.1675
29368SOL    HW190421   8.338   1.542   7.348  0.1114 -1.0087 -1.1619
29368SOL    HW290422   8.309   1.480   7.483 -1.4880  0.3068 -0.8704
29369SOL     OW90423   3.328   9.406  10.164  0.2787  0.0990  0.4693
29369SOL    HW190424   3.369   9.418  10.078  1.8052 -1.1681  0.9742
29369SOL    HW290425   3.359   9.480  10.216 -0.9521  1.0808 -0.1337
29370SOL     OW90426   1.098   7.981   2.230 -0.1173  0.2922 -0.0255
29370SOL    HW190427   1.163   8.032   2.278  1.2556 -0.5498 -0.9051
29370SOL    HW290428   1.132   7.978   2.140 -0.6498 -1.3328 -0.2065
29371SOL     OW90429   5.393   3.801   8.782 -0.6759  0.8503  0.2606
29371SOL    HW190430   5.371   3.807   8.875 -0.2757 -2.0376  0.6410
29371SOL    HW290431   5.316   3.760   8.742 -1.0301  2.4760 -0.8127
29372SOL     OW90432   3.985   4.289   3.562  0.0408 -0.1011 -0.3057
29372SOL    HW190433   4.068   4.279   3.515  0.5831 -0.1338  0.6232
29372SOL    HW290434   4.008   4.339   3.640 -0.3629 -2.0194  1.1265
29373SOL     OW90435   5.505   7.080   3.781 -0.3973 -0.1751  0.2050
29373SOL    HW190436   5.577   7.035   3.826  1.0299  0.8215 -0.9832
29373SOL    HW290437   5.480   7.020   3.711  1.8577  0.9633 -1.7047
29374SOL     OW90438  10.126   2.362   6.963  0.2679 -0.2792 -0.4539
29374SOL    HW190439  10.075   2.323   7.034 -1.6765 -2.9271 -3.0796
29374SOL    HW290440  10.217   2.345   6.987 -0.3588 -2.2380  0.8160
29375SOL     OW90441   1.313  10.280   0.541 -0.4823 -0.3920  0.3896
29375SOL    HW190442   1.376  10.237   0.483 -1.1686 -2.7958  1.2850
29375SOL    HW290443   1.359  10.288   0.624 -0.4874  0.3189  0.3277
29376SOL     OW90444   0.531   0.080   8.892 -0.6350  0.1313  0.3969
29376SOL    HW190445   0.556   0.094   8.801 -1.1468 -2.1056 -0.1391
29376SOL    HW290446   0.440   0.109   8.898 -0.3966  0.8921  0.3729
29377SOL     OW90447   3.802   8.814   9.250  0.0703 -0.0851  0.9474
29377SOL    HW190448   3.891   8.829   9.219 -0.5347  0.2481 -0.7323
29377SOL    HW290449   3.776   8.897   9.290 -0.5425  0.9317 -1.3834
29378SOL     OW90450   0.186   8.401   5.003 -0.9324  0.7087 -0.0970
29378SOL    HW190451   0.091   8.396   5.015 -0.8835  1.0244  0.4806
29378SOL    HW290452   0.221   8.411   5.092 -0.5382  3.1518 -0.4674
29379SOL     OW90453   6.443   1.117   3.632 -0.0631 -0.2064  0.1810
29379SOL    HW190454   6.527   1.164   3.637 -1.7425  3.0551  0.8154
29379SOL    HW290455   6.453   1.043   3.690  2.1336  0.5470  0.8572
29380SOL     OW90456   1.874   5.077  10.479  0.1129 -0.1531  0.1416
29380SOL    HW190457   1.837   5.155  10.438  1.0267  0.7865  1.0361
29380SOL    HW290458   1.966   5.079  10.456  0.2310 -0.7391  0.5391
29381SOL     OW90459   4.861   4.664   6.919  0.4291 -0.0488 -0.5948
29381SOL    HW190460   4.780   4.681   6.872  0.4107 -2.3315 -1.4939
29381SOL    HW290461   4.924   4.727   6.882 -0.6815  1.1994 -0.4475
29382SOL     OW90462   7.622   9.660   0.080 -0.5295  0.2153 -0.5931
29382SOL    HW190463   7.588   9.710   0.154  0.5210  0.5771 -0.3286
29382SOL    HW290464   7.566   9.583   0.074 -0.2609 -0.1226  0.9514
29383SOL     OW90465   1.510   7.258  10.252 -0.2173 -0.0415 -0.2208
29383SOL    HW190466   1.477   7.308  10.177  0.1302  0.7672  0.1609
29383SOL    HW290467   1.501   7.317  10.327  1.6491  0.0672 -0.0237
29384SOL     OW90468   5.843   3.651   0.930 -0.2523  0.0985  0.1209
29384SOL    HW190469   5.763   3.626   0.975  0.4498  0.1686  1.4486
29384SOL    HW290470   5.816   3.720   0.869 -1.6844 -1.7620 -1.5028
29385SOL     OW90471   8.421   8.689   3.993 -0.5750  0.0768  0.2533
29385SOL    HW190472   8.391   8.701   4.083 -3.4899 -1.9358 -0.3075
29385SOL    HW290473   8.340   8.683   3.942  0.9459 -0.9478 -2.2049
29386SOL     OW90474  10.305   5.460   9.426 -0.5797  0.3211 -0.2962
29386SOL    HW190475  10.400   5.455   9.439 -0.3867  0.7952 -1.3960
29386SOL    HW290476  10.269   5.462   9.515  0.4378  0.2059  0.1382
29387SOL     OW90477  10.392   5.737   4.886  0.2523  0.2355 -0.0920
29387SOL    HW190478  10.422   5.694   4.966 -1.3200 -0.5578  0.1149
29387SOL    HW290479  10.308   5.777   4.910 -0.6536 -0.6994 -1.5239
29388SOL     OW90480   9.947  10.086   9.547  0.1669 -0.5862  0.8588
29388SOL    HW190481  10.025  10.036   9.523  0.0228 -0.1200 -0.7545
29388SOL    HW290482   9.874  10.033   9.515 -0.0928 -0.3072  0.9817
29389SOL     OW90483   0.190   6.969   8.620 -0.0859  0.5868 -0.3731
29389SOL    HW190484   0.221   6.934   8.537  0.8723 -1.1724  0.6683
29389SOL    HW290485   0.095   6.959   8.617 -0.0128  0.0596 -1.0342
29390SOL     OW90486   9.357   8.898   2.366 -0.7745 -0.2541  0.1931
29390SOL    HW190487   9.336   8.852   2.447 -0.1090  0.3252  0.7130
29390SOL    HW290488   9.325   8.841   2.296  0.7198 -1.8971  0.7656
29391SOL     OW90489   9.964   6.566   6.897 -0.2542 -0.5544  0.4456
29391SOL    HW190490   9.980   6.472   6.896 -0.4731 -0.6032  0.8891
29391SOL    HW290491   9.983   6.596   6.808  0.2992 -0.9354  0.4330
29392SOL     OW90492   9.178   0.717   0.855 -0.0955 -0.1071 -0.2208
29392SOL    HW190493   9.272   0.720   0.838 -0.0854  1.8943 -0.0589
29392SOL    HW290494   9.141   0.784   0.798 -0.8324  2.3139  2.8234
29393SOL     OW90495  10.518   0.998   6.372  0.6183 -0.1848 -0.9095
29393SOL    HW190496  10.506   0.920   6.427 -1.2484  1.1336  0.6980
29393SOL    HW290497  10.456   0.986   6.300  0.1817 -0.0834 -0.5506
29394SOL     OW90498   3.297   3.116   6.952  0.0854  0.2577 -0.6003
29394SOL    HW190499   3.204   3.095   6.939  0.3557 -0.2751 -1.8157
29394SOL    HW290500   3.326   3.146   6.866  0.5058  2.6690  0.2955
29395SOL     OW90501   5.068   8.177   6.595 -0.2017 -0.8968 -0.5025
29395SOL    HW190502   5.130   8.218   6.655  0.2569 -1.1616 -0.7851
29395SOL    HW290503   5.039   8.098   6.640  0.9658 -1.6727 -1.0503
29396SOL     OW90504   9.875  10.340   5.334  0.1190  0.7235  0.4412
29396SOL    HW190505   9.815  10.290   5.278 -0.4138  1.5632  0.2377
29396SOL    HW290506   9.818  10.379   5.401  0.6863  0.1273  1.2897
29397SOL     OW90507   4.322   8.303   6.067 -0.4476  0.7756  0.3397
29397SOL    HW190508   4.383   8.229   6.070 -0.1762  1.0294  1.6413
29397SOL    HW290509   4.378   8.380   6.073 -0.6561  1.1702 -1.8392
29398SOL     OW90510   9.412  10.444   7.974  0.1350  0.0254  0.1411
29398SOL    HW190511   9.493  10.426   8.022 -0.3362 -0.7334  0.6677
29398SOL    HW290512   9.343  10.436   8.039 -0.7497 -3.2041 -0.9949
29399SOL     OW90513   1.016   5.190   9.412 -0.5792  0.3323 -0.4878
29399SOL    HW190514   1.107   5.203   9.384 -1.3974  1.2538 -3.1065
29399SOL    HW290515   0.973   5.272   9.389 -1.9341  0.2476  1.5421
29400SOL     OW90516   8.375   1.769   5.433  0.5088  0.0396 -0.2733
29400SOL    HW190517   8.297   1.766   5.490  1.4602 -0.7746  1.0433
29400SOL    HW290518   8.411   1.680   5.437  1.7521  0.5157 -0.4993
29401SOL     OW90519   9.139  10.272   2.975  0.2634  0.0340 -0.2495
29401SOL    HW190520   9.132  10.179   2.955  0.0472  0.2778 -1.3265
29401SOL    HW290521   9.070  10.314   2.923  0.2484  0.7830  0.3478
29402SOL     OW90522   9.025   0.648   3.965 -0.3074  0.0638 -0.7668
29402SOL    HW190523   9.036   0.553   3.969  0.5990  0.1836 -0.0166
29402SOL    HW290524   8.938   0.661   3.927 -0.4848 -1.0602 -0.7788
29403SOL     OW90525   9.373   3.825   8.672 -0.3139 -0.1636 -0.4140
29403SOL    HW190526   9.434   3.887   8.712 -1.4146  0.6752  0.0417
29403SOL    HW290527   9.298   3.879   8.647  0.0841 -0.7535 -3.1597
29404SOL     OW90528   7.558   7.913   2.452  0.2558 -0.2055 -0.3790
29404SOL    HW190529   7.606   7.901   2.534  0.0694  1.6966  0.0498
29404SOL    HW290530   7.473   7.948   2.479 -0.3118 -0.7858 -1.3290
29405SOL     OW90531   4.846   8.377   9.767  0.1855 -0.4270  0.2499
29405SOL    HW190532   4.753   8.394   9.783  0.0918 -0.5826 -0.1238
29405SOL    HW290533   4.869   8.434   9.693  0.2677 -0.7314  0.0366
29406SOL     OW90534   2.976   6.292   9.071  0.2209  0.1328 -0.5003
29406SOL    HW190535   2.929   6.286   9.154 -0.7547 -0.6083 -1.0658
29406SOL    HW290536   3.026   6.210   9.066  2.2350  1.2557  0.4463
29407SOL     OW90537   3.923   1.656   3.844 -0.1158 -0.0333 -0.3322
29407SOL    HW190538   3.985   1.674   3.914 -0.0346 -2.0397  0.1602
29407SOL    HW290539   3.949   1.715   3.773  2.4074 -0.8567 -0.1821
29408SOL     OW90540   5.198   4.202   7.473 -0.1450 -0.3091 -0.9125
29408SOL    HW190541   5.186   4.253   7.553 -0.7644 -1.5469 -0.1768
29408SOL    HW290542   5.114   4.158   7.459 -0.8241  1.6144 -3.5702
29409SOL     OW90543   4.738   2.330   1.030  0.5158 -0.4931 -0.4009
29409SOL    HW190544   4.754   2.309   1.123  1.0033 -0.9066 -0.5727
29409SOL    HW290545   4.701   2.418   1.032  0.4935 -0.5072  0.1939
29410SOL     OW90546   3.666   2.709   1.000 -0.2496 -0.4656  0.2624
29410SOL    HW190547   3.635   2.764   0.929  1.3572 -1.7440 -1.5268
29410SOL    HW290548   3.732   2.762   1.045 -1.7151  0.5802  1.2722
29411SOL     OW90549   1.713   3.430   2.395 -0.1208  0.6649  0.7022
29411SOL    HW190550   1.656   3.360   2.365  1.5389 -0.2761 -0.4405
29411SOL    HW290551   1.789   3.385   2.432  1.6894  1.7763 -1.4400
29412SOL     OW90552   0.946   2.688   9.763  0.3519  0.3799 -0.1283
29412SOL    HW190553   0.855   2.676   9.735  0.9322 -3.0150 -1.0136
29412SOL    HW290554   0.943   2.676   9.858 -0.2503  1.4993  0.0082
29413SOL     OW90555   5.166   4.365   7.685  0.5481  0.5095  0.3505
29413SOL    HW190556   5.129   4.278   7.700  0.0772  0.9181  1.7563
29413SOL    HW290557   5.252   4.362   7.726  1.1591  0.2827 -0.8879
29414SOL     OW90558   5.374   0.446   2.140 -0.4949 -0.1989 -0.4608
29414SOL    HW190559   5.366   0.539   2.162 -0.0572  0.0907 -1.5039
29414SOL    HW290560   5.467   0.428   2.150 -0.5790 -0.5274 -0.2755
29415SOL     OW90561   9.038   2.006   2.278 -0.1678 -0.1761  0.0889
29415SOL    HW190562   9.079   1.929   2.238 -0.5801  0.4004 -1.5526
29415SOL    HW290563   8.949   2.007   2.243 -0.7711  0.0323  1.5612
29416SOL     OW90564   0.836   5.680   3.688 -0.6378  0.8873 -0.4358
29416SOL    HW190565   0.764   5.618   3.675  0.0038 -1.1646  3.9225
29416SOL    HW290566   0.911   5.638   3.648 -0.6437 -0.2282  0.6554
29417SOL     OW90567   0.593   5.428   3.290  0.0358 -0.3646 -0.5587
29417SOL    HW190568   0.647   5.505   3.271 -0.5644 -0.0387 -1.0062
29417SOL    HW290569   0.521   5.435   3.227  1.1628 -2.5357 -2.2105
29418SOL     OW90570   7.193   3.246   0.118 -0.2447  0.3241 -0.5583
29418SOL    HW190571   7.167   3.201   0.038 -0.2362 -1.1914  0.2742
29418SOL    HW290572   7.224   3.177   0.177 -1.1401  1.2852  1.1239
29419SOL     OW90573   0.842   0.710   7.152  0.0349 -0.1015 -0.0533
29419SOL    HW190574   0.810   0.798   7.172 -0.2404 -0.3261  0.5178
29419SOL    HW290575   0.806   0.691   7.065  0.0513  0.3296 -0.1573
29420SOL     OW90576   3.854   3.252   2.560 -0.2504  0.0663  0.4208
29420SOL    HW190577   3.845   3.204   2.642  0.4954 -1.0363 -0.1241
29420SOL    HW290578   3.935   3.302   2.570  0.6411 -1.1991 -0.1657
29421SOL     OW90579   8.035   4.578   5.698  0.2298  0.4551  0.2272
29421SOL    HW190580   8.118   4.568   5.745 -0.4931 -2.0568  1.0942
29421SOL    HW290581   8.003   4.664   5.724  0.6739 -0.1456  3.0667
29422SOL     OW90582   1.923  10.026   6.332 -0.2170  0.1472 -0.1805
29422SOL    HW190583   1.912  10.000   6.423  0.3079  1.8867  0.4068
29422SOL    HW290584   1.915  10.121   6.333 -1.6263  0.1145 -2.1631
29423SOL     OW90585   4.439   4.304   2.880  0.6592  0.3359 -0.5773
29423SOL    HW190586   4.393   4.382   2.848 -0.4242 -0.7946 -1.9317
29423SOL    HW290587   4.521   4.303   2.831  0.3598  0.2502 -1.0821
29424SOL     OW90588   2.150  10.465   6.518 -0.3715  0.3418 -0.0253
29424SOL    HW190589   2.203  10.530   6.472 -1.6922  2.6029  1.4170
29424SOL    HW290590   2.181  10.468   6.609  0.3169 -1.9675 -0.1190
29425SOL     OW90591   1.531   8.501   8.102 -0.1968  0.0522  0.5827
29425SOL    HW190592   1.524   8.570   8.168 -0.9158  1.7018 -1.1192
29425SOL    HW290593   1.611   8.521   8.054  0.3108 -1.1161  0.9145
29426SOL     OW90594  10.016   7.832   1.427  0.5374  0.5304 -1.0060
29426SOL    HW190595  10.062   7.755   1.461  0.3139  1.1051  0.6451
29426SOL    HW290596  10.012   7.893   1.500  0.4777  2.0362 -2.1986
29427SOL     OW90597   9.166   6.199  10.223  0.4611  0.3537 -0.0919
29427SOL    HW190598   9.090   6.143  10.240 -0.5060  1.8247  0.7368
29427SOL    HW290599   9.200   6.220  10.310  1.7357 -0.1585 -0.4569
29428SOL     OW90600   3.172   8.260   2.504  0.5702  0.1115 -0.2577
29428SOL    HW190601   3.164   8.165   2.493 -0.7451 -0.1198  2.0458
29428SOL    HW290602   3.114   8.280   2.578 -0.9835  3.0516 -2.0690
29429SOL     OW90603  10.198   1.749   7.997  0.0081 -0.4610 -0.2483
29429SOL    HW190604  10.277   1.801   7.978 -0.2825 -0.3109 -1.1113
29429SOL    HW290605  10.126   1.804   7.965 -0.5389 -0.1708  1.4045
29430SOL     OW90606   9.500   8.909   7.590 -0.1989 -0.9092 -0.8070
29430SOL    HW190607   9.572   8.886   7.649 -0.2285  2.1654  0.6443
29430SOL    HW290608   9.541   8.925   7.506  0.4473 -1.4879 -0.6112
29431SOL     OW90609   2.431   8.188   4.644 -0.0393 -0.1395  0.1541
29431SOL    HW190610   2.371   8.113   4.649 -0.8288  0.4579 -0.2407
29431SOL    HW290611   2.396   8.242   4.574  0.9095  0.2797 -0.0072
29432SOL     OW90612   9.038   6.891   0.877 -0.2822  0.5559  0.0029
29432SOL    HW190613   9.000   6.815   0.832 -0.5056  0.4441  0.3766
29432SOL    HW290614   8.971   6.918   0.939  0.6757 -0.3609  1.5073
29433SOL     OW90615   5.557   6.789  10.370 -0.8449 -0.1068  0.1309
29433SOL    HW190616   5.517   6.766  10.286  3.5462  0.3179 -2.3355
29433SOL    HW290617   5.567   6.884  10.367  0.1285 -0.1768  0.7393
29434SOL     OW90618   7.244   9.412   1.298  0.5050  0.2068 -0.1421
29434SOL    HW190619   7.253   9.317   1.286  0.6845  0.1552  0.3664
29434SOL    HW290620   7.331   9.446   1.279  0.2624  0.3536 -1.0378
29435SOL     OW90621   3.990   8.841   7.143  0.1408 -0.4021 -0.0855
29435SOL    HW190622   3.971   8.935   7.135  0.6178 -0.2553  0.4760
29435SOL    HW290623   3.974   8.821   7.235 -0.2678 -0.9501 -0.2669
29436SOL     OW90624   9.085  10.430   4.677 -0.1184 -0.0357 -0.4969
29436SOL    HW190625   9.069  10.356   4.735 -0.6583 -0.5900 -1.3310
29436SOL    HW290626   9.030  10.500   4.711 -1.6367 -0.8316 -1.2326
29437SOL     OW90627   8.714   4.508  10.026 -0.0167 -0.0970  0.1652
29437SOL    HW190628   8.753   4.459  10.099  0.0907  0.2638  0.3488
29437SOL    HW290629   8.708   4.444   9.955  1.0385 -0.1161  0.0813
29438SOL     OW90630   7.042   0.508   0.812  0.2108  0.0973  0.2121
29438SOL    HW190631   6.993   0.579   0.770  1.2849  0.6563 -0.1398
29438SOL    HW290632   7.015   0.430   0.764 -0.9837  0.2506  0.6006
29439SOL     OW90633   4.556   1.096   5.353  0.3607 -0.2325  0.3909
29439SOL    HW190634   4.593   1.078   5.439  1.8006 -1.4248 -0.4344
29439SOL    HW290635   4.533   1.010   5.319  2.1727 -0.0689 -1.4101
29440SOL     OW90636   8.427   0.155   9.544  0.1240 -0.8607 -1.4130
29440SOL    HW190637   8.457   0.065   9.561  2.4391 -0.4517 -2.9119
29440SOL    HW290638   8.500   0.210   9.572 -1.1761  0.5962 -0.7266
29441SOL     OW90639   4.200   3.272   6.868  0.1583  0.0915  0.0796
29441SOL    HW190640   4.235   3.265   6.957  0.9842  1.4742 -0.1045
29441SOL    HW290641   4.108   3.247   6.876  0.6380 -1.5216  0.9762
29442SOL     OW90642   1.668   0.454   8.309  0.1327  0.1426 -0.1032
29442SOL    HW190643   1.706   0.532   8.349 -0.5150  0.6869 -0.5067
29442SOL    HW290644   1.672   0.471   8.215 -1.1368  0.2553 -0.1580
29443SOL     OW90645   5.968   2.592   0.264 -0.1511  0.0616  0.2886
29443SOL    HW190646   6.049   2.587   0.214 -0.3161  2.2870 -0.3196
29443SOL    HW290647   5.926   2.507   0.250  1.5647 -0.7553 -0.2279
29444SOL     OW90648   7.539   1.770   7.027 -0.5042 -0.6028 -0.2321
29444SOL    HW190649   7.632   1.776   7.050 -0.3445 -1.6963 -0.5528
29444SOL    HW290650   7.532   1.693   6.972 -2.0776 -2.4814  2.3468
29445SOL     OW90651   2.161   2.266   5.892 -0.4105  0.0293 -0.1607
29445SOL    HW190652   2.166   2.175   5.863 -1.9073 -0.0056 -0.3753
29445SOL    HW290653   2.252   2.289   5.914  0.3919 -0.7425 -2.4029
29446SOL     OW90654   5.983   1.776   1.489  0.4879  0.0359  0.0674
29446SOL    HW190655   6.044   1.711   1.523  0.6322  0.3978  0.5004
29446SOL    HW290656   6.037   1.831   1.432  0.3495 -0.2652 -0.3625
29447SOL     OW90657   1.962   2.046   5.292 -0.2805  0.1914 -0.2786
29447SOL    HW190658   1.897   2.017   5.356 -0.0137  1.4692  0.6121
29447SOL    HW290659   1.915   2.106   5.235  0.1987  1.5732  0.7191
29448SOL     OW90660   4.321   5.164   0.983 -0.3232  0.8685 -0.1278
29448SOL    HW190661   4.329   5.251   1.022  1.4397  0.0786  1.4671
29448SOL    HW290662   4.392   5.160   0.918 -1.6457  1.2769 -1.6472
29449SOL     OW90663   5.460   0.016   6.065  0.2623 -0.3155 -0.2662
29449SOL    HW190664   5.415  -0.037   5.999  0.6405 -2.5696  1.1715
29449SOL    HW290665   5.529  -0.041   6.098  0.8857  1.2033  1.1848
29450SOL     OW90666   8.020   6.116   0.540  0.5474 -0.3353 -0.2954
29450SOL    HW190667   8.055   6.144   0.456  1.4497 -0.5854 -0.0091
29450SOL    HW290668   7.943   6.171   0.553  0.5619 -0.0944 -1.1444
29451SOL     OW90669   9.350   0.357   0.675 -0.1282  0.0142  0.3680
29451SOL    HW190670   9.365   0.365   0.581  0.8719 -1.0965  0.4138
29451SOL    HW290671   9.265   0.400   0.690 -0.8748 -0.8211 -1.2154
29452SOL     OW90672   0.316   1.388   2.928 -0.0512  0.9513  0.0300
29452SOL    HW190673   0.265   1.449   2.981 -0.5219 -0.4883  1.3265
29452SOL    HW290674   0.397   1.435   2.908  1.0327  0.9475  3.7463
29453SOL     OW90675   7.118   2.215   9.824  0.0117 -0.5965  0.1344
29453SOL    HW190676   7.150   2.255   9.743 -0.3770  0.6372  0.5661
29453SOL    HW290677   7.198   2.186   9.869  0.3417 -0.0485 -0.0737
29454SOL     OW90678   5.083   6.468   9.253  0.4663  0.3963 -0.2547
29454SOL    HW190679   5.166   6.433   9.219  1.1435  0.8760  0.8298
29454SOL    HW290680   5.061   6.409   9.325  0.1781  0.6240 -0.1556
29455SOL     OW90681   0.613   7.506   1.464 -0.4955  0.1577  0.9461
29455SOL    HW190682   0.698   7.462   1.459  0.4736  1.9580  0.5590
29455SOL    HW290683   0.623   7.569   1.535 -1.0947  1.1752  0.1634
29456SOL     OW90684   8.247   0.721   7.056 -0.7082 -0.6828 -0.1443
29456SOL    HW190685   8.156   0.701   7.033 -0.9311 -2.3120  1.8416
29456SOL    HW290686   8.275   0.647   7.110  1.4659  0.2926  0.1783
29457SOL     OW90687   7.517   3.433   3.983  0.6252 -0.3015 -0.1777
29457SOL    HW190688   7.500   3.390   4.067 -2.6308  2.0686  0.5471
29457SOL    HW290689   7.602   3.476   3.994  1.3826 -1.9745  0.9442
29458SOL     OW90690   0.456   4.400   3.926 -0.2565  0.6714 -0.1928
29458SOL    HW190691   0.415   4.355   4.000  0.0256  2.2917  1.0302
29458SOL    HW290692   0.443   4.493   3.945 -2.0318  1.1978 -3.2602
29459SOL     OW90693   1.196   5.884   5.396  0.0594 -0.6078  0.2839
29459SOL    HW190694   1.286   5.897   5.427  0.0699  0.0433 -0.0177
29459SOL    HW290695   1.160   5.972   5.388 -0.0402 -0.7628 -1.2806
29460SOL     OW90696   9.434  10.345   2.830 -0.6282 -0.3567  0.0625
29460SOL    HW190697   9.408  10.430   2.865 -0.4846 -0.0347 -0.5976
29460SOL    HW290698   9.416  10.283   2.901 -0.7380  0.2205  0.5450
29461SOL     OW90699  10.207   7.116   3.915  0.1223 -0.1417 -0.8486
29461SOL    HW190700  10.266   7.189   3.933 -0.4575  0.6213 -1.9655
29461SOL    HW290701  10.198   7.114   3.820 -2.5367  0.4859 -0.6874
29462SOL     OW90702   9.880   0.846   9.732  0.0153 -0.0254 -0.8911
29462SOL    HW190703   9.936   0.769   9.719 -2.0087 -1.3574 -2.3481
29462SOL    HW290704   9.791   0.812   9.727 -1.0537  1.7716  2.8562
29463SOL     OW90705   8.916   3.244   2.427 -0.1155 -0.1310  0.0094
29463SOL    HW190706   8.875   3.189   2.361  0.0840  0.0836 -0.3015
29463SOL    HW290707   8.954   3.183   2.490 -0.2985 -0.3388 -0.0833
29464SOL     OW90708   4.477   0.919   7.738  0.2796 -0.0346 -0.3018
29464SOL    HW190709   4.398   0.910   7.685  1.1821 -0.4756 -1.6100
29464SOL    HW290710   4.454   0.878   7.822 -1.0110  0.2447 -0.4939
29465SOL     OW90711   3.649   0.125   2.675 -0.4274  0.2246  0.2891
29465SOL    HW190712   3.710   0.106   2.603 -0.5199  3.6202 -0.8524
29465SOL    HW290713   3.669   0.215   2.701 -1.7641 -0.1928  3.2268
29466SOL     OW90714   5.170   1.805   1.096  0.4137  0.2312  0.0474
29466SOL    HW190715   5.106   1.769   1.158  0.9914  0.2538  0.6678
29466SOL    HW290716   5.122   1.811   1.014 -0.0567 -0.7996  0.2270
29467SOL     OW90717   2.678   3.223   9.722 -0.3596 -0.8011 -0.4873
29467SOL    HW190718   2.751   3.187   9.772 -0.5227  0.0399  0.3998
29467SOL    HW290719   2.608   3.234   9.786 -0.4228  0.7460 -0.7871
29468SOL     OW90720   7.150   6.289   1.472 -0.5609  0.3216 -0.3192
29468SOL    HW190721   7.232   6.241   1.463 -0.9847 -0.8258  1.4827
29468SOL    HW290722   7.178   6.380   1.487  0.2775  0.4036 -2.0644
29469SOL     OW90723   2.612   2.043   3.458  0.1958  0.6708 -0.0101
29469SOL    HW190724   2.570   2.036   3.544 -0.8289  1.5448 -0.4106
29469SOL    HW290725   2.662   2.125   3.463  0.4252  0.5386 -0.1345
29470SOL     OW90726   1.839   4.659   9.195 -0.3023 -0.0519 -0.2027
29470SOL    HW190727   1.922   4.706   9.191  0.5434 -1.2766  1.5582
29470SOL    HW290728   1.785   4.710   9.255  0.4610 -1.0490  1.3732
29471SOL     OW90729   0.468   4.240   0.272 -0.0381  0.1783 -0.0527
29471SOL    HW190730   0.460   4.178   0.345 -0.3738 -1.4829 -1.4315
29471SOL    HW290731   0.382   4.282   0.267  0.4013  1.3381  1.3280
29472SOL     OW90732   3.018   6.253   5.699 -0.0492  0.4359  0.5893
29472SOL    HW190733   2.927   6.284   5.695 -1.5318 -3.4079 -0.6067
29472SOL    HW290734   3.038   6.227   5.610  1.0467 -1.6175  1.3671
29473SOL     OW90735   5.270   1.158   7.807 -0.1389 -0.4397 -0.3101
29473SOL    HW190736   5.189   1.115   7.779 -0.0037 -0.0787 -1.2966
29473SOL    HW290737   5.339   1.096   7.784  0.0712  0.3368 -1.9001
29474SOL     OW90738   4.605   4.381   1.898  0.5467  0.5030  0.4168
29474SOL    HW190739   4.687   4.395   1.946  1.5076  1.9421 -1.5016
29474SOL    HW290740   4.552   4.457   1.918  0.3912  0.4270  0.2930
29475SOL     OW90741   3.635   6.049   7.071 -0.5489 -0.2322  0.4997
29475SOL    HW190742   3.631   5.997   6.991 -1.9362  0.9188 -0.2117
29475SOL    HW290743   3.647   6.139   7.041  1.2166 -0.0062  1.6942
29476SOL     OW90744   3.985   8.369   7.968 -0.1440 -0.0833 -0.5959
29476SOL    HW190745   3.895   8.375   7.937  0.2215 -0.0617 -1.6962
29476SOL    HW290746   3.989   8.429   8.043 -0.9499  0.1674 -0.7435
29477SOL     OW90747   5.100   6.114   2.116 -0.1787 -0.0672 -0.2934
29477SOL    HW190748   5.158   6.052   2.160  0.2403  0.3926 -0.1895
29477SOL    HW290749   5.091   6.080   2.027 -0.7289 -0.7976  0.0407
29478SOL     OW90750   7.308   0.534   0.161  0.2286 -0.2567  0.3538
29478SOL    HW190751   7.282   0.531   0.253 -2.0704  1.9510 -0.0864
29478SOL    HW290752   7.256   0.465   0.119 -0.2193  0.0305  0.4303
29479SOL     OW90753   9.731   1.818   7.847  0.0876  0.3353 -0.2003
29479SOL    HW190754   9.719   1.729   7.881  0.7158  1.2526  2.6677
29479SOL    HW290755   9.642   1.849   7.829 -0.1318 -0.8475 -1.3225
29480SOL     OW90756   9.841   3.307   2.438 -0.0987 -0.2228  0.0646
29480SOL    HW190757   9.775   3.343   2.378 -0.3741  0.2591  0.6454
29480SOL    HW290758   9.889   3.244   2.385 -0.3414  0.1909 -0.6671
29481SOL     OW90759   7.238   1.563   6.040 -0.1289  0.2296  0.0403
29481SOL    HW190760   7.193   1.532   6.119 -1.6208  2.1392  0.0122
29481SOL    HW290761   7.302   1.627   6.073 -0.0375  0.2764 -0.2292
29482SOL     OW90762   5.609   0.149   0.213 -0.2528  0.6213  0.0921
29482SOL    HW190763   5.663   0.110   0.144 -1.5733 -0.1768 -0.5231
29482SOL    HW290764   5.547   0.081   0.237 -1.7946  1.8842 -0.1105
29483SOL     OW90765   3.994   1.385   7.840 -0.3660  0.1551 -0.2393
29483SOL    HW190766   4.026   1.436   7.765 -0.0319 -2.1344 -1.7550
29483SOL    HW290767   4.053   1.407   7.911 -0.2624  1.8723 -0.8211
29484SOL     OW90768   7.012   8.319   2.389 -0.7053 -0.5504 -0.1252
29484SOL    HW190769   6.988   8.240   2.437 -0.2138 -1.9279 -2.0155
29484SOL    HW290770   7.085   8.357   2.439 -0.5536 -1.6373  0.4989
29485SOL     OW90771   1.984   8.581   3.455 -0.1867  0.7027  0.7626
29485SOL    HW190772   2.060   8.638   3.464  0.5178  0.1252 -0.9958
29485SOL    HW290773   2.020   8.492   3.454 -1.0299  0.3408  1.2580
29486SOL     OW90774   7.782   5.127   7.845  0.3271  0.5636 -0.1688
29486SOL    HW190775   7.728   5.051   7.821  4.0162 -1.8085 -1.9865
29486SOL    HW290776   7.808   5.110   7.936 -2.3764  2.1427  1.0078
29487SOL     OW90777   6.053   8.045   7.311  0.4011 -0.0536 -0.2202
29487SOL    HW190778   6.033   8.068   7.220  0.4273 -0.2316 -0.2705
29487SOL    HW290779   6.137   8.087   7.328 -0.2208  1.0955  0.1387
29488SOL     OW90780   1.901   6.062   5.476  0.6370 -0.3108  0.4768
29488SOL    HW190781   1.856   6.101   5.401  2.2297  0.5345 -0.0861
29488SOL    HW290782   1.955   5.993   5.439  1.8216  0.4390  0.7423
29489SOL     OW90783   7.119   0.802   4.351 -0.7510 -0.3561  0.1724
29489SOL    HW190784   7.061   0.727   4.364 -2.0155  0.5476  0.0146
29489SOL    HW290785   7.082   0.848   4.275 -0.0083  0.4189  0.2616
29490SOL     OW90786   3.434   4.844  10.434  0.3313 -0.1921 -0.2113
29490SOL    HW190787   3.495   4.914  10.413  1.8535 -1.7166 -1.0732
29490SOL    HW290788   3.489   4.767  10.448 -1.1762 -0.9832  2.0003
29491SOL     OW90789   1.453   6.408   6.641 -0.0360 -0.2116 -0.4216
29491SOL    HW190790   1.447   6.461   6.562  1.5443  0.1723 -0.3136
29491SOL    HW290791   1.414   6.461   6.710 -1.1492 -0.4270 -0.8755
29492SOL     OW90792   4.813   9.131   5.712 -0.3290 -0.2001 -0.1971
29492SOL    HW190793   4.821   9.163   5.802 -0.0834 -1.3551  0.2107
29492SOL    HW290794   4.726   9.091   5.709  0.5233 -2.2051  0.2398
29493SOL     OW90795   9.407   6.618   1.142  0.5649 -0.2956  0.6829
29493SOL    HW190796   9.410   6.559   1.067  1.6405  0.2052  0.3117
29493SOL    HW290797   9.408   6.559   1.218  1.3473 -0.7752  0.3186
29494SOL     OW90798   5.946  10.455   7.921  0.0721 -1.1455  0.3309
29494SOL    HW190799   5.983  10.369   7.905 -1.1044 -1.4760 -0.7164
29494SOL    HW290800   5.995  10.514   7.864  0.7093 -1.1392  0.8676
29495SOL     OW90801   3.253   1.672   4.248 -0.5354  0.3820  0.1521
29495SOL    HW190802   3.176   1.619   4.272 -0.5928  1.1841  1.9519
29495SOL    HW290803   3.217   1.758   4.227 -0.2875  0.2219 -0.9476
29496SOL     OW90804   2.558   2.746   1.724 -0.0597 -0.0238  0.1416
29496SOL    HW190805   2.472   2.719   1.691  0.3398  0.0604 -1.0002
29496SOL    HW290806   2.575   2.831   1.683 -0.2890  0.9397  1.9278
29497SOL     OW90807   1.090   2.606  10.222  0.1838  0.0803 -0.1315
29497SOL    HW190808   1.025   2.601  10.152 -1.1681 -1.3030  1.1558
29497SOL    HW290809   1.103   2.516  10.250 -0.3630  0.7063  2.3183
29498SOL     OW90810   5.608   4.709   2.763  0.1990  0.4806  0.5844
29498SOL    HW190811   5.523   4.749   2.743 -0.3045 -0.8548 -0.0523
29498SOL    HW290812   5.635   4.750   2.845 -0.4423  1.8716  0.1361
29499SOL     OW90813   1.908   9.000   2.323  0.1710  0.4646  0.6727
29499SOL    HW190814   1.963   8.981   2.247 -0.5400 -0.8996  0.4504
29499SOL    HW290815   1.934   8.934   2.388 -0.4365  0.4995  0.9577
29500SOL     OW90816   1.665   6.381   5.045 -0.2058  0.1350 -0.3523
29500SOL    HW190817   1.686   6.474   5.052 -1.4769  0.5076 -1.2459
29500SOL    HW290818   1.691   6.357   4.956  0.5659 -0.4993  0.0324
29501SOL     OW90819   3.792   7.493   7.107  0.3845 -0.2026  0.2591
29501SOL    HW190820   3.740   7.573   7.105 -1.7095 -1.3168  3.1835
29501SOL    HW290821   3.756   7.440   7.036 -1.0057 -0.0608  0.8228
29502SOL     OW90822   1.941   5.898   0.911 -0.2638  0.0495  0.1183
29502SOL    HW190823   1.957   5.820   0.963 -1.0231 -0.1482  0.0726
29502SOL    HW290824   1.850   5.922   0.930 -0.4656  0.1337 -0.8899
29503SOL     OW90825   9.256   2.843   9.515 -0.1735  0.1323 -0.1112
29503SOL    HW190826   9.268   2.873   9.605 -0.3756  0.4143 -0.1786
29503SOL    HW290827   9.165   2.815   9.510  0.2101 -1.2553  0.1751
29504SOL     OW90828   4.945   0.171   6.279 -0.6079  0.0678  0.3963
29504SOL    HW190829   4.873   0.149   6.219 -0.5560 -0.0456  0.3743
29504SOL    HW290830   4.957   0.092   6.331  0.1589 -0.2661 -0.2743
29505SOL     OW90831  10.067   0.797   3.294 -0.0649  0.2860 -0.1482
29505SOL    HW190832  10.018   0.717   3.314  0.6772  0.3362  2.1421
29505SOL    HW290833  10.155   0.780   3.326  0.7856  1.1500 -1.8843
29506SOL     OW90834   9.528   1.300   9.041 -0.1097  0.1616  0.5323
29506SOL    HW190835   9.523   1.233   9.109  0.7162 -0.3232  0.1317
29506SOL    HW290836   9.438   1.310   9.010 -0.0120 -2.2204 -0.7831
29507SOL     OW90837   2.667   8.382   8.217  0.0689  0.0607  0.2298
29507SOL    HW190838   2.586   8.413   8.177 -0.2754 -2.0710 -0.8354
29507SOL    HW290839   2.726   8.367   8.143  0.1767 -1.8713  0.6761
29508SOL     OW90840   3.948   2.351  10.048 -0.1958  0.3515 -0.3656
29508SOL    HW190841   3.896   2.428  10.068  0.9362  1.3534 -1.1490
29508SOL    HW290842   3.898   2.278  10.083 -1.8650  1.3258 -0.6365
29509SOL     OW90843   7.761   2.166   7.967  0.1349  0.0346 -0.4606
29509SOL    HW190844   7.834   2.133   8.019 -1.0762 -3.2482 -0.6208
29509SOL    HW290845   7.770   2.123   7.883 -0.0434  2.3951 -1.7750
29510SOL     OW90846   3.821   5.227   1.035  0.3855 -0.2800  0.3730
29510SOL    HW190847   3.796   5.279   1.112 -2.8617 -0.9443 -0.1154
29510SOL    HW290848   3.870   5.289   0.980  0.6222  0.8992  1.8357
29511SOL     OW90849   6.300   8.082   8.378  1.1151  0.1375 -0.3340
29511SOL    HW190850   6.281   8.109   8.288  0.5950 -2.1087 -0.9747
29511SOL    HW290851   6.218   8.043   8.409  1.8348 -0.8274  0.4134
29512SOL     OW90852   9.346   9.767   8.595  0.1270  0.1340  0.5609
29512SOL    HW190853   9.390   9.839   8.549  2.6163 -0.4561  1.8473
29512SOL    HW290854   9.348   9.694   8.533  2.1799 -0.2379  0.9880
29513SOL     OW90855  10.387   7.141   6.993 -0.2581 -0.3558  0.3886
29513SOL    HW190856  10.304   7.100   6.968 -1.4910  0.3728  3.0127
29513SOL    HW290857  10.396   7.214   6.932 -1.6323 -0.3486  0.1624
29514SOL     OW90858   0.036   3.466   7.857  0.3297  0.2256  0.4537
29514SOL    HW190859  -0.011   3.538   7.815  0.6821 -0.1974 -0.6878
29514SOL    HW290860   0.126   3.498   7.865  0.3780  0.1025  0.4051
29515SOL     OW90861   0.886   6.440   8.841  0.2650  0.3464 -0.4114
29515SOL    HW190862   0.974   6.416   8.870  0.1847  0.8103  0.2528
29515SOL    HW290863   0.875   6.395   8.757 -0.3901 -3.1167  1.3062
29516SOL     OW90864   2.892   9.068   6.249  0.7692  0.0528  0.5509
29516SOL    HW190865   2.840   9.133   6.201  1.6604  0.9296  0.7243
29516SOL    HW290866   2.949   9.030   6.182  0.9618  0.1958  0.6313
29517SOL     OW90867   9.176   8.713   0.173 -0.2430 -0.4309  0.3245
29517SOL    HW190868   9.085   8.683   0.166 -1.3182  2.6647 -1.3101
29517SOL    HW290869   9.186   8.736   0.266 -1.3141 -0.4046  0.4493
29518SOL     OW90870   3.573   6.593   7.044 -0.0579 -0.1864 -0.3690
29518SOL    HW190871   3.531   6.623   7.124 -0.2668  2.6755 -1.4351
29518SOL    HW290872   3.666   6.584   7.067 -0.2542 -0.3118  0.4090
29519SOL     OW90873   7.648   7.877   5.022 -0.0361 -0.7351 -0.5879
29519SOL    HW190874   7.736   7.840   5.033  0.4675  0.6489  0.4206
29519SOL    HW290875   7.618   7.843   4.938  0.9237 -2.2917 -0.3565
29520SOL     OW90876   1.593   3.223   2.293  0.1464  0.1434  0.3389
29520SOL    HW190877   1.499   3.230   2.275 -0.4002  0.5425  3.0257
29520SOL    HW290878   1.602   3.141   2.343  0.7563  1.4727  2.5275
29521SOL     OW90879   4.839   6.553   7.586  0.1649 -0.0633  0.0413
29521SOL    HW190880   4.834   6.617   7.514  0.2098  0.1794  0.2496
29521SOL    HW290881   4.909   6.587   7.642 -1.0422  0.7352  1.1320
29522SOL     OW90882   5.840   1.960   8.620 -0.4298 -0.2725 -0.9116
29522SOL    HW190883   5.858   2.045   8.579 -0.0826 -1.4142 -3.2765
29522SOL    HW290884   5.756   1.973   8.664 -0.6373  1.1658 -1.6696
29523SOL     OW90885   9.148   1.864   3.708 -0.5665 -0.1163  0.2191
29523SOL    HW190886   9.139   1.830   3.797 -0.7401 -0.9783 -0.1234
29523SOL    HW290887   9.229   1.826   3.675  0.3803  1.5127  0.5667
29524SOL     OW90888   3.750   1.357   5.888 -0.3638 -0.8139 -0.2289
29524SOL    HW190889   3.679   1.364   5.952 -1.2413 -2.6917 -0.8906
29524SOL    HW290890   3.729   1.422   5.821 -1.3948 -1.2119 -0.3142
29525SOL     OW90891  10.090   3.361   3.503  0.0439  0.1360  0.0445
29525SOL    HW190892  10.103   3.321   3.417 -0.5927 -1.7858  0.7910
29525SOL    HW290893  10.115   3.292   3.565 -2.3496  0.3744  1.4053
29526SOL     OW90894   7.313   4.740   8.018 -0.2731 -0.2992 -0.0228
29526SOL    HW190895   7.255   4.699   8.082 -1.9489  1.0210 -0.6034
29526SOL    HW290896   7.375   4.671   7.993 -0.8052 -1.3911  1.5586
29527SOL     OW90897   7.606   0.797   5.481 -0.2748  0.3942  0.8906
29527SOL    HW190898   7.596   0.708   5.445 -1.0600  1.8682 -3.0283
29527SOL    HW290899   7.699   0.817   5.470 -0.0468  0.0479  2.0083
29528SOL     OW90900   0.381   2.667  10.046 -0.2688  0.1212 -0.2993
29528SOL    HW190901   0.467   2.707  10.032 -0.0876 -0.3895 -0.6977
29528SOL    HW290902   0.329   2.735  10.088 -0.0924  0.9120 -1.3216
29529SOL     OW90903   4.290   1.626   1.465 -0.1648  0.1712  0.0461
29529SOL    HW190904   4.270   1.537   1.493 -1.3153  0.0882 -0.9450
29529SOL    HW290905   4.381   1.640   1.489  0.2700 -1.5585 -0.4913
29530SOL     OW90906   1.075   2.417   6.225 -0.1113 -0.3900  0.4773
29530SOL    HW190907   1.043   2.424   6.315  1.2322 -0.9306  1.0205
29530SOL    HW290908   1.072   2.323   6.206  2.2841 -0.6403  1.0220
29531SOL     OW90909   4.602   4.919   3.220 -0.9049  0.2523  0.2538
29531SOL    HW190910   4.578   4.871   3.141 -0.1594  0.3245 -0.0203
29531SOL    HW290911   4.582   4.859   3.292  1.7375 -1.2430 -0.1483
29532SOL     OW90912   5.157   2.897   6.194  0.1496 -0.2925 -0.3840
29532SOL    HW190913   5.197   2.984   6.203 -0.9279  0.2355 -0.5318
29532SOL    HW290914   5.227   2.836   6.217  0.8646  0.6230 -0.0657
29533SOL     OW90915   8.076   8.013   8.519 -0.7667  0.6304 -0.1755
29533SOL    HW190916   8.100   8.041   8.431 -1.2263  1.3716 -0.0738
29533SOL    HW290917   8.004   8.071   8.544 -1.4467 -0.3775  0.2215
29534SOL     OW90918   1.699   0.850   7.776 -0.1067  0.1009  0.0977
29534SOL    HW190919   1.607   0.849   7.750 -0.0706  0.2159 -0.0345
29534SOL    HW290920   1.714   0.939   7.808 -0.0403  0.0828  0.1174
29535SOL     OW90921   2.976   5.303   7.145  0.2605  0.7970 -0.5918
29535SOL    HW190922   3.016   5.279   7.062  1.2321 -2.6865  0.7087
29535SOL    HW290923   2.899   5.245   7.152  1.2819 -0.4292  1.6732
29536SOL     OW90924   1.681   1.589   0.386  0.6023  1.0507  0.0892
29536SOL    HW190925   1.603   1.643   0.393 -2.0303 -1.9869 -2.5523
29536SOL    HW290926   1.724   1.618   0.305  0.8554  1.1142  0.2437
29537SOL     OW90927   8.316   9.978   5.092 -0.3794 -0.2388  0.7747
29537SOL    HW190928   8.271   9.981   5.177  0.1538  1.8291  1.0299
29537SOL    HW290929   8.284  10.055   5.045  1.8314  0.5248  0.4133
29538SOL     OW90930   6.777   8.339   2.257 -0.6863  0.2547  0.4620
29538SOL    HW190931   6.714   8.357   2.326 -1.8617  1.2065 -0.8032
29538SOL    HW290932   6.862   8.342   2.300 -1.4846 -1.9787  2.4024
29539SOL     OW90933   5.641   0.856   1.477 -0.0001  0.4368 -0.4970
29539SOL    HW190934   5.633   0.818   1.389  1.4178  1.8517 -1.2845
29539SOL    HW290935   5.684   0.940   1.463 -1.0981  1.3763  1.4160
29540SOL     OW90936   2.662   0.257   1.647 -0.1008 -0.0018 -0.1401
29540SOL    HW190937   2.754   0.259   1.676  0.1743  1.9725 -0.9944
29540SOL    HW290938   2.612   0.280   1.726  0.3142  1.0270 -0.1624
29541SOL     OW90939  10.406   6.452   4.127 -0.5133  0.1342  0.4510
29541SOL    HW190940  10.312   6.468   4.118 -0.8294 -1.0362  1.4699
29541SOL    HW290941  10.412   6.366   4.167  1.0324 -0.4086 -0.8408
29542SOL     OW90942   0.877   5.191   1.578  0.3651  0.9957  0.1423
29542SOL    HW190943   0.809   5.258   1.580 -1.5060 -0.8086  1.4953
29542SOL    HW290944   0.835   5.116   1.535  1.8240  0.1402  0.1358
29543SOL     OW90945   0.816   3.110   5.384  0.2105  0.1751  0.5725
29543SOL    HW190946   0.835   3.130   5.292 -1.3111  0.8542  0.3738
29543SOL    HW290947   0.759   3.181   5.413 -2.2998 -1.8341  0.9664
29544SOL     OW90948   5.372  10.069   5.013  0.3238  0.6651  0.0780
29544SOL    HW190949   5.427  10.044   4.938  2.2957 -1.1230  1.9681
29544SOL    HW290950   5.422  10.137   5.058 -0.1232  0.6690  0.5783
29545SOL     OW90951  10.232   9.936   2.964 -0.1656  0.1907 -0.1922
29545SOL    HW190952  10.166   9.987   3.011  0.8105  2.2153 -0.9174
29545SOL    HW290953  10.218   9.846   2.993 -3.1819  0.5526 -0.2641
29546SOL     OW90954   8.505   5.460   0.415 -0.1369 -0.0592 -0.0812
29546SOL    HW190955   8.485   5.480   0.324 -0.2078 -0.8201 -0.2398
29546SOL    HW290956   8.453   5.382   0.434  0.6092 -0.4661  0.3171
29547SOL     OW90957   7.020   3.045   5.055 -0.3775 -0.0122  0.1978
29547SOL    HW190958   7.038   3.012   4.967  1.6084  1.1205  0.1305
29547SOL    HW290959   6.949   3.108   5.043  0.8450  1.2219 -0.8685
29548SOL     OW90960   2.207   9.214   3.907 -0.3059 -0.0460 -1.0746
29548SOL    HW190961   2.192   9.139   3.965  0.3169  1.3500  1.0242
29548SOL    HW290962   2.120   9.242   3.880 -0.6426 -0.5398 -0.5123
29549SOL     OW90963   0.333   0.263   1.400  0.9783 -0.3124  0.0151
29549SOL    HW190964   0.418   0.304   1.384  0.1427  1.1588 -0.8388
29549SOL    HW290965   0.311   0.288   1.489  0.3913  1.3379 -0.5545
29550SOL     OW90966   7.120   3.506   1.802 -0.3827 -0.3262  0.2153
29550SOL    HW190967   7.166   3.581   1.839  0.7292  0.2335 -2.1077
29550SOL    HW290968   7.130   3.437   1.868  0.4711  0.9080  1.4318
29551SOL     OW90969  10.373   8.036  10.137 -0.1058 -0.6166 -0.7988
29551SOL    HW190970  10.336   8.046  10.225 -0.5061  0.9958 -1.1249
29551SOL    HW290971  10.305   8.068  10.078  0.9094  0.2159 -1.5613
29552SOL     OW90972   2.592   8.998   7.275  0.0565  0.1606 -0.0168
29552SOL    HW190973   2.646   8.952   7.340  0.6141 -0.2398 -0.7410
29552SOL    HW290974   2.554   9.071   7.323  1.0662  0.3237  0.5818
29553SOL     OW90975   5.265   1.060   9.490 -0.7397 -0.1176 -0.4148
29553SOL    HW190976   5.308   1.102   9.416  0.7809  0.5804  0.8014
29553SOL    HW290977   5.317   1.086   9.566 -0.8684 -2.6684  0.6485
29554SOL     OW90978   5.627   6.696   7.059  0.3902 -0.2134 -0.6267
29554SOL    HW190979   5.699   6.691   6.997  0.6973 -0.8822 -0.2236
29554SOL    HW290980   5.636   6.618   7.114  0.7074  0.8465  0.8952
29555SOL     OW90981   0.758   8.650   6.184  0.3206  0.1515  0.6125
29555SOL    HW190982   0.807   8.670   6.105 -1.4284 -1.6365 -1.0402
29555SOL    HW290983   0.721   8.733   6.212  1.0057  0.8177 -0.4208
29556SOL     OW90984   8.862   0.614   9.075  0.3465  0.0925 -0.1110
29556SOL    HW190985   8.897   0.583   8.991  0.3383 -1.4756  0.4409
29556SOL    HW290986   8.940   0.636   9.126  0.5963 -2.3868  0.7287
29557SOL     OW90987   1.255   1.329   2.873 -0.1945  0.1473 -0.4741
29557SOL    HW190988   1.314   1.267   2.915  0.6626  0.5476 -1.0355
29557SOL    HW290989   1.313   1.399   2.841 -1.2603  2.1840  1.6984
29558SOL     OW90990   2.112   5.899   8.777 -0.4166  0.1421 -0.4008
29558SOL    HW190991   2.156   5.958   8.838  0.8739  0.0664 -1.2164
29558SOL    HW290992   2.093   5.821   8.828  2.3982 -0.7217 -0.4982
29559SOL     OW90993   4.506   2.122   2.015  0.0300 -0.3395  0.2460
29559SOL    HW190994   4.439   2.189   2.024 -0.7315 -0.9597 -0.5445
29559SOL    HW290995   4.468   2.044   2.056  0.0383 -0.8253 -0.6265
29560SOL     OW90996   5.109   1.378   7.511  0.3472  0.8237  0.5018
29560SOL    HW190997   5.117   1.296   7.558  1.5378  1.4021  1.3453
29560SOL    HW290998   5.198   1.397   7.480  0.3683  2.4473  1.4662
29561SOL     OW90999   9.124   8.848   0.412 -0.3518  0.1814  0.1116
29561SOL    HW191000   9.067   8.924   0.420 -1.2582 -0.5842  1.2813
29561SOL    HW291001   9.212   8.884   0.398 -0.6786  1.4448  1.2193
29562SOL     OW91002   4.267   4.042   8.513  0.6872  1.1613  0.6507
29562SOL    HW191003   4.294   4.018   8.601  1.0565 -1.0647 -0.0164
29562SOL    HW291004   4.313   3.981   8.456  0.5593  2.6282 -1.1231
29563SOL     OW91005   8.505   2.509   3.991  0.1491 -0.2474  0.5517
29563SOL    HW191006   8.474   2.575   3.930  0.4858 -1.7353 -1.3115
29563SOL    HW291007   8.426   2.472   4.030 -0.4730 -2.5068 -2.5369
29564SOL     OW91008   2.381   6.245   8.092 -0.6225 -0.5577 -0.5551
29564SOL    HW191009   2.407   6.265   8.002 -0.7500  0.7834 -0.3301
29564SOL    HW291010   2.459   6.263   8.144 -1.0847  0.5479 -0.2098
29565SOL     OW91011   7.091   4.445   9.085 -0.1507  0.0139  0.0342
29565SOL    HW191012   7.056   4.359   9.064 -0.8223  0.6426 -1.5026
29565SOL    HW291013   7.069   4.458   9.177 -4.5691  0.6027 -0.9023
29566SOL     OW91014   0.359   2.586   5.604 -0.1313  0.3348 -0.1434
29566SOL    HW191015   0.424   2.522   5.575  0.2705 -0.0969  1.6080
29566SOL    HW291016   0.280   2.535   5.621 -0.2000  0.4926  0.0185
29567SOL     OW91017   1.545   0.617   5.634 -0.1983 -0.3423 -0.0565
29567SOL    HW191018   1.640   0.617   5.631 -0.1478 -1.2237  0.8866
29567SOL    HW291019   1.518   0.580   5.550  0.3839 -2.3879  0.5990
29568SOL     OW91020   0.232   4.542   2.817  0.3644  0.1416  0.2113
29568SOL    HW191021   0.206   4.541   2.909  0.4460 -0.5846  0.2279
29568SOL    HW291022   0.163   4.593   2.774 -0.1041 -0.1983  0.5481
29569SOL     OW91023   9.269   6.952   0.017  0.0849 -0.1882 -1.0191
29569SOL    HW191024   9.330   6.988  -0.047 -0.3619  1.2381 -0.6843
29569SOL    HW291025   9.246   6.866  -0.017  0.7177  0.0919 -2.1994
29570SOL     OW91026   3.963   6.280   8.721 -0.0599  0.5543  0.0350
29570SOL    HW191027   3.981   6.248   8.633 -0.9040  1.3728 -0.4447
29570SOL    HW291028   4.004   6.366   8.724  0.4843  0.2898  0.6600
29571SOL     OW91029   3.110   3.679   6.683 -0.1900  0.1319 -0.3104
29571SOL    HW191030   3.056   3.742   6.731 -2.6912 -0.8554 -1.6142
29571SOL    HW291031   3.145   3.729   6.609  0.4002  0.6876  0.3257
29572SOL     OW91032   7.956   3.951   6.286 -0.0701 -0.0781 -0.3138
29572SOL    HW191033   7.875   3.973   6.241 -1.2006 -0.5494  1.4316
29572SOL    HW291034   7.937   3.871   6.335  1.0744  0.4412  1.0695
29573SOL     OW91035  10.292   0.560   6.576 -0.3754 -0.4786 -0.1317
29573SOL    HW191036  10.287   0.483   6.633  0.1138 -0.6342 -0.2968
29573SOL    HW291037  10.243   0.627   6.623  1.1029 -0.2089  1.1226
29574SOL     OW91038   1.983   1.678   2.443 -0.1758 -0.0596  0.0407
29574SOL    HW191039   2.025   1.595   2.462 -1.4342 -1.1630 -1.6427
29574SOL    HW291040   1.901   1.676   2.493  1.3451  1.8513  2.8962
29575SOL     OW91041   8.224   8.445   1.045 -0.1246  0.4153  0.0837
29575SOL    HW191042   8.284   8.513   1.013 -0.5713  1.2544  0.9843
29575SOL    HW291043   8.266   8.363   1.020  1.3632  0.9866  0.6033
29576SOL     OW91044   5.098   8.240   3.327  0.0628  0.0861  0.5590
29576SOL    HW191045   5.145   8.279   3.401 -1.1295  0.5962  1.0713
29576SOL    HW291046   5.105   8.146   3.342  1.5682  0.1147  0.1988
29577SOL     OW91047   5.964   8.595   5.642 -0.0373 -0.0403  0.3345
29577SOL    HW191048   5.885   8.634   5.602 -0.5481  1.1851  2.3837
29577SOL    HW291049   5.932   8.519   5.689  0.4994 -1.2344 -1.1597
29578SOL     OW91050   0.915   7.107   1.979  0.5362  0.6684 -0.4447
29578SOL    HW191051   0.835   7.055   1.968  0.8178  0.2239 -0.4255
29578SOL    HW291052   0.986   7.044   1.964  0.8848  0.9662 -0.0521
29579SOL     OW91053   4.287   7.044   9.105 -0.4878  0.0102 -0.1232
29579SOL    HW191054   4.218   7.016   9.045 -0.5522  0.4389 -0.2527
29579SOL    HW291055   4.240   7.072   9.184 -0.3050 -2.6647  1.0405
29580SOL     OW91056   1.441   8.236   3.608 -0.1907 -0.2240  0.1913
29580SOL    HW191057   1.511   8.178   3.639 -1.7161 -1.4314  1.5770
29580SOL    HW291058   1.388   8.181   3.551 -1.3428 -0.0559  1.0712
29581SOL     OW91059   8.874   1.628   9.673  0.1394 -0.0755 -0.2608
29581SOL    HW191060   8.798   1.650   9.726  0.1860 -0.7820  0.1220
29581SOL    HW291061   8.847   1.550   9.624 -0.3540  1.3088 -2.2851
29582SOL     OW91062  10.307   9.441   1.416 -0.4102  0.2621 -0.1432
29582SOL    HW191063  10.243   9.380   1.380  0.5941 -0.7577 -0.2867
29582SOL    HW291064  10.367   9.459   1.343  2.0954 -2.4269  1.0267
29583SOL     OW91065   3.644   3.895   3.041 -0.0259 -0.4783  0.0543
29583SOL    HW191066   3.578   3.947   3.087 -0.1490  0.0636 -0.7097
29583SOL    HW291067   3.713   3.957   3.020  0.1343 -0.7689 -0.2889
29584SOL     OW91068   2.909   8.499   4.211 -0.9074  0.1461 -0.0450
29584SOL    HW191069   2.995   8.539   4.227 -0.2259 -1.1317 -0.3696
29584SOL    HW291070   2.866   8.500   4.297 -0.3020  0.2004  0.2622
29585SOL     OW91071   1.765   5.700   3.273 -0.2684 -0.3742 -0.4849
29585SOL    HW191072   1.826   5.696   3.199 -0.6020 -0.0431 -0.7802
29585SOL    HW291073   1.721   5.784   3.263 -1.3385 -0.9511 -0.7115
29586SOL     OW91074   7.863   0.375   3.199 -0.8873  0.7119 -0.2948
29586SOL    HW191075   7.897   0.332   3.278 -1.4561  1.2614  0.2640
29586SOL    HW291076   7.935   0.429   3.167 -0.2919 -0.3377 -0.7831
29587SOL     OW91077   2.927   3.138   9.780 -0.1073  0.3574 -0.4846
29587SOL    HW191078   2.964   3.106   9.698  0.1114  0.5089 -0.4468
29587SOL    HW291079   2.961   3.078   9.846 -0.2493  0.2604 -0.4999
29588SOL     OW91080   8.596   5.426   9.747 -0.4718 -0.4328  0.5828
29588SOL    HW191081   8.509   5.416   9.708 -0.1553 -0.1309 -0.2313
29588SOL    HW291082   8.586   5.498   9.810 -0.8849 -0.6225  0.7387
29589SOL     OW91083   3.958   3.500   6.750  0.3220 -0.1166 -0.2328
29589SOL    HW191084   3.949   3.407   6.771 -1.0111  0.0582  0.0548
29589SOL    HW291085   3.988   3.540   6.831 -0.6952 -0.0701  0.1352
29590SOL     OW91086   9.607   0.878   9.473 -0.1066 -0.0582 -0.3844
29590SOL    HW191087   9.685   0.920   9.436  0.6758 -1.6863 -0.6928
29590SOL    HW291088   9.574   0.822   9.403 -1.8229  0.9021 -0.3908
29591SOL     OW91089   0.282  10.454  10.311 -0.5911 -0.2303 -0.3083
29591SOL    HW191090   0.365  10.424  10.274 -0.6331 -0.2287 -0.4020
29591SOL    HW291091   0.219  10.447  10.240 -0.7031 -0.3680 -0.1977
29592SOL     OW91092   1.456   3.304   0.143  0.1773 -0.3539  0.1578
29592SOL    HW191093   1.395   3.234   0.167 -0.5166 -0.2424 -1.1598
29592SOL    HW291094   1.492   3.335   0.226 -2.1412  0.1098  1.0722
29593SOL     OW91095   9.604   1.181   1.320 -0.4153 -0.2372  0.3156
29593SOL    HW191096   9.683   1.147   1.362  1.4512  0.3027 -2.4409
29593SOL    HW291097   9.543   1.107   1.320  1.2087 -1.6425 -0.0576
29594SOL     OW91098   2.158   3.268   0.229 -0.0326 -0.4726 -0.7639
29594SOL    HW191099   2.141   3.192   0.173 -2.1663 -0.4268 -0.2827
29594SOL    HW291100   2.189   3.336   0.168 -0.6680 -0.9349 -1.6261
29595SOL     OW91101  10.597   9.156   9.419  0.2275 -0.1579  0.2952
29595SOL    HW191102  10.626   9.082   9.471  3.0919  1.1982  0.8058
29595SOL    HW291103  10.617   9.131   9.329  1.7460  0.1546  0.5150
29596SOL     OW91104   8.001   3.092   5.673 -0.4241 -0.5537  0.1260
29596SOL    HW191105   7.961   3.009   5.648 -2.4191  0.4413 -0.1515
29596SOL    HW291106   8.031   3.079   5.763  0.8234 -2.0748 -0.4738
29597SOL     OW91107   3.801   6.532   5.929  0.2416  0.6745 -0.1503
29597SOL    HW191108   3.763   6.620   5.920  0.8843  0.9540 -0.1524
29597SOL    HW291109   3.772   6.503   6.015  1.1241  1.4368  0.4286
29598SOL     OW91110   2.670   0.981  10.250  0.0726 -0.3177  0.2996
29598SOL    HW191111   2.688   1.004  10.159 -1.6447  1.2850  0.3010
29598SOL    HW291112   2.577   0.962  10.252  0.3813 -1.9172  1.4640
29599SOL     OW91113   2.321   4.630   0.081 -0.2972 -0.5296 -0.6046
29599SOL    HW191114   2.304   4.595   0.168 -0.7294  0.1680 -0.3952
29599SOL    HW291115   2.415   4.648   0.081 -0.1167 -1.4221 -0.6305
29600SOL     OW91116   8.371   6.320  10.316  0.1368 -0.3262  0.5677
29600SOL    HW191117   8.293   6.274  10.345  0.9736 -0.6796  2.4239
29600SOL    HW291118   8.444   6.261  10.339  0.9732 -0.0376 -1.1521
29601SOL     OW91119   6.716   2.155   3.114  0.0392 -0.4788  0.0518
29601SOL    HW191120   6.681   2.214   3.181  0.5213 -0.1227 -0.0004
29601SOL    HW291121   6.670   2.072   3.128 -1.4857  0.2257 -0.6073
29602SOL     OW91122  10.109   6.458   2.152 -0.6751 -0.0311  0.5718
29602SOL    HW191123  10.184   6.518   2.155  0.3390 -1.1671 -0.7077
29602SOL    HW291124  10.143   6.376   2.188 -0.9500 -0.8683 -0.9762
29603SOL     OW91125   2.132   1.245  10.379 -0.1579 -1.0581 -0.6536
29603SOL    HW191126   2.134   1.236  10.284  0.0830 -1.3871 -0.6169
29603SOL    HW291127   2.054   1.196  10.406 -1.6154  1.0025 -0.8887
29604SOL     OW91128   5.696   8.986   4.289  0.8201 -0.8386  0.2885
29604SOL    HW191129   5.772   9.031   4.253  0.0157  0.6171  0.3418
29604SOL    HW291130   5.629   8.994   4.222 -0.7717  2.1075  2.0104
29605SOL     OW91131   1.504   0.189   4.773  0.0352 -0.2603 -0.6507
29605SOL    HW191132   1.525   0.115   4.829  1.4440 -0.0060 -0.8023
29605SOL    HW291133   1.569   0.186   4.703 -0.0827  0.9104 -0.8403
29606SOL     OW91134   2.165   2.064   3.082  0.2175  0.5096  0.8781
29606SOL    HW191135   2.225   2.004   3.037  0.0501 -1.7199  3.3886
29606SOL    HW291136   2.223   2.124   3.130  0.4058  0.6574  0.4708
29607SOL     OW91137   2.270   4.933   2.003  0.5482 -0.1535  0.1700
29607SOL    HW191138   2.242   5.014   2.045  0.9284 -1.7927  3.9858
29607SOL    HW291139   2.189   4.885   1.987  0.4814 -0.1677  0.5409
29608SOL     OW91140   2.207   8.351   5.839  0.6354 -0.1236  0.0424
29608SOL    HW191141   2.188   8.420   5.775 -0.9768 -0.6702 -0.1227
29608SOL    HW291142   2.239   8.398   5.916 -4.5261  1.4700  1.6397
29609SOL     OW91143   4.364   1.752   6.399  0.2353 -0.4827 -0.1684
29609SOL    HW191144   4.370   1.749   6.495  0.0950 -2.4903 -0.1821
29609SOL    HW291145   4.271   1.740   6.381  0.2137  0.2445 -0.5665
29610SOL     OW91146  10.593   0.217   5.912  0.4766 -0.0801  0.3977
29610SOL    HW191147  10.545   0.223   5.995  1.3778 -2.3921  1.1562
29610SOL    HW291148  10.683   0.241   5.935  0.2124  1.9575 -0.5318
29611SOL     OW91149   8.310   8.001   0.930 -0.0405  0.0634  0.8498
29611SOL    HW191150   8.346   7.921   0.892 -1.7407 -0.9476  1.2615
29611SOL    HW291151   8.233   8.020   0.878  0.0229  1.1286  1.1139
29612SOL     OW91152   6.219   7.086   4.640  0.4426 -0.8449 -0.2597
29612SOL    HW191153   6.197   7.135   4.718 -0.7627 -0.8278 -0.5925
29612SOL    HW291154   6.141   7.035   4.620  1.2258 -1.9527 -0.6365
29613SOL     OW91155   8.638   6.734   2.007 -0.1612 -0.0097  0.0783
29613SOL    HW191156   8.689   6.814   1.992  0.2115 -0.1786  0.4251
29613SOL    HW291157   8.547   6.764   2.010 -0.0371  0.3757  0.0436
29614SOL     OW91158   3.415  10.125   3.497 -0.2739 -0.2963  0.5376
29614SOL    HW191159   3.383  10.215   3.493  1.4873  0.3218 -1.5114
29614SOL    HW291160   3.507  10.132   3.522 -0.0516 -1.4846  0.1508
29615SOL     OW91161   4.374   0.010   7.222  0.1129 -0.1708  0.4523
29615SOL    HW191162   4.428  -0.054   7.176 -1.4065 -0.2256 -1.4022
29615SOL    HW291163   4.340  -0.037   7.298  1.2202 -0.6708  0.6524
29616SOL     OW91164   2.749   4.185   1.250 -0.1813  0.0520  0.1426
29616SOL    HW191165   2.779   4.255   1.192  0.8393 -0.5985 -0.1368
29616SOL    HW291166   2.780   4.211   1.337 -1.1961  0.7285  0.3217
29617SOL     OW91167   4.331   2.981   3.418 -0.1592 -0.8561  0.5805
29617SOL    HW191168   4.311   3.074   3.405 -2.6291 -1.6979 -3.0710
29617SOL    HW291169   4.260   2.949   3.473 -0.6182 -0.9948 -0.0830
29618SOL     OW91170   6.500   1.274   0.393 -0.1789 -0.2676 -0.0258
29618SOL    HW191171   6.438   1.206   0.420  1.0160 -1.4519 -0.1473
29618SOL    HW291172   6.534   1.244   0.309  2.5244 -1.0919  1.2465
29619SOL     OW91173   1.967   4.942   7.161  0.1819  0.1288 -0.2868
29619SOL    HW191174   1.929   4.871   7.109 -0.6639  0.8674 -0.6987
29619SOL    HW291175   2.011   4.897   7.234  0.7010 -0.8780 -1.1846
29620SOL     OW91176   3.104   9.164   9.486 -0.6131 -0.1774 -0.5142
29620SOL    HW191177   3.010   9.144   9.478 -0.5657 -0.2677 -0.8654
29620SOL    HW291178   3.145   9.112   9.417 -0.2791 -0.3069 -0.2171
29621SOL     OW91179  10.519   8.874   0.730 -0.4482 -0.0624  0.2910
29621SOL    HW191180  10.549   8.817   0.660 -1.1952  0.6840 -0.6776
29621SOL    HW291181  10.566   8.845   0.807  0.0732 -1.1934 -0.4303
29622SOL     OW91182   1.798   6.065  10.335 -0.4569 -0.2712 -0.2159
29622SOL    HW191183   1.768   6.155  10.322 -1.3824 -0.7566 -1.6505
29622SOL    HW291184   1.838   6.066  10.422 -1.8466  1.1523  0.4596
29623SOL     OW91185   3.412   4.645   0.726 -0.0566  0.0154  0.0588
29623SOL    HW191186   3.321   4.667   0.709 -0.1025 -0.8417 -0.8739
29623SOL    HW291187   3.462   4.708   0.673 -0.1662 -1.0679 -1.3996
29624SOL     OW91188   9.831   2.923   4.205  0.4711 -0.2391  0.2852
29624SOL    HW191189   9.779   2.979   4.147  1.9621  0.9815  0.0343
29624SOL    HW291190   9.920   2.927   4.168  0.8489 -1.8927  0.9319
29625SOL     OW91191   5.628   0.452   4.978  0.1325 -0.4469 -0.3225
29625SOL    HW191192   5.597   0.405   4.901 -1.4531 -0.9206  0.5656
29625SOL    HW291193   5.563   0.434   5.045  1.8960 -0.7565  1.4080
29626SOL     OW91194   1.361   3.305   9.754  0.3974  0.5128  0.3949
29626SOL    HW191195   1.310   3.386   9.750 -0.8553 -0.1848  1.2780
29626SOL    HW291196   1.421   3.318   9.828 -0.2745  0.3930  0.9723
29627SOL     OW91197   6.506   1.659   7.000  0.2191  0.2505 -0.0957
29627SOL    HW191198   6.588   1.612   7.018  0.3376 -0.2781 -1.9013
29627SOL    HW291199   6.528   1.722   6.932 -0.6197  0.9243  0.2369
29628SOL     OW91200   2.300   5.373   0.024 -0.3732  0.2522  0.4690
29628SOL    HW191201   2.391   5.348   0.006 -0.0167  1.2528  0.7970
29628SOL    HW291202   2.248   5.301  -0.010  0.4870  0.2059 -0.8271
29629SOL     OW91203   9.435   3.828   9.992 -0.1015  0.1580 -0.5035
29629SOL    HW191204   9.390   3.810   9.909 -1.8164  3.0519 -0.3464
29629SOL    HW291205   9.518   3.869   9.966 -0.5527  0.8897 -0.8345
29630SOL     OW91206   3.092   2.347   3.747  0.2253  0.2932 -0.7358
29630SOL    HW191207   3.066   2.393   3.828  2.6634 -0.4353  0.5681
29630SOL    HW291208   3.027   2.279   3.736 -0.2819  0.5491  0.5047
29631SOL     OW91209   7.742  10.146   5.610  0.0063 -0.7387 -0.3184
29631SOL    HW191210   7.824  10.192   5.626 -0.9276  0.8333  0.1221
29631SOL    HW291211   7.677  10.215   5.602 -1.4639 -1.9895  0.3883
29632SOL     OW91212  10.414   4.681   0.331 -0.1132 -0.3307  0.6636
29632SOL    HW191213  10.430   4.775   0.343 -0.3678 -0.3367  1.0544
29632SOL    HW291214  10.318   4.673   0.327 -0.0725 -0.4177 -0.6540
29633SOL     OW91215   5.490   7.813   5.874 -0.6960  0.3509 -0.3272
29633SOL    HW191216   5.490   7.731   5.925 -1.6138  0.3377 -0.3288
29633SOL    HW291217   5.462   7.880   5.936  0.9827  0.8449 -0.0751
29634SOL     OW91218   1.928   0.884   6.734  0.7555 -0.1558 -0.4615
29634SOL    HW191219   2.001   0.824   6.723 -0.8261 -2.2609 -0.1425
29634SOL    HW291220   1.946   0.929   6.817  1.7721 -0.4568 -0.5057
29635SOL     OW91221   5.502   5.124   2.603 -0.1593 -0.0745 -0.5162
29635SOL    HW191222   5.422   5.144   2.651  0.4200 -0.0463  0.4460
29635SOL    HW291223   5.487   5.162   2.516 -0.5125  1.4779  0.1781
29636SOL     OW91224   3.415   0.277   5.240  0.0065  0.1116 -0.1359
29636SOL    HW191225   3.444   0.345   5.179 -1.3151  0.8418  0.0375
29636SOL    HW291226   3.422   0.196   5.189  0.3454  0.5276 -0.7672
29637SOL     OW91227  10.459  10.438   8.096  0.0291  0.1590  0.2362
29637SOL    HW191228  10.504  10.521   8.081 -1.0233  0.7926  0.4379
29637SOL    HW291229  10.398  10.456   8.168 -0.1820 -0.8001  0.3159
29638SOL     OW91230   4.502   8.712   4.624 -0.1703  0.1877  0.7578
29638SOL    HW191231   4.569   8.776   4.649 -1.2554  1.8593 -0.3359
29638SOL    HW291232   4.549   8.646   4.574  0.9588  0.2308  1.7217
29639SOL     OW91233   6.260   2.052   9.142 -0.3891  0.1207  0.5757
29639SOL    HW191234   6.345   2.022   9.110 -0.7330  0.5245 -0.7956
29639SOL    HW291235   6.272   2.063   9.236  1.9914  3.0921  0.0475
29640SOL     OW91236   6.062   4.009   4.556  0.6136 -0.4229 -0.4361
29640SOL    HW191237   5.971   3.984   4.544  0.0654  0.8107  0.8845
29640SOL    HW291238   6.112   3.929   4.538 -0.8070 -1.4637  0.1167
29641SOL     OW91239   9.470   3.557   2.099 -0.1220 -0.2218  0.8386
29641SOL    HW191240   9.475   3.602   2.014 -0.7609 -1.8888 -0.1445
29641SOL    HW291241   9.554   3.512   2.107  0.1287  0.3188  1.3466
29642SOL     OW91242   0.892   0.335   0.179  0.4242  0.0822 -0.3722
29642SOL    HW191243   0.939   0.252   0.180  1.2148  0.5233 -0.6249
29642SOL    HW291244   0.858   0.344   0.268 -2.5813 -2.1259 -1.1371
29643SOL     OW91245   2.362   8.183   1.598 -0.0850  0.1324  0.2685
29643SOL    HW191246   2.392   8.173   1.508 -1.1496  0.0432 -0.0891
29643SOL    HW291247   2.396   8.268   1.626  0.9226 -0.1802  0.0715
29644SOL     OW91248   6.809   9.882   6.780 -0.3301  0.6861 -0.4295
29644SOL    HW191249   6.858   9.964   6.783  1.0259 -0.1239  0.8292
29644SOL    HW291250   6.863   9.824   6.726  0.4671 -0.3939  1.4372
29645SOL     OW91251   4.497   5.308   2.004 -0.1509 -0.7307  0.0649
29645SOL    HW191252   4.545   5.368   1.946  0.7083 -1.0220  0.4493
29645SOL    HW291253   4.405   5.323   1.983  0.1341 -1.7373 -2.3195
29646SOL     OW91254   2.146   5.867   6.430  0.3210  0.3317 -0.1840
29646SOL    HW191255   2.160   5.785   6.478 -0.6800 -0.1188 -0.6381
29646SOL    HW291256   2.234   5.900   6.414  0.7871 -1.0400 -0.6493
29647SOL     OW91257   2.653   8.765   0.844  0.0723 -0.1171  0.1596
29647SOL    HW191258   2.599   8.778   0.765  0.3293  0.6714  0.1003
29647SOL    HW291259   2.736   8.731   0.811  0.6658  1.4657 -0.0763
29648SOL     OW91260   2.971   4.328   9.087 -0.3332  0.7316 -0.2857
29648SOL    HW191261   2.969   4.283   9.003 -1.7641  1.8322 -0.8682
29648SOL    HW291262   3.008   4.414   9.067  0.5319  0.5550  0.4675
29649SOL     OW91263   2.677   6.631   1.703  0.1486 -0.0027 -0.2771
29649SOL    HW191264   2.612   6.571   1.738 -1.0992  0.3161 -1.9106
29649SOL    HW291265   2.627   6.709   1.678  1.7080  1.7440  1.7151
29650SOL     OW91266   1.247   6.113   4.312  0.1975  0.3354 -0.0802
29650SOL    HW191267   1.220   6.041   4.254 -0.0441  0.8189 -0.5787
29650SOL    HW291268   1.309   6.164   4.259 -1.7217  2.0734 -0.7786
29651SOL     OW91269   1.014   7.930   4.183 -0.7288 -0.2927 -0.2963
29651SOL    HW191270   0.963   7.921   4.102 -1.6583  3.0963 -0.2338
29651SOL    HW291271   0.954   7.970   4.245  1.3859  2.1370  0.3766
29652SOL     OW91272   1.419   7.375   4.918 -0.2137 -0.3172  0.5720
29652SOL    HW191273   1.505   7.413   4.897  0.2810 -0.4753  2.2091
29652SOL    HW291274   1.409   7.305   4.854 -0.2837  1.2859 -1.2685
29653SOL     OW91275   9.443   9.614   4.219 -0.7875 -0.2456  0.2096
29653SOL    HW191276   9.389   9.607   4.298 -2.4981 -1.9639 -1.0246
29653SOL    HW291277   9.384   9.651   4.153  0.5603  1.0032 -0.3375
29654SOL     OW91278   9.769   8.713   6.308 -0.0737 -0.1435  0.1368
29654SOL    HW191279   9.712   8.667   6.246 -0.2763 -0.7295  0.7484
29654SOL    HW291280   9.713   8.783   6.343 -0.0297  0.0435 -0.1524
29655SOL     OW91281   5.802   2.190   3.817  0.3233 -0.0384 -0.2362
29655SOL    HW191282   5.798   2.120   3.751  2.1072  0.5550 -1.0360
29655SOL    HW291283   5.782   2.270   3.769  1.2813  0.3595  0.0119
29656SOL     OW91284   5.030   4.218   6.867 -0.1246  0.3791 -0.2491
29656SOL    HW191285   5.007   4.295   6.815 -0.4432  0.1415 -0.4696
29656SOL    HW291286   5.009   4.144   6.810 -0.2057  0.1203  0.1137
29657SOL     OW91287   2.960   3.200   0.237 -0.0494 -0.0212 -0.3653
29657SOL    HW191288   2.966   3.155   0.153  2.4357  0.4604 -0.5376
29657SOL    HW291289   2.924   3.286   0.217  0.6078  0.1194 -0.9675
29658SOL     OW91290   2.440   2.400   9.484 -0.1645 -0.1854  0.3502
29658SOL    HW191291   2.529   2.434   9.472  0.1085 -0.9653  0.1532
29658SOL    HW291292   2.384   2.465   9.442  0.4720 -0.7725 -1.5041
29659SOL     OW91293   5.460   8.085   6.839  0.3910 -0.2648  0.1643
29659SOL    HW191294   5.410   8.089   6.921  0.6128  0.9628  0.2650
29659SOL    HW291295   5.547   8.118   6.862  0.2846  0.6530 -0.6636
29660SOL     OW91296   9.336   7.790   3.638  0.1000  0.1937 -0.4678
29660SOL    HW191297   9.405   7.828   3.692  0.4413  0.3845 -1.0306
29660SOL    HW291298   9.382   7.757   3.561 -0.4708  0.6104 -0.9960
29661SOL     OW91299   3.560   5.924   3.114  0.4508  0.6730  0.0566
29661SOL    HW191300   3.466   5.940   3.111 -0.0928 -2.0151  0.0379
29661SOL    HW291301   3.568   5.834   3.145  3.0648  1.0387  0.7239
29662SOL     OW91302   4.750   4.154  10.176 -0.2396 -0.2337  0.5268
29662SOL    HW191303   4.752   4.248  10.163  0.6926 -0.3759 -0.4723
29662SOL    HW291304   4.823   4.120  10.124  0.4218 -1.3635  2.1000
29663SOL     OW91305   3.821   5.635   1.623  0.8919 -0.1340 -0.1941
29663SOL    HW191306   3.814   5.616   1.530  0.8250  1.4453 -0.5303
29663SOL    HW291307   3.875   5.714   1.628  0.5130  0.0661  1.0816
29664SOL     OW91308   0.535   6.063   7.090  0.1428  0.0848 -0.0893
29664SOL    HW191309   0.604   6.034   7.030 -0.0887 -1.1378  0.1922
29664SOL    HW291310   0.461   6.084   7.033  0.8969  1.9866 -0.4423
29665SOL     OW91311   5.724   8.231   6.803 -0.5462 -0.2847 -0.0064
29665SOL    HW191312   5.742   8.175   6.878 -1.7119  0.9212  1.2357
29665SOL    HW291313   5.802   8.284   6.793 -0.5305 -0.1827  0.6185
29666SOL     OW91314   7.589   2.109   6.827 -0.3253 -0.6346  0.7190
29666SOL    HW191315   7.683   2.104   6.810 -0.2701 -0.4558  0.9619
29666SOL    HW291316   7.549   2.058   6.757 -0.2186  1.4034 -0.9251
29667SOL     OW91317  10.555  10.131   6.365  0.3128  0.1164 -0.1750
29667SOL    HW191318  10.517  10.066   6.424 -2.1007  0.9514 -0.6978
29667SOL    HW291319  10.609  10.186   6.423  0.6746 -1.0352  0.6320
29668SOL     OW91320   6.563   7.139   6.903 -0.0298  0.0649  0.3664
29668SOL    HW191321   6.558   7.196   6.826 -1.9737  2.1883  1.9096
29668SOL    HW291322   6.623   7.184   6.962  1.3465 -1.4789  0.2230
29669SOL     OW91323   7.399   1.364   3.798 -0.6291 -0.9206 -0.1782
29669SOL    HW191324   7.480   1.413   3.788  0.1304 -2.0291  0.2973
29669SOL    HW291325   7.330   1.423   3.768 -0.1202  1.5809  3.0462
29670SOL     OW91326   9.986   0.231   6.835 -0.0817 -0.2663 -0.2391
29670SOL    HW191327   9.905   0.270   6.803 -0.7297 -0.8798  0.6229
29670SOL    HW291328   9.985   0.142   6.800  0.1027 -0.3550 -0.0171
29671SOL     OW91329   4.008   5.998   3.248 -0.1226 -0.4949  0.4116
29671SOL    HW191330   3.970   6.055   3.315  1.1781  1.2295 -0.2621
29671SOL    HW291331   3.939   5.991   3.181 -1.5737 -2.5252  1.9905
29672SOL     OW91332  10.121   8.886   0.190 -0.3923  0.1640  0.4891
29672SOL    HW191333  10.037   8.912   0.229 -0.1034 -1.0774  2.0133
29672SOL    HW291334  10.113   8.792   0.174  0.7564 -0.0106  0.8198
29673SOL     OW91335   8.051   9.519  10.178  0.3201  0.3707 -0.4834
29673SOL    HW191336   8.097   9.603  10.179 -0.8924  1.0510  0.4513
29673SOL    HW291337   8.013   9.514  10.091 -0.4785  1.3065 -0.2080
29674SOL     OW91338   1.204   2.309  10.195  0.4922 -0.0694  0.0641
29674SOL    HW191339   1.182   2.339  10.283 -0.7894 -0.8851  0.0521
29674SOL    HW291340   1.280   2.361  10.170  0.9159  0.1336  1.6715
29675SOL     OW91341   8.626   8.080   3.650 -0.0291 -0.1886 -0.5957
29675SOL    HW191342   8.719   8.082   3.674  0.1772  1.3543 -1.3886
29675SOL    HW291343   8.580   8.113   3.727 -0.3196 -4.0297  1.0801
29676SOL     OW91344  10.390   3.347   8.539  0.0324 -0.1347  0.4114
29676SOL    HW191345  10.369   3.296   8.461  2.0582  0.4358 -0.5806
29676SOL    HW291346  10.428   3.428   8.505  1.1367  0.0578  1.9769
29677SOL     OW91347   4.521  10.120   7.994  0.2484 -0.4811 -0.1346
29677SOL    HW191348   4.435  10.159   8.010 -0.3969 -1.4671 -1.0414
29677SOL    HW291349   4.582  10.172   8.047 -0.7697  0.8082 -0.1844
29678SOL     OW91350   7.031   2.841   9.663 -0.3570 -0.0335  0.1696
29678SOL    HW191351   7.103   2.895   9.698 -1.3528  0.5353  1.4350
29678SOL    HW291352   6.979   2.901   9.610  0.9588 -0.8222 -2.1558
29679SOL     OW91353  10.412   4.158   7.610  0.5478  0.1448 -0.3276
29679SOL    HW191354  10.356   4.230   7.583  1.2355  0.0294 -2.2429
29679SOL    HW291355  10.450   4.186   7.693 -0.3874  1.3116 -0.2755
29680SOL     OW91356   7.926   6.503   7.000 -0.4408  0.2839  0.0232
29680SOL    HW191357   7.952   6.572   6.939  0.3328  0.8534  0.9782
29680SOL    HW291358   8.007   6.457   7.020 -0.7250 -0.0294  0.4551
29681SOL     OW91359   6.712  10.183   8.666 -0.2800  0.2542  0.3370
29681SOL    HW191360   6.691  10.123   8.595  1.9717 -1.5654  1.0674
29681SOL    HW291361   6.732  10.266   8.623  0.1544 -0.5582 -1.0882
29682SOL     OW91362  10.292   9.757   1.874  0.4851 -0.9583 -0.2856
29682SOL    HW191363  10.284   9.853   1.875  2.3312 -0.7544 -0.5813
29682SOL    HW291364  10.220   9.727   1.820  0.0300  0.2913 -0.4106
29683SOL     OW91365   6.838   4.797   4.313 -0.1727  0.2094  0.1905
29683SOL    HW191366   6.891   4.814   4.235 -0.7463 -0.6083 -0.3899
29683SOL    HW291367   6.748   4.796   4.282 -0.4096 -0.1352  0.8602
29684SOL     OW91368   3.262   0.119  10.258 -0.1138 -0.3014  0.2642
29684SOL    HW191369   3.196   0.183  10.231 -0.8064 -1.2848 -0.4436
29684SOL    HW291370   3.223   0.074  10.333  0.9242  0.9754  1.6236
29685SOL     OW91371   3.555   5.431  10.314 -0.3711  0.1798  0.8709
29685SOL    HW191372   3.617   5.375  10.360 -1.5052 -2.3245 -0.4582
29685SOL    HW291373   3.490   5.455  10.381  0.2939  0.2009  1.5239
29686SOL     OW91374   5.521   0.486   8.069 -0.5912 -0.0456 -0.0243
29686SOL    HW191375   5.581   0.439   8.010 -1.0427  0.3179 -0.7804
29686SOL    HW291376   5.557   0.470   8.156  0.8383  0.4855 -0.4906
29687SOL     OW91377   2.600   9.543   7.182 -0.0690  0.0322 -0.5099
29687SOL    HW191378   2.684   9.563   7.143 -0.1280 -0.0058 -0.6579
29687SOL    HW291379   2.536   9.562   7.113 -0.1913  0.1846 -0.3566
29688SOL     OW91380   8.658   3.293   8.983  0.1610 -0.6515  0.2679
29688SOL    HW191381   8.740   3.278   8.937  0.3743  1.0713  0.0270
29688SOL    HW291382   8.610   3.354   8.927 -1.1027 -1.2891  0.6239
29689SOL     OW91383   1.379   9.018   4.510 -0.6330 -0.1456  0.2173
29689SOL    HW191384   1.391   9.106   4.476 -2.3278 -0.3767 -1.0637
29689SOL    HW291385   1.465   8.995   4.547 -0.0851  1.9035  0.3396
29690SOL     OW91386   4.766   6.269   6.680  0.3708  0.0166  0.3403
29690SOL    HW191387   4.748   6.341   6.619  0.2391 -1.6302 -1.6885
29690SOL    HW291388   4.860   6.271   6.693  0.2663  1.1031  1.0699
29691SOL     OW91389   4.543   6.115   7.984 -0.1617 -0.3834  0.1526
29691SOL    HW191390   4.545   6.186   7.920 -0.6869  0.4481  1.0148
29691SOL    HW291391   4.450   6.094   7.993  0.0220 -1.4548 -0.3733
29692SOL     OW91392   3.568   3.391   4.196  0.1877  0.2142 -0.0636
29692SOL    HW191393   3.524   3.382   4.112  1.8232  2.6266 -1.2625
29692SOL    HW291394   3.580   3.300   4.226  0.9893 -0.8476 -3.1962
29693SOL     OW91395   1.170   2.068   7.578 -0.9226 -0.0739 -0.0414
29693SOL    HW191396   1.258   2.084   7.544 -0.1775  0.1044  1.8090
29693SOL    HW291397   1.111   2.090   7.506  0.4347  2.3972 -0.5082
29694SOL     OW91398   8.888   8.679   1.938  0.4372  0.3125  0.5153
29694SOL    HW191399   8.864   8.592   1.906 -0.2549  0.6524  0.1022
29694SOL    HW291400   8.930   8.721   1.863  1.4020  0.0992  0.9196
29695SOL     OW91401   6.928   6.844   0.651  0.0899 -0.4104 -0.2784
29695SOL    HW191402   6.987   6.771   0.631  2.6368  1.5688 -0.4928
29695SOL    HW291403   6.940   6.905   0.578  0.0201  1.3734  1.1293
29696SOL     OW91404   4.492   6.370   5.055 -0.0143 -0.0196  0.5571
29696SOL    HW191405   4.469   6.404   4.968 -0.2939 -1.9780 -0.1885
29696SOL    HW291406   4.410   6.374   5.104 -0.1756 -0.1506  0.3016
29697SOL     OW91407   7.960   5.122   9.823  1.1821 -0.0594  0.1702
29697SOL    HW191408   8.017   5.190   9.858 -0.3961  0.7820  1.2591
29697SOL    HW291409   7.940   5.151   9.733  0.2462  1.1605  0.7364
29698SOL     OW91410   9.387   7.263   9.065 -0.2527  0.5442 -0.4372
29698SOL    HW191411   9.455   7.245   9.000 -1.1054 -1.0389 -0.9302
29698SOL    HW291412   9.431   7.254   9.149  0.6112  1.5857 -0.7528
29699SOL     OW91413   3.581   4.002   0.304  0.3457 -0.2442 -0.2589
29699SOL    HW191414   3.657   4.050   0.271  0.6536 -1.4816 -1.4398
29699SOL    HW291415   3.536   3.971   0.226  0.2490 -1.9841  0.4412
29700SOL     OW91416   6.473   2.106   6.138 -0.5251  0.7389 -0.0397
29700SOL    HW191417   6.456   2.028   6.192 -0.9949 -0.8387 -2.3096
29700SOL    HW291418   6.402   2.106   6.074  0.3264  2.2025 -1.0311
29701SOL     OW91419   9.179   3.551   5.918 -0.2045 -0.0565  0.6905
29701SOL    HW191420   9.241   3.538   5.847 -0.6369  1.8588 -0.1066
29701SOL    HW291421   9.202   3.485   5.983  1.4338 -0.6026 -0.3937
29702SOL     OW91422   8.745   1.160  10.363  0.0196  0.0097  0.0782
29702SOL    HW191423   8.737   1.160  10.458  0.6998 -0.7943  0.1514
29702SOL    HW291424   8.655   1.158  10.330 -0.3540  2.7657  0.6411
29703SOL     OW91425  10.494   4.095   4.588  0.3660 -0.1181  0.4005
29703SOL    HW191426  10.454   4.012   4.564 -0.0962  0.6397 -1.6905
29703SOL    HW291427  10.570   4.102   4.530  0.0949  1.1274  0.1673
29704SOL     OW91428   7.006   0.037   2.288  0.1782  0.4936 -0.0476
29704SOL    HW191429   6.926   0.028   2.339  1.2669  0.9050  1.8393
29704SOL    HW291430   7.008   0.129   2.262 -0.5206  0.2205 -1.1407
29705SOL     OW91431   9.969   2.909   2.893  0.4279  0.1228  0.0980
29705SOL    HW191432   9.933   2.826   2.923 -0.1393  0.5597  0.6492
29705SOL    HW291433  10.057   2.887   2.860 -0.2397 -0.9182 -1.0741
29706SOL     OW91434   5.494   8.210   4.002 -0.1317 -0.2122 -0.0056
29706SOL    HW191435   5.431   8.139   4.019 -0.1174 -0.1737  0.2098
29706SOL    HW291436   5.470   8.278   4.064 -0.5806  0.2532 -0.6767
29707SOL     OW91437   4.952   7.602   0.576  0.2583 -0.4803 -0.1963
29707SOL    HW191438   4.965   7.614   0.670  1.1406  0.6769 -0.4435
29707SOL    HW291439   5.036   7.567   0.545 -0.2690 -1.5531 -0.4562
29708SOL     OW91440   3.204   2.650   1.905 -0.1025 -0.2220 -0.4202
29708SOL    HW191441   3.148   2.626   1.831 -0.9249  1.7485 -0.4775
29708SOL    HW291442   3.169   2.733   1.937  1.1329 -0.2888  1.2834
29709SOL     OW91443   6.894  10.588   4.004 -0.0474  0.4895  0.2342
29709SOL    HW191444   6.805  10.554   3.991 -0.0594  0.1848  1.0478
29709SOL    HW291445   6.949  10.536   3.945 -0.2831  0.0445  0.3993
29710SOL     OW91446  10.596   6.176   6.979  0.5250 -0.3093 -0.3164
29710SOL    HW191447  10.663   6.182   7.047 -0.8138  0.8224  0.9775
29710SOL    HW291448  10.534   6.111   7.012 -1.3498  1.8944  0.7572
29711SOL     OW91449   2.123   0.953   7.393 -0.0605 -0.6153 -0.1242
29711SOL    HW191450   2.131   0.857   7.394  2.6219 -0.4848 -0.1503
29711SOL    HW291451   2.175   0.981   7.469 -3.5815  0.7857  2.0016
29712SOL     OW91452   4.495   4.558   9.018 -0.5311  0.0587 -0.0699
29712SOL    HW191453   4.457   4.643   8.996 -0.7517  0.8942  3.0772
29712SOL    HW291454   4.590   4.573   9.014 -0.5250  1.2168  2.6815
29713SOL     OW91455   1.991  10.303   1.195  0.4544 -0.2544  0.2209
29713SOL    HW191456   1.966  10.263   1.279  1.0165 -0.3790  0.3383
29713SOL    HW291457   2.006  10.228   1.137 -0.2845 -0.1596 -0.1018
29714SOL     OW91458   9.316  10.483   0.908  0.3188 -0.0691  0.2553
29714SOL    HW191459   9.288  10.574   0.911  1.6307  0.4972 -2.0432
29714SOL    HW291460   9.376  10.474   0.982  2.5821  1.9059 -1.1936
29715SOL     OW91461   7.949   2.401   9.042 -0.5122 -0.6515 -0.2007
29715SOL    HW191462   7.948   2.413   9.137  0.2780 -0.2745 -0.2327
29715SOL    HW291463   7.857   2.401   9.017 -0.6982  0.2666  0.4451
29716SOL     OW91464   3.476   4.191  10.120 -0.0627 -0.3842  0.0177
29716SOL    HW191465   3.481   4.134  10.043  0.4693  0.6363 -0.7316
29716SOL    HW291466   3.567   4.197  10.150 -0.2805 -0.8487  0.7914
29717SOL     OW91467   8.674   8.865   3.179  0.3433  0.6858 -0.3085
29717SOL    HW191468   8.756   8.907   3.149  0.4610  0.3926 -0.3983
29717SOL    HW291469   8.687   8.772   3.161 -0.1295  0.6711 -0.5950
29718SOL     OW91470   7.026   8.084   2.512 -0.1708 -0.2677  0.4695
29718SOL    HW191471   7.035   8.020   2.442 -0.6791 -0.4542  0.5704
29718SOL    HW291472   6.958   8.047   2.570 -0.0121  0.0542  0.8655
29719SOL     OW91473  10.490   3.613   1.624  0.1252 -0.1188  0.1098
29719SOL    HW191474  10.499   3.657   1.540 -1.3563 -0.3368 -0.1901
29719SOL    HW291475  10.549   3.661   1.683  1.1217  0.0728 -1.0169
29720SOL     OW91476   7.371   0.750   2.643 -0.1501 -0.2985  0.0757
29720SOL    HW191477   7.328   0.665   2.656  3.1277 -2.4350 -1.5249
29720SOL    HW291478   7.419   0.765   2.724 -0.4270 -0.1647  0.2155
29721SOL     OW91479   9.812   5.555   3.602  0.3469  0.2035 -0.0207
29721SOL    HW191480   9.873   5.489   3.570 -1.4540 -0.5240 -2.2365
29721SOL    HW291481   9.728   5.508   3.608 -0.3094  1.4985  1.6020
29722SOL     OW91482   1.542   8.784   1.127  0.1289  0.6023  0.3526
29722SOL    HW191483   1.462   8.746   1.091  0.0190  0.7270  0.4615
29722SOL    HW291484   1.551   8.743   1.213  1.7894 -1.6689 -0.7897
29723SOL     OW91485   2.785   4.962   2.730 -0.0338 -0.0562 -0.2017
29723SOL    HW191486   2.771   5.052   2.759 -1.0864  0.1720 -1.3729
29723SOL    HW291487   2.699   4.931   2.704  0.4202 -1.2068 -0.4078
29724SOL     OW91488   1.509   7.298   6.738  0.4696  0.3414 -0.4215
29724SOL    HW191489   1.545   7.310   6.650 -0.5477  0.8103 -0.7919
29724SOL    HW291490   1.414   7.296   6.724  0.3552 -1.7378  0.4090
29725SOL     OW91491   1.666   2.708   3.153  0.0284 -0.1234  0.3750
29725SOL    HW191492   1.712   2.783   3.116  0.2002  0.0218  0.8889
29725SOL    HW291493   1.580   2.709   3.110  1.2199 -1.6771 -2.2960
29726SOL     OW91494   4.801   1.195   9.588 -0.3595  0.3668 -0.2450
29726SOL    HW191495   4.897   1.192   9.589 -0.2857  1.8709 -0.0811
29726SOL    HW291496   4.780   1.288   9.592 -1.8524  0.0194  0.6831
29727SOL     OW91497   9.854   7.546   0.176 -0.0895  0.1012  0.2711
29727SOL    HW191498   9.835   7.476   0.239 -0.5460 -0.4075 -0.4201
29727SOL    HW291499   9.880   7.499   0.097  5.4238  0.6091  1.3748
29728SOL     OW91500   1.971   3.346   7.191 -0.5352 -0.0947 -0.2730
29728SOL    HW191501   1.900   3.282   7.195  0.9912 -1.9669 -1.0000
29728SOL    HW291502   2.016   3.337   7.275 -0.0510 -0.3495 -0.5496
29729SOL     OW91503   7.430   0.514   1.752  0.5978 -0.4168 -0.8275
29729SOL    HW191504   7.392   0.481   1.671  1.3843  0.2032 -1.4652
29729SOL    HW291505   7.523   0.525   1.733  0.8619 -0.5765  0.2659
29730SOL     OW91506   7.523   9.316   2.519 -0.2595  0.5673 -0.3197
29730SOL    HW191507   7.596   9.300   2.459 -0.1715  2.3459 -0.7575
29730SOL    HW291508   7.562   9.307   2.606  0.0789 -0.0999 -0.5292
29731SOL     OW91509   4.715   9.746   7.764 -0.1667 -0.1097  0.0671
29731SOL    HW191510   4.643   9.738   7.826 -0.0669  0.2004  0.2214
29731SOL    HW291511   4.735   9.655   7.739  0.3336 -0.3007  1.1104
29732SOL     OW91512   9.315   1.977   8.939  0.0790  0.0638 -0.6426
29732SOL    HW191513   9.275   1.910   8.884 -1.2275  2.1980 -2.4662
29732SOL    HW291514   9.290   1.953   9.028  1.4329 -2.9586 -0.9653
29733SOL     OW91515   6.788   8.216   3.210  0.9989 -0.4547 -0.4615
29733SOL    HW191516   6.806   8.297   3.161  0.3846 -0.2734 -0.3909
29733SOL    HW291517   6.754   8.156   3.145  1.4567 -0.6633 -0.5135
29734SOL     OW91518   2.286   4.913   8.106  0.7640  0.6021 -0.1238
29734SOL    HW191519   2.216   4.972   8.134  0.1904 -1.0517  2.1799
29734SOL    HW291520   2.367   4.960   8.127  0.3218  0.6473  1.5897
29735SOL     OW91521   6.267  10.341   3.417  0.0412 -0.1077 -0.0963
29735SOL    HW191522   6.277  10.373   3.507 -1.3456  0.7982 -0.2199
29735SOL    HW291523   6.288  10.417   3.363 -2.7564  0.5531 -0.4168
29736SOL     OW91524   4.065   9.647   7.621  0.4005 -0.0530  0.0403
29736SOL    HW191525   4.144   9.691   7.653  0.7940 -0.3662 -0.4745
29736SOL    HW291526   3.993   9.702   7.650  0.5281 -1.5324  3.6253
29737SOL     OW91527   5.602   6.434   7.196  0.0420 -0.3105  0.0442
29737SOL    HW191528   5.584   6.435   7.102  0.1287  0.3416  0.0300
29737SOL    HW291529   5.577   6.346   7.224 -1.7639  0.0546 -0.2603
29738SOL     OW91530   6.325   9.298   1.650  0.6524 -0.2461 -0.3284
29738SOL    HW191531   6.311   9.263   1.562 -0.6186 -0.0964 -0.2112
29738SOL    HW291532   6.269   9.244   1.706  1.9440 -0.7676  0.4994
29739SOL     OW91533   8.106   0.716   0.107 -0.1244 -0.3908  0.0638
29739SOL    HW191534   8.148   0.763   0.178  0.0187  0.4946 -0.5868
29739SOL    HW291535   8.052   0.782   0.063 -0.7896 -1.0937 -0.1987
29740SOL     OW91536   1.099   3.296   6.965  0.4314  0.2851 -0.2602
29740SOL    HW191537   1.021   3.283   7.019  2.1355 -1.3532  1.9857
29740SOL    HW291538   1.157   3.349   7.019  0.9111  1.5439 -1.9219
29741SOL     OW91539   6.374   8.259   0.717 -0.0349  0.0889 -0.2890
29741SOL    HW191540   6.411   8.316   0.784  0.2647 -0.4021 -0.0255
29741SOL    HW291541   6.381   8.309   0.636  2.4630 -0.4643 -0.4948
29742SOL     OW91542   0.423   4.027   0.484 -0.0094  0.2430 -0.1293
29742SOL    HW191543   0.476   3.953   0.454  0.8599  0.3610  1.0098
29742SOL    HW291544   0.485   4.081   0.534 -0.6866  1.6058 -0.7223
29743SOL     OW91545   2.302   1.027   6.833 -0.0371 -0.2938  0.8251
29743SOL    HW191546   2.258   1.014   6.917 -1.4943 -0.3333  0.1012
29743SOL    HW291547   2.362   1.099   6.848 -0.2895 -0.2917  1.8967
29744SOL     OW91548   6.801   2.439   6.260  0.4472 -0.5689  0.1370
29744SOL    HW191549   6.829   2.481   6.179  1.3411 -0.4316  0.4979
29744SOL    HW291550   6.855   2.481   6.328 -0.4628 -0.4994  0.8341
29745SOL     OW91551   5.806   1.493   9.819  0.3606  0.0175  0.0158
29745SOL    HW191552   5.835   1.523   9.905 -0.3071  1.6618 -0.3001
29745SOL    HW291553   5.871   1.530   9.758  0.0217  0.0899 -0.3056
29746SOL     OW91554   1.631   0.136   6.500 -0.2099  0.0355 -0.5778
29746SOL    HW191555   1.718   0.173   6.517 -0.1043 -0.4305 -0.0329
29746SOL    HW291556   1.600   0.181   6.422 -1.1839  3.1254  1.4449
29747SOL     OW91557  10.428  10.165   5.169 -0.0501 -0.3327  0.0392
29747SOL    HW191558  10.379  10.106   5.227 -0.5934  0.1809  0.1159
29747SOL    HW291559  10.458  10.235   5.227  1.6735 -1.1462  0.1971
29748SOL     OW91560   0.642   4.447   9.793 -0.4837 -0.3164  0.1518
29748SOL    HW191561   0.671   4.493   9.714  0.0979 -1.1804 -0.1500
29748SOL    HW291562   0.686   4.362   9.789  0.0752 -0.1326  1.7432
29749SOL     OW91563   9.082   4.283   4.506 -0.3599  0.1067 -0.3552
29749SOL    HW191564   9.120   4.332   4.434 -1.0291 -0.5052 -1.1445
29749SOL    HW291565   9.093   4.191   4.481  0.8459 -0.1799  1.0814
29750SOL     OW91566   1.441   8.289   6.604 -0.2958  0.0053  0.1891
29750SOL    HW191567   1.434   8.298   6.509 -0.4110  0.9090  0.2757
29750SOL    HW291568   1.522   8.334   6.626 -0.2108 -0.3048  0.5052
29751SOL     OW91569   4.948   3.901   2.174  0.2920  0.8003  0.5275
29751SOL    HW191570   5.002   3.837   2.128 -0.7056  0.3847 -0.0997
29751SOL    HW291571   4.961   3.982   2.125  2.2575  1.3643  1.8469
29752SOL     OW91572   4.054   8.416   7.147  0.0562  0.4548  0.1579
29752SOL    HW191573   4.113   8.430   7.221  2.7515 -2.9272 -1.1076
29752SOL    HW291574   3.982   8.365   7.184  2.7831 -3.8037  0.2478
29753SOL     OW91575   0.164   7.956  10.399 -0.2508 -0.0624 -0.0454
29753SOL    HW191576   0.174   7.999  10.484  0.9187 -0.2153 -0.0905
29753SOL    HW291577   0.173   7.863  10.419 -0.2507 -0.1169 -0.3073
29754SOL     OW91578   2.841  10.365   3.568 -0.6566 -0.0187 -0.1202
29754SOL    HW191579   2.884  10.344   3.652 -2.0750 -0.5790  0.4996
29754SOL    HW291580   2.750  10.380   3.592 -0.8035  1.2559 -1.3931
29755SOL     OW91581   4.075   2.168   7.025  0.5233  0.0515  0.2076
29755SOL    HW191582   4.009   2.103   7.048  0.7000 -0.4243 -0.5882
29755SOL    HW291583   4.110   2.138   6.941  1.3034  0.6400  0.3100
29756SOL     OW91584  10.480   6.987   9.569 -0.0327 -0.8798 -0.1603
29756SOL    HW191585  10.523   6.937   9.500 -0.4050 -0.9561 -0.3407
29756SOL    HW291586  10.435   6.922   9.622 -2.0301 -0.6309 -1.4473
29757SOL     OW91587   5.465   4.350   1.250  0.5826  0.5198  0.2498
29757SOL    HW191588   5.482   4.354   1.156  0.0384 -1.8336 -0.0134
29757SOL    HW291589   5.512   4.272   1.280 -0.7465  0.1736  1.5718
29758SOL     OW91590   6.813   9.948   5.523 -0.2122 -0.0894 -0.0999
29758SOL    HW191591   6.798   9.857   5.549 -0.0360 -0.1284 -0.1345
29758SOL    HW291592   6.791   9.999   5.601 -0.0220 -0.1817  0.0138
29759SOL     OW91593   5.599   1.943   3.374  0.3620 -0.0082 -0.1964
29759SOL    HW191594   5.635   2.030   3.391  1.0202 -0.6778  2.1279
29759SOL    HW291595   5.674   1.883   3.381 -0.5478 -1.0462  1.1181
29760SOL     OW91596   5.727   7.043  10.419  0.2022 -0.2618  0.0687
29760SOL    HW191597   5.650   7.100  10.418 -0.5233 -1.2152 -1.6509
29760SOL    HW291598   5.802   7.103  10.417 -0.4539  0.6662  1.4938
29761SOL     OW91599   1.475   8.196   7.168  0.2998  0.1041 -0.2772
29761SOL    HW191600   1.498   8.283   7.135 -2.0379  1.4579  1.3268
29761SOL    HW291601   1.420   8.158   7.100  0.2703  0.4259 -0.4351
29762SOL     OW91602   3.261   6.416   1.934  0.7886 -0.1498  0.2198
29762SOL    HW191603   3.320   6.475   1.885 -1.0536  2.1654  0.5946
29762SOL    HW291604   3.191   6.396   1.872 -2.0911  3.5902  1.8635
29763SOL     OW91605   8.237   1.814   7.654  0.5591  0.0719  0.4989
29763SOL    HW191606   8.253   1.720   7.653 -0.6075 -0.1572  1.2084
29763SOL    HW291607   8.261   1.842   7.743 -0.1107  0.2384  0.6335
29764SOL     OW91608   2.760  10.532   0.184 -0.1467 -0.0595  0.6731
29764SOL    HW191609   2.794  10.470   0.119 -3.2725 -0.8560 -0.3805
29764SOL    HW291610   2.719  10.478   0.251  0.2296  0.8303  1.6540
29765SOL     OW91611   4.958   1.162   3.526 -0.0157 -0.6981  0.0681
29765SOL    HW191612   5.007   1.144   3.446  1.1882 -0.2024  0.6738
29765SOL    HW291613   5.003   1.111   3.594  1.9411  2.4241  1.3374
29766SOL     OW91614   2.636   3.671   9.415 -0.4494 -0.0366  0.7158
29766SOL    HW191615   2.586   3.591   9.432 -0.2714 -0.1822  0.5563
29766SOL    HW291616   2.720   3.657   9.459  0.3127 -0.7375 -0.8745
29767SOL     OW91617   2.128   0.629   1.911  0.5686  0.4912  0.6235
29767SOL    HW191618   2.219   0.658   1.915  0.9463 -0.3665 -0.9350
29767SOL    HW291619   2.099   0.628   2.003  2.1949  0.5567  1.1676
29768SOL     OW91620   3.241   4.854   9.568 -0.5451  0.7244  0.1020
29768SOL    HW191621   3.287   4.901   9.638 -1.2525 -0.0603  1.1214
29768SOL    HW291622   3.229   4.766   9.603 -2.6637  0.8462 -0.1977
29769SOL     OW91623   4.767   5.480   4.303  0.0940  0.6860  0.3682
29769SOL    HW191624   4.740   5.442   4.387  0.1236  0.8614  0.4559
29769SOL    HW291625   4.757   5.408   4.241  0.2289  0.5091  0.5507
29770SOL     OW91626   7.911   6.710   7.824  0.1007 -0.5838  0.1709
29770SOL    HW191627   7.981   6.755   7.776 -0.4086 -0.0616 -0.0920
29770SOL    HW291628   7.950   6.627   7.851  1.5272  0.5681  1.8711
29771SOL     OW91629   1.909   9.303   1.415 -0.6723  0.4748 -0.1988
29771SOL    HW191630   1.858   9.226   1.390  0.5804 -0.1067 -1.0356
29771SOL    HW291631   1.845   9.374   1.419 -1.3078  0.1759 -3.0571
29772SOL     OW91632  10.141   7.048   4.404  0.0831 -0.0667 -0.3498
29772SOL    HW191633  10.214   6.996   4.439 -1.5877 -1.8362  0.7063
29772SOL    HW291634  10.167   7.139   4.417  2.0673 -0.6501  0.0303
29773SOL     OW91635   4.329   6.465   6.276 -0.3972 -0.8535  0.5188
29773SOL    HW191636   4.355   6.373   6.271  1.1375 -0.4423  0.4124
29773SOL    HW291637   4.410   6.512   6.297 -0.7610  0.6874 -1.2901
29774SOL     OW91638   1.794   4.362   4.108 -0.4209  0.0904 -0.1090
29774SOL    HW191639   1.782   4.357   4.203 -0.4758 -0.2743 -0.1330
29774SOL    HW291640   1.857   4.433   4.095 -1.7080  1.3127  0.0849
29775SOL     OW91641   1.727   1.596  10.453  0.0856  0.6543 -0.8970
29775SOL    HW191642   1.733   1.517  10.400  0.1771  0.5179 -0.6822
29775SOL    HW291643   1.723   1.668  10.389  1.3911  0.5785 -1.0776
29776SOL     OW91644   7.374   4.386   3.926 -0.1300 -0.0671  0.2273
29776SOL    HW191645   7.395   4.293   3.934 -2.3117 -0.4343  3.0537
29776SOL    HW291646   7.455   4.431   3.952  1.1116 -1.0644 -1.6377
29777SOL     OW91647   3.338   1.936   8.779  0.6295  0.4153 -0.5640
29777SOL    HW191648   3.413   1.985   8.811  0.8912 -0.7383  0.7387
29777SOL    HW291649   3.269   1.951   8.845  0.1636  0.3932 -1.0359
29778SOL     OW91650   5.280   8.267   8.413 -0.1358  0.1389  0.3120
29778SOL    HW191651   5.248   8.297   8.498 -1.7136 -0.1644 -0.1358
29778SOL    HW291652   5.307   8.347   8.368 -0.0727  0.3923  0.7947
29779SOL     OW91653   2.453   8.163   3.986  0.6381  0.2203 -0.4930
29779SOL    HW191654   2.411   8.174   3.900 -0.0918 -0.9972 -0.3190
29779SOL    HW291655   2.436   8.245   4.032 -1.0240  0.0029 -0.6616
29780SOL     OW91656   9.759   3.211   0.311 -0.3050  0.4074  0.3764
29780SOL    HW191657   9.787   3.286   0.259 -0.0751  0.0818  0.0232
29780SOL    HW291658   9.758   3.243   0.402 -1.4907  1.2106  0.1024
29781SOL     OW91659   2.809   0.403   4.730 -0.1040  0.2214  0.5090
29781SOL    HW191660   2.764   0.407   4.645 -0.1683  1.0970  0.5750
29781SOL    HW291661   2.838   0.492   4.746 -0.8483  0.2477  1.8250
29782SOL     OW91662   1.729   8.818   6.107  0.8818 -0.4169 -0.6657
29782SOL    HW191663   1.727   8.797   6.200 -0.1543 -1.5063 -0.9105
29782SOL    HW291664   1.680   8.900   6.099 -0.2175 -1.0316 -0.4000
29783SOL     OW91665   8.961   7.474  10.372 -0.3723  0.4937  0.2410
29783SOL    HW191666   8.913   7.393  10.390  1.8399 -0.5995  1.6673
29783SOL    HW291667   8.953   7.526  10.453 -0.2769  0.8915  0.0012
29784SOL     OW91668   3.272   8.514   0.042  0.4203  0.0015  0.1933
29784SOL    HW191669   3.188   8.477   0.069 -0.4497  0.6933 -1.4340
29784SOL    HW291670   3.335   8.442   0.052 -0.4713 -0.6959  0.8892
29785SOL     OW91671   3.182   0.999   7.604  0.0641 -0.0548 -0.4222
29785SOL    HW191672   3.171   1.094   7.596 -1.0853 -0.0158  1.0559
29785SOL    HW291673   3.266   0.989   7.648 -0.8309  0.4431  1.5150
29786SOL     OW91674   7.555   2.135   0.025  0.1517 -0.6164  0.1226
29786SOL    HW191675   7.632   2.106   0.074  1.9565  1.6204 -1.2048
29786SOL    HW291676   7.487   2.146   0.091  0.8655 -2.7988  1.3239
29787SOL     OW91677   7.686   3.120   7.431  0.3674 -0.0852 -0.3046
29787SOL    HW191678   7.775   3.144   7.407 -0.0984 -0.2302 -2.3614
29787SOL    HW291679   7.631   3.168   7.369 -0.8948 -1.2310 -0.1264
29788SOL     OW91680   1.230   1.073   4.579 -1.1012  0.0385 -0.2470
29788SOL    HW191681   1.211   1.125   4.500 -1.4030 -1.6417 -1.3387
29788SOL    HW291682   1.205   1.130   4.652 -0.3004  1.8564 -1.3199
29789SOL     OW91683   9.542   7.105   7.655  0.6071 -0.1605 -0.0715
29789SOL    HW191684   9.491   7.166   7.603 -2.7524 -0.3486  2.6710
29789SOL    HW291685   9.616   7.157   7.687 -0.8540  1.8437  0.2421
29790SOL     OW91686   2.340   7.758   5.386  0.6015 -0.0155  0.0167
29790SOL    HW191687   2.387   7.679   5.412 -0.2356 -1.3463 -2.2109
29790SOL    HW291688   2.368   7.774   5.297 -1.7877  0.1396 -0.7878
29791SOL     OW91689   3.026   4.491   2.731 -0.5728 -0.4193  0.3047
29791SOL    HW191690   3.110   4.447   2.741  0.2301  0.5887 -1.5540
29791SOL    HW291691   2.999   4.471   2.641 -0.5978  2.0952 -0.3291
29792SOL     OW91692   7.336   6.844   5.100 -0.0059 -0.0412 -0.0167
29792SOL    HW191693   7.255   6.862   5.147 -0.5245  1.6313 -1.4459
29792SOL    HW291694   7.400   6.823   5.168 -1.6112 -1.4270  1.1417
29793SOL     OW91695   5.338   4.583   1.258  0.5330 -0.3136  0.1656
29793SOL    HW191696   5.271   4.590   1.327  0.0068  0.5880 -0.4238
29793SOL    HW291697   5.387   4.504   1.281 -2.8056 -3.0768 -1.1829
29794SOL     OW91698   9.667   0.596   7.892 -0.6472  0.0795  0.4428
29794SOL    HW191699   9.701   0.564   7.976 -3.7385 -1.0701  1.3963
29794SOL    HW291700   9.631   0.682   7.912 -0.4024  0.2819  0.0251
29795SOL     OW91701   2.988   2.685   6.601 -0.1459  0.3058  0.4790
29795SOL    HW191702   2.892   2.690   6.594 -0.3866 -0.2253  2.6449
29795SOL    HW291703   3.008   2.592   6.587  0.3324  0.6979 -1.9747
29796SOL     OW91704   5.168   8.562   2.998 -0.6099  0.0762 -0.1975
29796SOL    HW191705   5.256   8.525   2.989 -0.3962  0.0885  1.5943
29796SOL    HW291706   5.163   8.591   3.089 -1.7206  2.0282 -0.8237
29797SOL     OW91707   8.522   4.408   9.170 -0.0513 -0.4947  0.1822
29797SOL    HW191708   8.497   4.326   9.212 -0.1653 -0.6568 -0.2021
29797SOL    HW291709   8.617   4.412   9.180  0.1156 -1.2805 -0.8723
29798SOL     OW91710   8.292   0.559   8.060  0.3350 -0.0446  0.1924
29798SOL    HW191711   8.259   0.587   8.145  1.9902 -0.2747  0.9420
29798SOL    HW291712   8.331   0.473   8.076  0.0734 -0.3884 -0.9390
29799SOL     OW91713   7.488   1.691   1.083 -0.0220 -0.2586 -0.3320
29799SOL    HW191714   7.531   1.766   1.125  0.9929 -0.8270 -0.3269
29799SOL    HW291715   7.544   1.616   1.104 -0.3822 -0.8312 -1.3326
29800SOL     OW91716   3.721   8.659   7.575 -0.0893 -0.4145  0.3599
29800SOL    HW191717   3.647   8.719   7.575 -0.6600 -1.0933  0.7174
29800SOL    HW291718   3.691   8.584   7.523  0.0415 -1.0266  1.1327
29801SOL     OW91719   3.063   3.301   6.511  0.1022 -0.2270  0.0309
29801SOL    HW191720   3.079   3.384   6.467 -2.5352  0.1034 -0.4498
29801SOL    HW291721   3.038   3.241   6.440 -0.5631 -0.6911  0.6436
29802SOL     OW91722  10.319   2.243   2.437  0.0418  0.3322  0.7266
29802SOL    HW191723  10.340   2.185   2.510 -0.3052 -0.9620 -0.1570
29802SOL    HW291724  10.387   2.226   2.372 -0.5268  0.3013  0.1240
29803SOL     OW91725   1.311  10.232   2.022  0.4672 -0.3422  0.2990
29803SOL    HW191726   1.259  10.162   2.061  0.2568 -0.0975  0.4623
29803SOL    HW291727   1.357  10.272   2.095  2.7425 -2.0401 -0.0970
29804SOL     OW91728   5.186   2.229   5.303  0.5007  0.0443 -0.2389
29804SOL    HW191729   5.162   2.304   5.357 -3.9916 -0.8248 -0.6398
29804SOL    HW291730   5.210   2.160   5.365  0.0362  0.4535  0.4040
29805SOL     OW91731   8.845   7.968   5.006  0.2587 -0.3076 -0.1752
29805SOL    HW191732   8.863   7.915   5.084  0.6804 -0.9391 -0.6901
29805SOL    HW291733   8.864   8.057   5.033  1.6659 -0.6641  0.0785
29806SOL     OW91734   6.753   2.990   4.388 -0.0150 -0.3051 -0.0092
29806SOL    HW191735   6.763   2.970   4.295 -0.7574  1.7184 -0.5880
29806SOL    HW291736   6.693   3.065   4.390 -3.8115 -3.0098  2.3304
29807SOL     OW91737   9.806   3.858  10.169 -0.2640  0.3879 -0.4242
29807SOL    HW191738   9.761   3.861  10.253  1.3085 -0.1153  0.4815
29807SOL    HW291739   9.851   3.774  10.169  1.1843  1.1197 -0.9839
29808SOL     OW91740   3.519   5.804   2.321  0.0245 -0.2795 -0.5562
29808SOL    HW191741   3.540   5.852   2.402  1.9673  0.7134 -1.5669
29808SOL    HW291742   3.590   5.827   2.261 -0.7857 -1.8509 -2.2061
29809SOL     OW91743   2.346   7.289   2.187 -0.0086  0.8570 -0.1142
29809SOL    HW191744   2.345   7.274   2.281 -0.0280  0.2948 -0.2013
29809SOL    HW291745   2.439   7.298   2.165 -0.0964  3.5461  0.3394
29810SOL     OW91746   5.048   3.133   1.328  0.3400  0.2021 -0.6190
29810SOL    HW191747   4.979   3.182   1.372 -0.2986  0.5197 -1.9358
29810SOL    HW291748   5.121   3.135   1.390 -0.6386  0.3046  0.5774
29811SOL     OW91749   8.852   7.789   4.377 -0.2808 -0.2912  0.4079
29811SOL    HW191750   8.798   7.720   4.340 -1.1716  0.0720  1.0075
29811SOL    HW291751   8.812   7.871   4.346 -0.6476  0.0012  1.6190
29812SOL     OW91752   4.006   4.890   0.381  0.4792 -0.2948 -0.0012
29812SOL    HW191753   4.055   4.924   0.455 -1.1797 -0.0041  1.0108
29812SOL    HW291754   3.914   4.899   0.407 -0.1004 -1.6186 -1.4537
29813SOL     OW91755   5.081   6.197   1.476  0.2578  0.0417  0.2302
29813SOL    HW191756   5.015   6.128   1.479  1.0786 -0.7930 -0.6321
29813SOL    HW291757   5.101   6.215   1.568  0.7804 -1.6121  0.4775
29814SOL     OW91758   1.134   1.590   0.779  0.6386  0.4202 -0.1756
29814SOL    HW191759   1.172   1.658   0.833  0.1856  1.1675 -0.7700
29814SOL    HW291760   1.062   1.555   0.832  1.1379  0.0936  0.3025
29815SOL     OW91761   2.478   5.647   4.694  0.4888 -0.7381 -0.8269
29815SOL    HW191762   2.452   5.638   4.786 -1.7607  0.9901 -1.2189
29815SOL    HW291763   2.449   5.566   4.653 -1.0149 -0.3937 -0.5080
29816SOL     OW91764   8.970   9.537   9.239 -0.4119 -0.1191 -0.5905
29816SOL    HW191765   8.974   9.443   9.255 -0.9324 -0.0917 -0.2595
29816SOL    HW291766   8.894   9.566   9.290 -1.7073  0.0845 -2.5280
29817SOL     OW91767   7.515   7.601   6.356 -0.1147 -0.3478  0.2313
29817SOL    HW191768   7.504   7.506   6.354  3.1519 -0.8363 -0.0680
29817SOL    HW291769   7.508   7.624   6.449 -1.4982 -0.7473  0.2479
29818SOL     OW91770   9.424   1.913  10.211  0.8241 -0.1680 -0.1738
29818SOL    HW191771   9.371   1.930  10.289  1.2204  1.2140 -0.1890
29818SOL    HW291772   9.399   1.824  10.185  0.3923 -0.5049  1.2841
29819SOL     OW91773   5.747   8.572   4.152  0.1290 -0.9619  0.1951
29819SOL    HW191774   5.668   8.616   4.183  1.3383  0.7439  1.0022
29819SOL    HW291775   5.774   8.517   4.225 -0.1663 -1.3531  0.0123
29820SOL     OW91776   9.916   3.467   0.204  0.5888 -0.4629 -0.3660
29820SOL    HW191777   9.989   3.456   0.143 -0.3688 -1.9729 -1.2976
29820SOL    HW291778   9.887   3.557   0.190  0.8643 -0.5491 -1.5944
29821SOL     OW91779   8.607   7.300   5.588  0.2923  0.6277 -0.1752
29821SOL    HW191780   8.512   7.290   5.601  0.2119  1.0096 -0.4527
29821SOL    HW291781   8.618   7.392   5.563  0.7814  0.6875  0.2464
29822SOL     OW91782   0.935   9.753   6.913 -1.0091  0.0783 -0.0672
29822SOL    HW191783   0.925   9.825   6.851 -2.8914  2.0210  2.2754
29822SOL    HW291784   1.003   9.783   6.974 -2.9831  0.8271  1.9346
29823SOL     OW91785   7.505   5.946   9.637  0.0587  0.6372 -1.2937
29823SOL    HW191786   7.501   6.031   9.681 -1.6807  1.1669 -2.3873
29823SOL    HW291787   7.426   5.943   9.583 -0.0251 -1.7698 -1.1354
29824SOL     OW91788   0.164   1.557  10.100 -0.3921  0.6727  0.0146
29824SOL    HW191789   0.107   1.632  10.111  1.2263  1.9059  0.3701
29824SOL    HW291790   0.151   1.504  10.179  0.1561  1.7846  0.8710
29825SOL     OW91791   0.580  10.310   5.361 -0.6378 -0.3577 -0.1909
29825SOL    HW191792   0.595  10.248   5.431  0.4884 -0.6978 -0.7108
29825SOL    HW291793   0.614  10.393   5.394  0.0213 -0.5492 -0.3835
29826SOL     OW91794   8.451   3.958   3.961 -0.7116 -0.4001  0.1463
29826SOL    HW191795   8.440   3.864   3.949  1.9738 -0.9965  1.4556
29826SOL    HW291796   8.486   3.989   3.878 -1.4545 -0.5818 -0.2372
29827SOL     OW91797   5.588   7.122   7.732 -0.2985  0.4289  0.1078
29827SOL    HW191798   5.561   7.037   7.697 -1.4538  0.4520  0.8930
29827SOL    HW291799   5.618   7.170   7.655  1.2397 -0.9646 -0.2356
29828SOL     OW91800   1.986   2.380   7.067  0.2791 -0.0519  0.3608
29828SOL    HW191801   2.017   2.432   7.141  0.7966  0.3534 -0.1346
29828SOL    HW291802   1.903   2.421   7.042  0.1316 -0.1554  0.6814
29829SOL     OW91803   4.767   2.401   5.503  0.6609 -0.5217 -0.3382
29829SOL    HW191804   4.778   2.493   5.527 -0.7074 -0.2628 -0.6446
29829SOL    HW291805   4.752   2.356   5.586 -0.3512 -0.2033 -0.3420
29830SOL     OW91806   7.366   2.260   2.785  0.8250 -0.1470 -0.6373
29830SOL    HW191807   7.459   2.281   2.773  0.6525  0.5783 -0.7865
29830SOL    HW291808   7.359   2.234   2.877  0.8416  1.8527 -0.0121
29831SOL     OW91809   2.120   4.076   9.670  0.6402 -0.0067 -0.3805
29831SOL    HW191810   2.087   4.006   9.726  0.4319  1.2480  1.1440
29831SOL    HW291811   2.215   4.075   9.683  0.5063  0.9718  0.9209
29832SOL     OW91812   9.209   8.683   9.027 -0.0624 -0.1551  0.5957
29832SOL    HW191813   9.302   8.664   9.030  0.4117  1.6967 -0.5706
29832SOL    HW291814   9.167   8.598   9.018  1.7805 -0.8886 -3.0038
29833SOL     OW91815   3.750   2.097   1.086  0.5514 -0.3832  0.8347
29833SOL    HW191816   3.821   2.134   1.033 -1.5851  0.6026 -1.5377
29833SOL    HW291817   3.748   2.005   1.061  1.6875 -0.6874  1.7892
29834SOL     OW91818   8.753   9.432   0.998 -0.1829  0.2302 -0.1523
29834SOL    HW191819   8.843   9.416   1.025 -0.1489  2.0262  0.9632
29834SOL    HW291820   8.747   9.397   0.909  0.9835 -1.8349  0.5075
29835SOL     OW91821   4.643   6.214   9.534  0.5455  0.0829 -0.7249
29835SOL    HW191822   4.719   6.171   9.572 -0.6755 -0.6572  1.0460
29835SOL    HW291823   4.573   6.148   9.540 -0.9724  1.6955  0.4974
29836SOL     OW91824   7.690   4.990   2.640 -0.1902 -0.1565  0.0612
29836SOL    HW191825   7.616   5.049   2.656  0.6648  0.8779  0.2628
29836SOL    HW291826   7.749   5.005   2.714  1.1875  0.5724 -1.1405
29837SOL     OW91827   1.511   3.118   6.099 -0.0842  0.1198 -0.5547
29837SOL    HW191828   1.459   3.088   6.024 -0.8333 -0.0405  0.0123
29837SOL    HW291829   1.467   3.080   6.175  0.7404  0.1724 -0.0349
29838SOL     OW91830   4.524   3.899   1.654 -0.1268 -0.1338 -0.1231
29838SOL    HW191831   4.453   3.961   1.667  0.2430 -0.0448  1.9277
29838SOL    HW291832   4.573   3.902   1.736 -0.0132 -3.0319  0.0201
29839SOL     OW91833   7.351   3.293   5.524 -0.0312 -0.5661 -0.0171
29839SOL    HW191834   7.443   3.305   5.501 -0.5200  2.1155 -1.0085
29839SOL    HW291835   7.347   3.316   5.617  0.4144 -1.4791  0.2328
29840SOL     OW91836   7.119   1.291   4.434 -0.6833 -0.3982  0.0081
29840SOL    HW191837   7.118   1.232   4.509  1.3412  2.3487  2.3675
29840SOL    HW291838   7.198   1.267   4.385  1.2842  1.4901  2.0829
29841SOL     OW91839   1.958   6.387   4.839 -0.0416 -0.2267 -0.1724
29841SOL    HW191840   1.928   6.341   4.760  2.3176 -1.5093 -0.4146
29841SOL    HW291841   2.000   6.466   4.806 -1.4560  0.6432  0.0393
29842SOL     OW91842   7.534  10.505   1.100 -0.0666  0.0731  0.4961
29842SOL    HW191843   7.496  10.590   1.120 -1.7786 -0.8107  1.2149
29842SOL    HW291844   7.592  10.486   1.174  0.7101  0.8103  0.0897
29843SOL     OW91845   8.428   7.163   4.256 -0.2714  0.3897 -0.1147
29843SOL    HW191846   8.523   7.163   4.249 -0.3561 -0.0027 -1.5705
29843SOL    HW291847   8.409   7.098   4.324  0.5304  1.7719  1.5202
29844SOL     OW91848   6.414   2.791   7.920 -0.0054  0.1441 -0.5645
29844SOL    HW191849   6.458   2.829   7.996 -1.4941  2.3003 -0.6945
29844SOL    HW291850   6.324   2.776   7.949 -0.2907 -0.1153 -1.5495
29845SOL     OW91851   2.467   0.939   1.107  0.1208 -0.2466 -0.2085
29845SOL    HW191852   2.472   1.031   1.079  0.3411 -0.0075  0.5817
29845SOL    HW291853   2.558   0.912   1.116  0.0582 -0.2651  0.4137
29846SOL     OW91854   4.524   2.717   7.538 -0.5081 -0.0234 -0.0323
29846SOL    HW191855   4.542   2.737   7.446 -0.3213  0.4621  0.1097
29846SOL    HW291856   4.602   2.670   7.568  0.7540  2.3400  0.6657
29847SOL     OW91857  10.135   6.688   0.201 -0.0064 -0.0700 -0.6641
29847SOL    HW191858  10.158   6.776   0.171 -0.5832  1.2914  2.5346
29847SOL    HW291859  10.042   6.680   0.182 -0.4383  0.9035  0.8331
29848SOL     OW91860   1.799   1.976   3.260 -0.4459  0.1774  0.3070
29848SOL    HW191861   1.722   1.992   3.314 -1.0658  0.2688 -0.5852
29848SOL    HW291862   1.829   2.063   3.232  0.0515  0.1505  0.7336
29849SOL     OW91863   5.462   0.777   1.663  0.1434 -0.4497 -0.0914
29849SOL    HW191864   5.379   0.799   1.622 -0.2386 -1.6959 -0.0177
29849SOL    HW291865   5.528   0.813   1.603 -0.4265 -1.0460 -1.1074
29850SOL     OW91866   8.772   4.747   5.412  0.0759 -0.1803 -0.2404
29850SOL    HW191867   8.716   4.684   5.367  0.9513 -1.3181  0.2331
29850SOL    HW291868   8.845   4.761   5.353 -0.3607  0.7917 -0.5639
29851SOL     OW91869   2.276   8.753   5.074 -0.0644  0.1313 -0.0055
29851SOL    HW191870   2.234   8.761   5.159 -1.6907  0.6270 -0.8185
29851SOL    HW291871   2.206   8.729   5.014  0.8583  0.6716 -1.3682
29852SOL     OW91872   3.586   4.309   5.856  0.1396  0.3909  0.3037
29852SOL    HW191873   3.590   4.405   5.848 -0.5906  0.3485 -0.8982
29852SOL    HW291874   3.669   4.278   5.821  0.2706  0.5786  0.4483
29853SOL     OW91875   4.369   5.451   2.662 -0.0598 -0.3171 -0.1382
29853SOL    HW191876   4.316   5.391   2.610  0.5354 -1.9483  1.0599
29853SOL    HW291877   4.310   5.478   2.733 -0.5008  1.0019 -0.9656
29854SOL     OW91878   9.583   6.225   4.705  0.5853  0.3884 -0.2537
29854SOL    HW191879   9.535   6.284   4.647  2.8477  4.4234  1.5599
29854SOL    HW291880   9.649   6.184   4.649 -1.5322 -1.2462 -1.7095
29855SOL     OW91881   4.009   3.626   6.975 -0.0021  0.3446 -0.2045
29855SOL    HW191882   3.969   3.712   6.988  2.2548  1.2512  1.3651
29855SOL    HW291883   3.992   3.580   7.057  1.0005  0.2641 -0.0397
29856SOL     OW91884   4.894   0.392   7.347  0.2066  0.1464 -0.1069
29856SOL    HW191885   4.876   0.484   7.363 -0.7423  0.1807 -1.2052
29856SOL    HW291886   4.898   0.385   7.251 -0.5062 -1.0818 -0.0696
29857SOL     OW91887   4.523   9.653   6.844 -0.2366 -0.0388 -0.6130
29857SOL    HW191888   4.512   9.741   6.808  2.9090  0.7358  0.0531
29857SOL    HW291889   4.442   9.637   6.892 -1.2967  2.0628 -1.5386
29858SOL     OW91890   7.816   3.323   8.496  0.1131  0.1229  0.1686
29858SOL    HW191891   7.744   3.276   8.452 -1.2832  0.9396  1.4998
29858SOL    HW291892   7.891   3.263   8.488 -0.4691 -0.4319 -1.9170
29859SOL     OW91893   6.052   2.854   6.753 -0.1233  0.8229 -0.0148
29859SOL    HW191894   6.113   2.922   6.724  0.3423  0.5573  0.3400
29859SOL    HW291895   6.026   2.809   6.673 -0.9199  1.8184 -0.3349
29860SOL     OW91896   5.164   6.245   2.478  0.5212 -0.5006  0.6155
29860SOL    HW191897   5.173   6.298   2.557 -0.5846 -1.6585  1.5601
29860SOL    HW291898   5.073   6.216   2.479  0.6786 -1.1003 -0.7268
29861SOL     OW91899   0.849   5.947   4.391  0.4941 -0.4600 -0.2491
29861SOL    HW191900   0.812   5.966   4.477  1.8566  0.3700  0.1839
29861SOL    HW291901   0.775   5.915   4.339 -0.2625 -1.3478  1.3311
29862SOL     OW91902   5.902   5.286   2.246  0.2240 -0.8295  0.2621
29862SOL    HW191903   5.955   5.243   2.312  1.8213  1.0676  0.3010
29862SOL    HW291904   5.965   5.327   2.187 -1.1403 -2.3787 -2.4597
29863SOL     OW91905   2.786   1.527   6.492 -0.2673  0.4508 -0.1270
29863SOL    HW191906   2.837   1.523   6.572 -0.6611 -0.5609  0.0999
29863SOL    HW291907   2.702   1.564   6.518 -0.8235 -0.9561  0.2038
29864SOL     OW91908   1.777   8.666   4.913  0.5645 -0.0283  0.0364
29864SOL    HW191909   1.737   8.579   4.909  0.4796 -0.0450  1.0799
29864SOL    HW291910   1.809   8.682   4.824 -0.3716 -0.6709 -0.4227
29865SOL     OW91911   7.252   8.530   4.061 -0.0727 -0.2464 -0.3531
29865SOL    HW191912   7.336   8.562   4.094  0.0482  1.4270 -2.0935
29865SOL    HW291913   7.235   8.451   4.112  0.9493  1.1147  2.3352
29866SOL     OW91914   3.366   4.658   2.633  0.0886  0.5849 -0.2612
29866SOL    HW191915   3.304   4.675   2.562 -0.4085 -0.7785 -0.1779
29866SOL    HW291916   3.314   4.671   2.713  0.2226  0.5622 -0.1703
29867SOL     OW91917  10.161   1.018   4.671  0.4533  0.6603  0.4719
29867SOL    HW191918  10.093   1.084   4.660  0.3795  0.6874  1.0250
29867SOL    HW291919  10.118   0.948   4.721  0.2407 -0.2608 -0.9512
29868SOL     OW91920   0.695   4.145   8.398  0.3615 -0.1721 -1.1200
29868SOL    HW191921   0.606   4.115   8.381  0.1292 -0.4223  0.3923
29868SOL    HW291922   0.685   4.233   8.432  0.5713 -0.6386  0.2157
29869SOL     OW91923   2.147   5.697   4.697  0.3738  0.0592 -0.6322
29869SOL    HW191924   2.191   5.780   4.717 -0.5121  0.2742  0.5654
29869SOL    HW291925   2.191   5.634   4.754  0.6494 -0.1905 -1.1145
29870SOL     OW91926   1.697   1.075   8.236 -0.4411 -0.4799 -0.3291
29870SOL    HW191927   1.634   1.013   8.199  0.0740 -1.1173 -0.1721
29870SOL    HW291928   1.782   1.045   8.203 -0.1521 -0.0333 -0.0093
29871SOL     OW91929   1.654   7.724   1.414  0.5539 -0.9897 -0.2105
29871SOL    HW191930   1.604   7.707   1.494  0.2328 -0.6307 -0.3286
29871SOL    HW291931   1.613   7.803   1.377  0.2017 -1.5989 -1.1422
29872SOL     OW91932   1.788   0.925   7.086 -0.0219  0.0969 -0.3674
29872SOL    HW191933   1.700   0.946   7.055  0.0018  0.3965 -0.2372
29872SOL    HW291934   1.845   0.987   7.039  0.0079  0.6123  0.3239
29873SOL     OW91935   6.240   8.558   8.697  0.0137  0.3050 -0.2345
29873SOL    HW191936   6.296   8.531   8.769 -0.2399 -0.7768 -0.4389
29873SOL    HW291937   6.281   8.521   8.619 -0.0758  0.9125 -0.5799
29874SOL     OW91938   3.573  10.343   9.067  0.2119 -0.3602  0.1201
29874SOL    HW191939   3.658  10.345   9.111  0.5872  0.9896 -0.6231
29874SOL    HW291940   3.511  10.328   9.138  0.9487  0.1276  0.8904
29875SOL     OW91941   3.503   8.235   7.744 -0.0957 -0.4178 -0.5051
29875SOL    HW191942   3.532   8.242   7.653 -0.0410 -0.5231 -0.4967
29875SOL    HW291943   3.461   8.149   7.749 -1.2116  0.1053 -0.7324
29876SOL     OW91944   2.622   3.657   1.532  0.3330 -0.1616 -0.0718
29876SOL    HW191945   2.634   3.636   1.440 -1.6640 -1.6690 -0.0588
29876SOL    HW291946   2.640   3.575   1.578 -0.1262  0.1810  0.7350
29877SOL     OW91947   8.945   8.404   8.873 -0.5577  0.1215  0.0018
29877SOL    HW191948   8.985   8.410   8.960  0.6419 -2.3121 -0.2887
29877SOL    HW291949   9.001   8.342   8.825 -2.1530  0.0823 -1.9409
29878SOL     OW91950   4.213   4.299   8.539  0.5159 -0.3755 -0.1007
29878SOL    HW191951   4.196   4.209   8.566 -1.1600 -0.0480  0.0729
29878SOL    HW291952   4.189   4.302   8.446 -1.7614  0.3936  0.4473
29879SOL     OW91953   0.156   3.283   8.135 -0.2559 -0.8747  0.0846
29879SOL    HW191954   0.243   3.319   8.117 -0.3255 -0.3119  0.8400
29879SOL    HW291955   0.096   3.338   8.084 -0.2778 -0.5200  0.4959
29880SOL     OW91956   0.394   5.338   9.764  0.0235  0.2461 -0.2928
29880SOL    HW191957   0.452   5.263   9.749  0.4052  0.6358 -0.8341
29880SOL    HW291958   0.449   5.401   9.810 -0.4981 -0.0695  0.7844
29881SOL     OW91959   7.497  10.452   9.629  0.4544  0.9813 -0.1307
29881SOL    HW191960   7.547  10.401   9.692 -0.1431  0.8034  0.2017
29881SOL    HW291961   7.438  10.505   9.682  1.8695  2.9290 -0.3820
29882SOL     OW91962   4.151   1.377   2.111  0.6648  0.4515 -0.1691
29882SOL    HW191963   4.220   1.436   2.082  0.4149  1.0937  0.5287
29882SOL    HW291964   4.152   1.382   2.206 -0.2997  0.4188 -0.1480
29883SOL     OW91965   7.813   6.950   5.033 -0.2763  0.4554  0.2490
29883SOL    HW191966   7.893   6.968   4.983 -0.7781 -3.0180 -2.1319
29883SOL    HW291967   7.743   6.981   4.976 -0.7753  0.9385  1.1000
29884SOL     OW91968  10.281   9.645   6.730 -0.1487 -0.5379 -0.5168
29884SOL    HW191969  10.322   9.731   6.732 -1.4337  0.0989 -0.6407
29884SOL    HW291970  10.208   9.654   6.668 -1.0794 -1.3460  0.4225
29885SOL     OW91971   2.975   1.700   1.465  0.2608 -0.4801  0.5143
29885SOL    HW191972   3.034   1.705   1.389 -1.0592  0.4212 -0.5005
29885SOL    HW291973   3.031   1.720   1.540  1.1817  0.7947 -0.4684
29886SOL     OW91974   6.175   4.935   9.359 -0.0152 -0.0676 -0.2502
29886SOL    HW191975   6.228   4.884   9.421  1.0831  1.3815  0.0377
29886SOL    HW291976   6.102   4.876   9.336  0.8268 -1.4986  0.5977
29887SOL     OW91977   2.016   8.694   4.182  0.0815 -0.3736  0.0732
29887SOL    HW191978   1.990   8.785   4.173  2.7573  0.2781 -2.6141
29887SOL    HW291979   1.959   8.646   4.123  0.9444  0.1616 -1.2468
29888SOL     OW91980   6.846   1.608   7.837  0.6581 -0.2314 -0.1049
29888SOL    HW191981   6.793   1.688   7.839 -1.7592 -1.7334 -0.2428
29888SOL    HW291982   6.933   1.636   7.865 -0.1943  2.3596  0.2150
29889SOL     OW91983   8.243   0.963   8.396 -0.5588 -0.3096  0.3351
29889SOL    HW191984   8.327   1.009   8.390 -1.2062  0.7494 -1.4243
29889SOL    HW291985   8.189   1.020   8.450 -1.0832  0.6148 -1.1129
29890SOL     OW91986   2.946   9.461   3.393 -0.6242 -0.1614  0.3188
29890SOL    HW191987   2.962   9.516   3.316  1.2245 -0.9809  0.0636
29890SOL    HW291988   2.854   9.475   3.414 -0.1498  3.4004  0.5601
29891SOL     OW91989   1.272  10.127   5.677 -0.0755 -0.0920  0.0465
29891SOL    HW191990   1.355  10.123   5.629  0.2028 -1.1782  0.5941
29891SOL    HW291991   1.296  10.165   5.762  0.0617 -1.3679  0.5904
29892SOL     OW91992   5.241  10.409   6.910 -0.5587 -0.4943  0.1692
29892SOL    HW191993   5.321  10.358   6.921 -0.6226 -0.3601  1.4208
29892SOL    HW291994   5.234  10.461   6.990 -1.1532  0.5633 -0.5396
29893SOL     OW91995   5.276   6.057  10.085  0.0828  0.7691 -0.2420
29893SOL    HW191996   5.297   6.044   9.993 -1.4488 -1.8110 -0.3156
29893SOL    HW291997   5.353   6.023  10.132  0.0062  0.1385 -0.5653
29894SOL     OW91998   4.930   5.563   4.929 -0.3623 -0.4110  0.2547
29894SOL    HW191999   4.969   5.476   4.938  1.0868  0.2668  0.8700
29894SOL    HW292000   4.904   5.568   4.837  2.3534 -0.4057 -0.5988
29895SOL     OW92001   0.611   6.302   2.996 -0.3211 -0.7837  0.0400
29895SOL    HW192002   0.558   6.355   3.056  0.5800  0.5117 -0.2742
29895SOL    HW292003   0.548   6.242   2.955 -1.7681  1.3223 -1.0204
29896SOL     OW92004   0.364   6.191   5.578  0.3986 -0.6324 -0.0948
29896SOL    HW192005   0.323   6.271   5.611  1.2691  0.0138 -0.5505
29896SOL    HW292006   0.455   6.196   5.608  0.9530 -0.5243 -1.7033
29897SOL     OW92007  10.025  10.261   8.469 -0.0182 -0.1694  0.4009
29897SOL    HW192008   9.966  10.186   8.464  0.0386 -0.1300 -2.6125
29897SOL    HW292009   9.967  10.336   8.480 -0.5347 -0.2284 -1.5486
29898SOL     OW92010   6.329   6.138   2.641 -0.3158  0.0819  0.0601
29898SOL    HW192011   6.336   6.213   2.700 -0.6907  0.5239 -0.4526
29898SOL    HW292012   6.266   6.079   2.683  0.2642 -0.1361  0.6517
29899SOL     OW92013   7.284   7.122   5.071  0.1114 -0.0158  0.4721
29899SOL    HW192014   7.346   7.126   4.999  0.2585  0.9038  0.6402
29899SOL    HW292015   7.299   7.036   5.111 -0.1782 -0.6605 -0.7614
29900SOL     OW92016   5.337   6.539   6.813 -0.3736  0.5790  0.4918
29900SOL    HW192017   5.374   6.617   6.771  1.5484 -0.9978 -0.8854
29900SOL    HW292018   5.267   6.574   6.869 -0.3383  3.1775 -0.9079
29901SOL     OW92019   7.262   6.332   0.965 -0.5062  0.2669 -0.3364
29901SOL    HW192020   7.244   6.253   1.016 -0.6909  1.1136  0.9750
29901SOL    HW292021   7.185   6.387   0.980 -0.0117  1.0291 -0.5499
29902SOL     OW92022   2.607   5.699   8.589  0.2178  0.6185 -0.3053
29902SOL    HW192023   2.627   5.607   8.572 -1.9618  0.3406 -1.7994
29902SOL    HW292024   2.651   5.719   8.672  2.0200 -1.2936 -0.7212
29903SOL     OW92025   9.948   4.766   8.718 -0.0078 -0.1667  0.4708
29903SOL    HW192026   9.911   4.771   8.630 -1.9314 -0.4496  1.2136
29903SOL    HW292027  10.004   4.844   8.726 -0.7862  0.5124 -0.5625
29904SOL     OW92028   1.848   6.567   7.871 -0.0314  0.4769 -0.2109
29904SOL    HW192029   1.909   6.507   7.913  1.8440  2.6039  0.2737
29904SOL    HW292030   1.775   6.512   7.843  2.0499 -2.1611 -0.7392
29905SOL     OW92031   7.425   0.020   9.941  0.0359  0.1838  0.6076
29905SOL    HW192032   7.369  -0.001  10.015 -2.8462 -0.0148 -1.4734
29905SOL    HW292033   7.454   0.110   9.957 -0.6422  0.1945  1.8637
29906SOL     OW92034   9.141   1.860   6.825 -0.6869 -0.4109 -0.5545
29906SOL    HW192035   9.104   1.887   6.909 -1.8592 -1.9045 -0.5426
29906SOL    HW292036   9.065   1.834   6.772  0.1457 -1.0556 -1.4812
29907SOL     OW92037   3.543   7.756   8.310 -0.1171  0.0204 -0.3701
29907SOL    HW192038   3.460   7.718   8.280 -1.8521  3.6329 -0.6997
29907SOL    HW292039   3.591   7.773   8.229  0.1240 -0.3182 -0.3008
29908SOL     OW92040   6.780  10.103   0.449  0.4878  0.5304  0.6723
29908SOL    HW192041   6.755  10.036   0.385  0.6051  0.2155  0.9511
29908SOL    HW292042   6.760  10.186   0.406  0.3606  0.3174  0.3128
29909SOL     OW92043   2.985   4.262   7.329 -0.1200 -0.4078  0.9044
29909SOL    HW192044   3.036   4.277   7.409  0.3333  1.2580  0.3403
29909SOL    HW292045   3.016   4.177   7.297  4.1837  1.4464 -0.6628
29910SOL     OW92046   2.110   9.306   4.301 -0.1035 -0.2242 -0.3236
29910SOL    HW192047   2.157   9.382   4.335 -1.1042  0.4236 -0.3678
29910SOL    HW292048   2.117   9.240   4.370 -1.0659  0.6564  0.6376
29911SOL     OW92049   1.637   1.267   3.088 -0.0839 -0.0207  0.0744
29911SOL    HW192050   1.729   1.289   3.103  0.3863 -1.0253 -1.1173
29911SOL    HW292051   1.613   1.212   3.163  1.0471 -1.7407 -0.7419
29912SOL     OW92052  10.068   2.535   1.812  0.2527 -0.7132  0.1298
29912SOL    HW192053  10.111   2.502   1.890  0.8173 -1.1236 -0.3511
29912SOL    HW292054  10.110   2.490   1.739 -2.2411 -2.5908 -0.2831
29913SOL     OW92055   5.071   1.706   1.911 -0.0782 -0.6376 -0.1229
29913SOL    HW192056   5.055   1.793   1.949 -1.5829 -1.2300  0.6891
29913SOL    HW292057   5.060   1.645   1.984 -0.5993 -1.6219 -0.9870
29914SOL     OW92058  10.568   4.518   9.991  0.5313 -0.1248  0.1921
29914SOL    HW192059  10.554   4.500  10.083 -1.5800 -0.3185 -0.1103
29914SOL    HW292060  10.584   4.613   9.987  0.1888 -0.0429  0.7105
29915SOL     OW92061   7.064   9.333   1.568  0.5505  0.0663 -0.1342
29915SOL    HW192062   7.095   9.403   1.510  1.9261 -2.6495 -2.9560
29915SOL    HW292063   7.135   9.321   1.631  0.6131  0.7071 -0.0706
29916SOL     OW92064   4.148   7.332   3.880  0.0027 -0.2689 -0.6703
29916SOL    HW192065   4.097   7.285   3.946  0.9800  1.3542  1.3526
29916SOL    HW292066   4.108   7.307   3.797 -2.0981 -1.4443  0.6048
29917SOL     OW92067   2.293   9.556   2.637 -0.0954 -0.0523  0.4257
29917SOL    HW192068   2.261   9.615   2.568  0.7696 -0.7518 -0.5989
29917SOL    HW292069   2.215   9.506   2.662 -0.4670  0.3419  0.0902
29918SOL     OW92070   4.597   6.846   0.348  0.5660 -0.1485 -0.1031
29918SOL    HW192071   4.519   6.850   0.403  0.1100  1.5325 -0.8044
29918SOL    HW292072   4.670   6.854   0.410  0.2042 -1.4288  0.5235
29919SOL     OW92073   6.508   7.058   3.605  0.1110 -0.5326  0.0411
29919SOL    HW192074   6.602   7.075   3.595 -0.0001 -0.0616 -0.2989
29919SOL    HW292075   6.467   7.144   3.592 -0.5423 -1.1186 -2.4741
29920SOL     OW92076   2.203   0.716   0.022  0.2687  0.2871 -0.0589
29920SOL    HW192077   2.238   0.628   0.037 -0.9067  0.0775  1.8447
29920SOL    HW292078   2.164   0.712  -0.065 -0.8159 -1.4866  0.4440
29921SOL     OW92079   8.448   7.720   9.159 -0.2113  0.1094  0.2060
29921SOL    HW192080   8.524   7.720   9.101 -0.2666  1.0375  0.1251
29921SOL    HW292081   8.483   7.746   9.244 -0.3961  0.2487  0.2390
29922SOL     OW92082   3.392   4.266   2.029  0.2370 -0.4743  0.4116
29922SOL    HW192083   3.364   4.177   2.008  0.8962 -1.1102  2.0469
29922SOL    HW292084   3.329   4.295   2.095  0.2711  0.1191  0.1815
29923SOL     OW92085   9.525   6.758   9.558  0.5205 -0.1539  0.5533
29923SOL    HW192086   9.568   6.774   9.474 -1.1801 -0.5593 -0.4348
29923SOL    HW292087   9.580   6.691   9.601  0.7919 -0.7746 -0.7239
29924SOL     OW92088   9.521   9.516   3.301  0.2529  0.1605  0.5170
29924SOL    HW192089   9.441   9.475   3.269 -0.4772  1.8800  0.0172
29924SOL    HW292090   9.585   9.500   3.231  0.1668 -0.6234  0.6060
29925SOL     OW92091   7.382   3.931   0.362  0.4791  0.0874 -0.8341
29925SOL    HW192092   7.458   3.962   0.410  0.6027 -0.6541 -0.5388
29925SOL    HW292093   7.419   3.886   0.285  0.4387 -1.8589  0.2327
29926SOL     OW92094   5.571   2.470   7.829 -0.5180  0.0267  0.4461
29926SOL    HW192095   5.566   2.383   7.791  1.0748 -0.3617  1.0516
29926SOL    HW292096   5.664   2.483   7.848 -0.7635  1.7297  0.6654
29927SOL     OW92097   1.409   4.604   7.180  0.7766 -0.8650 -0.4007
29927SOL    HW192098   1.398   4.698   7.165 -3.4531 -0.8671  1.4702
29927SOL    HW292099   1.453   4.572   7.101  2.2244  2.5940 -1.1563
29928SOL     OW92100   1.249   4.308   4.576  0.8386  0.7865 -0.8865
29928SOL    HW192101   1.264   4.354   4.659  3.1298 -1.9120  0.3485
29928SOL    HW292102   1.160   4.274   4.583  0.7804  1.1191  0.1860
29929SOL     OW92103   7.744  10.484   7.753 -0.1515  0.1967 -0.1245
29929SOL    HW192104   7.745  10.571   7.715 -1.7791  0.4613  0.3537
29929SOL    HW292105   7.665  10.482   7.807 -1.1407 -2.1249 -1.4753
29930SOL     OW92106   2.339  10.184   2.896 -0.2654  0.2317 -0.3093
29930SOL    HW192107   2.247  10.158   2.884 -0.1061  0.1735 -1.5775
29930SOL    HW292108   2.379  10.109   2.940 -0.6600 -0.0653 -0.4391
29931SOL     OW92109   9.282   9.638   7.032  0.0514 -0.6443  0.5495
29931SOL    HW192110   9.347   9.589   6.981 -1.1690  0.2069 -2.0052
29931SOL    HW292111   9.253   9.708   6.973 -0.3922  1.4030  2.9951
29932SOL     OW92112   3.916   9.822   5.815  0.0211 -0.1422 -0.6428
29932SOL    HW192113   3.980   9.783   5.875  0.7401  0.7810 -0.7871
29932SOL    HW292114   3.832   9.782   5.840  0.9800 -3.4187 -2.1684
29933SOL     OW92115   5.341   3.290   2.740  0.1163 -0.1744 -0.2158
29933SOL    HW192116   5.249   3.303   2.761 -0.0287  0.4073 -1.1419
29933SOL    HW292117   5.377   3.244   2.815 -0.9271 -0.3886  0.1617
29934SOL     OW92118   0.745   8.263   3.950  0.4317 -0.3864 -0.6878
29934SOL    HW192119   0.657   8.282   3.983  0.6075  0.8817 -0.9084
29934SOL    HW292120   0.760   8.329   3.883  2.8357  1.5806  1.5681
29935SOL     OW92121   4.299   6.671  10.333 -0.2508  0.2969  0.1214
29935SOL    HW192122   4.217   6.687  10.286  0.2469  3.0953  0.0218
29935SOL    HW292123   4.334   6.591  10.293 -2.3427 -0.3238 -0.6195
29936SOL     OW92124   9.872   9.205   6.768 -0.1449 -0.5671  0.2284
29936SOL    HW192125   9.866   9.221   6.673  0.0497 -0.9366  0.1515
29936SOL    HW292126   9.931   9.129   6.776  0.1252 -0.3131  0.6681
29937SOL     OW92127   2.164   8.461   3.782 -0.3699  0.1017 -0.3701
29937SOL    HW192128   2.133   8.544   3.818  0.4050  0.1402  0.2328
29937SOL    HW292129   2.259   8.471   3.778  0.0695 -1.8658  2.5859
29938SOL     OW92130   4.994   2.398   7.978  0.1216 -0.1531  0.0297
29938SOL    HW192131   5.043   2.377   8.058 -1.2871 -2.3315  0.4042
29938SOL    HW292132   4.921   2.452   8.009  0.5182  0.4190 -0.0376
29939SOL     OW92133   7.838   4.201   5.854 -0.1833 -0.1019  0.0696
29939SOL    HW192134   7.789   4.121   5.833  0.8093 -0.4434 -1.0719
29939SOL    HW292135   7.915   4.197   5.798  1.4376  0.1753  2.1691
29940SOL     OW92136   4.828   9.681   4.208  0.0847  0.6551  0.0251
29940SOL    HW192137   4.748   9.678   4.155 -0.2750  0.7239  0.5634
29940SOL    HW292138   4.846   9.590   4.230  0.0498  0.6564  0.0612
29941SOL     OW92139   5.322   5.972   5.446 -0.1277  0.4345  0.4674
29941SOL    HW192140   5.415   5.948   5.442 -0.3731 -0.5047  0.0508
29941SOL    HW292141   5.288   5.921   5.519 -0.6035 -0.3353 -0.2668
29942SOL     OW92142   5.431   8.148   7.424  0.0138 -0.4966  0.8361
29942SOL    HW192143   5.428   8.243   7.434 -0.9833 -0.5445  1.1545
29942SOL    HW292144   5.343   8.119   7.449 -0.3108 -1.3416 -1.0973
29943SOL     OW92145   0.240   7.536   7.241  0.1136 -0.1492 -0.2025
29943SOL    HW192146   0.220   7.585   7.161  1.7456  1.9824  0.5817
29943SOL    HW292147   0.240   7.444   7.214  0.8105  0.5149 -2.7045
29944SOL     OW92148   9.909   9.559   5.069 -0.1042  0.4149 -0.3355
29944SOL    HW192149   9.879   9.603   5.148  0.2949  0.4648 -0.2131
29944SOL    HW292150   9.906   9.466   5.090 -0.0043  0.4276 -0.2664
29945SOL     OW92151   3.147   6.547   3.599 -0.2061 -0.5773 -0.0908
29945SOL    HW192152   3.240   6.530   3.614  0.0875  0.0867 -1.0655
29945SOL    HW292153   3.105   6.463   3.613  0.7117 -1.1896 -0.8398
29946SOL     OW92154   6.209   0.119   8.546 -0.5429  0.8104  0.0943
29946SOL    HW192155   6.241   0.107   8.636 -0.2495  0.0290 -0.0978
29946SOL    HW292156   6.191   0.030   8.516  0.3845  0.9658 -0.9859
29947SOL     OW92157   7.458  10.070   2.812 -0.1506  0.1970 -0.6147
29947SOL    HW192158   7.507  10.029   2.740 -0.4730 -1.1799 -0.0688
29947SOL    HW292159   7.369  10.037   2.802 -0.0338 -0.6207  0.8507
29948SOL     OW92160   8.889   8.849   0.691  0.0996 -0.1984 -0.0783
29948SOL    HW192161   8.825   8.894   0.746  0.2374  0.1690 -0.2111
29948SOL    HW292162   8.974   8.871   0.729  0.1058 -1.9907  1.0708
29949SOL     OW92163   8.341   6.026  10.259 -0.2113 -0.1807 -0.0491
29949SOL    HW192164   8.413   6.039  10.320 -0.8794  2.6667  0.2467
29949SOL    HW292165   8.289   5.955  10.298  0.6879 -0.0834  1.3815
29950SOL     OW92166   5.766   3.032   3.722 -0.4201  0.3243 -0.6354
29950SOL    HW192167   5.688   3.064   3.675 -0.5922  0.3817 -0.3122
29950SOL    HW292168   5.734   2.956   3.771 -0.4536  0.8149  0.1125
29951SOL     OW92169   4.206   9.237   8.886  0.3908  0.8776  0.3927
29951SOL    HW192170   4.278   9.300   8.885  0.0125  1.3170  0.5285
29951SOL    HW292171   4.128   9.290   8.873  0.0319  0.4816  0.9123
29952SOL     OW92172   3.611   4.165   3.877  0.3130  0.7313 -0.4414
29952SOL    HW192173   3.627   4.082   3.923 -0.6412 -0.2962 -1.8839
29952SOL    HW292174   3.693   4.214   3.888  0.2357  0.4314  2.0474
29953SOL     OW92175   3.831  10.346   5.325 -0.0641 -0.4499  0.4986
29953SOL    HW192176   3.910  10.354   5.272  0.8157  2.9982  2.0476
29953SOL    HW292177   3.760  10.373   5.266  0.9994  4.2772  0.9706
29954SOL     OW92178   0.156   6.674   6.831 -0.5089  0.2591  0.0312
29954SOL    HW192179   0.193   6.593   6.865  0.4788  0.5083 -0.3873
29954SOL    HW292180   0.136   6.654   6.739 -2.5789 -0.2278  0.5469
29955SOL     OW92181   6.663   4.918   0.196  0.1965  0.0030  0.1772
29955SOL    HW192182   6.679   4.988   0.133  1.1245 -0.3320  0.0168
29955SOL    HW292183   6.625   4.847   0.146 -2.1057  0.8699  0.5919
29956SOL     OW92184  10.459   4.241   6.332 -0.0826  0.2888 -0.1853
29956SOL    HW192185  10.505   4.260   6.415  1.4186  0.3380 -0.9859
29956SOL    HW292186  10.483   4.150   6.312  1.4807  0.9899 -1.7006
29957SOL     OW92187   9.937   3.513   7.323 -0.6763  0.6528  0.1023
29957SOL    HW192188   9.988   3.445   7.278  1.3191  1.7091  0.6834
29957SOL    HW292189   9.995   3.547   7.390 -1.6434  2.9102 -0.1202
29958SOL     OW92190   9.376   9.417   1.440 -0.0483  0.4678 -0.2551
29958SOL    HW192191   9.331   9.445   1.519 -2.0555  1.3112 -1.6135
29958SOL    HW292192   9.457   9.468   1.439 -0.6764  1.5227  0.5370
29959SOL     OW92193   9.145   2.172   8.795  0.0930 -0.0022  0.3314
29959SOL    HW192194   9.186   2.103   8.848 -0.4893  0.5172  1.4860
29959SOL    HW292195   9.210   2.242   8.793  0.2232 -0.1266  0.1213
29960SOL     OW92196   2.107   7.012   7.057  0.1465 -0.1754 -0.3421
29960SOL    HW192197   2.125   6.970   6.973 -0.4941  0.0432 -0.5876
29960SOL    HW292198   2.165   7.088   7.058 -1.0673  0.7974 -1.3447
29961SOL     OW92199   3.224   1.345   8.872 -0.4168  0.3955  0.1673
29961SOL    HW192200   3.139   1.390   8.866 -0.8908 -0.5372 -0.3490
29961SOL    HW292201   3.278   1.387   8.805 -1.1335 -0.3651 -0.9206
29962SOL     OW92202   0.822   2.659   6.725 -0.1188  0.6445  0.8362
29962SOL    HW192203   0.765   2.644   6.801  0.0836  0.4618  0.9544
29962SOL    HW292204   0.863   2.743   6.742 -0.9363  1.1462  0.3780
29963SOL     OW92205   0.354   2.878   3.189 -0.5834 -0.4808  0.2949
29963SOL    HW192206   0.343   2.909   3.099 -0.7227  0.9812  0.7894
29963SOL    HW292207   0.319   2.948   3.243  0.6268 -0.7804  1.5391
29964SOL     OW92208   9.606  10.409   0.814 -0.4177  0.6212  0.3447
29964SOL    HW192209   9.530  10.357   0.788 -0.3406 -0.4453  2.0737
29964SOL    HW292210   9.614  10.394   0.909  1.6506  1.0971  0.2928
29965SOL     OW92211   0.328   8.285   0.239  0.3786  0.1138  0.2438
29965SOL    HW192212   0.282   8.369   0.240  0.4535  0.1566  0.7008
29965SOL    HW292213   0.269   8.225   0.285  0.1184 -0.1978 -0.4986
29966SOL     OW92214   2.233   3.266   6.681 -0.1331 -0.1874  0.0728
29966SOL    HW192215   2.150   3.255   6.726  0.0664  0.6888  0.6813
29966SOL    HW292216   2.262   3.177   6.662 -0.5603 -0.5482  1.0488
29967SOL     OW92217   5.501   4.270   4.440  0.1249  1.0563 -0.2346
29967SOL    HW192218   5.428   4.269   4.502  1.2147 -1.4851  1.1619
29967SOL    HW292219   5.469   4.220   4.364 -0.1512  1.4510 -0.3816
29968SOL     OW92220   3.233   7.736   2.849  0.2661 -0.2076 -0.0432
29968SOL    HW192221   3.146   7.760   2.882  0.3446  0.2949 -0.1864
29968SOL    HW292222   3.230   7.759   2.756  1.0995  1.4229  0.2941
29969SOL     OW92223   7.124  10.450   8.467  0.5722  0.4525  0.0486
29969SOL    HW192224   7.214  10.482   8.455  1.6821 -2.1367  0.9154
29969SOL    HW292225   7.081  10.469   8.383  2.1398  1.0532 -0.6577
29970SOL     OW92226   7.485   0.103  10.412  0.0806  0.1380  0.0684
29970SOL    HW192227   7.547   0.144  10.472  0.9556 -1.2689  0.1514
29970SOL    HW292228   7.415   0.070  10.469 -1.3454  2.6039 -0.1023
29971SOL     OW92229   9.828   4.553   5.275 -0.8159 -0.2811 -0.0340
29971SOL    HW192230   9.794   4.473   5.315  0.9279 -1.0222  0.0571
29971SOL    HW292231   9.892   4.522   5.210  1.4802  1.0128  1.4629
29972SOL     OW92232   7.035   2.069   6.311  0.0854 -0.0667  0.0317
29972SOL    HW192233   7.024   2.144   6.370  1.9256 -0.9620  1.6122
29972SOL    HW292234   6.976   2.088   6.238 -1.3493  1.7067  1.5355
29973SOL     OW92235   0.354   8.732   4.591  0.7710  0.1960 -0.2922
29973SOL    HW192236   0.408   8.691   4.659  2.1723 -0.5357 -1.7636
29973SOL    HW292237   0.278   8.675   4.582  0.6786  0.1868  0.5126
29974SOL     OW92238   8.280   7.446   6.536 -0.2399 -0.1980  0.3770
29974SOL    HW192239   8.348   7.484   6.481 -1.3688 -0.8006 -1.5157
29974SOL    HW292240   8.223   7.520   6.558  0.5106  0.1419  1.2097
29975SOL     OW92241   4.426   7.780   6.589 -0.2408 -0.2339  0.2825
29975SOL    HW192242   4.343   7.732   6.583 -0.4697  0.2135 -0.3373
29975SOL    HW292243   4.418   7.832   6.669 -0.9073  0.4256 -0.2004
29976SOL     OW92244   4.000   8.056   6.135 -0.3827 -0.7230 -0.3897
29976SOL    HW192245   4.084   8.017   6.159 -0.5221 -0.5548  0.3911
29976SOL    HW292246   4.021   8.146   6.111 -0.5321 -0.1894  1.3664
29977SOL     OW92247   3.329  10.339   0.804  0.0846  0.1033  0.3123
29977SOL    HW192248   3.259  10.404   0.811  1.4454  1.6071  0.5632
29977SOL    HW292249   3.401  10.377   0.854  0.7026 -1.9577  1.0828
29978SOL     OW92250   2.004   9.115   0.014  0.5379  0.2971 -0.1529
29978SOL    HW192251   2.014   9.121  -0.081  0.3307  1.6548 -0.0952
29978SOL    HW292252   2.081   9.064   0.042  0.5099 -0.2647 -1.0436
29979SOL     OW92253   6.530  10.091   7.265  0.6786  0.3690 -0.1488
29979SOL    HW192254   6.575  10.035   7.329 -0.7418 -1.0931 -0.3697
29979SOL    HW292255   6.536  10.043   7.182  1.2942  1.5933 -0.8343
29980SOL     OW92256   0.537   3.160   8.924  0.2567 -0.3463 -0.3571
29980SOL    HW192257   0.548   3.092   8.990 -1.0433  0.2928  0.5585
29980SOL    HW292258   0.598   3.229   8.950  0.6877 -0.6377 -0.5845
29981SOL     OW92259   4.042   3.673   9.435  0.0797 -0.1377 -0.6567
29981SOL    HW192260   4.020   3.766   9.423  0.0427  0.1148  1.1504
29981SOL    HW292261   4.128   3.674   9.476  0.1488 -0.9160 -0.7680
29982SOL     OW92262   3.274   9.256   8.230  0.4126  0.4062 -0.2226
29982SOL    HW192263   3.190   9.302   8.232  0.3847  0.3819 -0.8233
29982SOL    HW292264   3.337   9.318   8.268 -0.2677 -0.4229  2.5000
29983SOL     OW92265   3.231   6.999   6.946  0.3979 -0.2107  0.1390
29983SOL    HW192266   3.239   7.082   6.899 -0.9171 -0.0216  0.1882
29983SOL    HW292267   3.187   7.023   7.028 -0.3828 -0.9927 -0.0330
29984SOL     OW92268   9.832   2.942   2.565  0.0413  0.1342 -0.6319
29984SOL    HW192269   9.781   2.961   2.487  0.1905 -0.0044 -0.7641
29984SOL    HW292270   9.815   2.849   2.583 -0.9552  0.4507  0.2055
29985SOL     OW92271   9.265  10.594   4.932  0.3000 -0.7345 -0.1133
29985SOL    HW192272   9.199  10.530   4.962 -1.6446  1.2107  0.0067
29985SOL    HW292273   9.262  10.588   4.837  0.0138 -0.7190 -0.1070
29986SOL     OW92274   6.534   2.201   4.975  0.4841  0.0358  0.3206
29986SOL    HW192275   6.528   2.294   4.999 -0.0967 -0.2238  1.2197
29986SOL    HW292276   6.627   2.181   4.978  0.4797  0.1189  2.0140
29987SOL     OW92277   7.375   3.347   2.506 -0.0047 -0.0184  0.0188
29987SOL    HW192278   7.317   3.331   2.580 -0.4376  0.2289 -0.2633
29987SOL    HW292279   7.320   3.392   2.441  0.3466 -0.2888 -0.4788
29988SOL     OW92280   1.015   2.214   3.159  0.8274  0.0745 -0.3712
29988SOL    HW192281   1.035   2.234   3.250 -0.8832  1.6805 -0.2843
29988SOL    HW292282   0.954   2.141   3.162 -0.8809  1.4517 -0.0446
29989SOL     OW92283   3.063   0.979   1.338 -0.8210  0.1856 -0.0598
29989SOL    HW192284   3.028   0.923   1.406 -0.6418 -0.2500 -0.3194
29989SOL    HW292285   3.127   1.034   1.382 -0.4313 -0.3558  0.0559
29990SOL     OW92286   0.119   0.172   7.506  0.0209  0.2389  0.3263
29990SOL    HW192287   0.098   0.088   7.465  2.2562 -0.2228 -0.0036
29990SOL    HW292288   0.034   0.212   7.524 -1.0826 -1.1703 -1.4150
29991SOL     OW92289   4.150   4.496   4.992  0.3260 -0.2359  0.6750
29991SOL    HW192290   4.057   4.488   4.969  0.3635 -1.5607  0.9158
29991SOL    HW292291   4.187   4.549   4.922 -0.0832 -2.0136 -0.9681
29992SOL     OW92292   7.341   9.945   4.697 -0.2521  0.1731  0.1513
29992SOL    HW192293   7.325  10.005   4.625  0.3161  0.2185  0.0590
29992SOL    HW292294   7.254   9.916   4.724 -0.4240 -1.2240 -1.7009
29993SOL     OW92295   0.086   1.476   6.004 -0.0524  0.3387  0.1515
29993SOL    HW192296   0.142   1.552   6.021  1.7930 -0.6976 -0.9208
29993SOL    HW292297   0.076   1.433   6.088  1.1816  0.3071  0.2991
29994SOL     OW92298  10.557   3.437   1.890  0.3235 -0.2275  0.0213
29994SOL    HW192299  10.542   3.530   1.908  0.9543  0.0420 -0.8074
29994SOL    HW292300  10.546   3.429   1.795  0.3518 -0.9901  0.0765
29995SOL     OW92301   7.917   7.456   5.094 -0.0981  0.0926 -0.5048
29995SOL    HW192302   7.867   7.482   5.017 -0.5778 -1.7702 -0.8748
29995SOL    HW292303   8.000   7.423   5.059 -0.1016 -0.2585 -0.1960
29996SOL     OW92304   4.162   6.998  10.388 -0.0035 -0.0718 -0.1215
29996SOL    HW192305   4.165   7.079  10.438  0.9885  0.2547 -0.6763
29996SOL    HW292306   4.254   6.974  10.376 -0.2593 -0.8085 -0.7017
29997SOL     OW92307   6.102   9.614   1.405 -0.3026 -0.6151  0.4737
29997SOL    HW192308   6.114   9.528   1.365 -2.6436 -0.4118 -0.8663
29997SOL    HW292309   6.021   9.606   1.455 -0.5030  0.7636  0.4201
29998SOL     OW92310   4.775   2.450   3.488  0.1516 -0.5325  0.3364
29998SOL    HW192311   4.682   2.466   3.475  0.0999 -0.6920  0.5097
29998SOL    HW292312   4.801   2.510   3.558  0.3475  0.0553 -0.2343
29999SOL     OW92313   0.982   9.082  10.567  0.1333  0.1211 -0.2735
29999SOL    HW192314   1.073   9.055  10.550  0.3184  0.7617 -0.3399
29999SOL    HW292315   0.972   9.164  10.518 -0.8342 -0.5231 -1.1932
30000SOL     OW92316   0.789   2.738  10.245 -0.2781 -0.4297  0.5232
30000SOL    HW192317   0.840   2.785  10.311 -1.2636  1.8354 -0.2158
30000SOL    HW292318   0.727   2.686  10.295  0.8000 -0.9185  1.3827
30001SOL     OW92319   3.009   1.437   9.146 -0.1536 -0.3670  0.6015
30001SOL    HW192320   3.020   1.433   9.051  1.0108 -1.0120  0.7382
30001SOL    HW292321   3.023   1.529   9.168 -0.9846 -0.1119  0.1024
30002SOL     OW92322   6.371   5.990   7.025 -0.0833  0.0640  0.2240
30002SOL    HW192323   6.401   6.054   7.089  0.0600 -1.6306  1.9440
30002SOL    HW292324   6.425   6.006   6.947  2.4825 -0.2394  1.8229
30003SOL     OW92325   8.146   8.726   5.063  0.4916 -0.0245  0.3512
30003SOL    HW192326   8.056   8.724   5.033  0.3652 -1.3320  0.7775
30003SOL    HW292327   8.198   8.707   4.985  0.3094 -0.8573  0.4315
30004SOL     OW92328   0.848   8.114   4.627  0.0186 -0.8442 -0.5946
30004SOL    HW192329   0.908   8.050   4.667  1.8879  1.3949  0.3956
30004SOL    HW292330   0.875   8.118   4.536  1.1438 -0.1802 -0.2556
30005SOL     OW92331  10.410   1.439   1.101  0.2480  0.2402  0.2573
30005SOL    HW192332  10.329   1.480   1.070  0.6859  0.7818 -0.2015
30005SOL    HW292333  10.382   1.381   1.171 -0.5172  0.5642  0.2340
30006SOL     OW92334   9.000   2.099   2.009  0.4517 -0.4788  0.0864
30006SOL    HW192335   9.069   2.108   2.075  1.8446  2.2245 -1.5165
30006SOL    HW292336   8.952   2.182   2.014 -0.6059 -0.9924 -1.0315
30007SOL     OW92337  10.104   8.634   8.231 -0.5979  0.4136 -0.4522
30007SOL    HW192338  10.113   8.591   8.146  0.2568  1.8752 -1.1354
30007SOL    HW292339  10.057   8.570   8.285 -0.1070 -1.0205 -1.6520
30008SOL     OW92340   3.194   0.828   1.667  0.3444 -0.4180  0.7651
30008SOL    HW192341   3.213   0.773   1.743  0.6486 -0.7335  0.4660
30008SOL    HW292342   3.271   0.883   1.657  0.0400  0.0687  1.0626
30009SOL     OW92343   0.853   3.460   1.257 -0.3010  0.0657 -0.3546
30009SOL    HW192344   0.808   3.466   1.172 -1.7207  1.0435  0.4247
30009SOL    HW292345   0.821   3.536   1.306 -0.3646 -1.0779  1.4576
30010SOL     OW92346   4.706   1.554   9.416  0.0202  0.2894  0.3516
30010SOL    HW192347   4.699   1.464   9.386  0.8902  0.7799 -1.4847
30010SOL    HW292348   4.741   1.547   9.505 -2.4279 -1.2266  1.2997
30011SOL     OW92349   0.712   0.174   9.056 -0.1149 -0.5353 -0.2160
30011SOL    HW192350   0.644   0.138   8.999 -0.0103 -0.9897 -0.0535
30011SOL    HW292351   0.760   0.234   9.000 -1.2153  0.5005 -0.1017
30012SOL     OW92352   3.038   2.139   0.245  0.0318 -0.4031 -0.5377
30012SOL    HW192353   2.962   2.194   0.232 -0.1622 -0.0874  1.6128
30012SOL    HW292354   3.111   2.188   0.206 -0.7743 -0.6387 -2.4608
30013SOL     OW92355   7.149   8.977   0.588  0.2243 -0.1085 -0.0490
30013SOL    HW192356   7.091   8.901   0.596  1.3001 -1.0748 -0.9622
30013SOL    HW292357   7.210   8.952   0.518  2.8885  0.0975  2.0708
30014SOL     OW92358   1.874   2.780   7.408  0.4054 -0.1629 -0.1481
30014SOL    HW192359   1.827   2.820   7.482  1.9838  1.7747 -0.1306
30014SOL    HW292360   1.818   2.797   7.333 -0.0548 -0.0160  0.2212
30015SOL     OW92361   5.510   7.884   1.966 -0.0944 -0.3857 -0.0717
30015SOL    HW192362   5.546   7.812   2.018  1.3373 -1.1415 -1.9847
30015SOL    HW292363   5.421   7.858   1.946 -0.1215 -0.8450  0.6139
30016SOL     OW92364   8.842   9.638   4.198  0.0602 -0.4219 -0.2898
30016SOL    HW192365   8.919   9.583   4.186  0.7387  0.3673  0.3839
30016SOL    HW292366   8.779   9.581   4.243  0.7041 -0.6975  0.2843
30017SOL     OW92367   4.831   6.500   5.497 -0.7282  0.7391 -0.1719
30017SOL    HW192368   4.835   6.471   5.588  0.0775 -2.1111 -1.0099
30017SOL    HW292369   4.894   6.572   5.492  0.4476 -0.1336  1.2077
30018SOL     OW92370   5.032   8.432   6.895  0.1584  0.1242 -0.1723
30018SOL    HW192371   5.125   8.433   6.870  0.5660  1.2545  1.2805
30018SOL    HW292372   5.032   8.451   6.988 -1.5450 -0.1460 -0.0906
30019SOL     OW92373   4.689   5.755   8.111 -0.1213 -0.3458  0.3389
30019SOL    HW192374   4.766   5.809   8.132 -0.3704  0.2744 -0.2905
30019SOL    HW292375   4.615   5.811   8.135 -0.3910 -0.1882 -0.8255
30020SOL     OW92376   4.638  10.515   3.634 -0.0679  0.0893 -0.5231
30020SOL    HW192377   4.662  10.464   3.712 -0.7023 -0.5842 -0.7569
30020SOL    HW292378   4.690  10.477   3.564  2.0333  1.9938 -0.1087
30021SOL     OW92379   4.586   0.836   5.496  0.0414 -0.4407  0.2608
30021SOL    HW192380   4.564   0.769   5.561 -0.6930  0.4356  0.9513
30021SOL    HW292381   4.674   0.865   5.520  0.4694 -1.3314 -0.2041
30022SOL     OW92382   3.860   7.181   3.408 -0.3076  0.2390  0.0492
30022SOL    HW192383   3.835   7.192   3.316  0.0550  0.4642 -0.0259
30022SOL    HW292384   3.870   7.087   3.420 -0.8251  0.1749 -0.0167
30023SOL     OW92385   4.972  10.389   6.903  0.8885  0.6219  0.2567
30023SOL    HW192386   4.977  10.430   6.989  1.6741  0.5342  0.2651
30023SOL    HW292387   5.063  10.371   6.880  0.5933 -0.8937  0.1512
30024SOL     OW92388   0.776   5.878   3.959 -0.1752  0.1062  0.2253
30024SOL    HW192389   0.776   5.966   3.998  0.2251  0.4347 -0.5032
30024SOL    HW292390   0.862   5.870   3.918 -1.2293  0.5033 -2.1912
30025SOL     OW92391   0.114   9.480   5.619  0.4801 -0.3517  0.4297
30025SOL    HW192392   0.114   9.386   5.635 -1.1273 -0.2879  0.9179
30025SOL    HW292393   0.204   9.507   5.640  0.8540 -1.7002  0.6771
30026SOL     OW92394   3.637   4.574   2.864  0.2260  0.0944 -0.3207
30026SOL    HW192395   3.693   4.634   2.815 -0.6247  1.4754  0.3631
30026SOL    HW292396   3.567   4.628   2.899 -1.3172 -1.5126 -0.7617
30027SOL     OW92397   3.439   4.072   4.701  0.0208  0.2395  0.1767
30027SOL    HW192398   3.419   4.118   4.620  1.9971 -2.1290 -1.7928
30027SOL    HW292399   3.362   4.086   4.756 -2.8023 -0.5449 -3.2456
30028SOL     OW92400   6.214   2.803  10.023  0.1870 -0.2256  0.6548
30028SOL    HW192401   6.234   2.716  10.058  0.9453 -0.5235 -0.4387
30028SOL    HW292402   6.268   2.809   9.944 -0.6344  0.8309  0.1544
30029SOL     OW92403   5.248   8.606   4.299 -0.4515 -0.1824  0.2100
30029SOL    HW192404   5.219   8.517   4.318 -0.2488  0.1814  2.4207
30029SOL    HW292405   5.219   8.657   4.374  1.2965  1.2028 -0.0092
30030SOL     OW92406   0.439   9.161  10.353 -0.4462  0.0314 -0.2003
30030SOL    HW192407   0.359   9.113  10.370  0.2869 -0.8234  0.9287
30030SOL    HW292408   0.509   9.098  10.367  0.4269  0.5572 -1.8806
30031SOL     OW92409  10.581   0.873   0.129 -0.1637  0.0644 -0.5246
30031SOL    HW192410  10.651   0.879   0.194 -2.2907 -0.3115  2.0372
30031SOL    HW292411  10.593   0.949   0.072  0.1884  2.2324  2.2070
30032SOL     OW92412   6.065   6.334   4.810  0.0302  0.1218  0.0652
30032SOL    HW192413   6.032   6.275   4.742 -1.6256 -0.7443  1.5400
30032SOL    HW292414   6.153   6.357   4.781 -0.4965 -0.4578 -2.1933
30033SOL     OW92415   7.443   6.407   3.407  0.2231  0.2535 -0.0884
30033SOL    HW192416   7.350   6.426   3.393  0.2966 -0.0333 -1.0070
30033SOL    HW292417   7.448   6.380   3.499 -0.0801  3.3011  0.9232
30034SOL     OW92418   6.655   9.983   1.877 -0.0304 -0.0982 -0.2479
30034SOL    HW192419   6.673   9.957   1.968  0.3758 -0.2163 -0.3622
30034SOL    HW292420   6.739  10.013   1.843 -0.5321  1.6794 -0.0318
30035SOL     OW92421   4.818   0.934   4.228 -0.3617  0.4910  0.6027
30035SOL    HW192422   4.734   0.981   4.221 -1.4636 -1.4314  0.2682
30035SOL    HW292423   4.819   0.902   4.318 -0.1249  0.2366  0.5070
30036SOL     OW92424   4.748   2.017   2.015  0.1736  0.0965 -0.3614
30036SOL    HW192425   4.730   1.934   2.060  2.2694 -1.4017 -2.1010
30036SOL    HW292426   4.662   2.058   2.006 -1.4179 -3.1786 -1.8298
30037SOL     OW92427   8.746   9.958   8.738 -0.3426 -0.6207  0.4565
30037SOL    HW192428   8.657   9.926   8.725 -0.8215  0.6984  0.2299
30037SOL    HW292429   8.799   9.880   8.749 -1.3102 -1.5055 -0.8305
30038SOL     OW92430   3.793   4.946   3.641  0.3257  0.0653 -0.1817
30038SOL    HW192431   3.749   5.020   3.599 -0.0760  1.6407  2.7035
30038SOL    HW292432   3.877   4.982   3.671 -0.2795 -0.2800  2.1115
30039SOL     OW92433   4.715   6.249   9.902 -0.4137 -0.0578  0.1345
30039SOL    HW192434   4.800   6.234   9.861  0.7126 -0.7008  2.5128
30039SOL    HW292435   4.689   6.162   9.934 -0.6127  0.6069  1.8491
30040SOL     OW92436   7.005   0.994   2.840 -0.4296 -0.3382  0.1099
30040SOL    HW192437   7.015   0.971   2.748  2.5711 -0.7364  0.4410
30040SOL    HW292438   6.933   0.940   2.871 -0.6174 -1.1804 -1.6952
30041SOL     OW92439   2.945   6.466   5.947  0.5540  0.2998  0.2357
30041SOL    HW192440   3.035   6.448   5.922  0.6970  1.7917 -0.3965
30041SOL    HW292441   2.913   6.383   5.982  0.3009 -2.1707 -4.9586
30042SOL     OW92442   5.512   4.512   0.063 -0.2385  0.5549  0.5186
30042SOL    HW192443   5.480   4.424   0.046 -2.7573  1.1314  1.7164
30042SOL    HW292444   5.592   4.499   0.114 -0.2954 -1.0176  0.2515
30043SOL     OW92445   0.917   9.118   2.123 -0.0858 -0.6139  0.0940
30043SOL    HW192446   0.908   9.141   2.030  1.6357 -4.9139 -1.3735
30043SOL    HW292447   0.860   9.042   2.134 -2.0651  1.1239  3.3385
30044SOL     OW92448   3.939   6.635   6.633  0.1816 -0.3295  0.0684
30044SOL    HW192449   3.844   6.623   6.635  0.0325 -0.1548 -2.2794
30044SOL    HW292450   3.952   6.711   6.576  1.7364 -0.3252  0.3867
30045SOL     OW92451   3.873   0.396   9.118  0.2451  0.3478  0.3112
30045SOL    HW192452   3.873   0.354   9.204  0.8049  2.0920  1.2029
30045SOL    HW292453   3.784   0.432   9.109  0.0911 -0.0999  0.0151
30046SOL     OW92454   3.128   5.505   4.657 -0.2046 -0.0266 -0.0851
30046SOL    HW192455   3.204   5.459   4.691  0.6381  0.4189 -1.2687
30046SOL    HW292456   3.054   5.471   4.707  0.7986 -0.2829  1.2669
30047SOL     OW92457   4.524   4.307   0.650 -0.1267 -0.0252 -0.0426
30047SOL    HW192458   4.449   4.286   0.705 -0.0719  0.7940  0.3658
30047SOL    HW292459   4.585   4.352   0.709  0.9824 -1.2602 -0.2029
30048SOL     OW92460   9.391   2.758   9.930  0.2574 -0.4227 -0.0390
30048SOL    HW192461   9.431   2.823   9.989  2.4621 -1.0525 -0.7948
30048SOL    HW292462   9.391   2.800   9.844 -0.2101 -0.6719 -0.1675
30049SOL     OW92463   0.341   2.759   6.259  0.1207  0.0492  0.0227
30049SOL    HW192464   0.288   2.688   6.222 -0.1038  0.1333  0.1729
30049SOL    HW292465   0.281   2.834   6.262  0.6359  0.5213 -1.0428
30050SOL     OW92466   9.531   2.372   2.596 -0.6559  0.4058  0.1333
30050SOL    HW192467   9.482   2.330   2.666 -1.9548  0.4096 -0.7421
30050SOL    HW292468   9.583   2.439   2.640 -1.0373  0.0449  1.1475
30051SOL     OW92469   6.486   1.084   6.924  0.6042 -0.0407 -0.0764
30051SOL    HW192470   6.451   1.160   6.878  2.5122  1.2734  0.5114
30051SOL    HW292471   6.483   1.013   6.860  1.0567  1.1604 -1.4669
30052SOL     OW92472   9.057   9.550   7.176  0.4103  0.3679 -0.2846
30052SOL    HW192473   9.130   9.537   7.237  1.4124  2.3536 -0.9711
30052SOL    HW292474   9.100   9.572   7.093 -0.9737  1.0036 -0.8512
30053SOL     OW92475   4.961   9.828   7.735  0.1586  0.0924 -0.1905
30053SOL    HW192476   4.969   9.915   7.695 -1.0173  0.2649 -0.0886
30053SOL    HW292477   4.867   9.817   7.750  0.3980 -0.7413  0.8307
30054SOL     OW92478   1.269   9.707  10.368  0.3927 -0.3654 -0.3322
30054SOL    HW192479   1.272   9.794  10.407 -2.5960 -0.2730 -0.0764
30054SOL    HW292480   1.309   9.650  10.433 -0.4070  0.4168  0.8786
30055SOL     OW92481   7.478   6.223  10.073 -0.4623  0.4997  0.0082
30055SOL    HW192482   7.469   6.314  10.104  0.4757  0.4018  0.6244
30055SOL    HW292483   7.477   6.170  10.152  0.5011  0.1123 -0.2175
30056SOL     OW92484   7.914   3.518   8.962 -0.1714  0.7580 -0.5527
30056SOL    HW192485   7.941   3.429   8.939 -0.3268  0.8763 -1.2152
30056SOL    HW292486   7.995   3.564   8.982 -0.1373  0.3042  0.4065
30057SOL     OW92487   3.783   7.050   8.734  0.2699 -0.1331 -0.2379
30057SOL    HW192488   3.707   7.073   8.681  0.2362 -3.2326 -1.7419
30057SOL    HW292489   3.748   6.988   8.799  0.8365  1.4976  1.7205
30058SOL     OW92490   9.267   4.731   1.114  0.4020 -0.0055 -0.0488
30058SOL    HW192491   9.227   4.645   1.126  1.6634 -0.4524  1.1663
30058SOL    HW292492   9.346   4.714   1.063  2.1469 -0.0368  2.5008
30059SOL     OW92493   2.606   1.273   7.266 -0.1749  0.3821 -0.3923
30059SOL    HW192494   2.609   1.288   7.361 -0.3068  1.6563 -0.5765
30059SOL    HW292495   2.549   1.196   7.256 -0.6962  0.6324  0.5141
30060SOL     OW92496   7.301   7.527   5.043 -0.4549  0.2756  0.4724
30060SOL    HW192497   7.206   7.534   5.036 -0.2402  2.9292 -1.3383
30060SOL    HW292498   7.328   7.493   4.957  0.2928  0.3854  0.6579
30061SOL     OW92499   3.291   6.948   4.705  0.5117  0.1709 -0.7933
30061SOL    HW192500   3.293   6.902   4.621  1.4467 -1.2034 -0.0672
30061SOL    HW292501   3.200   6.945   4.732 -0.2497  2.5806 -2.7260
30062SOL     OW92502   0.518   7.551   1.795 -0.3748 -0.0878 -0.2230
30062SOL    HW192503   0.596   7.581   1.747 -0.6954  2.0243  0.4671
30062SOL    HW292504   0.552   7.522   1.879 -0.2439  0.1068 -0.2075
30063SOL     OW92505   0.613   7.989   0.388 -0.2681  0.0964  0.5143
30063SOL    HW192506   0.688   7.940   0.354 -0.1202  0.8418 -0.2655
30063SOL    HW292507   0.537   7.944   0.352 -0.1386  0.2998 -0.0311
30064SOL     OW92508   8.226   6.120   3.337 -0.6967 -0.2108 -0.1701
30064SOL    HW192509   8.305   6.117   3.284 -0.8428  2.2122 -0.6430
30064SOL    HW292510   8.252   6.171   3.414 -1.7581  0.4904 -0.2697
30065SOL     OW92511  10.208   7.919   7.754 -0.3513  0.5147  0.3523
30065SOL    HW192512  10.207   7.840   7.701  2.8927 -0.2448  1.2157
30065SOL    HW292513  10.195   7.888   7.844 -1.1310  1.2410  0.5067
30066SOL     OW92514   7.726   0.414   8.924  0.0477 -0.4951 -0.1409
30066SOL    HW192515   7.722   0.375   8.837 -0.8240 -1.7413  0.4261
30066SOL    HW292516   7.668   0.490   8.919  1.4660  0.5735 -1.1519
30067SOL     OW92517   9.233   0.472   2.619 -0.4004 -0.1474  0.6486
30067SOL    HW192518   9.155   0.506   2.574 -0.0318  1.6882  1.3206
30067SOL    HW292519   9.307   0.516   2.575  0.2331 -1.3023  0.5087
30068SOL     OW92520   4.122   8.692   3.695  0.1593  0.6100 -0.2319
30068SOL    HW192521   4.165   8.648   3.768  0.0173 -0.7677 -0.9398
30068SOL    HW292522   4.053   8.745   3.735 -0.7538 -1.1172  0.5755
30069SOL     OW92523   8.564   4.867   0.532  0.4757  0.0239 -0.2792
30069SOL    HW192524   8.540   4.774   0.529  1.6010 -0.2700 -0.7976
30069SOL    HW292525   8.530   4.898   0.616 -0.0104 -0.8262 -0.1473
30070SOL     OW92526   7.100   0.187   4.049  0.2678  0.6193 -0.1172
30070SOL    HW192527   7.023   0.152   4.005  1.6171 -1.6875 -0.8290
30070SOL    HW292528   7.085   0.170   4.142 -0.5896  1.3031 -0.1206
30071SOL     OW92529   4.591   7.281   1.409 -0.5041  0.1083  0.4649
30071SOL    HW192530   4.637   7.311   1.331 -2.4014 -0.1255 -0.8280
30071SOL    HW292531   4.593   7.355   1.469 -4.2786  2.8252 -2.2660
30072SOL     OW92532  10.248   0.037   6.036 -0.2152  0.1840 -0.1046
30072SOL    HW192533  10.239  -0.058   6.047 -2.3743  0.5081  1.8840
30072SOL    HW292534  10.243   0.051   5.942  1.3334 -1.7397 -0.5354
30073SOL     OW92535   7.456   5.212   2.226 -0.0469  0.0605 -0.1273
30073SOL    HW192536   7.398   5.287   2.217 -1.7413 -1.1438  0.2432
30073SOL    HW292537   7.471   5.182   2.136  0.0023  0.3678 -0.2222
30074SOL     OW92538   2.678   5.644   3.000  0.3659  0.6498  0.5944
30074SOL    HW192539   2.686   5.625   2.906  1.0322  0.5378  0.6684
30074SOL    HW292540   2.603   5.704   3.006 -1.2106 -1.1956  0.2680
30075SOL     OW92541   6.907  10.094   2.678 -0.7582 -0.3306  0.3963
30075SOL    HW192542   6.906  10.001   2.701  3.2732 -0.5379  0.4465
30075SOL    HW292543   6.888  10.096   2.584 -0.1564 -1.2868  0.2473
30076SOL     OW92544   4.699   6.924   7.651  0.1010  0.1327  0.0180
30076SOL    HW192545   4.667   6.974   7.725 -0.9491  1.4458 -1.2683
30076SOL    HW292546   4.703   6.833   7.683  1.7461  0.9260  2.2900
30077SOL     OW92547   1.332   9.558   6.798  0.0258 -0.0431 -0.3162
30077SOL    HW192548   1.425   9.580   6.809  0.0601 -0.2907 -0.0972
30077SOL    HW292549   1.327   9.521   6.710 -0.2560  1.9761 -1.1958
30078SOL     OW92550   7.374   9.551   7.355 -0.2629  0.1270  0.1555
30078SOL    HW192551   7.431   9.580   7.426  0.2870  0.7375 -0.5204
30078SOL    HW292552   7.287   9.581   7.381 -0.0374  0.4998  0.4856
30079SOL     OW92553   1.048   0.688   5.105 -0.1312  0.6151  0.2017
30079SOL    HW192554   1.095   0.755   5.055  0.5709  0.6731  0.9181
30079SOL    HW292555   1.014   0.735   5.181 -1.9894  0.7342 -0.6397
30080SOL     OW92556   9.661   4.345   7.211 -0.0931  0.8747  0.6144
30080SOL    HW192557   9.675   4.437   7.232  2.3351  0.9388 -0.8839
30080SOL    HW292558   9.741   4.302   7.239  0.4501 -0.0979 -2.1652
30081SOL     OW92559   7.658   9.218   6.477 -0.0041  0.3174  0.8140
30081SOL    HW192560   7.729   9.277   6.452  1.8388 -1.5504  1.4516
30081SOL    HW292561   7.643   9.164   6.400 -1.6208  1.4340  0.2711
30082SOL     OW92562   2.770   9.835  10.312 -0.3578  0.1674  0.2276
30082SOL    HW192563   2.821   9.823  10.231  0.9352  0.1425  1.0283
30082SOL    HW292564   2.794   9.922  10.343 -1.2601  0.3905  0.3206
30083SOL     OW92565   1.087   6.214   4.878  0.1002 -0.7999 -0.2802
30083SOL    HW192566   1.165   6.248   4.920  1.5130 -1.5374 -2.1902
30083SOL    HW292567   1.066   6.277   4.809 -1.9316  0.1747  1.1256
30084SOL     OW92568   1.253   1.178   4.890  0.5088 -0.4314 -0.0845
30084SOL    HW192569   1.170   1.219   4.915 -0.0790 -0.2114 -2.2324
30084SOL    HW292570   1.319   1.246   4.908 -0.3200  1.1328 -2.4614
30085SOL     OW92571   0.646   3.582   5.880  0.3464  0.0309 -0.1677
30085SOL    HW192572   0.633   3.527   5.803 -0.1323 -0.4365  0.2451
30085SOL    HW292573   0.610   3.667   5.854  0.1001 -0.1499 -0.4288
30086SOL     OW92574   4.815   2.638   9.410 -0.0969  0.1536  0.2452
30086SOL    HW192575   4.887   2.582   9.440  0.8516  1.4663  0.5107
30086SOL    HW292576   4.752   2.577   9.373  1.3531 -1.0135 -0.4453
30087SOL     OW92577   9.775   1.108   0.046 -0.4950 -0.1112 -0.1615
30087SOL    HW192578   9.783   1.203   0.038 -2.5644  0.1885  0.6669
30087SOL    HW292579   9.744   1.079  -0.040  1.1703 -0.2307 -0.7639
30088SOL     OW92580   9.709   0.873   4.352  0.2880 -0.3629 -0.3874
30088SOL    HW192581   9.621   0.907   4.369 -0.0925 -1.7636  0.5830
30088SOL    HW292582   9.739   0.838   4.435  1.4998 -0.5435 -0.8696
30089SOL     OW92583   4.256   1.900   7.311 -0.3497 -0.3794  0.1545
30089SOL    HW192584   4.216   1.829   7.260 -2.3249  0.4910  0.3815
30089SOL    HW292585   4.344   1.869   7.331 -0.4880 -1.9184 -1.4107
30090SOL     OW92586   4.054   1.156   2.676 -0.3381 -0.4217 -0.0856
30090SOL    HW192587   4.148   1.148   2.659 -0.1854  0.3380  0.3618
30090SOL    HW292588   4.013   1.123   2.596  0.3123 -0.4026 -0.4371
30091SOL     OW92589   8.316   0.900   4.669  0.4529  0.2165  0.0850
30091SOL    HW192590   8.345   0.991   4.675  1.4387  0.0242 -1.3078
30091SOL    HW292591   8.221   0.904   4.676  0.5257  1.2866  0.6102
30092SOL     OW92592  10.225   2.058   5.488 -0.2370 -0.3697  0.5044
30092SOL    HW192593  10.290   2.124   5.464  1.2016 -1.6334  0.7651
30092SOL    HW292594  10.248   1.981   5.436 -1.2978 -0.9672  0.8847
30093SOL     OW92595   3.645   9.808   4.650 -0.0621 -0.1866 -0.0536
30093SOL    HW192596   3.696   9.886   4.669 -0.4995 -0.1172  0.9097
30093SOL    HW292597   3.703   9.735   4.674 -0.7013 -0.0980  1.9320
30094SOL     OW92598   4.881   7.249   6.680  0.1306 -0.2198  0.4283
30094SOL    HW192599   4.842   7.164   6.697  0.0194 -0.2070  0.2369
30094SOL    HW292600   4.844   7.307   6.747 -2.6954  0.5748 -1.6220
30095SOL     OW92601   6.040   2.138   6.494 -0.0571 -0.6682 -0.0537
30095SOL    HW192602   6.126   2.120   6.531  1.0045 -0.9489 -2.5135
30095SOL    HW292603   6.033   2.233   6.494 -1.3913 -0.5924  3.4885
30096SOL     OW92604   2.904   5.260   3.988 -0.1755  0.6547  0.4553
30096SOL    HW192605   2.899   5.343   4.036  2.2718  1.1459  0.0292
30096SOL    HW292606   2.923   5.195   4.056 -0.2813  0.7568  0.5844
30097SOL     OW92607  10.341   0.510   1.045  0.5159 -0.2111  0.0983
30097SOL    HW192608  10.418   0.512   1.102  1.3449  0.6424 -1.0101
30097SOL    HW292609  10.344   0.593   0.997 -1.7521  0.3723  0.8531
30098SOL     OW92610   3.012  10.572   7.638 -0.2698  0.2802 -0.4059
30098SOL    HW192611   2.936  10.556   7.582  0.5745 -0.0447 -1.4961
30098SOL    HW292612   3.019  10.668   7.641  0.1203  0.3020 -1.5049
30099SOL     OW92613   8.929   3.904   5.923 -0.2293 -0.3845  0.6523
30099SOL    HW192614   8.915   3.988   5.967 -2.7169  0.0547 -0.7482
30099SOL    HW292615   8.862   3.846   5.960 -0.5011 -0.8358 -0.4951
30100SOL     OW92616   2.638   0.014   6.019  0.4923 -0.1342 -0.2997
30100SOL    HW192617   2.596  -0.042   6.085 -1.9537  2.0483  0.1875
30100SOL    HW292618   2.628  -0.033   5.937 -1.2424 -0.6016  0.1346
30101SOL     OW92619   5.194   5.499   6.977  0.8209 -0.3873 -0.0244
30101SOL    HW192620   5.252   5.487   6.902  0.9349 -0.3757  0.0615
30101SOL    HW292621   5.111   5.462   6.950  0.6562  0.2538 -0.4226
30102SOL     OW92622   3.577   9.770   7.102 -0.3696  0.6596 -0.6942
30102SOL    HW192623   3.660   9.792   7.059 -0.5885  1.8998 -0.5184
30102SOL    HW292624   3.584   9.810   7.188 -0.5348 -0.5628 -0.0898
30103SOL     OW92625   3.069   8.970   4.144  0.1935 -1.0461 -0.7789
30103SOL    HW192626   3.147   8.926   4.177  0.3090  0.9609  1.9421
30103SOL    HW292627   3.101   9.055   4.113 -0.7398 -0.7613 -1.0017
30104SOL     OW92628   4.232   4.512   1.584  0.4112 -0.2579 -0.2057
30104SOL    HW192629   4.274   4.435   1.546  0.6783 -0.2761  0.1290
30104SOL    HW292630   4.187   4.479   1.662  1.5633  0.1416  0.6440
30105SOL     OW92631   8.112   6.404   4.026 -0.2055  0.2184  0.1895
30105SOL    HW192632   8.075   6.391   3.939  0.0975  0.0405  0.0822
30105SOL    HW292633   8.112   6.499   4.039 -0.4048  0.2357  0.0644
30106SOL     OW92634   5.920   1.318   7.740  0.2772 -0.0159 -0.2824
30106SOL    HW192635   5.848   1.286   7.686  0.1962  1.9867 -1.4662
30106SOL    HW292636   5.880   1.337   7.825  0.0353 -1.5031 -0.0291
30107SOL     OW92637   4.420   5.635   1.272  0.5069 -0.2015  0.5795
30107SOL    HW192638   4.345   5.636   1.331 -0.5714  0.5856 -0.7341
30107SOL    HW292639   4.414   5.718   1.223 -0.0700 -1.8011 -2.2948
30108SOL     OW92640   5.967   1.024   7.467  0.5140  0.2787  0.5119
30108SOL    HW192641   5.966   1.116   7.441  0.0564  0.5625  1.4825
30108SOL    HW292642   5.923   0.978   7.395  3.2446  0.3763 -1.3924
30109SOL     OW92643   0.938   4.871   9.564  0.5272 -0.1236  0.2649
30109SOL    HW192644   0.879   4.924   9.510  2.0451 -0.2461 -1.6493
30109SOL    HW292645   0.979   4.933   9.624  0.4896  0.4521 -0.2993
30110SOL     OW92646   7.661   4.685   7.960  0.4603 -0.2931 -0.4138
30110SOL    HW192647   7.728   4.642   7.906 -0.3481 -0.2196 -1.5058
30110SOL    HW292648   7.604   4.614   7.990  0.5346 -0.2595 -0.1920
30111SOL     OW92649   9.417   1.996   5.209  0.1416  0.3407  0.5961
30111SOL    HW192650   9.366   1.978   5.130 -0.6438 -0.9184  1.3514
30111SOL    HW292651   9.351   2.016   5.275  0.7664  0.9529  1.0359
30112SOL     OW92652   6.325   9.455   1.060 -0.0595  0.6194 -0.0471
30112SOL    HW192653   6.284   9.525   1.009 -0.7541 -0.0145 -0.3883
30112SOL    HW292654   6.271   9.448   1.139  0.4618  0.9786  0.3422
30113SOL     OW92655  10.541  10.254   5.918  0.2662  0.6471  0.1658
30113SOL    HW192656  10.548  10.350   5.916  0.2447  0.6352 -1.5759
30113SOL    HW292657  10.618  10.224   5.870 -0.9393 -0.1228 -1.3517
30114SOL     OW92658   8.448   6.767   5.786  0.0571  0.8523 -0.2699
30114SOL    HW192659   8.404   6.788   5.869  1.0305 -0.5379  0.6406
30114SOL    HW292660   8.385   6.793   5.719 -1.2619  0.9291  0.9343
30115SOL     OW92661   6.725   4.735   8.952 -0.2891  0.3101  0.2164
30115SOL    HW192662   6.715   4.660   9.011 -1.6519 -0.8223 -1.3604
30115SOL    HW292663   6.798   4.785   8.988  1.1964 -2.2018  0.8959
30116SOL     OW92664   2.654   3.818   7.421 -0.3202 -0.1026  0.1270
30116SOL    HW192665   2.716   3.840   7.490 -0.8961 -3.1694  1.7972
30116SOL    HW292666   2.710   3.797   7.345  0.3228  2.9841 -0.4007
30117SOL     OW92667   7.708   1.585   5.312  0.1546 -0.1724 -0.0437
30117SOL    HW192668   7.772   1.626   5.371  1.1606 -2.9510  0.9538
30117SOL    HW292669   7.628   1.579   5.365  0.3999 -0.6677  0.2781
30118SOL     OW92670   0.042   8.532   0.076 -0.3801 -0.3042 -0.5118
30118SOL    HW192671   0.097   8.552   0.000 -2.9841  0.8993 -2.1990
30118SOL    HW292672  -0.038   8.495   0.039 -1.5988 -0.0516  1.6882
30119SOL     OW92673   3.500   1.098   8.185 -0.8680  0.1571 -0.2095
30119SOL    HW192674   3.499   1.009   8.221  0.6624 -0.3753 -1.3483
30119SOL    HW292675   3.439   1.094   8.111 -0.3556 -0.1334 -0.6244
30120SOL     OW92676   8.188   6.341   5.202 -0.1831  0.5019  0.2186
30120SOL    HW192677   8.148   6.318   5.118  1.4482  0.1960 -0.5129
30120SOL    HW292678   8.130   6.408   5.239 -2.0400 -0.8245 -0.1670
30121SOL     OW92679   2.485   2.384   4.602  1.1027  0.3467 -0.2990
30121SOL    HW192680   2.412   2.363   4.661  0.9283  0.4668 -0.4689
30121SOL    HW292681   2.472   2.326   4.527  0.8161  0.8085 -0.6147
30122SOL     OW92682   7.337   3.758   1.527  0.5808  0.3949 -0.2535
30122SOL    HW192683   7.245   3.737   1.512  0.5728  0.0724  0.2183
30122SOL    HW292684   7.373   3.774   1.440  0.5248 -1.2839 -0.6166
30123SOL     OW92685   6.425   1.671   4.360  0.2485  0.1304  0.4478
30123SOL    HW192686   6.479   1.661   4.282  2.0110 -0.2780  1.6491
30123SOL    HW292687   6.430   1.764   4.381 -2.4929  0.8035 -1.3912
30124SOL     OW92688   2.851   7.849   8.494 -0.0449 -0.1418 -0.2672
30124SOL    HW192689   2.837   7.754   8.493  2.0349 -0.5378  1.3372
30124SOL    HW292690   2.911   7.864   8.567  0.5575  2.2919 -1.1594
30125SOL     OW92691   0.663   4.158   3.907 -0.2399  0.9156 -0.0711
30125SOL    HW192692   0.697   4.212   3.979 -0.0127  0.1631  0.4028
30125SOL    HW292693   0.575   4.190   3.892 -0.0996  1.4329  0.1904
30126SOL     OW92694   8.855   3.794   6.516 -0.4623  0.4190 -0.1159
30126SOL    HW192695   8.777   3.748   6.548 -0.7596  0.5804 -0.5874
30126SOL    HW292696   8.838   3.886   6.537 -1.1724  0.6790 -1.6986
30127SOL     OW92697   1.110   1.524   8.730  0.6406 -0.6667 -0.5494
30127SOL    HW192698   1.100   1.441   8.776 -0.0581 -1.3863 -1.9397
30127SOL    HW292699   1.049   1.583   8.775 -0.3527 -1.4689 -0.8048
30128SOL     OW92700   9.785   5.536   8.313  0.0375  0.5644 -0.1600
30128SOL    HW192701   9.793   5.612   8.256 -0.2789  0.3718 -0.4651
30128SOL    HW292702   9.816   5.462   8.259 -1.4126  0.1899 -0.5200
30129SOL     OW92703   2.959   6.135   7.367 -0.2827  0.0739  0.3526
30129SOL    HW192704   2.950   6.219   7.321  0.8105  0.2818  0.4724
30129SOL    HW292705   3.049   6.108   7.349 -0.7371 -1.2807 -0.0078
30130SOL     OW92706   7.786   7.260   8.789  0.0630 -0.0600 -0.0582
30130SOL    HW192707   7.835   7.333   8.749 -1.8175  0.5103 -1.4684
30130SOL    HW292708   7.822   7.253   8.877  1.4348  1.4865 -0.4400
30131SOL     OW92709   9.207   6.703   4.110 -0.7186 -0.1300  0.6709
30131SOL    HW192710   9.294   6.739   4.128 -0.0421 -1.9527  1.2719
30131SOL    HW292711   9.148   6.759   4.160 -0.2876  2.8116 -1.8068
30132SOL     OW92712  10.117   8.641   1.296  0.1815  0.6063 -0.5717
30132SOL    HW192713  10.128   8.627   1.202 -0.1353  0.5383 -0.5987
30132SOL    HW292714  10.023   8.632   1.311  0.2975  0.0515 -0.1523
30133SOL     OW92715  10.558   1.055   8.795 -0.5408 -0.1463 -0.2752
30133SOL    HW192716  10.639   1.004   8.798 -0.4646  0.0130  1.0951
30133SOL    HW292717  10.515   1.038   8.879 -1.4889  0.4857 -0.6077
30134SOL     OW92718   0.575   6.902   1.187 -0.3633 -0.2218  0.4531
30134SOL    HW192719   0.493   6.873   1.147 -1.0471  1.1436  0.8073
30134SOL    HW292720   0.566   6.997   1.196  2.3644  0.3930 -1.9644
30135SOL     OW92721   6.183   5.916   3.801  0.0557  0.2638 -0.3819
30135SOL    HW192722   6.267   5.893   3.841 -0.9568 -2.3270  0.4196
30135SOL    HW292723   6.199   5.909   3.707  0.2503 -2.5074 -0.2217
30136SOL     OW92724   5.598   5.428   1.425 -0.8936  0.2999 -0.0280
30136SOL    HW192725   5.523   5.375   1.452 -0.7822 -0.8783 -1.8515
30136SOL    HW292726   5.674   5.370   1.433 -0.4069  0.9633  0.2448
30137SOL     OW92727   8.314  10.449   9.240 -0.1196 -0.0428 -0.1570
30137SOL    HW192728   8.332  10.408   9.325 -0.7646 -1.3755 -0.6341
30137SOL    HW292729   8.335  10.541   9.253  1.1508 -0.4630  1.0405
30138SOL     OW92730   3.814   2.121  10.139 -0.0365  0.2615  0.1207
30138SOL    HW192731   3.727   2.111  10.176  0.5672 -1.2287  1.2241
30138SOL    HW292732   3.819   2.053  10.071  0.0700  0.7278 -0.3452
30139SOL     OW92733   4.763   4.477   6.425  0.5445 -0.0696  0.5867
30139SOL    HW192734   4.686   4.481   6.483  0.7231  0.9079  0.7816
30139SOL    HW292735   4.780   4.384   6.413 -0.2434 -0.2899  1.1213
30140SOL     OW92736   0.838   2.070   1.990 -0.1027 -0.5602  0.5836
30140SOL    HW192737   0.779   2.062   2.065  0.1355 -0.1613  0.8184
30140SOL    HW292738   0.924   2.048   2.025 -0.4404 -4.1154 -0.3870
30141SOL     OW92739   2.186   9.701   2.155  0.2628  0.3120 -0.0855
30141SOL    HW192740   2.247   9.693   2.082  0.4572  0.1120  0.0957
30141SOL    HW292741   2.215   9.778   2.203 -0.0949  0.6698 -0.4269
30142SOL     OW92742   9.659   1.571   0.117 -0.6717 -0.2306  0.1700
30142SOL    HW192743   9.564   1.573   0.118 -0.7168 -0.1521 -1.6330
30142SOL    HW292744   9.685   1.659   0.144 -1.1193 -0.1828  0.4428
30143SOL     OW92745   9.819   8.563   0.792  0.2709 -0.1074  0.4002
30143SOL    HW192746   9.823   8.492   0.728  0.7490 -0.7037  1.0875
30143SOL    HW292747   9.818   8.520   0.877  3.9802  0.6970  1.0199
30144SOL     OW92748   2.296   6.115   7.669 -0.3249  0.2781 -0.2040
30144SOL    HW192749   2.298   6.211   7.677  1.2135  0.2762 -0.3322
30144SOL    HW292750   2.350   6.085   7.742 -1.3007 -0.5383  0.2004
30145SOL     OW92751   2.512   1.505   9.903 -0.1184 -0.5120 -0.5842
30145SOL    HW192752   2.422   1.516   9.875 -0.2886 -1.1853 -0.3266
30145SOL    HW292753   2.535   1.588   9.945 -0.7457 -0.4896 -0.2871
30146SOL     OW92754   9.554   4.374   5.160  0.7163  0.0792 -0.1475
30146SOL    HW192755   9.597   4.376   5.246 -2.0665 -3.2944  1.5583
30146SOL    HW292756   9.470   4.417   5.175  1.1700  1.7731 -2.0119
30147SOL     OW92757   8.228   5.330   2.337  0.4075 -0.8583 -0.3195
30147SOL    HW192758   8.174   5.374   2.272  0.0324 -1.5368 -0.4765
30147SOL    HW292759   8.189   5.243   2.346  0.8082 -0.9752  0.3822
30148SOL     OW92760   6.662   1.979   5.742 -0.2425 -0.0596 -0.0914
30148SOL    HW192761   6.596   1.923   5.701  0.7101 -0.1459 -1.5788
30148SOL    HW292762   6.684   1.935   5.824 -1.1548 -0.6359 -0.1434
30149SOL     OW92763   9.807   9.175   3.870 -0.0367  0.3615 -0.0119
30149SOL    HW192764   9.739   9.239   3.888 -1.7653 -1.3212 -0.1792
30149SOL    HW292765   9.826   9.135   3.955  0.5528  0.6406 -0.0099
30150SOL     OW92766   6.678   0.359   0.005 -0.1161 -0.3475 -0.0141
30150SOL    HW192767   6.699   0.432  -0.054 -0.8045  0.5785  0.8488
30150SOL    HW292768   6.763   0.332   0.040  0.2392 -0.5406 -0.9812
30151SOL     OW92769   3.558   1.511   8.721  0.4605  0.3025  0.1642
30151SOL    HW192770   3.647   1.547   8.719  0.5558  0.0465 -0.5789
30151SOL    HW292771   3.518   1.542   8.641  0.2842 -0.5835 -0.1029
30152SOL     OW92772   2.172   1.975   2.082 -0.1768 -0.3070  0.2503
30152SOL    HW192773   2.121   1.997   2.004  2.4559 -0.3050 -1.6012
30152SOL    HW292774   2.226   2.053   2.098  1.1010 -1.2273  0.5487
30153SOL     OW92775   3.571   4.286   6.522  0.1546  0.2585 -0.4819
30153SOL    HW192776   3.510   4.278   6.449  0.5369  0.6318 -0.8536
30153SOL    HW292777   3.623   4.206   6.518 -0.0359  0.1334 -0.4277
30154SOL     OW92778   9.416   2.024   6.481 -0.0899 -0.5831  0.0456
30154SOL    HW192779   9.360   1.947   6.474  0.4873 -0.9402 -0.7394
30154SOL    HW292780   9.384   2.084   6.414  1.2685 -1.3217 -1.3117
30155SOL     OW92781   9.454   7.956   0.874  0.3202  0.2033  0.4107
30155SOL    HW192782   9.482   8.012   0.946 -1.5234  0.7666  0.7418
30155SOL    HW292783   9.493   7.871   0.894  2.9677  1.2434  0.0226
30156SOL     OW92784   8.957   5.460   7.253 -0.4248  0.0975 -0.5541
30156SOL    HW192785   8.915   5.379   7.227  1.4454 -1.0680 -0.1528
30156SOL    HW292786   9.011   5.485   7.178  2.1934 -1.3326  0.7231
30157SOL     OW92787   1.658   6.482   1.533 -0.0121  0.6499 -0.4841
30157SOL    HW192788   1.683   6.471   1.624 -0.9838  0.6178 -0.2082
30157SOL    HW292789   1.677   6.398   1.492  0.7955  0.7881 -0.4138
30158SOL     OW92790   3.885   0.487  10.204  0.7005  0.0178  0.5983
30158SOL    HW192791   3.804   0.535  10.185  1.3513  0.4355 -1.4389
30158SOL    HW292792   3.952   0.534  10.154  1.4728 -2.6475 -1.0626
30159SOL     OW92793   8.281   0.057   4.892  0.0790  0.3607 -0.5243
30159SOL    HW192794   8.305  -0.034   4.874  1.4455  0.3600  0.9670
30159SOL    HW292795   8.360   0.094   4.932 -1.9736  0.6908  3.8617
30160SOL     OW92796   3.381   8.135  10.155  0.2026  0.0701  0.2052
30160SOL    HW192797   3.336   8.180  10.083  1.3497  0.5271 -0.2698
30160SOL    HW292798   3.462   8.102  10.114  0.2829 -0.7513  1.0077
30161SOL     OW92799   1.236   2.967  10.521  0.1834 -0.2174 -0.0071
30161SOL    HW192800   1.196   3.007  10.445 -0.6520  0.8584  0.9660
30161SOL    HW292801   1.202   2.877  10.522 -0.0217 -0.1489 -0.7290
30162SOL     OW92802   2.450   2.943   7.419  0.1604  0.2647 -0.1378
30162SOL    HW192803   2.513   2.999   7.371  0.4711  1.3542  1.4591
30162SOL    HW292804   2.383   3.004   7.450 -0.1084 -0.4302  0.6791
30163SOL     OW92805  10.236  10.170   6.879 -0.1195 -0.1024 -0.3436
30163SOL    HW192806  10.322  10.207   6.897 -0.4944  1.0925 -0.9197
30163SOL    HW292807  10.234  10.158   6.784  0.0667 -1.8444 -0.1595
30164SOL     OW92808   1.328   4.253   7.416  0.3511  0.1658 -0.1443
30164SOL    HW192809   1.324   4.344   7.388  3.4204  0.1991 -0.8049
30164SOL    HW292810   1.338   4.203   7.335 -0.5078 -0.6947  0.2629
30165SOL     OW92811   3.585  10.452   0.154  0.2956  0.1956 -0.2739
30165SOL    HW192812   3.532  10.458   0.233 -0.5885  0.1647 -0.8537
30165SOL    HW292813   3.522  10.441   0.083  1.1301 -0.9013 -0.8775
30166SOL     OW92814  10.170   9.138   5.503 -0.1358 -0.0330 -0.2763
30166SOL    HW192815  10.168   9.224   5.544 -2.2561 -0.1074 -0.1220
30166SOL    HW292816  10.230   9.149   5.429  1.1677  0.9948  0.8694
30167SOL     OW92817   0.331   1.094   9.332  0.0302  0.1589 -0.4560
30167SOL    HW192818   0.298   1.184   9.332 -0.2608  0.0679  0.6173
30167SOL    HW292819   0.293   1.055   9.411 -0.7815 -1.2592 -1.4968
30168SOL     OW92820  10.243   6.829  10.149 -0.2766  0.5980 -0.3079
30168SOL    HW192821  10.319   6.778  10.121  0.6262 -0.0466  2.9573
30168SOL    HW292822  10.174   6.805  10.087  1.1721 -1.6436 -1.1705
30169SOL     OW92823   3.586   5.786   4.795 -0.5449  0.1282 -0.2663
30169SOL    HW192824   3.573   5.693   4.810 -1.1657  0.1352 -0.7245
30169SOL    HW292825   3.502   5.826   4.818 -0.3258  0.5582 -0.2025
30170SOL     OW92826   4.705   5.538  10.213  0.1680  0.0489 -1.1072
30170SOL    HW192827   4.801   5.534  10.213  0.3203  2.3203 -1.7765
30170SOL    HW292828   4.684   5.624  10.250 -1.6039 -0.1698 -1.4904
30171SOL     OW92829   4.802   0.509   6.751 -0.0071 -0.2872 -1.0507
30171SOL    HW192830   4.891   0.535   6.777 -0.3575 -1.0875  1.2335
30171SOL    HW292831   4.815   0.429   6.700  0.6730  0.8257 -2.7118
30172SOL     OW92832   5.850   4.434  10.094  0.5947  0.0732  0.0213
30172SOL    HW192833   5.759   4.403  10.101  0.3265  0.9521  0.5178
30172SOL    HW292834   5.876   4.452  10.184  0.8348  1.0423 -0.2341
30173SOL     OW92835   3.235   5.972   5.530  0.1320  1.0807 -0.0048
30173SOL    HW192836   3.141   5.983   5.519  0.0865  0.7801  0.0961
30173SOL    HW292837   3.255   5.887   5.491 -0.1600 -0.4064  2.8183
30174SOL     OW92838  10.071   5.777   1.840 -0.1632 -0.7510  0.0893
30174SOL    HW192839  10.148   5.822   1.875  0.7013 -0.8193 -1.6219
30174SOL    HW292840  10.095   5.685   1.837 -0.8457 -0.9657  0.8458
30175SOL     OW92841   5.212   9.199   5.360 -0.3659  0.3481 -0.7575
30175SOL    HW192842   5.148   9.199   5.289  0.2860  0.2893 -1.3638
30175SOL    HW292843   5.294   9.224   5.317  0.0552  0.2137 -0.0402
30176SOL     OW92844   7.647   0.372   6.881 -0.1879 -0.4311 -0.6392
30176SOL    HW192845   7.686   0.459   6.872  0.3187 -0.6753 -0.8593
30176SOL    HW292846   7.555   0.388   6.900 -0.7368  0.1771 -3.3243
30177SOL     OW92847  10.494   1.451   0.746 -0.0282  0.8191  0.1384
30177SOL    HW192848  10.556   1.481   0.679 -0.0938  0.5218 -0.0548
30177SOL    HW292849  10.486   1.526   0.805 -0.1936  1.1960 -0.3462
30178SOL     OW92850   8.500   2.700   3.568  0.8974  0.2188  0.2937
30178SOL    HW192851   8.435   2.650   3.619  1.0122  0.1034  0.3272
30178SOL    HW292852   8.561   2.733   3.634 -0.0136  1.6877  0.4574
30179SOL     OW92853   6.681   0.273   4.869  0.1764  0.1495  0.4349
30179SOL    HW192854   6.682   0.368   4.876  2.4064  0.1814  0.3015
30179SOL    HW292855   6.609   0.254   4.809  0.6544  1.8453 -0.7476
30180SOL     OW92856   1.176   1.950   0.606  0.0180 -0.0941  0.0149
30180SOL    HW192857   1.172   1.958   0.511 -0.5808  0.3631  0.0754
30180SOL    HW292858   1.252   1.894   0.622  0.7915  0.7248 -0.6762
30181SOL     OW92859  10.391   6.610   3.892 -0.2471 -0.1113 -0.5594
30181SOL    HW192860  10.350   6.682   3.940  0.8238  0.8563 -1.0527
30181SOL    HW292861  10.417   6.548   3.960 -0.8356  0.1477 -0.0889
30182SOL     OW92862   9.414   6.530   5.379  0.4771 -0.6048  0.1948
30182SOL    HW192863   9.402   6.543   5.285  0.1586 -0.3560  0.2681
30182SOL    HW292864   9.325   6.535   5.416  0.7805  1.3456  0.7596
30183SOL     OW92865   1.948   5.082   1.167 -0.1542 -0.3309  0.2384
30183SOL    HW192866   1.872   5.027   1.187  0.1292 -0.3274  1.3431
30183SOL    HW292867   1.983   5.108   1.252 -0.2307  1.5050 -0.2410
30184SOL     OW92868   5.311   9.871   6.005  0.3719  0.3038  0.1080
30184SOL    HW192869   5.360   9.899   5.928  0.5139 -1.1505 -0.3602
30184SOL    HW292870   5.236   9.930   6.008  2.2334  2.8077  1.0307
30185SOL     OW92871   3.282   1.748   6.631 -0.4192  0.1408  0.1533
30185SOL    HW192872   3.189   1.746   6.607 -0.2384 -0.6698 -0.5436
30185SOL    HW292873   3.328   1.754   6.547  0.1831 -0.7180  0.3990
30186SOL     OW92874   8.573   8.412   1.182 -0.0289 -0.2589  0.3287
30186SOL    HW192875   8.541   8.501   1.170  0.8896  0.1572  0.8841
30186SOL    HW292876   8.518   8.359   1.124 -1.1342  0.5457  0.5985
30187SOL     OW92877   8.052   6.989   8.110 -0.1173 -0.4173  0.2972
30187SOL    HW192878   8.042   7.033   8.195  0.2983  0.3371 -0.0365
30187SOL    HW292879   8.002   7.043   8.049  0.8224 -0.0943 -0.2119
30188SOL     OW92880   9.032   5.132   6.967  0.2590  0.7907 -0.4690
30188SOL    HW192881   9.107   5.179   6.931  0.4812  2.6203  2.1174
30188SOL    HW292882   9.070   5.053   7.005  0.8624  1.4761  0.4106
30189SOL     OW92883   8.149   7.366   4.985  0.2738  0.2824  0.3559
30189SOL    HW192884   8.145   7.331   4.896  3.1681  2.6415 -0.8762
30189SOL    HW292885   8.199   7.302   5.035 -1.0183 -0.8590  0.2354
30190SOL     OW92886   3.470   4.219   5.415 -0.1217 -0.3778  0.1333
30190SOL    HW192887   3.541   4.239   5.354 -0.9196 -1.1063 -1.0728
30190SOL    HW292888   3.446   4.304   5.452 -0.4853  0.2843 -1.5469
30191SOL     OW92889   1.593   3.052   7.371  0.3084 -0.3626  0.0261
30191SOL    HW192890   1.686   3.072   7.364  0.2759  0.0997  0.8776
30191SOL    HW292891   1.565   3.092   7.453 -0.2421 -2.0145  0.7004
30192SOL     OW92892   7.921   4.027   7.685 -0.0450  0.5640 -0.2263
30192SOL    HW192893   7.920   4.049   7.778  1.6803  0.6653 -0.1866
30192SOL    HW292894   7.963   3.940   7.681  0.0752  0.6441 -0.9029
30193SOL     OW92895   3.378   6.673   6.198  0.0908  0.3570 -0.3940
30193SOL    HW192896   3.379   6.761   6.235  2.4770  1.2496 -2.2989
30193SOL    HW292897   3.395   6.685   6.104 -1.3964 -2.0431 -1.0772
30194SOL     OW92898   7.020   0.873   7.686 -0.2999  0.1304 -0.4578
30194SOL    HW192899   7.059   0.937   7.627 -0.9611  0.1256 -0.9085
30194SOL    HW292900   6.927   0.895   7.688 -0.6800 -1.2971 -1.2489
30195SOL     OW92901   9.645   9.764   3.308  0.1975  0.4021  0.2818
30195SOL    HW192902   9.567   9.708   3.317  1.4764 -1.2878  1.6139
30195SOL    HW292903   9.689   9.756   3.393  2.4856  0.2627 -0.8497
30196SOL     OW92904   9.913   2.352   0.035 -0.1145  0.3410  0.3704
30196SOL    HW192905   9.942   2.391   0.117  0.6635  1.7980 -0.5450
30196SOL    HW292906   9.839   2.407   0.007  0.9057  1.1477 -0.8676
30197SOL     OW92907  10.302   7.029   0.065  0.3646 -0.1037  0.0210
30197SOL    HW192908  10.207   7.036   0.058  0.5092  0.5349 -1.7390
30197SOL    HW292909  10.326   7.086   0.138 -0.4016  1.5574 -0.9944
30198SOL     OW92910   0.268   0.883   7.191  0.2001  0.3853  0.1071
30198SOL    HW192911   0.330   0.899   7.120  0.2895 -0.9979 -0.1681
30198SOL    HW292912   0.244   0.791   7.181 -0.5803  0.4407  1.2525
30199SOL     OW92913   2.887   4.831   1.662 -0.2168 -0.0949  0.0470
30199SOL    HW192914   2.917   4.824   1.753 -3.8326 -0.6920  1.3884
30199SOL    HW292915   2.861   4.741   1.639 -2.6775  0.5810 -0.1458
30200SOL     OW92916   6.128  10.042   2.654 -0.0692 -0.2312 -0.6969
30200SOL    HW192917   6.081   9.959   2.648 -1.4246  0.2309  2.0355
30200SOL    HW292918   6.219  10.017   2.669 -0.7538 -1.3856  2.1936
30201SOL     OW92919   9.822   0.134   1.083 -0.2817  0.1055  0.0791
30201SOL    HW192920   9.910   0.134   1.045  0.4010  2.9255  1.4170
30201SOL    HW292921   9.764   0.157   1.010  0.0703 -1.3755 -0.7176
30202SOL     OW92922   9.415   6.767   3.627  0.0193 -0.9028  0.7366
30202SOL    HW192923   9.460   6.782   3.711 -1.7050 -1.0246  1.7329
30202SOL    HW292924   9.476   6.799   3.561  0.6478  1.0671  2.1610
30203SOL     OW92925   9.721   2.194   6.296  0.1559 -0.0894  0.0394
30203SOL    HW192926   9.634   2.177   6.261  0.5395 -0.1410 -0.9199
30203SOL    HW292927   9.752   2.270   6.248  0.1070  0.7888  1.3575
30204SOL     OW92928   5.544   9.396   8.031  0.0830 -0.1841 -0.0545
30204SOL    HW192929   5.550   9.303   8.011 -1.4114 -0.8852  2.3873
30204SOL    HW292930   5.450   9.414   8.032  0.3322  1.2554  0.0281
30205SOL     OW92931   8.413   0.480   5.503  0.7854  0.1831  0.0550
30205SOL    HW192932   8.398   0.391   5.471  2.5261 -0.2224  0.2726
30205SOL    HW292933   8.461   0.468   5.585  4.9208  1.2870 -1.9751
30206SOL     OW92934   7.278  10.505   5.562  0.0661 -0.3099 -0.2593
30206SOL    HW192935   7.184  10.519   5.548 -0.0962 -0.5219  0.5423
30206SOL    HW292936   7.282  10.436   5.629  0.7944 -0.2312 -0.2119
30207SOL     OW92937   7.357   9.559   1.864 -0.4087  0.1690  0.0347
30207SOL    HW192938   7.305   9.563   1.784 -0.4069 -0.8166 -0.0194
30207SOL    HW292939   7.292   9.557   1.935 -0.4647 -0.8856 -0.0264
30208SOL     OW92940   9.852   6.759   8.167  0.0347  0.1436  0.4504
30208SOL    HW192941   9.889   6.846   8.180 -0.4109  0.0287  3.2468
30208SOL    HW292942   9.887   6.707   8.240 -2.2072 -1.1276  0.7252
30209SOL     OW92943   5.512  10.579   7.333  0.6450  0.2007  0.4047
30209SOL    HW192944   5.447  10.644   7.306  1.0985  0.2045 -0.7058
30209SOL    HW292945   5.537  10.606   7.421 -0.3665  0.5822  0.5861
30210SOL     OW92946   5.107   2.532   5.098  0.2898  0.4554 -0.5969
30210SOL    HW192947   5.199   2.520   5.124 -0.3742 -2.1242  0.8933
30210SOL    HW292948   5.093   2.467   5.030 -0.5869  0.3842 -0.3581
30211SOL     OW92949   6.533   5.669   8.932 -0.1976  0.2253  0.2435
30211SOL    HW192950   6.439   5.687   8.931 -0.4378 -0.9798  0.2266
30211SOL    HW292951   6.552   5.649   9.023 -0.0909 -0.2186  0.1218
30212SOL     OW92952   7.971   8.293   7.425 -0.2697  0.8465 -0.0981
30212SOL    HW192953   7.977   8.217   7.482 -2.1493  1.1318  0.5625
30212SOL    HW292954   7.940   8.363   7.482 -0.7627  1.5185 -1.1475
30213SOL     OW92955   6.376   9.611   8.602  0.5887  0.3219 -0.0898
30213SOL    HW192956   6.368   9.542   8.536  0.7521 -0.9018  1.1374
30213SOL    HW292957   6.307   9.673   8.579 -0.4974 -0.9580 -0.3934
30214SOL     OW92958   8.733   4.614   7.026  0.1016 -0.2773 -0.2154
30214SOL    HW192959   8.813   4.599   7.078 -0.1203 -3.3387 -0.5525
30214SOL    HW292960   8.668   4.644   7.090  0.5348 -1.4387  0.8066
30215SOL     OW92961   4.876   5.864   5.886 -0.2572  0.6114  0.4609
30215SOL    HW192962   4.870   5.828   5.974  0.8888  0.7201  0.6057
30215SOL    HW292963   4.808   5.931   5.882 -0.7793  0.1209  1.0146
30216SOL     OW92964   0.251   6.526   0.542  0.0374 -0.1509  0.4343
30216SOL    HW192965   0.217   6.516   0.631  1.5434  0.6616  1.1372
30216SOL    HW292966   0.205   6.602   0.507 -1.7172 -1.3896 -0.1086
30217SOL     OW92967   4.642   3.790   8.983  0.1474  0.0550  0.8292
30217SOL    HW192968   4.612   3.702   8.961  3.0763 -0.9774  0.5342
30217SOL    HW292969   4.639   3.838   8.901 -0.0801 -0.1908  0.6926
30218SOL     OW92970   2.989   5.770   6.660  0.3944 -0.8866  0.1396
30218SOL    HW192971   2.951   5.857   6.665  0.7252 -0.6574 -1.1861
30218SOL    HW292972   3.039   5.761   6.741 -0.7784 -0.4145  0.9523
30219SOL     OW92973   1.232   1.378  10.228 -0.4231 -1.0472  0.3680
30219SOL    HW192974   1.207   1.345  10.314  0.3100 -1.5303  0.4053
30219SOL    HW292975   1.252   1.471  10.242  0.3876 -1.2906  0.8684
30220SOL     OW92976   7.819   7.095   6.986 -0.2747 -0.3658  0.1825
30220SOL    HW192977   7.913   7.077   6.991 -0.3341 -0.3979  1.3444
30220SOL    HW292978   7.777   7.018   7.026 -0.7805 -0.1895  0.0052
30221SOL     OW92979   5.905   2.442   4.616  0.0046 -0.4770  0.1092
30221SOL    HW192980   5.984   2.455   4.669 -0.0192 -1.2004  0.3300
30221SOL    HW292981   5.833   2.459   4.676 -0.0261 -1.5049  0.3831
30222SOL     OW92982   9.565   3.446   9.940 -0.2588 -0.5868  0.3526
30222SOL    HW192983   9.605   3.504   9.876 -1.0616  0.1278  0.4700
30222SOL    HW292984   9.552   3.502  10.017 -0.7731 -1.0026  0.5725
30223SOL     OW92985   3.883   8.061   2.732  0.1167 -0.3503  0.0289
30223SOL    HW192986   3.890   7.968   2.753  0.5911 -0.0295  1.3773
30223SOL    HW292987   3.949   8.103   2.786  0.3161  0.7187 -1.0168
30224SOL     OW92988   8.231   1.282   7.792 -0.2404  0.0135 -0.1503
30224SOL    HW192989   8.243   1.245   7.880 -1.2278  0.7697  0.3261
30224SOL    HW292990   8.196   1.211   7.740  1.5098 -0.8108 -0.2915
30225SOL     OW92991   6.761   7.164   3.616 -0.2113 -0.2665 -0.5498
30225SOL    HW192992   6.780   7.183   3.524  1.3808  0.2344 -0.1476
30225SOL    HW292993   6.815   7.226   3.665  0.4786 -1.8073  0.7350
30226SOL     OW92994   4.170  10.471   6.595 -0.1915 -0.0253 -0.0028
30226SOL    HW192995   4.234  10.528   6.638 -0.7008  0.4809  0.1103
30226SOL    HW292996   4.221  10.397   6.562  0.3542  0.0693  0.6135
30227SOL     OW92997   7.107   9.607   7.811  0.4356  0.4619  0.1309
30227SOL    HW192998   7.185   9.658   7.831  1.3062 -0.6884 -0.2834
30227SOL    HW292999   7.104   9.603   7.715  0.1422  0.0748  0.1524
30228SOL     OW93000   8.686   3.335   3.386  0.3182 -0.2623 -0.1794
30228SOL    HW193001   8.675   3.361   3.295 -0.7918 -1.8905 -0.5522
30228SOL    HW293002   8.722   3.413   3.429 -1.0040  1.2073 -1.5957
30229SOL     OW93003   3.455   8.234   5.721 -0.2580 -0.0702 -0.2168
30229SOL    HW193004   3.453   8.187   5.804 -2.3664  2.1045  1.0943
30229SOL    HW293005   3.528   8.295   5.729 -0.0744 -0.2874 -0.2306
30230SOL     OW93006   2.477   8.613   4.476 -0.0594  0.0682 -0.8197
30230SOL    HW193007   2.460   8.665   4.555  1.1122  1.1161 -1.2157
30230SOL    HW293008   2.400   8.628   4.420 -1.0956 -1.0200  0.2545
30231SOL     OW93009   7.638   7.351   1.939 -0.1308 -0.1614 -0.0058
30231SOL    HW193010   7.668   7.314   2.022 -0.4608 -0.8357 -0.1802
30231SOL    HW293011   7.544   7.367   1.952  0.2607  1.9279  0.5341
30232SOL     OW93012   0.877   7.665   2.632 -0.3533  0.0398  0.0204
30232SOL    HW193013   0.913   7.718   2.561 -1.0577  1.4319  0.6591
30232SOL    HW293014   0.783   7.660   2.612 -0.2163 -1.4510 -0.3203
30233SOL     OW93015   2.388   1.348   1.590  0.4818  0.2491 -0.1367
30233SOL    HW193016   2.459   1.356   1.654  0.3851 -1.5910  0.2617
30233SOL    HW293017   2.390   1.256   1.563 -0.6239  0.5695 -1.4693
30234SOL     OW93018   2.538   1.546   8.897 -0.2532 -0.0519 -0.1093
30234SOL    HW193019   2.590   1.466   8.898 -0.6168 -0.2899  0.0352
30234SOL    HW293020   2.518   1.560   8.804 -0.9208 -0.6191 -0.0668
30235SOL     OW93021   4.846   8.285   1.770 -0.3051  0.3196  0.0515
30235SOL    HW193022   4.808   8.209   1.813 -0.5456  0.7313  0.5750
30235SOL    HW293023   4.784   8.356   1.787  0.9055  1.1227  1.3376
30236SOL     OW93024   7.632   3.932   2.004 -0.2137 -0.4523 -0.3143
30236SOL    HW193025   7.572   3.873   2.050  0.0405 -1.9170 -1.7673
30236SOL    HW293026   7.579   4.010   1.986 -1.7652 -1.7328 -1.6396
30237SOL     OW93027   9.929   5.329   7.465  0.7756 -0.1257  0.1099
30237SOL    HW193028   9.873   5.378   7.525  0.5682  0.0296 -0.2109
30237SOL    HW293029   9.946   5.246   7.510  1.7875  0.5445  1.0234
30238SOL     OW93030  10.151   8.007   4.721 -0.5212  0.4760 -0.1061
30238SOL    HW193031  10.158   7.915   4.747 -0.9560 -0.0505 -1.7139
30238SOL    HW293032  10.062   8.015   4.686 -0.1266  1.2345 -0.9738
30239SOL     OW93033   7.393   2.471   0.486 -0.0880  0.5541  0.2251
30239SOL    HW193034   7.466   2.409   0.485 -0.2498  0.3631 -0.7349
30239SOL    HW293035   7.426   2.547   0.439 -1.0707 -0.2468 -1.9213
30240SOL     OW93036   8.940   0.028   4.796 -0.2443 -1.1223  0.3482
30240SOL    HW193037   8.882   0.084   4.745  0.8421 -0.3106 -0.0471
30240SOL    HW293038   8.959   0.080   4.875 -0.1173 -1.4108  0.5083
30241SOL     OW93039   5.422   0.724   9.020 -0.4887 -0.0045 -0.4853
30241SOL    HW193040   5.456   0.809   9.048  1.0736  0.0489 -2.3845
30241SOL    HW293041   5.499   0.668   9.015 -1.6258 -1.9765  1.9296
30242SOL     OW93042   8.358   3.638   3.381  0.6083  0.3402  0.2953
30242SOL    HW193043   8.393   3.549   3.369 -1.9321 -1.3931  3.9574
30242SOL    HW293044   8.268   3.632   3.351  0.1733  1.4592  1.3519
30243SOL     OW93045   9.394   1.459   8.765 -0.9813  0.7730  0.2433
30243SOL    HW193046   9.385   1.373   8.723 -4.4864  0.7336  0.7727
30243SOL    HW293047   9.458   1.505   8.710  0.2926 -1.7774 -0.6294
30244SOL     OW93048   6.920   0.452   2.881  0.2611  0.3267  0.1035
30244SOL    HW193049   6.958   0.422   2.964  0.8848  0.2142 -0.2147
30244SOL    HW293050   6.952   0.388   2.817 -0.4912  0.2230 -0.1724
30245SOL     OW93051   5.094   6.548   5.279  0.1891  0.0351  0.3164
30245SOL    HW193052   5.144   6.570   5.358 -0.8133 -0.5414  1.1360
30245SOL    HW293053   5.144   6.477   5.238 -0.2540 -0.9721  1.4660
30246SOL     OW93054   7.011   8.494   1.908  0.2805  0.0223 -0.0046
30246SOL    HW193055   7.028   8.400   1.917  0.5864  0.1500  0.9387
30246SOL    HW293056   7.086   8.527   1.859  0.4168 -0.1602  0.0775
30247SOL     OW93057   1.288   4.573   4.178  0.4062  0.4941 -0.1695
30247SOL    HW193058   1.234   4.562   4.257  1.3631 -0.9509  0.3229
30247SOL    HW293059   1.224   4.590   4.108 -0.6562 -0.6159  0.4865
30248SOL     OW93060   0.750   6.428   2.124  0.2958  0.1983  0.4330
30248SOL    HW193061   0.742   6.519   2.096 -3.0133 -0.0762  0.0683
30248SOL    HW293062   0.794   6.385   2.050  0.5612  1.2155 -0.0291
30249SOL     OW93063   8.193   9.091   7.995 -0.2597 -0.2771  0.1200
30249SOL    HW193064   8.239   9.034   7.934  0.6397 -0.7385  1.1977
30249SOL    HW293065   8.191   9.176   7.952 -1.4915 -1.0420 -1.4505
30250SOL     OW93066   9.806   7.409   7.297 -0.1232 -0.2204 -0.7885
30250SOL    HW193067   9.894   7.379   7.274  0.4148  1.1992 -0.6993
30250SOL    HW293068   9.818   7.501   7.322 -1.4858 -0.2707  0.1733
30251SOL     OW93069   5.013   4.465   4.574  0.5018 -0.2220 -0.0664
30251SOL    HW193070   4.973   4.391   4.620 -3.1250  1.0551 -0.7926
30251SOL    HW293071   4.978   4.542   4.618  1.4782  1.0367 -1.4103
30252SOL     OW93072   0.962   7.227   0.380 -0.0376 -0.3306  0.4082
30252SOL    HW193073   0.994   7.253   0.467  1.3085  0.0603 -0.1883
30252SOL    HW293074   0.987   7.299   0.323  2.0309 -1.9944 -0.9169
30253SOL     OW93075   4.045   8.640   6.330 -0.1019 -0.4445  0.7080
30253SOL    HW193076   4.047   8.544   6.329  2.5714 -0.5189 -1.7127
30253SOL    HW293077   4.127   8.665   6.372 -1.3564  0.8793  2.5090
30254SOL     OW93078   9.477   3.212   0.296  0.0110 -0.6684  0.0009
30254SOL    HW193079   9.571   3.218   0.276 -0.4155  1.2009 -1.7574
30254SOL    HW293080   9.466   3.124   0.332  2.5302 -0.7164  0.8866
30255SOL     OW93081   7.577   5.073   4.603 -0.2504 -0.1358 -0.0659
30255SOL    HW193082   7.631   5.018   4.659 -0.4794 -0.6286 -0.3162
30255SOL    HW293083   7.495   5.025   4.594 -1.0733  0.9979  1.0019
30256SOL     OW93084   6.276   0.681   1.194 -0.2991 -0.2928  0.2233
30256SOL    HW193085   6.315   0.697   1.280 -1.7220 -0.9011  1.0242
30256SOL    HW293086   6.189   0.647   1.214 -0.9219  0.2273 -1.4862
30257SOL     OW93087   4.425   1.426   8.914 -0.5563  0.7784 -0.1745
30257SOL    HW193088   4.412   1.428   9.009 -2.6890 -3.3260 -0.1365
30257SOL    HW293089   4.503   1.371   8.901 -0.6362  0.7964 -0.7905
30258SOL     OW93090   4.583   9.461   0.144 -0.3111  0.0592  0.1912
30258SOL    HW193091   4.533   9.485   0.222 -0.0052 -0.2187  0.4740
30258SOL    HW293092   4.669   9.500   0.158 -0.0606 -0.5155  0.2834
30259SOL     OW93093   9.320   3.152   8.693  0.1281  0.2537  0.0700
30259SOL    HW193094   9.405   3.135   8.652 -0.6264 -0.7124 -1.1694
30259SOL    HW293095   9.303   3.244   8.676  0.4907  0.2152 -0.5438
30260SOL     OW93096   1.193   6.395   7.745 -0.1260  0.2637 -0.4561
30260SOL    HW193097   1.185   6.300   7.746  1.2236  0.1295 -0.2293
30260SOL    HW293098   1.140   6.422   7.670 -0.7553 -0.6289 -0.3584
30261SOL     OW93099   0.116   4.150   9.648  0.0738 -0.1097  0.2034
30261SOL    HW193100   0.176   4.152   9.573 -0.8437  0.0170 -0.5482
30261SOL    HW293101   0.154   4.212   9.710  1.0699 -0.5197  0.0284
30262SOL     OW93102   7.842   5.621   0.481 -0.2318  0.1686  0.0507
30262SOL    HW193103   7.895   5.694   0.513 -0.1062  0.2942 -0.4348
30262SOL    HW293104   7.896   5.543   0.498 -0.1713  0.2311  0.1458
30263SOL     OW93105   9.876   6.373   8.167 -0.3371  0.1373 -0.2393
30263SOL    HW193106   9.893   6.367   8.073  1.1332 -0.2532  0.0347
30263SOL    HW293107   9.959   6.401   8.205 -0.2048 -1.9989  1.1970
30264SOL     OW93108   2.989   4.624   5.029 -0.3931  0.3746  0.0373
30264SOL    HW193109   3.031   4.582   5.104 -0.5579  0.4252  0.1592
30264SOL    HW293110   3.019   4.714   5.032  0.6731  0.0629 -0.7457
30265SOL     OW93111   9.923   9.730   7.316  0.2139 -0.0171 -0.1081
30265SOL    HW193112   9.944   9.641   7.287  1.6795  0.1347  0.4272
30265SOL    HW293113   9.929   9.783   7.237  0.0372 -0.2740 -0.2978
30266SOL     OW93114   9.330   3.874   5.031 -0.3611 -0.4425 -0.7513
30266SOL    HW193115   9.268   3.947   5.036  1.4920  1.2824 -1.6740
30266SOL    HW293116   9.383   3.881   5.110 -0.0238 -0.6528 -0.9552
30267SOL     OW93117   5.746   2.185   4.470  0.0272 -0.1448  0.0504
30267SOL    HW193118   5.687   2.260   4.472 -0.2691 -0.2601 -2.0684
30267SOL    HW293119   5.727   2.137   4.550  0.4842  2.1808  1.6864
30268SOL     OW93120   7.316   9.099   5.701  0.1332  0.2773  0.0596
30268SOL    HW193121   7.296   9.009   5.727  2.3655 -0.7167 -1.4054
30268SOL    HW293122   7.281   9.107   5.613 -0.5386  1.0540  0.3848
30269SOL     OW93123   7.140   8.818   6.395  0.5448 -0.3155 -0.3345
30269SOL    HW193124   7.219   8.767   6.412  0.5678 -0.1496  0.0799
30269SOL    HW293125   7.170   8.908   6.388  0.5395 -0.3891 -1.3514
30270SOL     OW93126   8.389   7.676   4.824 -0.6159  0.3938 -0.0222
30270SOL    HW193127   8.396   7.622   4.745 -0.5854 -1.8122  1.3992
30270SOL    HW293128   8.468   7.654   4.875 -0.0513  2.6161  0.1684
30271SOL     OW93129   2.776   4.435   1.411 -0.0934 -0.0341 -0.0705
30271SOL    HW193130   2.729   4.439   1.328  0.3560  0.2090 -0.3161
30271SOL    HW293131   2.867   4.417   1.386  0.1234  0.4788  0.3401
30272SOL     OW93132  10.304   0.312   9.488  0.1374  0.0973  0.2060
30272SOL    HW193133  10.210   0.328   9.482  0.1202 -0.5830 -1.9016
30272SOL    HW293134  10.314   0.218   9.473  1.1815  0.2412 -0.0714
30273SOL     OW93135   2.174   0.934   0.447 -0.2346  0.0757 -0.3527
30273SOL    HW193136   2.159   0.951   0.354 -0.0610 -3.5905 -1.2024
30273SOL    HW293137   2.100   0.878   0.473  0.0812  0.4739  1.5466
30274SOL     OW93138   9.307   3.688   9.102 -0.1561 -0.7138 -1.1066
30274SOL    HW193139   9.263   3.717   9.182  1.3684 -0.6509 -0.2587
30274SOL    HW293140   9.235   3.671   9.041 -1.2794  2.7457 -0.9797
30275SOL     OW93141   7.792   8.241  10.350  0.3521 -0.2228  0.4494
30275SOL    HW193142   7.847   8.285  10.415 -0.5989 -0.1341  1.2047
30275SOL    HW293143   7.737   8.181  10.401 -1.9464  1.3962  0.0352
30276SOL     OW93144   9.023   3.103   4.452  0.2450  0.0745  0.6783
30276SOL    HW193145   9.112   3.069   4.444  0.1817 -0.1637  0.9726
30276SOL    HW293146   9.035   3.197   4.466  0.5324 -0.1931  2.5108
30277SOL     OW93147   4.271   8.056   6.659 -0.1700 -0.1089  0.2645
30277SOL    HW193148   4.255   8.008   6.740  0.8179 -1.1269 -0.1071
30277SOL    HW293149   4.320   8.133   6.687  0.2424 -0.4968  0.6378
30278SOL     OW93150   7.391   5.090   4.256  0.2248  1.0337  0.1510
30278SOL    HW193151   7.485   5.072   4.261 -0.0315 -0.1246  1.0559
30278SOL    HW293152   7.353   5.009   4.223 -0.3544  1.9017 -1.4243
30279SOL     OW93153   7.956   7.105   8.329  0.2487  0.8582  0.4882
30279SOL    HW193154   7.983   7.086   8.419  3.0963  1.8538 -0.0701
30279SOL    HW293155   7.909   7.189   8.337  1.7026  1.6700  0.9233
30280SOL     OW93156   5.894   7.434   4.222 -0.0786 -0.0510 -0.6469
30280SOL    HW193157   5.810   7.390   4.209  0.2586 -1.7611  2.1195
30280SOL    HW293158   5.958   7.375   4.181  0.1189 -0.9174  0.8369
30281SOL     OW93159   2.103   3.160  10.063 -0.6764 -0.4591 -0.6411
30281SOL    HW193160   2.181   3.182  10.013 -1.5196  0.2013 -1.7188
30281SOL    HW293161   2.069   3.244  10.092 -0.6073 -0.7907  0.4278
30282SOL     OW93162   3.453   2.269   3.177  0.2883 -0.9531 -0.0248
30282SOL    HW193163   3.383   2.321   3.138  0.5986 -1.3725 -1.1807
30282SOL    HW293164   3.410   2.189   3.207 -0.6660  0.7811  3.9180
30283SOL     OW93165  10.313   0.995   0.541  0.6572 -0.8151  0.1509
30283SOL    HW193166  10.321   1.078   0.589 -0.8475 -1.7041  2.0657
30283SOL    HW293167  10.267   1.018   0.460  0.1653  0.2184  0.7045
30284SOL     OW93168   0.379   8.503   6.814  0.4971 -0.0381  0.6257
30284SOL    HW193169   0.296   8.468   6.848 -1.3123  2.0481 -1.3315
30284SOL    HW293170   0.408   8.440   6.749 -0.7333  0.2311 -0.2041
30285SOL     OW93171   2.145   2.373   3.652 -0.3863 -0.0866 -0.0312
30285SOL    HW193172   2.128   2.320   3.730  0.5318  1.1400  1.0561
30285SOL    HW293173   2.225   2.338   3.615  0.9730  1.3005  1.4536
30286SOL     OW93174   3.901   4.611   8.446  0.9611  0.3924 -0.0092
30286SOL    HW193175   3.942   4.567   8.521  2.0372 -1.5105 -1.6271
30286SOL    HW293176   3.810   4.624   8.473  1.0430 -1.2969  1.2071
30287SOL     OW93177   3.429   4.362   6.205  0.3191 -0.5068 -0.0278
30287SOL    HW193178   3.351   4.345   6.153  0.6265  0.0361 -0.6757
30287SOL    HW293179   3.449   4.454   6.188  0.8223 -0.5142  0.5134
30288SOL     OW93180  10.296   4.813   2.663 -0.1030 -0.3951 -0.0769
30288SOL    HW193181  10.308   4.853   2.577 -0.7764 -0.7866 -0.3588
30288SOL    HW293182  10.247   4.879   2.713  0.7991  0.0769  0.2060
30289SOL     OW93183  10.121   2.963   9.409  0.1904  0.0117  0.3320
30289SOL    HW193184  10.070   2.914   9.475  0.7199 -1.5631 -0.3767
30289SOL    HW293185  10.093   2.926   9.326  0.7464  0.8263 -0.2296
30290SOL     OW93186   3.084   4.539   5.282 -0.4606 -0.2575  0.3811
30290SOL    HW193187   3.137   4.566   5.357  1.8210 -1.6223 -0.6110
30290SOL    HW293188   3.000   4.513   5.319  0.3947 -0.3320  2.3823
30291SOL     OW93189   0.709  10.434   2.386  0.0760  0.3104 -0.3206
30291SOL    HW193190   0.763  10.511   2.405 -1.2584  1.5133 -1.2210
30291SOL    HW293191   0.719  10.378   2.464 -0.4298  2.2689  1.2309
30292SOL     OW93192   7.855  10.450   7.050  0.3120  0.3440 -0.5503
30292SOL    HW193193   7.846  10.532   7.099 -0.2149  1.1856 -1.9873
30292SOL    HW293194   7.818  10.470   6.964  1.0365 -1.1279 -1.2318
30293SOL     OW93195   3.888   5.894   2.560 -0.0362 -0.2732 -0.0249
30293SOL    HW193196   3.946   5.820   2.581 -1.1323 -1.4895 -1.1210
30293SOL    HW293197   3.899   5.907   2.466 -0.4065  0.4995  0.0340
30294SOL     OW93198   3.471   0.237   6.221  0.2139 -0.3970  0.4402
30294SOL    HW193199   3.381   0.205   6.219  0.5222 -1.3187  0.9535
30294SOL    HW293200   3.466   0.320   6.269 -0.4070 -0.2742  0.1706
30295SOL     OW93201   6.631   0.802  10.157 -0.2112 -0.9038 -0.1828
30295SOL    HW193202   6.633   0.714  10.194 -0.9395 -0.3906  1.1333
30295SOL    HW293203   6.542   0.813  10.124  0.1650 -1.0123 -1.2717
30296SOL     OW93204   0.056   3.097   9.397 -0.2998 -0.0583  0.0522
30296SOL    HW193205  -0.015   3.126   9.341 -0.2091  1.0434  0.4961
30296SOL    HW293206   0.024   3.015   9.436 -0.5007 -0.6612 -1.3067
30297SOL     OW93207   8.313   9.684   4.184  0.1985 -0.4543  0.3569
30297SOL    HW193208   8.322   9.593   4.214  1.4539  0.1204  1.8283
30297SOL    HW293209   8.401   9.709   4.156 -0.5325 -0.3018 -2.0622
30298SOL     OW93210   5.333   4.675   9.745 -0.1020  0.1308  0.0589
30298SOL    HW193211   5.345   4.719   9.661  2.1673  0.0761  0.2987
30298SOL    HW293212   5.408   4.703   9.798 -1.3153 -0.0783  1.9804
30299SOL     OW93213   1.567   6.992   4.029  0.4298 -0.0733 -0.3724
30299SOL    HW193214   1.587   7.059   3.963  1.9012 -1.9990 -1.9876
30299SOL    HW293215   1.474   6.974   4.018 -0.9826  4.0301  2.4697
30300SOL     OW93216   1.645   2.411   1.770 -0.0237 -0.2244  0.1783
30300SOL    HW193217   1.682   2.499   1.761 -1.0584  0.2810  0.6941
30300SOL    HW293218   1.554   2.421   1.743 -0.1152 -1.1776  0.1090
30301SOL     OW93219   5.411   1.372   7.143 -0.0672  0.1890 -0.2934
30301SOL    HW193220   5.426   1.448   7.087  0.1256  0.0973 -0.3711
30301SOL    HW293221   5.391   1.301   7.082  3.7865 -0.8565 -0.6412
30302SOL     OW93222   8.989   7.255   7.734  0.3466 -0.2104 -0.3447
30302SOL    HW193223   9.016   7.209   7.654  1.2759  1.0266 -0.7704
30302SOL    HW293224   9.003   7.347   7.715 -0.3704  0.1870  0.9108
30303SOL     OW93225   9.975   0.230   3.259  0.4358  0.7422  0.0834
30303SOL    HW193226  10.055   0.246   3.210 -0.1827  1.0950 -0.8401
30303SOL    HW293227   9.909   0.285   3.217 -0.5598 -0.3822  0.0848
30304SOL     OW93228   3.166   3.529   4.053 -0.1775  0.6986  0.0239
30304SOL    HW193229   3.252   3.504   4.019 -0.5268 -1.1280  0.3689
30304SOL    HW293230   3.126   3.579   3.982  1.2743  1.9210 -0.0022
30305SOL     OW93231   5.851   1.555  10.584 -0.0139 -0.3734 -0.0557
30305SOL    HW193232   5.793   1.519  10.651  0.7776 -1.0504  0.2758
30305SOL    HW293233   5.900   1.624  10.629 -0.7622  0.4103 -0.4148
30306SOL     OW93234   3.609   7.660   9.501 -0.3739 -0.6653 -0.9894
30306SOL    HW193235   3.537   7.667   9.439 -0.7289 -0.9568 -0.6219
30306SOL    HW293236   3.662   7.738   9.486 -0.4141 -0.7687 -1.6983
30307SOL     OW93237   9.501   5.874   0.983  0.5159 -0.0854 -0.7114
30307SOL    HW193238   9.538   5.944   1.038  3.4784 -2.9933  1.4323
30307SOL    HW293239   9.543   5.885   0.898  2.0865 -0.0017  0.0338
30308SOL     OW93240   6.568   3.945   0.330 -0.2743 -0.1975 -0.3254
30308SOL    HW193241   6.570   3.982   0.418 -0.5734 -0.2426 -0.3011
30308SOL    HW293242   6.576   4.021   0.272  1.5181 -0.2725 -0.2520
30309SOL     OW93243   3.201   1.563   4.876  0.2392 -0.0815 -0.1822
30309SOL    HW193244   3.165   1.485   4.835  1.3689 -0.7323  0.0169
30309SOL    HW293245   3.292   1.565   4.847  0.9002 -0.2152  1.7661
30310SOL     OW93246   7.043   8.245   2.828  0.0281 -0.0989  0.6091
30310SOL    HW193247   7.088   8.268   2.746  0.5998 -0.3128  0.8582
30310SOL    HW293248   7.065   8.317   2.888 -0.7133  0.2595  0.4631
30311SOL     OW93249   6.674   7.781   4.314 -0.2113 -0.4083  0.4327
30311SOL    HW193250   6.592   7.751   4.274  0.6290 -0.1558 -1.6192
30311SOL    HW293251   6.727   7.701   4.320 -0.7823 -0.6785  2.3014
30312SOL     OW93252   1.661   6.437  10.110  0.0665  0.1680  0.0678
30312SOL    HW193253   1.639   6.528  10.132 -0.3196  0.0023  0.3853
30312SOL    HW293254   1.648   6.389  10.191 -2.5476 -0.6604 -0.7272
30313SOL     OW93255   3.736   4.545   6.244 -0.3409 -0.0116  0.4427
30313SOL    HW193256   3.785   4.469   6.274 -1.8367 -1.7785 -1.2712
30313SOL    HW293257   3.686   4.575   6.320 -0.3354 -1.2672  0.9512
30314SOL     OW93258   5.212   8.848   4.726 -0.2069  0.4784 -0.7405
30314SOL    HW193259   5.300   8.880   4.743 -0.2023  0.5809 -0.9535
30314SOL    HW293260   5.163   8.866   4.806  0.8997 -2.9772  0.9223
30315SOL     OW93261   5.891   2.513   9.239 -0.1225  0.6603  0.4737
30315SOL    HW193262   5.940   2.562   9.305  0.6338 -1.4911  1.6388
30315SOL    HW293263   5.880   2.426   9.278 -0.8444 -0.2951 -1.6966
30316SOL     OW93264   9.197   9.573   6.492 -0.0301  0.3786  0.5288
30316SOL    HW193265   9.143   9.633   6.543 -0.7798  1.1281 -1.0497
30316SOL    HW293266   9.260   9.630   6.447 -1.1738  0.1522 -1.5134
30317SOL     OW93267   1.169   5.764  10.181  0.5767 -0.2603  1.0010
30317SOL    HW193268   1.236   5.815  10.226  1.2101 -1.1119  1.0356
30317SOL    HW293269   1.192   5.673  10.199  0.8288 -0.6308 -1.0137
30318SOL     OW93270  10.414   1.313   4.088  0.8925 -0.2112 -0.1639
30318SOL    HW193271  10.373   1.342   4.169 -1.0045 -1.6375 -0.5514
30318SOL    HW293272  10.461   1.390   4.056 -0.5978  1.1876  0.8715
30319SOL     OW93273   5.075   3.882   4.025  0.5925  0.1403 -0.0853
30319SOL    HW193274   5.030   3.958   4.063 -0.9592 -1.4763  1.4967
30319SOL    HW293275   5.167   3.906   4.026  0.4147  1.0997  2.6950
30320SOL     OW93276   4.377  10.365   2.767 -0.5902  0.6664 -0.7970
30320SOL    HW193277   4.438  10.331   2.832 -4.1500 -2.1817  1.3565
30320SOL    HW293278   4.392  10.460   2.768  2.6018  0.2781  0.7066
30321SOL     OW93279   4.115   9.917   0.184 -0.0973 -0.6938 -0.2864
30321SOL    HW193280   4.104   9.836   0.133 -0.2624 -0.3801 -0.7502
30321SOL    HW293281   4.066   9.983   0.135 -0.6210 -0.4799  0.5033
30322SOL     OW93282   0.682   5.406   8.174 -0.3670 -0.0072 -0.4394
30322SOL    HW193283   0.682   5.496   8.206 -0.7617 -0.5422  1.1923
30322SOL    HW293284   0.589   5.380   8.175 -0.0969 -1.0530  1.0799
30323SOL     OW93285   5.041   6.308   1.119  0.0679  0.2370 -0.2704
30323SOL    HW193286   5.015   6.251   1.047 -1.0544 -0.5506  0.7107
30323SOL    HW293287   5.014   6.260   1.198 -0.0034  1.6976  0.6199
30324SOL     OW93288   5.250   4.211   8.273  0.3939  0.0041 -0.1866
30324SOL    HW193289   5.166   4.172   8.294  0.3037 -0.7363 -1.7900
30324SOL    HW293290   5.229   4.285   8.216  0.7494  0.8260  0.7014
30325SOL     OW93291   9.356   8.940   7.971 -0.3712 -0.1393 -0.2038
30325SOL    HW193292   9.312   8.931   7.886 -0.6991 -1.1828  0.0627
30325SOL    HW293293   9.379   8.851   7.996  0.8287  0.2699  0.2383
30326SOL     OW93294   9.510   6.827   5.358  0.5530 -0.1164 -0.0826
30326SOL    HW193295   9.591   6.866   5.325  0.4778  0.7602  0.7384
30326SOL    HW293296   9.454   6.819   5.280  0.6076  1.3256 -0.2949
30327SOL     OW93297   9.378   9.270   3.427 -0.9617 -0.5024  0.0085
30327SOL    HW193298   9.457   9.271   3.482 -1.6799 -1.4922  1.1077
30327SOL    HW293299   9.382   9.185   3.383 -1.7926 -0.9059  0.6787
30328SOL     OW93300  10.560  10.392   5.294 -0.2086  0.4136  0.0080
30328SOL    HW193301  10.593  10.364   5.209  0.3133  0.1268  0.2976
30328SOL    HW293302  10.562  10.488   5.291  0.5237  0.4003 -0.0335
30329SOL     OW93303   8.702   3.467   6.332 -0.0702 -0.1555 -0.8462
30329SOL    HW193304   8.650   3.543   6.356 -0.0280 -0.4564  0.2573
30329SOL    HW293305   8.733   3.486   6.243  2.1381  2.3601  0.3121
30330SOL     OW93306   0.492   9.465   9.776 -0.5715 -0.1997 -0.0315
30330SOL    HW193307   0.444   9.523   9.836 -1.6969 -0.5954 -0.5264
30330SOL    HW293308   0.466   9.495   9.689  1.0659  0.3826 -0.3548
30331SOL     OW93309   8.241   4.887   3.237  0.2933  0.3770 -0.2513
30331SOL    HW193310   8.188   4.808   3.244  0.2740  0.3422 -0.7534
30331SOL    HW293311   8.325   4.857   3.204  0.0297  0.6558 -1.2193
30332SOL     OW93312   1.671   8.194   9.663 -0.4692 -0.1928 -0.0622
30332SOL    HW193313   1.629   8.142   9.594 -0.1564  0.9674 -1.1730
30332SOL    HW293314   1.608   8.264   9.681  1.0103  1.7645 -1.9822
30333SOL     OW93315   1.265   5.928   0.785 -0.0686 -0.2643 -0.6488
30333SOL    HW193316   1.293   5.837   0.787  0.1533 -0.1814  0.1144
30333SOL    HW293317   1.194   5.933   0.849  0.4845  0.2805 -0.0679
30334SOL     OW93318   1.891   9.805   6.159 -0.2956 -0.6671  0.3785
30334SOL    HW193319   1.915   9.857   6.236 -1.8933  0.0658  0.4196
30334SOL    HW293320   1.973   9.766   6.130  0.7752  1.0467  0.9688
30335SOL     OW93321   0.395   7.963   2.348 -0.0833 -0.4610  0.1360
30335SOL    HW193322   0.317   8.013   2.323  0.3190  0.1879  0.1406
30335SOL    HW293323   0.392   7.962   2.444 -0.5302 -1.1726  0.1231
30336SOL     OW93324   3.499   8.475   5.343 -0.6576  0.3839  0.4205
30336SOL    HW193325   3.566   8.451   5.407 -0.4886 -0.0972  0.0685
30336SOL    HW293326   3.434   8.524   5.394 -0.9900 -0.7679  1.1621
30337SOL     OW93327   4.389   6.253  10.585 -0.1893 -0.0404 -0.5425
30337SOL    HW193328   4.466   6.201  10.562 -0.6110 -0.6297 -0.6522
30337SOL    HW293329   4.320   6.188  10.599 -0.2455  0.3407  1.3062
30338SOL     OW93330   6.016   0.064   6.774 -0.4693  0.0308  0.7871
30338SOL    HW193331   6.039  -0.017   6.729 -1.9128  1.8372 -3.8173
30338SOL    HW293332   6.098   0.096   6.811  0.8863 -1.7456 -0.5556
30339SOL     OW93333   0.367   7.383   9.085 -0.2016  0.0314  0.3310
30339SOL    HW193334   0.374   7.473   9.052  0.2592  0.0479  0.4647
30339SOL    HW293335   0.452   7.366   9.125 -0.4288 -0.3229  0.6705
30340SOL     OW93336   8.107   4.996   1.208  0.0839  0.1002  0.5329
30340SOL    HW193337   8.075   4.985   1.118 -1.8160  1.9223  0.8949
30340SOL    HW293338   8.048   4.941   1.261  0.6209 -0.2646  0.7584
30341SOL     OW93339   7.841   4.675   2.243 -0.2044  0.1469  0.2789
30341SOL    HW193340   7.824   4.584   2.222  1.0065  0.0289 -0.2709
30341SOL    HW293341   7.913   4.672   2.306 -1.1827  0.6762  1.4750
30342SOL     OW93342   4.186   0.379   0.000 -0.3404 -0.1606  0.0689
30342SOL    HW193343   4.104   0.400  -0.045 -1.1511  0.7349  1.8675
30342SOL    HW293344   4.222   0.306  -0.050 -0.9184  1.0622 -2.2850
30343SOL     OW93345   7.165   9.684   6.726 -0.0723  0.2464  0.0805
30343SOL    HW193346   7.095   9.620   6.737 -1.1044  1.0672 -1.3825
30343SOL    HW293347   7.127   9.752   6.671  2.2988  0.0713 -1.9275
30344SOL     OW93348   7.713   0.668   8.204 -0.5694  0.2492 -0.1807
30344SOL    HW193349   7.718   0.575   8.227 -0.4925 -0.3373 -2.3256
30344SOL    HW293350   7.802   0.701   8.214 -0.0591 -0.5630 -1.7395
30345SOL     OW93351   7.034   3.366   6.727  0.1160  0.7412  0.0152
30345SOL    HW193352   7.008   3.441   6.781 -0.2771  2.4878 -2.4546
30345SOL    HW293353   7.092   3.403   6.661  0.4127 -1.2707 -0.9049
30346SOL     OW93354   5.473   5.963   2.083  0.5546 -0.8369 -0.2617
30346SOL    HW193355   5.396   5.962   2.140  0.7833 -0.3982  0.0513
30346SOL    HW293356   5.525   6.037   2.113  0.9151 -0.8991 -0.7234
30347SOL     OW93357   5.843   4.533   8.797 -0.1078  0.0588  0.1016
30347SOL    HW193358   5.834   4.590   8.873  0.1016  2.0200 -1.2664
30347SOL    HW293359   5.753   4.520   8.767 -0.2021 -0.8294  0.7317
30348SOL     OW93360   3.851   4.258   0.483  0.1704 -0.7182  0.0998
30348SOL    HW193361   3.814   4.196   0.546 -0.3818  1.1314  1.7137
30348SOL    HW293362   3.934   4.285   0.523 -1.2565  2.2417  1.3552
30349SOL     OW93363   5.594   9.855   5.407  0.1863 -0.0608  0.1560
30349SOL    HW193364   5.511   9.826   5.443  0.1902 -0.2920 -0.0190
30349SOL    HW293365   5.656   9.846   5.479  0.0595  0.1114  0.2859
30350SOL     OW93366   5.241   0.565   7.800 -0.1461 -0.8641 -0.5209
30350SOL    HW193367   5.250   0.585   7.707  3.4269 -0.0503 -0.1279
30350SOL    HW293368   5.304   0.495   7.816  0.4103  0.0303  1.5153
30351SOL     OW93369   0.105   3.890   9.723  0.3055  0.2233  0.0114
30351SOL    HW193370   0.014   3.874   9.747  0.0760  1.2310 -0.1513
30351SOL    HW293371   0.106   3.980   9.690  1.4397  0.3769  0.4264
30352SOL     OW93372   2.464   1.617   0.790 -0.3466  0.8014  0.3242
30352SOL    HW193373   2.462   1.636   0.883  1.1771  1.3904  0.2649
30352SOL    HW293374   2.546   1.656   0.759  0.0964 -0.9687 -0.9037
30353SOL     OW93375   3.281   3.998   0.283  0.7595  0.5629 -0.2997
30353SOL    HW193376   3.292   3.936   0.355 -0.8720  1.0690  0.4362
30353SOL    HW293377   3.310   4.081   0.319 -1.1371  1.0468  0.2146
30354SOL     OW93378   2.348   7.066   9.916  0.6854 -0.1822  1.0609
30354SOL    HW193379   2.271   7.112   9.950  0.0095 -1.2032  0.9656
30354SOL    HW293380   2.418   7.086   9.979  0.7380  1.8665  0.4350
30355SOL     OW93381   5.187   8.425   0.007  0.3075 -0.1112 -0.6085
30355SOL    HW193382   5.114   8.458   0.060  0.2923 -1.4208  0.2167
30355SOL    HW293383   5.231   8.504  -0.024  1.0381  0.7500  2.3448
30356SOL     OW93384   2.719   1.392   2.790 -0.1612  0.1400 -0.7557
30356SOL    HW193385   2.726   1.298   2.808  3.7456  0.7234  2.0102
30356SOL    HW293386   2.669   1.427   2.864 -2.0520  0.3306 -2.0323
30357SOL     OW93387   2.741   3.092   2.209  0.0303  0.1255  0.2133
30357SOL    HW193388   2.769   3.152   2.278 -0.8806 -0.2620  0.9507
30357SOL    HW293389   2.655   3.061   2.239 -1.8605  2.2032 -2.4685
30358SOL     OW93390  10.269   8.322   6.278  0.1555  0.0644 -0.0485
30358SOL    HW193391  10.200   8.357   6.222  0.5440 -1.7000 -1.7249
30358SOL    HW293392  10.253   8.361   6.364 -0.8998  2.2862 -1.1957
30359SOL     OW93393   2.642   7.264   5.513  0.1197 -0.0626  0.2685
30359SOL    HW193394   2.690   7.344   5.491 -1.2036  0.8579  0.6486
30359SOL    HW293395   2.613   7.229   5.428  2.2296 -1.1815 -0.0651
30360SOL     OW93396   5.020   9.233   7.771  0.2917  0.2347 -0.6664
30360SOL    HW193397   5.094   9.181   7.801  0.0175  0.3858  0.3381
30360SOL    HW293398   4.951   9.169   7.751  0.3559  0.1437 -0.5958
30361SOL     OW93399   4.821   7.592   4.615 -0.2273 -0.8930 -0.3899
30361SOL    HW193400   4.744   7.534   4.611  0.8252 -2.3539 -0.1059
30361SOL    HW293401   4.875   7.565   4.540  0.9515 -1.2874  0.5775
30362SOL     OW93402   2.073   2.809   5.727  0.1040 -0.2245 -0.1031
30362SOL    HW193403   2.168   2.800   5.729  0.0850 -1.2961 -1.7977
30362SOL    HW293404   2.041   2.726   5.692 -1.4764  0.0998  0.4531
30363SOL     OW93405   9.287   8.440   6.426  0.3109 -0.1921  0.2263
30363SOL    HW193406   9.262   8.444   6.518  1.2121  0.5942  0.4597
30363SOL    HW293407   9.361   8.379   6.424  0.4653 -0.0016  0.0720
30364SOL     OW93408   1.124   2.355   7.584  0.4081 -0.0309 -0.1979
30364SOL    HW193409   1.168   2.292   7.641 -2.1056  0.5437  2.6235
30364SOL    HW293410   1.033   2.354   7.613  0.1596  4.7549 -0.0128
30365SOL     OW93411   9.357   2.505   9.263 -0.6105  0.2018  0.1369
30365SOL    HW193412   9.369   2.411   9.270  0.6725  0.2485 -1.0104
30365SOL    HW293413   9.438   2.542   9.299 -0.6502  0.8329 -0.4012
30366SOL     OW93414   9.387   5.179   5.511 -0.0303 -0.5137  0.1436
30366SOL    HW193415   9.481   5.195   5.510  0.1174 -1.3042 -1.2890
30366SOL    HW293416   9.349   5.260   5.544  1.1057  0.1381 -0.1057
30367SOL     OW93417   7.945   0.259   7.448  0.6386  0.1134  0.4223
30367SOL    HW193418   8.003   0.317   7.498  0.5009  0.1956  0.4906
30367SOL    HW293419   7.929   0.306   7.366  1.7928 -0.5437 -0.1992
30368SOL     OW93420   1.259   8.976   0.050 -0.0421  0.0947 -0.6418
30368SOL    HW193421   1.255   8.895  -0.001  1.4787 -0.2484 -0.2506
30368SOL    HW293422   1.203   8.960   0.126  1.7931 -1.3932  0.4805
30369SOL     OW93423   7.763   4.902   7.525 -0.2420 -0.0115 -0.3391
30369SOL    HW193424   7.785   4.995   7.537 -0.4086  0.0208 -0.2856
30369SOL    HW293425   7.839   4.855   7.561 -0.9730  0.0696  1.4195
30370SOL     OW93426   2.414  10.202   4.026  0.2223  0.2265  0.5771
30370SOL    HW193427   2.409  10.283   4.077  1.9125  0.4541  0.4281
30370SOL    HW293428   2.490  10.156   4.061 -0.1094 -0.8147 -0.0333
30371SOL     OW93429   4.382   3.356   2.420 -0.3354 -0.1031  0.2096
30371SOL    HW193430   4.413   3.268   2.396  1.7835  1.0805 -1.7123
30371SOL    HW293431   4.329   3.384   2.345 -0.6449  0.4333  0.6254
30372SOL     OW93432   0.082   3.395   8.876 -0.4825 -0.3610 -0.0598
30372SOL    HW193433   0.048   3.383   8.965 -0.6798 -1.8645 -0.3238
30372SOL    HW293434   0.132   3.316   8.858 -1.6365 -0.7311 -1.8170
30373SOL     OW93435   9.881   4.575   7.956 -0.1910 -0.0916  0.7341
30373SOL    HW193436   9.958   4.558   7.901 -1.1285  0.6987 -0.8979
30373SOL    HW293437   9.869   4.494   8.006  0.0511 -1.3065 -1.0696
30374SOL     OW93438   7.932   7.335   1.070 -0.8978  0.5834  0.6101
30374SOL    HW193439   7.995   7.407   1.067  0.5954 -0.6527  0.9496
30374SOL    HW293440   7.864   7.359   1.006  0.5194  1.4224 -0.6415
30375SOL     OW93441   3.820   6.630   5.582 -0.1302  0.3178 -0.5929
30375SOL    HW193442   3.787   6.675   5.504  0.9586  1.6689 -0.3257
30375SOL    HW293443   3.744   6.620   5.638 -0.4618  1.7317 -0.7455
30376SOL     OW93444   6.883   7.526   5.823  0.3951  0.3236 -0.3772
30376SOL    HW193445   6.948   7.515   5.892 -0.8831 -3.4134  0.4323
30376SOL    HW293446   6.929   7.502   5.742  0.6087 -0.1510 -0.1176
30377SOL     OW93447   2.140   9.629   0.807 -0.0045  0.2426  0.5650
30377SOL    HW193448   2.158   9.541   0.842  1.6529  0.3992  0.1840
30377SOL    HW293449   2.104   9.677   0.882 -0.6422 -0.6539  0.8562
30378SOL     OW93450   9.759   5.114   3.173 -0.0171 -0.0296  0.6801
30378SOL    HW193451   9.667   5.112   3.147 -0.2704  0.2857  1.5145
30378SOL    HW293452   9.805   5.066   3.104 -0.6346  0.8818 -0.4008
30379SOL     OW93453   0.446   6.127   9.929 -0.6765 -0.4276 -0.1597
30379SOL    HW193454   0.384   6.199   9.939 -0.4109 -0.3946  1.6011
30379SOL    HW293455   0.532   6.168   9.926 -0.5282 -0.6289  0.7888
30380SOL     OW93456   9.673   5.875   7.309  0.2684 -0.3219  0.1814
30380SOL    HW193457   9.706   5.919   7.387 -0.3656  0.0565  0.2415
30380SOL    HW293458   9.600   5.821   7.340  0.0050 -0.1613 -0.1518
30381SOL     OW93459   2.508   4.086   1.192  0.4369 -0.6082 -0.3910
30381SOL    HW193460   2.505   3.994   1.218 -0.6307 -0.1210  1.3367
30381SOL    HW293461   2.600   4.111   1.203  0.1823 -0.5998  2.5527
30382SOL     OW93462   4.159   1.945   7.554  0.2955 -0.3138 -0.2212
30382SOL    HW193463   4.182   1.879   7.619  1.2901  0.4843  0.2613
30382SOL    HW293464   4.193   1.910   7.471  1.9517  0.1190  0.2288
30383SOL     OW93465   8.486   1.137   7.711 -0.3123  0.5629  0.1640
30383SOL    HW193466   8.420   1.166   7.648 -0.4459 -1.3918 -0.6799
30383SOL    HW293467   8.516   1.052   7.677  1.8540  0.8769  1.1094
30384SOL     OW93468   6.440   4.626   0.456  0.8663 -0.1716 -0.0911
30384SOL    HW193469   6.460   4.633   0.363 -0.4264 -0.5280 -0.4091
30384SOL    HW293470   6.395   4.707   0.478 -2.7048 -1.7613 -0.8368
30385SOL     OW93471   3.030   5.683  10.565 -0.1630  0.2913 -0.5111
30385SOL    HW193472   2.994   5.610  10.615  0.8086 -0.3076 -0.6450
30385SOL    HW293473   3.035   5.756  10.627  1.5573 -0.6000  0.4835
30386SOL     OW93474   5.927   7.951   2.354  0.7211 -0.1041 -0.1802
30386SOL    HW193475   5.988   7.957   2.281  0.4654  0.7401 -0.3315
30386SOL    HW293476   5.899   8.041   2.370  1.0920 -0.2157  1.2287
30387SOL     OW93477   4.196  10.154  10.473 -0.3075 -0.3799  0.1742
30387SOL    HW193478   4.267  10.129  10.532 -0.0977 -0.6064 -0.1718
30387SOL    HW293479   4.117  10.118  10.515  0.0257 -2.0063 -0.4995
30388SOL     OW93480   2.095   1.325   4.580 -0.0193  0.1213 -0.7818
30388SOL    HW193481   2.042   1.250   4.553  0.6414 -0.0387 -1.7060
30388SOL    HW293482   2.180   1.287   4.604 -0.4593  0.3042  1.2576
30389SOL     OW93483   8.044   9.340   9.627 -0.2395  0.2870  0.2098
30389SOL    HW193484   8.064   9.297   9.710  1.5201 -0.4382 -0.5329
30389SOL    HW293485   8.010   9.269   9.572  1.3548  0.0863 -0.5780
30390SOL     OW93486   7.490   7.280  10.535 -0.5428  0.6070 -0.6419
30390SOL    HW193487   7.572   7.320  10.564 -0.6503  0.6229 -0.3509
30390SOL    HW293488   7.433   7.284  10.613  0.0535 -1.7715  0.0069
30391SOL     OW93489   6.760   3.112   8.974 -0.6436 -0.3849 -0.1514
30391SOL    HW193490   6.782   3.188   9.028 -1.2176 -1.1847  1.2616
30391SOL    HW293491   6.823   3.045   9.000 -0.6544 -0.6633 -0.8067
30392SOL     OW93492   9.985   3.917   2.735 -0.0905  0.5337 -0.2334
30392SOL    HW193493  10.016   3.965   2.812  0.2869 -0.2723  0.1325
30392SOL    HW293494  10.026   3.831   2.742  0.4852  0.6595 -1.6943
30393SOL     OW93495  10.069   8.946   8.893 -0.2624  0.3066  0.0886
30393SOL    HW193496  10.077   8.979   8.983  1.1783 -0.2092  0.1787
30393SOL    HW293497  10.159   8.926   8.867 -0.7994 -0.8178 -0.9858
30394SOL     OW93498   3.436   0.602   3.037 -0.3992 -0.6789 -0.1117
30394SOL    HW193499   3.496   0.676   3.029 -2.2482  0.7130 -2.6138
30394SOL    HW293500   3.460   0.560   3.119  2.4584  1.1159  0.1008
30395SOL     OW93501   5.156  10.371   4.079 -0.6459  0.0846 -0.3686
30395SOL    HW193502   5.128  10.400   3.992  0.2105 -1.6582 -1.2799
30395SOL    HW293503   5.177  10.278   4.068  0.6908  0.1144  1.4036
30396SOL     OW93504   7.068   2.942   1.209  0.3403 -0.2456  0.3512
30396SOL    HW193505   6.982   2.944   1.167  0.4448  0.1583  0.1479
30396SOL    HW293506   7.056   2.990   1.291  0.6733  0.9534 -0.2797
30397SOL     OW93507   5.690   6.905   0.528 -0.2429  0.1069  0.2026
30397SOL    HW193508   5.667   6.992   0.561  0.5864  1.1046 -1.6683
30397SOL    HW293509   5.709   6.853   0.606 -0.9646  1.5294  1.3720
30398SOL     OW93510   6.821   0.827   9.356 -0.2614 -0.1822  0.1880
30398SOL    HW193511   6.741   0.775   9.348  0.6728 -1.7700  0.6694
30398SOL    HW293512   6.867   0.788   9.430  1.8924 -0.6522 -1.2969
30399SOL     OW93513   4.638   7.047   9.761 -0.5978 -0.3182  0.7635
30399SOL    HW193514   4.625   7.139   9.741 -1.8296 -0.4270  0.9544
30399SOL    HW293515   4.717   7.044   9.815  0.1126  0.4795 -0.1867
30400SOL     OW93516   4.469   1.744   5.774  0.1189 -0.2389  0.3524
30400SOL    HW193517   4.438   1.823   5.820 -0.7992 -1.0164  1.1136
30400SOL    HW293518   4.391   1.707   5.734 -0.1191 -2.4464  2.6121
30401SOL     OW93519   3.194   3.177   9.235 -0.1215 -0.3113 -0.3783
30401SOL    HW193520   3.229   3.114   9.172 -0.3046 -0.3591 -0.4327
30401SOL    HW293521   3.265   3.191   9.298 -0.0212 -0.4406 -0.4632
30402SOL     OW93522   1.260   8.431   2.459  0.5342 -0.3580  0.6681
30402SOL    HW193523   1.196   8.379   2.508  1.9970 -2.8685  0.1175
30402SOL    HW293524   1.329   8.452   2.522  0.4298  0.0570  0.6473
30403SOL     OW93525   9.728   6.844   6.630 -0.0556  0.0544  0.2372
30403SOL    HW193526   9.753   6.754   6.608 -0.7694 -0.1979  0.4284
30403SOL    HW293527   9.810   6.887   6.655  0.0781 -1.0044  1.7319
30404SOL     OW93528   0.979   1.375  10.531  0.2214 -0.0919 -0.3757
30404SOL    HW193529   1.050   1.312  10.518  0.3077  0.1404 -1.0906
30404SOL    HW293530   0.964   1.413  10.444  1.0824  1.8303  0.2530
30405SOL     OW93531   9.279   3.839   0.244  0.2128  0.5543 -0.4379
30405SOL    HW193532   9.272   3.769   0.308  0.1629  1.0857  0.1487
30405SOL    HW293533   9.227   3.809   0.169 -0.2563  0.2104  0.0203
30406SOL     OW93534   0.268   1.458   0.977 -0.2881  0.2255 -0.5869
30406SOL    HW193535   0.235   1.406   0.904  0.8719  0.5158 -1.3422
30406SOL    HW293536   0.363   1.460   0.964 -0.3004  2.6513 -0.6602
30407SOL     OW93537   8.280   4.298   3.708 -0.3297  0.1456  0.1922
30407SOL    HW193538   8.227   4.374   3.731 -0.5844 -0.5435  1.9756
30407SOL    HW293539   8.220   4.224   3.710  0.3287 -0.3957  0.4641
30408SOL     OW93540   0.168   0.639   7.166  0.0875 -0.0040  0.2581
30408SOL    HW193541   0.237   0.587   7.207  0.8840  0.3310 -0.6173
30408SOL    HW293542   0.105   0.575   7.135  0.2142 -0.3404  0.6740
30409SOL     OW93543   4.682   3.972   1.914  0.8855  0.3847 -0.5246
30409SOL    HW193544   4.673   4.034   1.987  1.3829 -0.1149 -0.0290
30409SOL    HW293545   4.710   3.890   1.955 -1.1332 -0.6046 -0.9949
30410SOL     OW93546   0.255   2.145   1.707  0.3426  0.2964  0.3054
30410SOL    HW193547   0.171   2.115   1.740  0.6994 -0.2583  0.7456
30410SOL    HW293548   0.237   2.230   1.667 -0.9737 -1.0724 -2.2139
30411SOL     OW93549   0.639   7.992   4.140 -0.2489 -0.5050  0.1843
30411SOL    HW193550   0.727   7.964   4.167 -1.6699 -1.7845  4.1987
30411SOL    HW293551   0.640   8.087   4.149  0.8147 -0.4734 -0.1582
30412SOL     OW93552   8.741   1.737   2.015 -0.2110 -0.2373 -0.3569
30412SOL    HW193553   8.675   1.748   1.947 -0.0694 -1.3360 -0.6917
30412SOL    HW293554   8.790   1.820   2.016  1.8128 -1.2052 -3.7713
30413SOL     OW93555   9.993   0.625   3.988 -0.0195 -0.2243 -0.7155
30413SOL    HW193556   9.947   0.700   4.026 -1.6535 -1.2853 -0.5395
30413SOL    HW293557  10.064   0.607   4.050 -0.1160  0.6308 -0.3305
30414SOL     OW93558   9.710   5.036   4.175  0.5777  0.1708 -0.5035
30414SOL    HW193559   9.743   5.078   4.254  0.9851 -1.1900  0.0754
30414SOL    HW293560   9.614   5.041   4.184  0.5901 -0.9546  0.6641
30415SOL     OW93561   6.114   3.177   9.524 -0.4538  0.2520 -0.0336
30415SOL    HW193562   6.167   3.156   9.447 -0.1335  0.0450  0.2452
30415SOL    HW293563   6.115   3.098   9.577 -3.6111 -0.9201 -1.4713
30416SOL     OW93564   4.494   6.692   4.760  0.4459 -0.1393 -0.5538
30416SOL    HW193565   4.443   6.713   4.682 -0.4081  1.5344  0.4046
30416SOL    HW293566   4.504   6.597   4.758  1.1208 -0.0671 -3.0957
30417SOL     OW93567   7.146   2.061   8.713  0.0607  0.1999  0.3503
30417SOL    HW193568   7.116   1.970   8.703  0.8139 -0.1647  1.2565
30417SOL    HW293569   7.066   2.111   8.727 -0.5759  0.0000 -2.1000
30418SOL     OW93570   2.574   3.689   4.753  0.1209  0.0527 -0.6962
30418SOL    HW193571   2.640   3.621   4.743  1.2096  1.2871 -2.4204
30418SOL    HW293572   2.511   3.672   4.683 -0.8128 -0.4332  0.2255
30419SOL     OW93573   6.283   3.498   0.080 -0.1524 -0.0123  0.0927
30419SOL    HW193574   6.258   3.415   0.039 -1.1616 -0.5561  1.7292
30419SOL    HW293575   6.209   3.557   0.064  0.0690  0.2195 -0.0886
30420SOL     OW93576   8.358   8.068   1.270 -0.0006 -0.2834  0.2008
30420SOL    HW193577   8.301   8.127   1.221 -0.1389  0.6974  1.4982
30420SOL    HW293578   8.446   8.092   1.243 -0.0405  0.7169  0.8985
30421SOL     OW93579   4.575   4.894   0.977  0.2610 -0.1452 -0.1871
30421SOL    HW193580   4.595   4.852   1.061  1.2321  2.9085  1.2291
30421SOL    HW293581   4.480   4.903   0.977  0.1848 -0.8365  0.2079
30422SOL     OW93582   0.824   0.077   6.970  0.3308 -0.0374 -0.3753
30422SOL    HW193583   0.835  -0.010   7.007  1.3289  0.7750  1.3623
30422SOL    HW293584   0.907   0.095   6.927  1.3954  1.2275  2.0062
30423SOL     OW93585   1.821   8.841  10.554 -0.3052 -0.0694 -0.7388
30423SOL    HW193586   1.737   8.822  10.511 -1.2189 -1.5506  1.4895
30423SOL    HW293587   1.811   8.929  10.588 -0.4058  0.2889 -1.6720
30424SOL     OW93588   9.184   9.308   5.947 -0.7820  0.1227  0.0350
30424SOL    HW193589   9.093   9.326   5.971 -0.9397  0.1498 -0.5679
30424SOL    HW293590   9.179   9.281   5.855 -0.2395 -0.3841  0.1496
30425SOL     OW93591   6.655   9.140   7.678 -0.3612  0.4380  0.2644
30425SOL    HW193592   6.655   9.118   7.584  1.0154  1.2263  0.0409
30425SOL    HW293593   6.745   9.122   7.706  0.7206  4.6597  0.2571
30426SOL     OW93594   5.537   0.103   2.390  0.1311 -0.7875 -0.5878
30426SOL    HW193595   5.594   0.026   2.383  1.8014 -0.0027  2.4510
30426SOL    HW293596   5.544   0.146   2.304  1.6495 -2.3808 -1.3300
30427SOL     OW93597   1.173   2.563   1.885  0.0247 -0.7980 -0.0525
30427SOL    HW193598   1.233   2.556   1.958  1.1534 -2.6351 -1.0866
30427SOL    HW293599   1.097   2.510   1.910  0.4530 -1.5062 -0.2490
30428SOL     OW93600   8.977   0.085  10.151 -0.5103 -0.4219 -0.1554
30428SOL    HW193601   8.906   0.020  10.149 -0.4801 -0.4473 -0.3644
30428SOL    HW293602   9.016   0.081  10.064 -1.8760  1.3813 -0.9083
30429SOL     OW93603   5.155   5.945   1.894 -0.2912 -0.2134  0.5969
30429SOL    HW193604   5.181   5.872   1.837 -0.5061 -1.3614  1.9099
30429SOL    HW293605   5.120   6.011   1.834 -3.7296 -2.6938 -0.4430
30430SOL     OW93606   1.056   3.233   9.380 -0.5035  0.6384  0.2738
30430SOL    HW193607   1.000   3.310   9.396  0.0509  0.9030  1.0130
30430SOL    HW293608   1.144   3.264   9.400 -0.2482 -0.1272  0.3444
30431SOL     OW93609   3.430   2.022   0.730 -0.1027 -0.1577 -0.1489
30431SOL    HW193610   3.511   1.974   0.748  0.1720 -0.2171 -1.4335
30431SOL    HW293611   3.383   1.968   0.667 -0.6254  0.4039 -0.2565
30432SOL     OW93612   6.197   6.058   6.384 -0.0797 -0.0862  0.9622
30432SOL    HW193613   6.130   6.120   6.411  0.2166  0.4292  0.5467
30432SOL    HW293614   6.154   6.002   6.320 -0.1463  0.1773  0.7744
30433SOL     OW93615   7.965   0.409   4.438 -0.1727  0.0551  0.5249
30433SOL    HW193616   8.045   0.461   4.434  0.4313 -0.9439 -1.8111
30433SOL    HW293617   7.895   0.472   4.419  0.5605  0.0862 -2.4345
30434SOL     OW93618   0.460   5.584   4.673  0.1749  0.0419  0.0040
30434SOL    HW193619   0.532   5.637   4.639  0.3260 -0.2485 -0.1315
30434SOL    HW293620   0.501   5.527   4.738  0.5320 -1.8129 -1.7486
30435SOL     OW93621   7.741   6.631   0.838 -0.2219  0.0848  0.3616
30435SOL    HW193622   7.718   6.623   0.745  1.9071 -1.0803 -0.1417
30435SOL    HW293623   7.763   6.723   0.849  2.6586 -0.2818 -1.2123
30436SOL     OW93624   4.586   1.577   6.653  0.0738 -0.0004 -0.0402
30436SOL    HW193625   4.650   1.613   6.713 -1.1933  1.3498  0.5622
30436SOL    HW293626   4.501   1.603   6.689 -0.8203 -1.3631 -1.0258
30437SOL     OW93627   3.076   7.072   2.684 -0.1732 -0.0373 -0.5377
30437SOL    HW193628   3.035   7.039   2.604 -1.2010 -1.6564  0.6063
30437SOL    HW293629   3.024   7.150   2.706  0.9490  1.2176 -2.1121
30438SOL     OW93630   1.675   5.669   1.277 -0.2383 -0.1598  0.8154
30438SOL    HW193631   1.707   5.623   1.200 -0.6147 -1.1343  1.2324
30438SOL    HW293632   1.643   5.753   1.243  1.1416  0.1220  0.1620
30439SOL     OW93633   6.165   9.174   5.319  0.0057 -0.2120  0.5317
30439SOL    HW193634   6.170   9.270   5.319  0.4639 -0.2003 -1.6206
30439SOL    HW293635   6.100   9.153   5.253 -0.0422 -1.4051  0.9381
30440SOL     OW93636   7.858   0.874   5.440 -0.3095 -0.1944  0.0221
30440SOL    HW193637   7.920   0.946   5.452 -1.4491  1.2606 -2.1815
30440SOL    HW293638   7.881   0.836   5.356  1.4919 -3.8190  1.9282
30441SOL     OW93639   8.643   2.657   9.350 -0.3061  0.1562  0.0604
30441SOL    HW193640   8.585   2.582   9.365  0.3597 -0.7201 -1.4393
30441SOL    HW293641   8.584   2.732   9.339 -1.1978 -0.7042 -1.3885
30442SOL     OW93642   5.661   8.144   5.957  0.0811  0.5972  0.4484
30442SOL    HW193643   5.714   8.082   5.907  0.7864  0.4826  1.2980
30442SOL    HW293644   5.592   8.171   5.897 -0.7246 -1.6176  0.2919
30443SOL     OW93645   8.006   7.622   7.370  0.0669  0.1432  0.3522
30443SOL    HW193646   8.011   7.579   7.456  3.0034 -1.1167 -0.3134
30443SOL    HW293647   7.935   7.578   7.325 -0.9939  0.2760  1.8182
30444SOL     OW93648   9.799   1.051   2.535  0.5475  0.1894  0.4482
30444SOL    HW193649   9.731   0.991   2.503  1.0334  0.3556 -0.9747
30444SOL    HW293650   9.755   1.103   2.602 -0.8540  0.5081 -0.6599
30445SOL     OW93651   4.393   3.520   3.048  0.2043  0.2564 -0.2749
30445SOL    HW193652   4.430   3.453   3.105 -0.3193  0.3076  0.1361
30445SOL    HW293653   4.410   3.488   2.959 -1.7312 -1.4282 -0.1168
30446SOL     OW93654   7.818   2.912   1.555 -0.1937  0.1759 -0.1563
30446SOL    HW193655   7.878   2.968   1.504  0.7367  1.9609  2.6499
30446SOL    HW293656   7.787   2.969   1.625 -1.4710 -2.1049  1.2315
30447SOL     OW93657  10.040   0.791   0.501  0.0588 -0.1488  0.7278
30447SOL    HW193658   9.988   0.871   0.498  0.5101  0.1392  0.4427
30447SOL    HW293659  10.031   0.758   0.590  0.8195  0.8558  1.1886
30448SOL     OW93660   3.027   5.478   6.728  0.3669 -0.5273  0.2118
30448SOL    HW193661   3.021   5.553   6.788 -0.7660 -0.0351 -0.4905
30448SOL    HW293662   2.937   5.463   6.700  0.5199 -2.4077  0.6271
30449SOL     OW93663   4.858  10.209   9.604 -0.2465  0.2945  0.3411
30449SOL    HW193664   4.890  10.293   9.571  2.3807 -0.3394  1.0387
30449SOL    HW293665   4.902  10.143   9.550 -1.6293 -0.6776  0.3430
30450SOL     OW93666   9.031   7.982   5.490  0.1155  0.1009  0.1799
30450SOL    HW193667   9.000   8.061   5.534  1.7111  0.2270  1.1919
30450SOL    HW293668   9.073   7.931   5.560 -0.6920 -1.5698 -0.4828
30451SOL     OW93669   3.079   2.302   3.311  0.5480  0.0103  0.0498
30451SOL    HW193670   2.996   2.254   3.311 -0.3168  1.4517 -0.1414
30451SOL    HW293671   3.146   2.234   3.323 -0.7697 -0.9823  2.7556
30452SOL     OW93672   9.391   7.770   5.892 -0.1282  0.3420 -0.1465
30452SOL    HW193673   9.446   7.808   5.823  0.9695  0.3439  0.6956
30452SOL    HW293674   9.363   7.846   5.944  1.5394  0.1401  1.1565
30453SOL     OW93675   1.384   8.496   0.148  0.1451 -0.3682  0.9309
30453SOL    HW193676   1.301   8.512   0.105  0.2815 -0.3333  0.6797
30453SOL    HW293677   1.372   8.530   0.237  0.5132  1.4401  0.3394
30454SOL     OW93678   1.949   7.738   6.264  0.0247 -0.1663 -0.5668
30454SOL    HW193679   1.954   7.778   6.177  0.2142  1.1075 -0.0001
30454SOL    HW293680   2.006   7.661   6.259 -0.3249 -0.3640 -1.6933
30455SOL     OW93681   7.490   6.155   2.358 -0.2385 -0.3241  0.0668
30455SOL    HW193682   7.420   6.173   2.421 -2.1544 -0.4921 -1.8950
30455SOL    HW293683   7.456   6.187   2.274  2.4035  0.3332 -0.8503
30456SOL     OW93684   9.702   6.485   3.962 -0.0831 -0.2418  0.1022
30456SOL    HW193685   9.711   6.428   4.038  0.9335  0.2377  0.3554
30456SOL    HW293686   9.715   6.573   3.995 -2.2027  0.2442 -0.1901
30457SOL     OW93687   2.585   6.716   5.322  0.1135  0.2881  0.0617
30457SOL    HW193688   2.616   6.756   5.241  0.1292  0.6796  0.2634
30457SOL    HW293689   2.618   6.626   5.318 -2.3846 -0.6545 -1.8034
30458SOL     OW93690   6.945   2.213   8.192  0.6344  0.2891  0.5943
30458SOL    HW193691   7.006   2.283   8.168  0.8697 -0.0035  0.3273
30458SOL    HW293692   6.936   2.161   8.112 -1.9631  1.7714 -0.2301
30459SOL     OW93693   9.415   0.564  10.380 -0.0760 -0.2685  0.3873
30459SOL    HW193694   9.436   0.568  10.286 -1.8993  0.6294 -0.0242
30459SOL    HW293695   9.327   0.527  10.383 -1.9556  3.7029  1.3298
30460SOL     OW93696   4.729   5.952   2.460  0.0768  0.4850  0.0393
30460SOL    HW193697   4.692   5.887   2.520  0.8392  0.9602  1.0420
30460SOL    HW293698   4.698   5.924   2.373 -0.5395 -0.5586  0.5720
30461SOL     OW93699   0.269   4.622   5.412 -0.5585 -0.3826  0.8105
30461SOL    HW193700   0.300   4.611   5.502 -0.1730 -1.1095  0.5938
30461SOL    HW293701   0.267   4.717   5.399  0.8119 -0.2821  1.1078
30462SOL     OW93702   7.876   1.311   3.581  0.3475 -0.2030  0.2429
30462SOL    HW193703   7.865   1.263   3.499 -1.2365 -1.5231  1.1567
30462SOL    HW293704   7.861   1.402   3.557 -2.2731 -0.7700 -0.6324
30463SOL     OW93705   0.022   1.039  10.491 -0.1522 -0.0557  0.4937
30463SOL    HW193706  -0.061   1.017  10.449 -0.0029  1.3264 -0.6031
30463SOL    HW293707   0.089   1.008  10.429  0.0724  2.1326 -0.4571
30464SOL     OW93708   1.902   4.853   0.115 -0.1888 -0.1145 -0.0173
30464SOL    HW193709   1.877   4.762   0.099 -1.5561  0.3281 -0.5952
30464SOL    HW293710   1.860   4.902   0.044  0.1579  1.0111  0.5314
30465SOL     OW93711   4.884   6.526   3.951  0.2994  0.5092 -0.2461
30465SOL    HW193712   4.977   6.541   3.932 -0.4811  1.8479 -3.8842
30465SOL    HW293713   4.851   6.612   3.979 -0.0289  0.2250  0.2645
30466SOL     OW93714   5.850   5.494   7.414  0.3211  0.0845  0.0586
30466SOL    HW193715   5.762   5.531   7.403  0.1534 -0.2603  0.2260
30466SOL    HW293716   5.838   5.401   7.397  0.8745  0.2093 -1.1089
30467SOL     OW93717   2.668  10.050   6.371 -0.0441 -0.1953 -0.2632
30467SOL    HW193718   2.737  10.063   6.305  0.3971  0.3579  0.2984
30467SOL    HW293719   2.668  10.131   6.422  0.5775 -1.1317  1.3043
30468SOL     OW93720   1.703   9.983   0.295  0.1054 -0.4577  0.0205
30468SOL    HW193721   1.741  10.031   0.368 -0.8738  0.4831 -0.0534
30468SOL    HW293722   1.728   9.892   0.309  0.7708 -0.1299  0.9708
30469SOL     OW93723   7.441   3.502   3.270  0.2914  0.0990  0.5237
30469SOL    HW193724   7.499   3.576   3.289 -2.0867  3.0138 -2.4018
30469SOL    HW293725   7.471   3.469   3.186  0.8012 -1.8559  1.4215
30470SOL     OW93726   0.215   2.646   3.210  0.6804 -0.1744 -0.3199
30470SOL    HW193727   0.275   2.715   3.239  0.9754 -0.3321 -0.5626
30470SOL    HW293728   0.159   2.630   3.286  1.0944 -0.1945 -0.0203
30471SOL     OW93729   1.652   7.081  10.062 -0.4631 -0.1776 -0.0191
30471SOL    HW193730   1.603   7.140  10.119 -2.1952 -1.6194  0.0701
30471SOL    HW293731   1.726   7.052  10.116  0.6014  2.0436 -0.1693
30472SOL     OW93732   8.284   3.049   2.156 -0.0649 -0.0405  0.2124
30472SOL    HW193733   8.218   3.088   2.214  1.1294  2.4886  0.0108
30472SOL    HW293734   8.368   3.078   2.192  0.8171 -0.8364 -1.1204
30473SOL     OW93735   8.999   7.898   8.730 -0.2636  0.1880  0.4496
30473SOL    HW193736   9.084   7.921   8.766  0.4705  0.0313 -1.0905
30473SOL    HW293737   9.014   7.815   8.685 -0.3052  1.7300 -2.7345
30474SOL     OW93738   9.558   3.260   4.982 -0.4712 -0.2424  0.5115
30474SOL    HW193739   9.587   3.178   5.022  1.0700  0.0226  0.0084
30474SOL    HW293740   9.473   3.240   4.943 -0.0219 -1.6646  0.2244
30475SOL     OW93741   4.411   6.804   2.162 -0.3208 -0.2348 -0.5040
30475SOL    HW193742   4.440   6.854   2.086 -3.5181  1.5154 -0.7609
30475SOL    HW293743   4.477   6.735   2.173  1.4477  0.8269 -3.4356
30476SOL     OW93744   7.141   4.200   4.645 -0.1305  0.2203  0.1029
30476SOL    HW193745   7.128   4.295   4.646  0.9085  0.3926 -0.6209
30476SOL    HW293746   7.204   4.184   4.715  0.8292  0.2778 -0.7192
30477SOL     OW93747   3.938  10.497   8.297  0.1938  0.0455 -0.1258
30477SOL    HW193748   3.887  10.577   8.312 -0.7886 -0.5875 -0.0551
30477SOL    HW293749   3.988  10.515   8.218  0.6183  1.0435  0.3510
30478SOL     OW93750   2.464   8.498   9.009  0.7960 -0.2170  0.8764
30478SOL    HW193751   2.465   8.508   8.914 -1.4703  3.0392  1.0237
30478SOL    HW293752   2.549   8.531   9.038  0.4969  1.3861  0.0597
30479SOL     OW93753   5.340   4.429   8.756 -0.2334  0.2802  0.7410
30479SOL    HW193754   5.353   4.373   8.832 -0.4537  1.4115  1.6482
30479SOL    HW293755   5.343   4.370   8.681 -0.1931 -0.8845  1.6378
30480SOL     OW93756   8.425   2.973   4.410  0.0230  0.1085 -0.2663
30480SOL    HW193757   8.403   3.003   4.498 -0.7375  0.3494 -0.5374
30480SOL    HW293758   8.440   3.054   4.360  1.5806 -0.0292 -0.0931
30481SOL     OW93759   6.581  10.089   6.328 -0.0226  0.0733  0.3259
30481SOL    HW193760   6.625  10.142   6.262 -0.6805  0.4371  0.1679
30481SOL    HW293761   6.495  10.070   6.289 -1.3519  2.2480  2.0173
30482SOL     OW93762   1.785   4.177   4.940  0.6109  0.1380  0.2700
30482SOL    HW193763   1.712   4.115   4.945  0.7268 -0.0801 -0.6384
30482SOL    HW293764   1.753   4.255   4.984  0.1964 -0.3105  0.7805
30483SOL     OW93765   1.427  10.292   2.276  0.7718 -0.4093 -0.3095
30483SOL    HW193766   1.350  10.330   2.318  0.0429 -1.2000 -0.8786
30483SOL    HW293767   1.497  10.301   2.340 -0.1822 -1.0994  0.8682
30484SOL     OW93768   3.279   2.546   5.713 -0.3809 -0.0901  0.0072
30484SOL    HW193769   3.309   2.581   5.629  0.7022  0.3857  0.5624
30484SOL    HW293770   3.201   2.495   5.692 -0.1853  0.1054 -1.2680
30485SOL     OW93771   2.825   8.654   8.758 -0.1388 -0.4817  0.0036
30485SOL    HW193772   2.910   8.690   8.785 -0.0006 -0.7881 -0.0186
30485SOL    HW293773   2.829   8.561   8.781 -0.4883 -0.4872  0.0474
30486SOL     OW93774   4.270   5.008   1.198  0.2742 -0.3240  0.6538
30486SOL    HW193775   4.275   4.929   1.144 -3.6945 -0.2224 -0.1213
30486SOL    HW293776   4.286   5.080   1.137  0.0186 -0.3797  0.5203
30487SOL     OW93777   7.034   3.625   9.413  0.1914 -0.1709  0.0762
30487SOL    HW193778   6.976   3.672   9.353 -2.2733 -1.1819  1.4831
30487SOL    HW293779   6.975   3.567   9.461  2.4360 -1.2725  1.6521
30488SOL     OW93780   4.363   1.534   5.976 -0.0038  0.3369 -0.1887
30488SOL    HW193781   4.447   1.522   6.020  0.0282 -0.1639 -0.3789
30488SOL    HW293782   4.385   1.579   5.895  0.1372 -0.1384 -0.4206
30489SOL     OW93783   3.725   0.735   0.344  0.5093 -0.2345 -0.3947
30489SOL    HW193784   3.682   0.696   0.268  1.5145  0.2265 -1.2406
30489SOL    HW293785   3.701   0.679   0.417  0.5975 -1.4919 -1.2905
30490SOL     OW93786   3.332   8.122   3.130  0.4096  0.2979  0.0287
30490SOL    HW193787   3.281   8.135   3.209  0.9374 -0.5852  0.5224
30490SOL    HW293788   3.352   8.029   3.129  1.4958  0.5253 -0.4658
30491SOL     OW93789   9.235   4.118   2.170  0.2291  0.2659  0.4357
30491SOL    HW193790   9.240   4.173   2.248 -0.5777  1.2900 -0.2102
30491SOL    HW293791   9.214   4.179   2.099 -1.6763 -1.0092 -0.1525
30492SOL     OW93792   3.079   4.815   6.921 -0.4194 -0.0423 -0.7518
30492SOL    HW193793   3.005   4.761   6.947  0.5247 -1.4488 -0.8714
30492SOL    HW293794   3.155   4.757   6.928  1.0662  1.9855  1.7368
30493SOL     OW93795   7.263  10.586   9.724 -0.5733  0.0886 -0.0214
30493SOL    HW193796   7.316  10.598   9.802  2.6938  1.8326 -2.2661
30493SOL    HW293797   7.209  10.665   9.718 -1.7544 -0.6073  1.0324
30494SOL     OW93798   6.042   4.267   9.995 -0.0856 -0.6346  0.1299
30494SOL    HW193799   5.971   4.307  10.044 -0.5660  0.1332 -1.1216
30494SOL    HW293800   6.002   4.243   9.911  0.8456 -1.2937 -0.1382
30495SOL     OW93801   6.325   7.714   3.827 -0.4440  0.2211  0.4822
30495SOL    HW193802   6.416   7.740   3.815 -0.0277 -1.0678  0.6863
30495SOL    HW293803   6.277   7.761   3.759  0.6281 -0.4231 -0.7605
30496SOL     OW93804   8.877   2.507   0.655 -0.2219  0.6847 -0.1865
30496SOL    HW193805   8.936   2.582   0.646 -0.1642  1.2009  3.1576
30496SOL    HW293806   8.932   2.437   0.690 -0.9898  0.2395  0.1567
30497SOL     OW93807  10.523   4.142   5.774  0.0312 -0.5234 -0.2548
30497SOL    HW193808  10.436   4.139   5.815  0.3957  0.7302  0.6508
30497SOL    HW293809  10.504   4.141   5.680 -0.9820 -0.1133 -0.0748
30498SOL     OW93810   8.670   4.572   6.052 -0.2613 -0.3205 -0.3023
30498SOL    HW193811   8.622   4.613   5.980  0.7831  1.0716 -0.2357
30498SOL    HW293812   8.674   4.479   6.028  0.5244  0.1858 -2.3125
30499SOL     OW93813   8.165   9.688   5.593 -0.2012  0.3077  0.5104
30499SOL    HW193814   8.220   9.643   5.529 -2.0012  1.4756 -2.0223
30499SOL    HW293815   8.109   9.619   5.629 -0.3186 -0.1169 -0.4599
30500SOL     OW93816   7.232   1.085   8.088  0.2196  0.1892  0.3161
30500SOL    HW193817   7.270   1.155   8.035  1.9822  0.1433  1.4474
30500SOL    HW293818   7.204   1.130   8.168 -1.2531  0.0436 -0.0888
30501SOL     OW93819   5.955   1.007   6.022 -0.0231 -0.1269 -0.6430
30501SOL    HW193820   5.934   1.089   6.068  0.8588 -0.6035  0.6727
30501SOL    HW293821   5.946   0.939   6.089 -0.9206 -1.1509 -1.7574
30502SOL     OW93822   6.924   4.823   5.407  0.2000 -0.1281  0.2052
30502SOL    HW193823   6.892   4.909   5.433 -1.3035 -0.1528 -1.3998
30502SOL    HW293824   6.870   4.761   5.456 -0.8157 -0.1455 -0.8815
30503SOL     OW93825   0.877   0.145   5.476  0.1269  0.9588 -0.0205
30503SOL    HW193826   0.864   0.114   5.566 -1.1731  1.8104  0.1061
30503SOL    HW293827   0.948   0.210   5.483  1.6322 -0.6041 -0.0110
30504SOL     OW93828   1.483  10.011   0.892 -0.6335  0.3925  0.2009
30504SOL    HW193829   1.536   9.971   0.961  1.7855  1.7043 -0.7894
30504SOL    HW293830   1.395   9.977   0.908  0.2031 -0.9042  2.7039
30505SOL     OW93831   0.532   6.603   1.837  0.1912  0.1060  0.0923
30505SOL    HW193832   0.542   6.511   1.813  3.2834 -0.1751  1.8825
30505SOL    HW293833   0.559   6.651   1.758  1.0805 -0.6061 -0.0632
30506SOL     OW93834  10.582   7.575   6.464 -0.6642 -0.0005 -0.1872
30506SOL    HW193835  10.520   7.620   6.407 -0.4995  1.5263  0.7837
30506SOL    HW293836  10.667   7.612   6.442 -0.4421 -0.2398  0.2499
30507SOL     OW93837   5.858   0.464   3.059 -0.4787 -0.0838 -0.3421
30507SOL    HW193838   5.952   0.461   3.041 -0.1898 -2.6460  0.9991
30507SOL    HW293839   5.846   0.403   3.132 -3.2083  0.0739 -0.5477
30508SOL     OW93840   6.205   6.798   9.039 -0.1217 -0.1157  0.6437
30508SOL    HW193841   6.166   6.855   9.106  1.2491 -0.3321  1.6936
30508SOL    HW293842   6.251   6.730   9.090  0.2670 -0.7735 -0.5468
30509SOL     OW93843   5.780   2.461   3.338  0.1993  0.2475  0.1104
30509SOL    HW193844   5.818   2.542   3.372  1.2740 -0.1452 -0.0856
30509SOL    HW293845   5.736   2.487   3.258  1.6230  0.4733 -0.6407
30510SOL     OW93846   2.259   3.139   7.488 -0.1424  0.7913  0.0005
30510SOL    HW193847   2.274   3.177   7.575 -3.0096  0.9373  0.5307
30510SOL    HW293848   2.249   3.215   7.431  1.4611  0.6947 -0.4600
30511SOL     OW93849   8.923   6.983   8.615 -0.2185  0.3913  0.3105
30511SOL    HW193850   8.905   7.024   8.530  0.4548  1.0505  0.4787
30511SOL    HW293851   8.973   7.049   8.663  0.1743 -0.3250  0.8934
30512SOL     OW93852   0.487   0.868   8.021  0.4510 -0.5470 -0.2305
30512SOL    HW193853   0.424   0.939   8.006  1.2376  0.4425  0.9000
30512SOL    HW293854   0.480   0.813   7.944 -0.4865  0.5465 -0.9670
30513SOL     OW93855   0.016   0.758  10.292  0.0866  0.4210 -0.6355
30513SOL    HW193856  -0.056   0.820  10.294  0.5878  1.0913 -2.1733
30513SOL    HW293857   0.095   0.812  10.295  0.5301 -0.2075 -0.6670
30514SOL     OW93858   5.918   4.526   6.323 -0.6402  0.2044 -0.3692
30514SOL    HW193859   5.875   4.608   6.350 -0.6414 -0.2162  0.9814
30514SOL    HW293860   5.952   4.545   6.236 -1.8200  1.2032 -0.6457
30515SOL     OW93861   3.578   3.774   0.456 -0.1649  0.0163 -0.3299
30515SOL    HW193862   3.495   3.727   0.452 -0.9184  1.3285 -1.0583
30515SOL    HW293863   3.560   3.857   0.411  1.4010  0.5409 -0.0442
30516SOL     OW93864   2.753   4.319   6.320  0.0383  0.2112 -0.4463
30516SOL    HW193865   2.677   4.312   6.378  1.0604  0.4486  0.9506
30516SOL    HW293866   2.787   4.229   6.315  0.9170  0.4747  0.6631
30517SOL     OW93867   4.225   5.501   2.881  0.2675 -0.5666  0.3926
30517SOL    HW193868   4.274   5.430   2.922  0.3264 -1.2143 -0.7463
30517SOL    HW293869   4.136   5.466   2.872  0.1170 -0.2124  0.5189
30518SOL     OW93870   6.484   1.570   5.934  0.8667  0.3473 -0.2731
30518SOL    HW193871   6.454   1.482   5.957  0.9148  0.3201 -0.3141
30518SOL    HW293872   6.577   1.559   5.911  1.2811  0.6412  1.1565
30519SOL     OW93873   0.742   1.929   2.626  0.0233  0.6429 -0.3662
30519SOL    HW193874   0.836   1.947   2.619  0.1259  0.7239  1.0511
30519SOL    HW293875   0.714   1.916   2.535  1.7523 -1.1319 -0.7298
30520SOL     OW93876   3.417   1.561   5.855 -0.3191 -0.0209  0.3758
30520SOL    HW193877   3.459   1.522   5.932 -0.2581 -2.0740 -0.6169
30520SOL    HW293878   3.326   1.530   5.860 -0.5875  0.7211  0.1701
30521SOL     OW93879   4.355   6.420   3.370  0.8543 -0.1817 -0.3338
30521SOL    HW193880   4.311   6.502   3.348  1.5937  0.6173  1.0756
30521SOL    HW293881   4.286   6.365   3.409  0.5861  0.1622 -0.3250
30522SOL     OW93882   0.324   0.873   3.908 -0.2063  0.8156  0.0098
30522SOL    HW193883   0.411   0.912   3.917 -0.1222  0.5212  0.4996
30522SOL    HW293884   0.326   0.831   3.822  0.7391 -0.6553  0.7156
30523SOL     OW93885   7.379   5.450   6.027  0.4769  0.0518 -0.1942
30523SOL    HW193886   7.353   5.395   5.953 -0.5801  0.5160 -0.1928
30523SOL    HW293887   7.297   5.467   6.074  1.1695 -0.5127  1.2900
30524SOL     OW93888   6.528   7.957   8.336  0.0506 -0.0508 -0.4451
30524SOL    HW193889   6.442   7.999   8.345 -0.5001 -1.2850  0.3525
30524SOL    HW293890   6.511   7.878   8.285  0.6672 -0.4010 -0.1300
30525SOL     OW93891   5.550   6.651   5.226  0.1855  0.1017  0.3019
30525SOL    HW193892   5.535   6.645   5.132  1.3234 -1.2257  0.1758
30525SOL    HW293893   5.530   6.563   5.259  3.7512 -0.6980  0.6450
30526SOL     OW93894   2.072   8.900   3.674 -0.5763 -0.2353 -0.2192
30526SOL    HW193895   2.036   8.871   3.590  0.8095 -1.4158 -0.4486
30526SOL    HW293896   2.161   8.928   3.653 -0.2575 -0.4133  0.8296
30527SOL     OW93897   5.059   7.834   8.387  0.4676  0.1685 -0.2523
30527SOL    HW193898   5.071   7.798   8.299 -1.6187 -0.7427 -0.2258
30527SOL    HW293899   4.974   7.878   8.384 -0.0298 -0.5811  1.5033
30528SOL     OW93900   2.629   7.954   3.914  0.0587 -0.5411  0.3152
30528SOL    HW193901   2.599   7.897   3.985  3.2307  1.6662  3.8224
30528SOL    HW293902   2.572   8.031   3.920 -0.7879 -1.0375 -0.8461
30529SOL     OW93903   9.728   0.164   7.624 -0.4969  0.4517 -0.6764
30529SOL    HW193904   9.716   0.213   7.705 -1.4556 -0.1205 -0.4662
30529SOL    HW293905   9.807   0.112   7.640  0.7166  2.1088 -1.0152
30530SOL     OW93906   1.349   4.479   0.453 -0.1867  0.3897  0.4216
30530SOL    HW193907   1.406   4.416   0.497 -0.0585  1.2361  1.5195
30530SOL    HW293908   1.407   4.524   0.392 -0.8651 -2.4770 -2.5962
30531SOL     OW93909   2.732   3.394   0.496 -0.0738 -0.4687  0.6908
30531SOL    HW193910   2.806   3.451   0.476  0.0146 -1.2111 -1.3722
30531SOL    HW293911   2.766   3.330   0.558  0.9047 -0.5185  0.1232
30532SOL     OW93912   9.680   3.929  10.418  0.1386  0.3720 -0.1301
30532SOL    HW193913   9.593   3.966  10.404 -1.0184 -1.8455  0.7022
30532SOL    HW293914   9.715   3.977  10.492 -1.8832 -0.9958  1.8337
30533SOL     OW93915   9.729   7.790   4.564  0.2819 -0.0939 -0.5586
30533SOL    HW193916   9.764   7.852   4.629  0.8248  0.6204 -1.5067
30533SOL    HW293917   9.757   7.704   4.596 -1.0062  0.0456  1.1150
30534SOL     OW93918   8.462   0.179   9.025  0.2701 -0.0574  0.1575
30534SOL    HW193919   8.379   0.215   8.994  1.0041  2.1330  0.5412
30534SOL    HW293920   8.445   0.154   9.116 -0.1917 -0.4144 -0.0272
30535SOL     OW93921   1.703   5.170   9.314 -0.1113  0.0488  0.6805
30535SOL    HW193922   1.676   5.123   9.393 -1.4148 -1.5690 -0.6431
30535SOL    HW293923   1.718   5.260   9.344  0.5909 -0.7428  2.9606
30536SOL     OW93924   6.169   4.500  10.490  0.2715 -0.2006  0.6626
30536SOL    HW193925   6.230   4.551  10.436 -0.5283  0.9019  0.7713
30536SOL    HW293926   6.159   4.551  10.570 -1.1739 -0.0858  0.4435
30537SOL     OW93927   0.858   4.788   1.444  0.0106 -0.4474  0.2795
30537SOL    HW193928   0.873   4.837   1.524  0.9513 -2.0315  1.1247
30537SOL    HW293929   0.923   4.822   1.382  0.5165 -0.4674  0.7899
30538SOL     OW93930   4.215   6.639   3.281  0.4271 -0.2525 -0.1665
30538SOL    HW193931   4.175   6.674   3.361  0.0096 -1.2426  0.0706
30538SOL    HW293932   4.156   6.665   3.211  0.8393  0.6950 -0.1845
30539SOL     OW93933   0.028   3.715   1.413 -0.6337 -0.4131 -0.6750
30539SOL    HW193934   0.063   3.781   1.473 -1.7573 -0.2057 -0.2254
30539SOL    HW293935   0.078   3.729   1.332 -1.6544  1.8422 -0.9997
30540SOL     OW93936   1.631   9.318   3.505 -0.5105  0.7523  0.4755
30540SOL    HW193937   1.638   9.385   3.437 -1.0517  0.4589  0.1164
30540SOL    HW293938   1.537   9.311   3.522 -0.5514 -0.4992 -0.0980
30541SOL     OW93939   3.031   4.611   4.086  0.0830 -0.6825  0.1110
30541SOL    HW193940   2.945   4.606   4.044 -0.7922 -0.8764  1.8528
30541SOL    HW293941   3.092   4.584   4.018 -1.1797 -0.1498 -1.2958
30542SOL     OW93942   3.939   8.406   2.873  0.6746 -0.1645  0.2287
30542SOL    HW193943   3.933   8.371   2.961 -0.0213  0.7374  0.5612
30542SOL    HW293944   3.873   8.358   2.823  0.1131  0.2627  0.5470
30543SOL     OW93945   5.182   0.370  10.521 -0.2388 -0.2669 -0.3821
30543SOL    HW193946   5.207   0.461  10.502 -0.3783 -0.6310 -2.5532
30543SOL    HW293947   5.094   0.377  10.557 -0.1404  0.4842 -0.2739
30544SOL     OW93948   6.503   6.483   7.121  0.3928 -0.0272  0.6473
30544SOL    HW193949   6.565   6.541   7.167 -1.2032  2.3163  0.0599
30544SOL    HW293950   6.424   6.536   7.112 -0.2600 -1.3274 -2.4505
30545SOL     OW93951   7.765   7.999   8.821 -0.8139 -0.0323  0.0713
30545SOL    HW193952   7.818   7.955   8.755 -0.5727 -0.2592  0.4143
30545SOL    HW293953   7.789   8.092   8.813 -0.9882 -0.0249 -0.3441
30546SOL     OW93954   7.335  10.555   5.272 -0.3661  0.2899 -0.2047
30546SOL    HW193955   7.301  10.466   5.258 -1.4782  0.9330 -1.9992
30546SOL    HW293956   7.299  10.581   5.357 -0.1416 -0.9101  0.2767
30547SOL     OW93957   4.858   9.239   9.613  0.0596  0.3463 -0.4261
30547SOL    HW193958   4.927   9.274   9.670  0.1861 -1.1755  0.4217
30547SOL    HW293959   4.777   9.258   9.660  0.0089  0.8661 -0.7223
30548SOL     OW93960   7.630   7.072   1.570  0.2627  0.0061  0.2470
30548SOL    HW193961   7.539   7.099   1.578  0.1892 -0.3907  0.7991
30548SOL    HW293962   7.645   7.069   1.476 -0.1277  0.6140  0.1581
30549SOL     OW93963   6.890   2.663   0.041  0.5402  0.1855 -0.6024
30549SOL    HW193964   6.841   2.723  -0.016  0.5993  0.6800 -0.1432
30549SOL    HW293965   6.851   2.577   0.026 -1.0307  0.6889  0.3461
30550SOL     OW93966   3.100   2.740   3.581  0.4175  0.4846 -0.6887
30550SOL    HW193967   3.131   2.675   3.644 -0.7866  0.0951 -0.4715
30550SOL    HW293968   3.009   2.716   3.564  1.1295 -0.4153 -3.8413
30551SOL     OW93969   0.648   2.516   9.229  0.2202 -0.8034  0.3205
30551SOL    HW193970   0.617   2.590   9.177  0.4121  0.3582  1.7892
30551SOL    HW293971   0.629   2.439   9.175 -2.2198  0.0954 -0.2242
30552SOL     OW93972   1.392   8.490   6.941 -0.6273  0.1552  0.1340
30552SOL    HW193973   1.361   8.402   6.921 -0.9096  0.6785 -1.8849
30552SOL    HW293974   1.321   8.530   6.991 -1.2260 -0.2029 -0.4264
30553SOL     OW93975   0.160   0.706   3.185  0.1273  0.0173 -0.2117
30553SOL    HW193976   0.102   0.647   3.232  0.9948 -0.8215 -0.1597
30553SOL    HW293977   0.234   0.651   3.159  0.9315  1.0673 -0.2142
30554SOL     OW93978   4.568   7.416   6.065  0.0142 -0.0510  0.1719
30554SOL    HW193979   4.578   7.467   6.145  1.2692  2.1404 -1.2699
30554SOL    HW293980   4.475   7.424   6.043  0.1171  1.4245  0.1594
30555SOL     OW93981   0.880   0.239   8.300 -0.2199 -0.2369 -0.3488
30555SOL    HW193982   0.936   0.308   8.337  0.5381 -1.3155  0.5638
30555SOL    HW293983   0.797   0.283   8.283  0.0552  0.7726  0.7580
30556SOL     OW93984   9.511   6.535   1.978 -0.5878 -0.1734 -0.3022
30556SOL    HW193985   9.559   6.602   2.025 -0.7625 -0.1615 -0.1382
30556SOL    HW293986   9.421   6.544   2.009 -0.7134 -0.1396 -0.6667
30557SOL     OW93987   7.351   6.782   4.833 -0.4269 -0.2117 -0.3330
30557SOL    HW193988   7.353   6.841   4.907  0.9496 -0.8539  0.1933
30557SOL    HW293989   7.317   6.700   4.868  0.8334 -0.7142 -0.2081
30558SOL     OW93990   1.062   0.584   5.765 -0.3436 -0.0737  0.2761
30558SOL    HW193991   1.125   0.532   5.715 -1.6718 -0.5345 -0.9746
30558SOL    HW293992   1.053   0.665   5.716 -0.4124  0.1677  0.6828
30559SOL     OW93993   5.150   7.808   3.672 -0.1832 -0.1092  0.0785
30559SOL    HW193994   5.167   7.863   3.749 -2.3534  0.6939  0.0453
30559SOL    HW293995   5.205   7.846   3.603  3.0699 -1.8203  1.4890
30560SOL     OW93996   4.351   8.371   2.432  0.3016  0.8211  0.1793
30560SOL    HW193997   4.300   8.328   2.500  0.6457 -0.2883 -0.2507
30560SOL    HW293998   4.370   8.458   2.468 -2.4716  1.5644  0.0514
30561SOL     OW93999   7.563   1.934   6.303 -0.1636  0.1877 -0.4664
30561SOL    HW194000   7.629   2.003   6.315 -1.0785  0.8639  0.8568
30561SOL    HW294001   7.516   1.959   6.223 -0.0803  0.7578 -0.3401
30562SOL     OW94002   7.466   6.889   8.498 -0.1195 -0.0261  0.0970
30562SOL    HW194003   7.520   6.944   8.442  0.3177  0.5732  1.0778
30562SOL    HW294004   7.376   6.918   8.482 -0.0005  0.1414 -0.2784
30563SOL     OW94005   6.790   6.634   6.863  0.6335  0.4678 -0.7011
30563SOL    HW194006   6.726   6.566   6.883 -0.6550  1.4941 -1.2099
30563SOL    HW294007   6.741   6.700   6.814  1.0968  3.1491  2.1436
30564SOL     OW94008   1.232   6.409   1.630  0.1986 -0.1876 -0.4198
30564SOL    HW194009   1.310   6.359   1.654  0.9812  1.3855  0.5340
30564SOL    HW294010   1.266   6.495   1.605 -1.2418  0.7664  0.6971
30565SOL     OW94011   5.606  10.180   0.494  0.7546 -0.0102  0.5542
30565SOL    HW194012   5.622  10.101   0.546 -0.2123 -1.2289 -0.9061
30565SOL    HW294013   5.514  10.201   0.511  0.8794  0.5358  0.5647
30566SOL     OW94014   2.623   5.578   9.690 -0.0547  0.0614  0.1360
30566SOL    HW194015   2.545   5.633   9.675  0.3805  0.6747  0.0662
30566SOL    HW294016   2.613   5.505   9.629 -0.9169 -0.2329  0.6062
30567SOL     OW94017   9.927   1.211   1.423  0.0893  0.7617 -0.1349
30567SOL    HW194018   9.988   1.261   1.476  0.0784 -0.1649  0.7750
30567SOL    HW294019   9.890   1.146   1.482 -1.4058  0.9651 -0.7836
30568SOL     OW94020   8.202   5.468   8.165  0.0647  0.6898  0.2233
30568SOL    HW194021   8.241   5.525   8.098 -2.2304  1.2809 -0.6860
30568SOL    HW294022   8.174   5.527   8.234  0.2910  0.3202  0.6415
30569SOL     OW94023   4.515   5.929   1.695  0.1616  0.1833  0.1072
30569SOL    HW194024   4.456   5.950   1.623  1.6696 -0.1145 -1.2780
30569SOL    HW294025   4.530   5.835   1.688  1.2214  0.3392  0.0781
30570SOL     OW94026   7.774   3.253   4.815  0.2380  0.3111  0.6976
30570SOL    HW194027   7.750   3.335   4.772 -1.1329 -1.4787 -2.2872
30570SOL    HW294028   7.869   3.249   4.808  0.5610  2.3868  2.5858
30571SOL     OW94029   8.663   3.190   0.887  0.0858 -0.3348  0.0689
30571SOL    HW194030   8.742   3.212   0.837 -0.0552  0.2892  0.1020
30571SOL    HW294031   8.684   3.109   0.932  0.6743 -0.2277 -0.0087
30572SOL     OW94032   0.589   8.951   8.887  0.4494  0.2596 -0.1941
30572SOL    HW194033   0.501   8.913   8.881  0.3470  0.6327 -1.5999
30572SOL    HW294034   0.601   8.996   8.803  2.0149  0.1443 -0.0685
30573SOL     OW94035   7.619   3.510   4.710  0.5313 -0.2742  0.5553
30573SOL    HW194036   7.533   3.553   4.702 -0.2037 -1.8526 -0.6191
30573SOL    HW294037   7.657   3.547   4.790 -1.7713 -0.4508  1.8161
30574SOL     OW94038   8.572   4.516   5.214 -0.3214 -0.0810 -0.0337
30574SOL    HW194039   8.503   4.463   5.254 -0.1362 -0.4858 -0.2415
30574SOL    HW294040   8.653   4.483   5.253  0.0221 -1.5514 -1.8312
30575SOL     OW94041  10.209   3.771   6.679 -0.0475 -0.5387 -0.7228
30575SOL    HW194042  10.140   3.732   6.733  0.7119 -1.6038 -0.4998
30575SOL    HW294043  10.182   3.862   6.668 -0.1744 -0.2383  1.5796
30576SOL     OW94044  10.266   3.898   7.772 -0.2828 -0.1092 -0.4400
30576SOL    HW194045  10.273   3.913   7.867 -2.5870 -0.7413 -0.1101
30576SOL    HW294046  10.273   3.985   7.733 -0.8090  0.3410  0.4427
30577SOL     OW94047   2.087   9.170   9.912 -0.4737  0.0008  0.6917
30577SOL    HW194048   2.024   9.160   9.984 -1.2318 -1.7176 -0.1469
30577SOL    HW294049   2.168   9.132   9.946 -0.9916 -1.3459  0.4787
30578SOL     OW94050   2.285   6.234   0.264  0.4119  0.2860 -0.2298
30578SOL    HW194051   2.237   6.275   0.192 -1.5851  2.4469  2.1491
30578SOL    HW294052   2.367   6.283   0.268  0.5764  0.0931 -1.0615
30579SOL     OW94053   7.307   0.833  10.415  0.0979 -0.2900  0.2756
30579SOL    HW194054   7.218   0.837  10.450 -0.2867 -1.7063 -0.4627
30579SOL    HW294055   7.299   0.866  10.326 -0.1672 -2.4533 -0.5637
30580SOL     OW94056   3.503   0.238   4.772 -0.3847 -0.4136 -0.3725
30580SOL    HW194057   3.498   0.327   4.738 -1.4563  0.0837  0.9717
30580SOL    HW294058   3.589   0.233   4.814 -1.2075  0.8570  1.6467
30581SOL     OW94059   2.934   5.825   7.757  0.4150  0.5561  0.3134
30581SOL    HW194060   2.999   5.799   7.691 -1.6379 -1.0871 -1.2027
30581SOL    HW294061   2.887   5.743   7.777  0.9294  0.9707  3.8865
30582SOL     OW94062   6.896   2.630   8.168  0.0427 -0.0564  0.0002
30582SOL    HW194063   6.957   2.567   8.128  0.1310  0.2836 -0.4112
30582SOL    HW294064   6.945   2.666   8.242  0.9653  1.3431 -1.2236
30583SOL     OW94065   7.011   2.590   4.448  0.0001  0.4861  0.1625
30583SOL    HW194066   6.918   2.582   4.427 -0.3413  1.2022  1.3206
30583SOL    HW294067   7.038   2.501   4.470  0.1812 -0.1545 -2.3100
30584SOL     OW94068  10.045   4.881   3.886  0.4746 -0.3176 -0.1624
30584SOL    HW194069  10.105   4.882   3.812  0.4266  0.8719 -0.2069
30584SOL    HW294070  10.096   4.846   3.958  1.3552  1.0038 -0.1137
30585SOL     OW94071   0.865   1.815   0.597 -0.0808 -0.1663 -0.5444
30585SOL    HW194072   0.944   1.777   0.559  0.2720 -0.5735  0.5752
30585SOL    HW294073   0.875   1.909   0.582  1.2964 -0.0634  0.7797
30586SOL     OW94074   7.202   4.592   7.737  0.1201  0.2004  0.6110
30586SOL    HW194075   7.169   4.589   7.648  1.7772 -0.0680 -0.0350
30586SOL    HW294076   7.131   4.555   7.791  0.0584 -2.1057 -0.9067
30587SOL     OW94077   0.765   3.223   8.307  0.2653  0.2473  0.1268
30587SOL    HW194078   0.815   3.289   8.356 -0.0268 -0.6127  1.6303
30587SOL    HW294079   0.801   3.139   8.335 -0.8689 -0.3263 -0.0610
30588SOL     OW94080   8.590   6.228   1.544 -0.2569 -0.3610  1.0558
30588SOL    HW194081   8.558   6.139   1.562 -1.0469  0.2733  2.9959
30588SOL    HW294082   8.526   6.285   1.586 -1.1250  1.2932 -2.1358
30589SOL     OW94083   7.453  10.594   7.288  0.6821  0.1623 -0.3640
30589SOL    HW194084   7.450  10.635   7.202  1.1884 -0.0895 -0.5043
30589SOL    HW294085   7.364  10.562   7.303  0.9695 -1.2402 -1.5010
30590SOL     OW94086   9.644   5.584   6.072 -0.1198  0.1029  0.4586
30590SOL    HW194087   9.712   5.638   6.031 -0.0855 -0.0053  0.3725
30590SOL    HW294088   9.666   5.585   6.165 -0.1445  0.2735  0.4632
30591SOL     OW94089   5.180   6.359   2.755  0.9745  0.0353  0.1052
30591SOL    HW194090   5.108   6.413   2.786 -1.1626 -2.6578  0.2120
30591SOL    HW294091   5.170   6.276   2.802  1.3690 -2.0084 -3.1089
30592SOL     OW94092   1.306   0.854   5.952 -0.0532 -0.4133 -0.2075
30592SOL    HW194093   1.215   0.860   5.982  0.6593  2.8683  1.7391
30592SOL    HW294094   1.313   0.923   5.886  1.2953  0.1116  0.4714
30593SOL     OW94095   6.790   2.658   4.091 -0.1689 -0.8554 -0.4841
30593SOL    HW194096   6.732   2.624   4.023  0.1308  0.5695 -1.5002
30593SOL    HW294097   6.878   2.632   4.062 -0.2297 -3.2701  1.2039
30594SOL     OW94098   1.864   5.707   8.577 -0.3085  0.0731  0.3824
30594SOL    HW194099   1.844   5.798   8.599 -2.4262 -0.1961 -0.2488
30594SOL    HW294100   1.891   5.668   8.661 -3.0098  0.3907  1.4847
30595SOL     OW94101   1.055   9.516   0.482 -0.3406 -0.2674 -0.3572
30595SOL    HW194102   1.099   9.540   0.563 -2.2274 -0.7911  0.9013
30595SOL    HW294103   1.106   9.559   0.413  0.9671  0.6983  1.1432
30596SOL     OW94104  10.096   8.355   9.373  0.6782  0.4101  0.1210
30596SOL    HW194105  10.096   8.290   9.443 -2.2683  0.2085  0.0876
30596SOL    HW294106  10.122   8.436   9.415  0.3427  0.0003  1.1518
30597SOL     OW94107   2.967   7.720   2.513 -0.0625 -0.0868 -0.0607
30597SOL    HW194108   2.895   7.705   2.574 -0.8970 -0.4435 -1.0953
30597SOL    HW294109   2.925   7.750   2.433  0.7827 -1.6684 -1.1661
30598SOL     OW94110   4.542   7.286   9.961  0.3520 -0.6118 -0.2610
30598SOL    HW194111   4.543   7.335   9.879  1.8410 -2.3091 -1.3406
30598SOL    HW294112   4.450   7.264   9.974  0.0539 -0.0969 -1.3487
30599SOL     OW94113   3.722   2.065   0.027 -0.2142 -0.2145  0.6579
30599SOL    HW194114   3.771   2.118  -0.037 -0.6323  0.3217  0.7732
30599SOL    HW294115   3.676   2.129   0.081 -0.4705 -0.6918  1.0132
30600SOL     OW94116   2.875   7.387   0.661 -0.1002  0.4156  0.7363
30600SOL    HW194117   2.908   7.453   0.599  1.4745 -0.2099  0.8609
30600SOL    HW294118   2.887   7.427   0.747  1.2274 -0.1611  0.8359
30601SOL     OW94119   2.547   7.396   3.925  0.3623 -0.0940 -0.4640
30601SOL    HW194120   2.580   7.316   3.967 -0.5858  0.0443  0.5854
30601SOL    HW294121   2.526   7.369   3.835 -1.1384 -1.3734  0.2243
30602SOL     OW94122   8.071   6.040   2.534 -0.3230  0.0441 -0.0407
30602SOL    HW194123   8.031   6.008   2.453  0.1038  1.1239 -0.7001
30602SOL    HW294124   8.101   5.960   2.578 -2.9022 -0.7992  0.3774
30603SOL     OW94125   9.455   2.465   9.990 -0.2283  0.2164  0.3540
30603SOL    HW194126   9.474   2.554   9.959  0.1095  0.0928  0.2032
30603SOL    HW294127   9.536   2.437  10.033  0.8052 -1.2297 -2.3473
30604SOL     OW94128   0.071   8.040   6.064 -0.0598  0.0189 -0.3621
30604SOL    HW194129   0.113   8.066   6.146  1.1770 -2.9511  0.0671
30604SOL    HW294130  -0.009   8.091   6.061  1.0947  2.1022  1.3861
30605SOL     OW94131   0.265   4.934   7.550  0.4464  0.1901 -0.7491
30605SOL    HW194132   0.208   5.007   7.527 -1.3000 -0.7343  0.3417
30605SOL    HW294133   0.351   4.958   7.515 -0.4900  1.8635 -2.0725
30606SOL     OW94134   2.566   5.938   3.973  0.7125  0.0551 -0.5230
30606SOL    HW194135   2.496   5.960   4.035  0.4083 -0.8316 -0.5318
30606SOL    HW294136   2.604   6.022   3.948 -0.8403  0.6244 -1.0916
30607SOL     OW94137   0.147   5.781   1.771 -0.2820  0.2855 -0.2572
30607SOL    HW194138   0.059   5.806   1.801 -0.7638 -1.1847 -0.3585
30607SOL    HW294139   0.139   5.688   1.748  1.2699  0.1598 -0.4016
30608SOL     OW94140   9.049   3.580   6.315  0.4744 -0.1825  0.0126
30608SOL    HW194141   9.142   3.579   6.337  0.4764  0.5180  0.0481
30608SOL    HW294142   9.012   3.508   6.365  1.2202 -1.3140 -1.0122
30609SOL     OW94143   1.254   2.299   7.849 -0.2489 -0.8226 -0.2812
30609SOL    HW194144   1.219   2.377   7.893  1.0881 -0.5954  0.4295
30609SOL    HW294145   1.186   2.232   7.861 -0.3841 -0.4520  1.1927
30610SOL     OW94146   1.356   3.521   3.412 -0.6465  0.2731  0.1153
30610SOL    HW194147   1.430   3.578   3.390  0.0228 -0.5884  0.0903
30610SOL    HW294148   1.279   3.573   3.388 -0.0242  0.6315 -1.2540
30611SOL     OW94149   5.321   2.047   4.830  0.2998  0.3881 -0.5335
30611SOL    HW194150   5.323   1.954   4.853 -0.9265  0.5397  0.2305
30611SOL    HW294151   5.229   2.066   4.813  0.5652  1.4214 -0.8847
30612SOL     OW94152   3.453   1.557   8.448 -0.2760  0.0413 -0.0524
30612SOL    HW194153   3.484   1.490   8.387 -0.7924  0.3104 -0.6253
30612SOL    HW294154   3.429   1.631   8.392  0.7560  0.9143  0.5992
30613SOL     OW94155   7.979   8.448   9.001 -0.2219  0.7988  0.6034
30613SOL    HW194156   7.970   8.530   8.953 -2.3539  0.4502  0.2832
30613SOL    HW294157   8.038   8.395   8.948 -1.6593  0.8269 -1.1362
30614SOL     OW94158   6.103   1.089   2.303  0.3047  0.3583 -0.4258
30614SOL    HW194159   6.045   1.128   2.237  0.4095  0.8931 -0.2104
30614SOL    HW294160   6.184   1.071   2.255  0.5550  1.2066 -0.3448
30615SOL     OW94161   8.697   6.489  10.307 -0.0411 -0.0120 -0.0469
30615SOL    HW194162   8.656   6.449  10.231 -0.0765  0.4985 -0.2985
30615SOL    HW294163   8.625   6.509  10.366 -0.0799  0.1492 -0.1462
30616SOL     OW94164   8.093   4.752   2.084 -0.7245  0.0643 -0.6510
30616SOL    HW194165   8.081   4.771   1.991 -1.9308 -0.3642 -0.5938
30616SOL    HW294166   8.005   4.734   2.117 -0.2488 -0.3174  0.4604
30617SOL     OW94167   2.965   5.672   6.037 -0.3409  0.0612  0.8188
30617SOL    HW194168   3.045   5.682   6.089  0.6314  0.5391 -0.6644
30617SOL    HW294169   2.995   5.685   5.946 -2.2643  1.0870  0.2884
30618SOL     OW94170   8.443   9.395   8.083 -0.0255  1.0856 -0.4178
30618SOL    HW194171   8.368   9.401   8.023 -0.8441  2.1010  0.6484
30618SOL    HW294172   8.480   9.308   8.068 -2.3820 -0.0814  0.1053
30619SOL     OW94173   5.186  10.387   2.102 -0.0886 -0.3298  0.0755
30619SOL    HW194174   5.233  10.458   2.147  0.0486  0.1333 -0.7599
30619SOL    HW294175   5.220  10.390   2.012 -2.1576  0.4378 -0.7376
30620SOL     OW94176   7.390   1.468   0.889  0.9945 -0.1580  0.0190
30620SOL    HW194177   7.361   1.383   0.858  1.1985 -0.6807  1.2262
30620SOL    HW294178   7.432   1.508   0.812 -1.9393  0.2370 -1.5308
30621SOL     OW94179   6.860   1.801   4.269 -0.4553 -0.3474  0.0303
30621SOL    HW194180   6.828   1.852   4.195  0.7113 -1.7391 -1.5017
30621SOL    HW294181   6.954   1.819   4.272 -0.3853 -0.7829  0.8106
30622SOL     OW94182   4.071   3.758   2.770 -0.0709 -0.2257 -0.8894
30622SOL    HW194183   4.100   3.667   2.768  0.7058  0.0250 -2.0068
30622SOL    HW294184   4.149   3.809   2.749 -0.6511  0.6530 -0.9704
30623SOL     OW94185   7.742   6.689   3.752  0.2224 -0.3258  0.8281
30623SOL    HW194186   7.792   6.680   3.671 -0.1427  0.3564  0.5171
30623SOL    HW294187   7.660   6.732   3.725  1.0339  2.0640  1.8706
30624SOL     OW94188   1.142   7.922   5.504 -0.3402  0.2639  0.4549
30624SOL    HW194189   1.069   7.966   5.461 -0.1118 -0.7148 -1.0008
30624SOL    HW294190   1.219   7.953   5.457 -0.0993 -0.9714  0.0177
30625SOL     OW94191   1.011   3.056   1.796 -0.1214  0.0880 -0.2841
30625SOL    HW194192   0.947   3.079   1.864 -1.3144  3.3002 -2.2624
30625SOL    HW294193   0.993   3.117   1.724  2.0249 -2.1396 -2.9484
30626SOL     OW94194   0.644   9.356   1.731  0.4073  0.0021  0.6994
30626SOL    HW194195   0.568   9.298   1.737  0.7183 -0.5273 -0.4099
30626SOL    HW294196   0.606   9.442   1.710  0.0791 -0.1427  0.6952
30627SOL     OW94197  10.456   4.161   0.764  0.1463 -1.0646  0.1859
30627SOL    HW194198  10.521   4.135   0.828  1.9474 -0.0634 -1.1475
30627SOL    HW294199  10.445   4.255   0.778 -0.3552 -1.0630 -0.1852
30628SOL     OW94200   5.671   9.803   0.363 -0.3592  0.2271 -0.4207
30628SOL    HW194201   5.590   9.759   0.386 -0.8543  0.4793 -1.6481
30628SOL    HW294202   5.691   9.857   0.439 -1.3054  0.1242 -0.0917
30629SOL     OW94203   8.836   7.923   1.761 -0.4153  0.2036  0.1032
30629SOL    HW194204   8.774   7.852   1.774  0.6303 -0.5245  1.3782
30629SOL    HW294205   8.914   7.881   1.724  0.5914  0.4654  1.8279
30630SOL     OW94206   1.735   2.591   4.298 -0.3674  0.1792 -0.1857
30630SOL    HW194207   1.828   2.572   4.299 -0.7911 -2.3606 -1.5135
30630SOL    HW294208   1.725   2.663   4.360  2.8422  2.7067 -2.2460
30631SOL     OW94209   2.062   7.354   8.094 -0.4142  0.2856  0.2084
30631SOL    HW194210   1.970   7.332   8.083 -0.2955 -0.1745  0.1022
30631SOL    HW294211   2.065   7.449   8.089 -0.7132  0.2505 -1.1439
30632SOL     OW94212   5.916   9.331   2.287 -0.4529 -0.9189  0.5569
30632SOL    HW194213   5.830   9.289   2.294 -0.7986 -0.2762  0.2391
30632SOL    HW294214   5.908   9.390   2.212  0.3472 -1.0359  0.3695
30633SOL     OW94215   2.161   4.055  10.579 -0.0075 -0.0911  0.5602
30633SOL    HW194216   2.075   4.097  10.570  0.8994  1.7110 -0.1007
30633SOL    HW294217   2.205   4.071  10.496  0.8438 -1.3712  0.7328
30634SOL     OW94218   2.449   9.874   0.580  0.1537  0.3082 -0.1953
30634SOL    HW194219   2.376   9.930   0.554 -0.9291 -0.7616  0.4513
30634SOL    HW294220   2.445   9.800   0.520  0.5856  0.1459 -0.0303
30635SOL     OW94221   3.721   6.298   5.524 -0.6342 -0.1372 -0.3367
30635SOL    HW194222   3.681   6.271   5.607 -1.5140 -3.1666 -1.6080
30635SOL    HW294223   3.800   6.243   5.517 -0.1984  0.5815 -1.2248
30636SOL     OW94224   7.665   1.677   6.570  0.8818  0.1593  0.4005
30636SOL    HW194225   7.760   1.667   6.584  0.7980 -0.2862  0.6730
30636SOL    HW294226   7.651   1.772   6.572  1.3705  0.2472  0.0302
30637SOL     OW94227   3.925   8.964   0.184  0.1722  0.4300  0.3376
30637SOL    HW194228   3.979   8.895   0.222  0.7109  0.2221 -0.7439
30637SOL    HW294229   3.965   8.980   0.098 -2.2402 -0.6607 -1.1010
30638SOL     OW94230   6.492   0.313   8.260 -0.5565 -0.2467  0.2713
30638SOL    HW194231   6.431   0.380   8.291  0.0975  0.4661  0.0501
30638SOL    HW294232   6.575   0.337   8.302 -0.4907 -1.3727  0.8030
30639SOL     OW94233   4.440   4.203   0.938  1.0786  0.0581  1.2411
30639SOL    HW194234   4.477   4.186   1.025  1.3368  0.1721  1.1545
30639SOL    HW294235   4.463   4.126   0.887 -0.4802 -0.7518  1.7176
30640SOL     OW94236   3.595   0.125   0.121 -0.3425  0.1010  0.0396
30640SOL    HW194237   3.617   0.131   0.028  3.6432  1.5343  0.8405
30640SOL    HW294238   3.610   0.033   0.144  1.0703  0.2096 -0.3476
30641SOL     OW94239   1.164   9.159   7.861  0.6487  0.0829  0.2045
30641SOL    HW194240   1.148   9.212   7.782 -0.2684  0.1770  0.4381
30641SOL    HW294241   1.171   9.223   7.932 -1.3129 -0.1067  0.6250
30642SOL     OW94242   2.101   7.812   4.303 -0.1150  0.5056  0.0038
30642SOL    HW194243   2.078   7.884   4.245 -1.5940  0.2040  0.1962
30642SOL    HW294244   2.043   7.822   4.379 -0.0403 -0.6267  0.2296
30643SOL     OW94245   6.529   7.557   1.283  0.1133 -0.0202  0.3458
30643SOL    HW194246   6.436   7.575   1.292 -0.0077  1.0363 -2.2408
30643SOL    HW294247   6.569   7.601   1.359 -1.2379  2.0065 -0.0385
30644SOL     OW94248   8.339   6.642   8.740 -0.1424 -0.0003 -0.3453
30644SOL    HW194249   8.386   6.574   8.787  0.7717  0.8768  0.0414
30644SOL    HW294250   8.329   6.713   8.804 -0.7079  0.3978 -0.8625
30645SOL     OW94251   7.530   6.104   3.409  0.2539 -0.0197  0.5235
30645SOL    HW194252   7.511   6.133   3.499  0.4610  2.0701 -0.0598
30645SOL    HW294253   7.572   6.179   3.368 -0.7161 -0.5902 -1.6264
30646SOL     OW94254  10.596  10.218   9.517  0.3003 -0.0200  0.1667
30646SOL    HW194255  10.684  10.255   9.518  0.2997  0.4809 -3.8248
30646SOL    HW294256  10.540  10.288   9.549  1.2211 -0.1990  2.3354
30647SOL     OW94257   7.052   2.808   4.663 -0.3583 -0.3746 -0.3550
30647SOL    HW194258   7.143   2.793   4.689  0.2253  0.2569 -1.9084
30647SOL    HW294259   7.030   2.732   4.608 -1.3138 -1.3035  1.2369
30648SOL     OW94260   9.891   3.247   6.940  0.0225 -0.7790  0.0955
30648SOL    HW194261   9.910   3.268   7.031  2.5680  1.7960 -0.8679
30648SOL    HW294262   9.883   3.332   6.897  0.2479 -1.8840 -2.3061
30649SOL     OW94263   4.891   1.315   8.264  0.1015  0.6322 -0.3974
30649SOL    HW194264   4.878   1.359   8.349  1.3967  2.2913 -0.9987
30649SOL    HW294265   4.930   1.383   8.209  0.9540 -0.9484 -1.7992
30650SOL     OW94266   6.213   2.059   7.701 -0.0427 -0.4411  0.4025
30650SOL    HW194267   6.137   2.116   7.686  0.4909 -0.4896 -3.3011
30650SOL    HW294268   6.279   2.117   7.738 -0.4929  0.6426 -0.4403
30651SOL     OW94269   0.150  10.443  10.552 -0.2799  0.1156 -0.5033
30651SOL    HW194270   0.175  10.534  10.571  0.2425 -0.0936 -0.1641
30651SOL    HW294271   0.165  10.434  10.458  0.6496  0.0881 -0.3644
30652SOL     OW94272   6.454   9.633   3.568 -0.7833 -0.0455 -0.0809
30652SOL    HW194273   6.536   9.599   3.603 -0.3298 -0.5252 -1.5442
30652SOL    HW294274   6.479   9.716   3.526 -0.6006 -1.1853 -2.3527
30653SOL     OW94275   6.385   9.753  10.523 -0.5170  0.2483  0.3934
30653SOL    HW194276   6.361   9.822  10.462 -0.4344 -0.0326  0.0442
30653SOL    HW294277   6.302   9.709  10.543 -0.3018 -0.8393 -0.9546
30654SOL     OW94278   7.933   1.933   6.993 -0.2483  0.8277  0.1894
30654SOL    HW194279   7.911   1.848   7.031 -0.0291  0.5254 -0.3466
30654SOL    HW294280   7.884   1.996   7.046  0.8451  0.5246  1.6270
30655SOL     OW94281   3.514   4.670   2.009  0.0902 -0.6208 -0.5488
30655SOL    HW194282   3.471   4.594   2.047 -0.4080  0.4015  1.0214
30655SOL    HW294283   3.586   4.634   1.958  0.2244 -2.1139  0.6484
30656SOL     OW94284   5.190   4.171   1.116  0.6269  0.0309  0.5737
30656SOL    HW194285   5.141   4.210   1.188  0.8377  1.3794  0.0155
30656SOL    HW294286   5.203   4.080   1.142  0.0861  0.3147  1.9053
30657SOL     OW94287   1.480  10.157   0.329 -0.3432  0.5185  0.1505
30657SOL    HW194288   1.493  10.224   0.263  0.1523  0.5185  0.2429
30657SOL    HW294289   1.551  10.094   0.315 -0.4596  0.3180  0.4324
30658SOL     OW94290   6.804   1.122   4.203  0.1429 -0.4562  0.2755
30658SOL    HW194291   6.714   1.126   4.235  0.1034  1.8536  0.0644
30658SOL    HW294292   6.815   1.204   4.154  2.1299 -1.0441 -0.3344
30659SOL     OW94293   4.381   0.395   1.541  0.1588  0.4570  0.0398
30659SOL    HW194294   4.464   0.424   1.503  0.2907  2.4838  1.6816
30659SOL    HW294295   4.325   0.377   1.466  1.2155  1.7707 -1.1239
30660SOL     OW94296   8.496   5.978   0.745  0.3876  0.2198 -0.3585
30660SOL    HW194297   8.421   6.024   0.710  0.9947  0.8082 -0.9150
30660SOL    HW294298   8.467   5.887   0.752 -1.7760  0.9936  3.3609
30661SOL     OW94299   9.703   0.701   7.113 -0.2477 -0.4515 -0.3955
30661SOL    HW194300   9.684   0.793   7.097  0.3562 -0.3898 -0.7844
30661SOL    HW294301   9.719   0.695   7.207  1.5274  0.1892 -0.6128
30662SOL     OW94302   6.884   8.449   3.089 -0.0369  0.5522 -0.1423
30662SOL    HW194303   6.960   8.411   3.045 -0.6183  0.3213 -0.9474
30662SOL    HW294304   6.914   8.537   3.114  0.0277  1.0336 -1.7835
30663SOL     OW94305   3.614   1.773   3.776 -0.0533  0.3678 -0.3364
30663SOL    HW194306   3.666   1.743   3.702 -1.2469  2.0754 -1.9696
30663SOL    HW294307   3.524   1.771   3.744 -0.6028  1.1526  1.0813
30664SOL     OW94308   6.315   1.312  10.075 -0.1107  0.2700  0.2291
30664SOL    HW194309   6.394   1.261  10.056  1.0979  2.1145  0.0066
30664SOL    HW294310   6.250   1.277  10.014  0.2876 -1.7350  0.8647
30665SOL     OW94311   3.120   8.684   6.069  0.0863  0.2223 -0.2263
30665SOL    HW194312   3.124   8.703   6.162 -2.4044  1.5218 -0.3003
30665SOL    HW294313   3.064   8.606   6.062  1.8016 -1.0440 -0.5795
30666SOL     OW94314   3.481   7.618   7.538 -0.2263 -0.2436  0.1168
30666SOL    HW194315   3.529   7.690   7.498 -0.9210  0.0595 -0.1740
30666SOL    HW294316   3.472   7.644   7.630 -1.0894  0.3874 -0.1298
30667SOL     OW94317  10.346   2.653   8.144  0.2779 -0.2695 -0.3308
30667SOL    HW194318  10.338   2.606   8.227 -1.0866 -0.4454 -0.5256
30667SOL    HW294319  10.256   2.659   8.112  0.7625 -0.1063 -1.7392
30668SOL     OW94320   7.243   8.236   1.328  0.7368  0.1464 -0.3005
30668SOL    HW194321   7.182   8.226   1.401  0.5886  1.7946 -0.1667
30668SOL    HW294322   7.330   8.233   1.368  0.6640  0.7295 -0.1012
30669SOL     OW94323   2.921   3.575   1.385 -0.7399  0.0448 -0.5842
30669SOL    HW194324   2.939   3.499   1.329 -1.7560 -0.3806 -0.3412
30669SOL    HW294325   2.982   3.566   1.458  0.6336  0.6284 -1.6098
30670SOL     OW94326   8.570   4.585   2.683  0.4711  0.0768 -0.4902
30670SOL    HW194327   8.585   4.512   2.623  1.0313 -0.4388  0.2560
30670SOL    HW294328   8.507   4.551   2.746  1.3864 -0.0798  0.3671
30671SOL     OW94329   2.113   0.283   6.855 -0.2385  0.4361  0.2718
30671SOL    HW194330   2.113   0.189   6.874 -1.2675  0.1897 -0.8337
30671SOL    HW294331   2.028   0.314   6.885 -0.8252  0.5510 -1.3899
30672SOL     OW94332   9.537   7.279   5.201  0.3476 -0.3289  0.0444
30672SOL    HW194333   9.630   7.262   5.185  0.5431  0.6569  0.0916
30672SOL    HW294334   9.530   7.375   5.204 -0.4644 -0.4020  1.2458
30673SOL     OW94335   5.282   2.985   2.369 -0.1610  0.6187 -0.6621
30673SOL    HW194336   5.319   3.060   2.416 -1.0871 -0.2213  1.5345
30673SOL    HW294337   5.212   2.953   2.425 -0.6404 -1.1444 -2.1444
30674SOL     OW94338   0.718   2.401  10.089 -0.6642 -0.0727 -1.1167
30674SOL    HW194339   0.729   2.350  10.169 -0.1798  0.2015 -1.0049
30674SOL    HW294340   0.656   2.351  10.037 -3.6824  1.3336  0.8154
30675SOL     OW94341  10.548   0.791   9.235 -0.1222  0.3890  0.5681
30675SOL    HW194342  10.641   0.804   9.253  0.2739 -1.7688  0.2710
30675SOL    HW294343  10.504   0.825   9.312  0.9774  0.4081  1.2076
30676SOL     OW94344   5.471   2.062   0.915 -0.3918  0.0220  0.2147
30676SOL    HW194345   5.519   1.981   0.926  0.2778  0.2913 -0.5815
30676SOL    HW294346   5.418   2.070   0.994 -2.1654 -2.2981 -0.6148
30677SOL     OW94347   2.843   5.637   4.367 -0.6635  0.1422 -0.0334
30677SOL    HW194348   2.864   5.728   4.347 -0.4541 -0.0805 -0.8479
30677SOL    HW294349   2.918   5.606   4.418 -1.8976  1.1601  2.5786
30678SOL     OW94350   7.793  10.591   4.176 -0.5631 -0.6122  0.1498
30678SOL    HW194351   7.826  10.506   4.204  0.4110  0.0729  1.2045
30678SOL    HW294352   7.815  10.650   4.248 -0.4606  0.6958 -0.9066
30679SOL     OW94353   7.674   4.230   1.213  0.0066 -0.4929  0.4048
30679SOL    HW194354   7.677   4.233   1.308 -0.7228 -1.2866  0.4656
30679SOL    HW294355   7.600   4.172   1.193  1.3255 -1.9131 -0.6261
30680SOL     OW94356   7.936   1.042   9.255  0.7264 -0.3037  0.1658
30680SOL    HW194357   8.022   1.036   9.297  0.4434 -1.7633  0.5881
30680SOL    HW294358   7.885   1.099   9.312  1.1590 -0.1097  0.3604
30681SOL     OW94359   6.779   8.994   0.025 -0.0275  0.7367 -0.4575
30681SOL    HW194360   6.831   8.926  -0.018 -1.7237 -1.5900  0.9260
30681SOL    HW294361   6.844   9.047   0.072  1.3732  0.0807 -1.5687
30682SOL     OW94362   9.300   4.683   0.408 -0.3148 -0.0092  0.4282
30682SOL    HW194363   9.244   4.741   0.459 -1.3365  0.7357 -1.4347
30682SOL    HW294364   9.260   4.597   0.415 -0.7374  0.1914  0.4728
30683SOL     OW94365   2.871   0.088   3.690 -0.6841  0.3180  0.4477
30683SOL    HW194366   2.909   0.044   3.765  0.6602  2.4380  1.0976
30683SOL    HW294367   2.943   0.098   3.628 -1.5201 -0.4359 -0.7123
30684SOL     OW94368   5.169   6.742   8.030  0.4448  0.0964  0.9733
30684SOL    HW194369   5.111   6.805   8.072 -2.0967 -1.1339 -0.4348
30684SOL    HW294370   5.204   6.788   7.954 -0.3442  0.2335  0.6881
30685SOL     OW94371   7.527   8.377   6.248  0.2400 -0.0944  0.5945
30685SOL    HW194372   7.443   8.354   6.207  0.3436  0.0106  0.3199
30685SOL    HW294373   7.514   8.360   6.341 -0.9774  2.3704  0.9798
30686SOL     OW94374   3.474   4.046   8.255  0.0213 -0.3075  0.3202
30686SOL    HW194375   3.423   3.977   8.296 -1.7607  0.8986  0.2434
30686SOL    HW294376   3.449   4.044   8.163  0.4948 -0.0103  0.1784
30687SOL     OW94377   3.269   4.645   8.724  0.3835 -0.2090 -0.3462
30687SOL    HW194378   3.192   4.593   8.698 -0.0710 -0.4016  1.2912
30687SOL    HW294379   3.233   4.728   8.755  1.0797  0.9609 -2.4742
30688SOL     OW94380   3.382   4.962   6.402 -0.2056  0.0277  0.3735
30688SOL    HW194381   3.436   5.001   6.470  0.3832 -2.6603  1.6049
30688SOL    HW294382   3.441   4.954   6.326 -0.4928  1.8643 -0.0880
30689SOL     OW94383  10.142   3.654   9.874 -0.2608  0.2986  0.1764
30689SOL    HW194384  10.189   3.736   9.891 -0.3469  0.3463  0.1831
30689SOL    HW294385  10.126   3.655   9.780  0.2157  0.0333  0.0890
30690SOL     OW94386   9.334  10.302   4.963 -0.1729 -0.3682  0.7250
30690SOL    HW194387   9.276  10.229   4.985 -1.0224  0.1404  0.2431
30690SOL    HW294388   9.346  10.296   4.869 -2.1390  1.3904  0.2682
30691SOL     OW94389   8.583   1.030   7.429 -0.2733 -0.1635  0.6351
30691SOL    HW194390   8.518   1.101   7.426  1.0289  1.0946  1.0113
30691SOL    HW294391   8.660   1.071   7.467  1.3352 -1.1458 -1.4159
30692SOL     OW94392   8.094   8.605   0.668 -0.4585  0.0441 -0.4689
30692SOL    HW194393   8.132   8.626   0.582  2.1465 -0.9172  0.3367
30692SOL    HW294394   8.125   8.516   0.686 -4.5943 -1.5694 -0.3745
30693SOL     OW94395   6.102   4.722   5.877  0.1133 -0.2105 -0.3145
30693SOL    HW194396   6.121   4.790   5.941  0.4202 -0.8838  0.3208
30693SOL    HW294397   6.080   4.770   5.797  1.9877  0.6349 -0.3675
30694SOL     OW94398   2.500   2.928   2.138 -0.3241 -0.6092  0.2455
30694SOL    HW194399   2.500   2.974   2.055  0.2327 -0.6161  0.2365
30694SOL    HW294400   2.538   2.843   2.118  2.5486  0.3775  1.0087
30695SOL     OW94401   8.028   9.826   8.331 -0.1630  0.2361  0.2944
30695SOL    HW194402   8.047   9.795   8.420 -1.3967  1.1762  0.9240
30695SOL    HW294403   8.085   9.903   8.319  0.5470 -0.3282 -0.0318
30696SOL     OW94404   4.076   3.011   0.039 -0.5695 -0.3597 -0.0822
30696SOL    HW194405   4.171   3.020   0.028 -0.2771 -2.9612 -0.1992
30696SOL    HW294406   4.044   3.101   0.041  1.9698  0.6232  0.6396
30697SOL     OW94407   0.247   7.328   3.411 -0.2182 -0.1864  0.0094
30697SOL    HW194408   0.255   7.387   3.486 -1.8008 -0.2436  0.2526
30697SOL    HW294409   0.238   7.241   3.449  1.2051 -0.4984 -0.3259
30698SOL     OW94410   9.380   0.647   6.910 -0.1823  0.1732 -0.4250
30698SOL    HW194411   9.468   0.637   6.872  0.0034  0.2242 -0.0164
30698SOL    HW294412   9.369   0.569   6.964 -0.4766  0.0642 -0.6409
30699SOL     OW94413   8.268   7.652   5.281 -0.6673  0.5297 -0.0484
30699SOL    HW194414   8.232   7.634   5.194  1.2785 -0.9308 -0.6317
30699SOL    HW294415   8.233   7.582   5.336  0.0819 -0.0517 -0.2868
30700SOL     OW94416   8.444   3.164   9.058 -0.2541 -0.1294 -0.5237
30700SOL    HW194417   8.399   3.153   8.974  0.0961 -0.1422 -0.7113
30700SOL    HW294418   8.519   3.220   9.038 -1.2094  1.4665  0.1267
30701SOL     OW94419   6.473   7.606   7.470  0.3213 -0.2714  0.3198
30701SOL    HW194420   6.434   7.693   7.462  0.3830 -0.2331  0.4217
30701SOL    HW294421   6.501   7.584   7.381 -0.2509 -0.4516  0.1801
30702SOL     OW94422   5.997   3.019   7.939  0.5583 -0.4234  0.6933
30702SOL    HW194423   5.910   3.054   7.917 -0.3970 -2.0984  1.5901
30702SOL    HW294424   6.035   3.085   7.997  0.5817  1.0798 -0.9275
30703SOL     OW94425   8.629   2.182   5.472  0.6969  0.0716  0.1661
30703SOL    HW194426   8.627   2.244   5.400  1.7460 -0.1679 -0.0923
30703SOL    HW294427   8.599   2.099   5.434  0.6408  0.0946  0.1611
30704SOL     OW94428   1.305   8.839   3.660  0.2903 -0.0846  0.2990
30704SOL    HW194429   1.267   8.844   3.748  0.0552 -0.1380  0.2018
30704SOL    HW294430   1.230   8.850   3.601  0.0913 -2.1765  0.0762
30705SOL     OW94431   8.553   5.896   1.298  0.3148  0.0201 -0.5739
30705SOL    HW194432   8.486   5.958   1.329  1.5309  1.4224 -0.6217
30705SOL    HW294433   8.554   5.909   1.203  1.4295  0.8793 -0.4698
30706SOL     OW94434   2.994   0.755   8.244  0.6375  0.8042  0.3498
30706SOL    HW194435   3.058   0.820   8.216  0.5950  0.2676 -1.1190
30706SOL    HW294436   2.989   0.693   8.171 -2.4090  1.4621 -0.1673
30707SOL     OW94437   4.728   2.706   0.980 -0.1634 -0.3082  0.1841
30707SOL    HW194438   4.801   2.660   0.939 -0.4609 -0.0021 -0.6962
30707SOL    HW294439   4.671   2.637   1.014  1.7794 -0.6109  3.2455
30708SOL     OW94440   7.425   8.032   6.045  0.2072 -0.0229 -0.2189
30708SOL    HW194441   7.389   8.120   6.060  3.3517  1.0018  2.6434
30708SOL    HW294442   7.456   8.035   5.954 -0.0329  1.7247 -0.2914
30709SOL     OW94443   8.369   3.178   2.503 -0.1380  0.1328 -0.5766
30709SOL    HW194444   8.435   3.193   2.435  0.9873  0.8889  0.6298
30709SOL    HW294445   8.413   3.203   2.584 -0.6473 -2.8108  0.7366
30710SOL     OW94446   8.291   8.251   3.940  0.0699 -0.5859  0.1178
30710SOL    HW194447   8.368   8.242   3.883 -0.7980 -1.8595 -0.9273
30710SOL    HW294448   8.217   8.246   3.880 -0.9147 -2.7274  1.3933
30711SOL     OW94449   1.312   0.492   2.013 -0.3821 -0.2171  0.2262
30711SOL    HW194450   1.249   0.504   1.942 -0.8779 -0.4981  0.6140
30711SOL    HW294451   1.361   0.413   1.988 -0.2790 -0.0823 -0.0038
30712SOL     OW94452   6.420   5.051   5.715 -0.3070 -0.0435 -0.2260
30712SOL    HW194453   6.407   4.956   5.714  0.2074 -0.1625  1.2702
30712SOL    HW294454   6.348   5.085   5.768 -1.1011  0.5436 -1.6286
30713SOL     OW94455   8.226   1.279   2.477 -0.1182  0.2490 -0.2969
30713SOL    HW194456   8.314   1.317   2.485 -0.1619  0.1654  0.6209
30713SOL    HW294457   8.168   1.343   2.518 -0.5488  0.4566 -1.1832
30714SOL     OW94458   4.328   2.673   5.134  0.2775 -0.1563 -0.1843
30714SOL    HW194459   4.351   2.739   5.068 -0.2682 -0.3016 -0.5305
30714SOL    HW294460   4.406   2.665   5.189  1.5312 -1.5373 -2.0376
30715SOL     OW94461   9.570   4.732   2.218  0.5571 -0.0600 -0.1404
30715SOL    HW194462   9.539   4.809   2.171  3.3177  1.4590  0.3521
30715SOL    HW294463   9.551   4.751   2.310  0.2715 -0.4917 -0.1047
30716SOL     OW94464   8.655   4.970  10.101 -0.5290  0.0296 -0.4482
30716SOL    HW194465   8.571   4.997  10.064  0.3942  0.6044 -2.1831
30716SOL    HW294466   8.717   4.975  10.029  0.7871 -1.5724  0.4909
30717SOL     OW94467   6.260   3.754   2.389 -0.1412 -0.0443  0.3799
30717SOL    HW194468   6.250   3.830   2.446 -2.1959  0.3272 -0.3753
30717SOL    HW294469   6.182   3.701   2.405  0.9430 -1.7135  0.4213
30718SOL     OW94470   7.089   4.332   5.864  0.0334 -1.0060  0.1020
30718SOL    HW194471   7.122   4.301   5.948 -0.5695 -2.6254 -0.2233
30718SOL    HW294472   7.016   4.273   5.843 -2.7081  1.9573  0.4786
30719SOL     OW94473   9.297   9.792   9.702 -0.3059  0.0504 -0.0552
30719SOL    HW194474   9.202   9.789   9.701 -0.4402 -0.9766 -4.1354
30719SOL    HW294475   9.324   9.700   9.703  0.5632  0.2903 -0.1756
30720SOL     OW94476   1.758   2.338   3.793 -0.0482  0.0367 -0.2280
30720SOL    HW194477   1.790   2.325   3.882 -0.5914  1.1602  0.1622
30720SOL    HW294478   1.663   2.326   3.800 -0.0168 -0.6194 -0.8208
30721SOL     OW94479   0.005   7.758   6.133 -0.1281  0.4042 -0.1342
30721SOL    HW194480   0.043   7.831   6.085 -0.0944  0.1621 -0.4737
30721SOL    HW294481   0.022   7.681   6.079 -2.5875  0.4920 -1.1443
30722SOL     OW94482   2.861   4.870   8.147 -0.0455  0.2269  0.6145
30722SOL    HW194483   2.774   4.881   8.109  0.4717  1.1974 -0.3477
30722SOL    HW294484   2.895   4.791   8.105  0.8247  1.7123 -1.6721
30723SOL     OW94485   7.981   0.763   8.420  0.4766  0.2414  0.4075
30723SOL    HW194486   8.038   0.840   8.417  2.0553 -0.8879  0.5165
30723SOL    HW294487   8.040   0.688   8.419 -0.9901 -0.9934  1.0769
30724SOL     OW94488   4.763   0.034   9.179 -0.2809 -0.4820 -0.4436
30724SOL    HW194489   4.743  -0.015   9.099 -1.9043 -0.5174 -0.0450
30724SOL    HW294490   4.856   0.017   9.194  0.6720  1.1788 -3.4481
30725SOL     OW94491   3.084   5.109   6.888  0.3616 -0.0147  0.1855
30725SOL    HW194492   3.016   5.130   6.824  1.2506 -1.3516 -1.2440
30725SOL    HW294493   3.058   5.025   6.925  0.9237 -0.2525  0.0551
30726SOL     OW94494   9.966  10.121   6.567  0.7081 -0.1229  0.1307
30726SOL    HW194495   9.986  10.080   6.483  1.3771 -0.5814  0.4981
30726SOL    HW294496   9.983  10.052   6.632  0.5464  0.3298  0.6603
30727SOL     OW94497   1.723   7.256   1.947  0.0318  0.0569  0.1956
30727SOL    HW194498   1.701   7.183   2.005  0.7419 -0.4428 -0.1579
30727SOL    HW294499   1.720   7.333   2.003 -1.6746 -0.0897  0.3845
30728SOL     OW94500   6.695  10.296   6.105 -0.1547 -0.0774 -0.0885
30728SOL    HW194501   6.760  10.344   6.053 -1.5940  1.9456 -0.1014
30728SOL    HW294502   6.687  10.211   6.060 -0.6724  1.2375 -2.6766
30729SOL     OW94503  10.507   3.413   7.482 -0.5783  0.3535 -0.2981
30729SOL    HW194504  10.464   3.433   7.399 -1.9314  0.6252  0.4274
30729SOL    HW294505  10.596   3.445   7.472 -1.0034  1.2884 -1.2999
30730SOL     OW94506   3.533   8.692   9.425  0.2431 -0.2010  0.0226
30730SOL    HW194507   3.474   8.697   9.350 -0.3768  0.3479  0.5335
30730SOL    HW294508   3.529   8.779   9.464  1.5694 -0.0801 -0.0557
30731SOL     OW94509   3.613   3.023   1.539 -0.5472 -0.2540 -0.2341
30731SOL    HW194510   3.615   3.003   1.445 -0.8237  0.9413 -0.5110
30731SOL    HW294511   3.697   3.065   1.556 -0.7475  0.0816 -0.0752
30732SOL     OW94512   7.219   9.143  10.296  0.3398 -0.0500  0.0253
30732SOL    HW194513   7.141   9.161  10.349  0.6584 -2.3561  1.4305
30732SOL    HW294514   7.274   9.220  10.307 -1.1625  1.0667  0.0614
30733SOL     OW94515   9.802   5.224  10.430 -0.9058 -0.0683 -0.6689
30733SOL    HW194516   9.854   5.246  10.507 -3.0009  0.0277  0.7967
30733SOL    HW294517   9.861   5.239  10.356  1.0469  0.2096  0.8813
30734SOL     OW94518   1.917   6.092   7.319 -0.5575 -0.6681  0.2128
30734SOL    HW194519   1.863   6.085   7.398  0.2089  0.6235  0.8848
30734SOL    HW294520   1.984   6.157   7.341  0.5443 -1.3446 -1.0182
30735SOL     OW94521   1.703   4.605   8.627  0.3375  0.0463 -0.0623
30735SOL    HW194522   1.782   4.589   8.576  1.3523  0.9880  1.1150
30735SOL    HW294523   1.684   4.698   8.613 -0.6784 -0.2209 -0.4870
30736SOL     OW94524   6.263   6.848   3.244  0.3177 -0.8857 -0.1303
30736SOL    HW194525   6.191   6.906   3.268  0.3973 -0.9723  0.3266
30736SOL    HW294526   6.229   6.797   3.170 -0.0436 -0.8389  0.0018
30737SOL     OW94527   3.479   5.991   1.594 -0.5847 -0.4241  0.0279
30737SOL    HW194528   3.574   6.004   1.597 -0.5149 -1.1087  2.8709
30737SOL    HW294529   3.443   6.065   1.641 -1.5802  0.1853 -1.5967
30738SOL     OW94530  10.302   6.300   1.658 -0.3020 -0.3194  0.1298
30738SOL    HW194531  10.313   6.370   1.594 -0.4928 -1.0964 -0.7744
30738SOL    HW294532  10.226   6.327   1.709 -0.1013  0.3523  0.0880
30739SOL     OW94533   8.835   2.365   6.256  0.1045  0.1057 -0.2295
30739SOL    HW194534   8.827   2.276   6.291 -0.0747 -0.6141 -2.0127
30739SOL    HW294535   8.772   2.416   6.306  0.0455 -0.8099  0.6658
30740SOL     OW94536   0.018   3.460   6.878 -0.1854 -0.1510  0.0761
30740SOL    HW194537   0.004   3.530   6.814  1.1549  0.3816  0.3292
30740SOL    HW294538  -0.063   3.410   6.877 -1.2881  1.5576  0.0774
30741SOL     OW94539   6.348   9.738   6.747 -0.2900  0.0853  0.6983
30741SOL    HW194540   6.388   9.651   6.741  0.5193  0.4284  1.0382
30741SOL    HW294541   6.288   9.741   6.673  0.5626 -0.3116 -0.0200
30742SOL     OW94542   2.225   6.508   5.100  0.6744 -0.0785  0.1924
30742SOL    HW194543   2.264   6.491   5.014  0.0039 -0.8285  0.0163
30742SOL    HW294544   2.288   6.472   5.162  1.8937  1.8169  0.1334
30743SOL     OW94545  10.304   3.703   6.443 -0.5501  0.0015 -0.9429
30743SOL    HW194546  10.392   3.738   6.454  0.2348 -2.1877  0.1633
30743SOL    HW294547  10.260   3.721   6.527 -0.4502 -0.8180 -0.7149
30744SOL     OW94548   6.491   1.841   3.895 -0.0392 -0.1774 -0.1765
30744SOL    HW194549   6.457   1.931   3.896 -4.4285 -1.5262 -2.3776
30744SOL    HW294550   6.454   1.800   3.973  0.2280 -0.5839 -0.2583
30745SOL     OW94551   9.755   3.801   7.856  0.1704  0.2286  0.3895
30745SOL    HW194552   9.765   3.743   7.932  1.3475 -0.0765  0.0097
30745SOL    HW294553   9.832   3.785   7.803 -0.9948 -0.1226 -1.2839
30746SOL     OW94554   0.143   7.030   2.949 -0.0898  0.1109  0.6669
30746SOL    HW194555   0.089   6.963   2.907  1.7880 -0.5512 -0.7889
30746SOL    HW294556   0.085   7.107   2.953 -1.6645 -1.0139  0.6900
30747SOL     OW94557   9.742   6.081   1.885  0.0770 -0.0453  0.0132
30747SOL    HW194558   9.760   6.158   1.940  3.0642 -1.3502  1.0977
30747SOL    HW294559   9.797   6.094   1.808 -0.5566 -0.4156 -0.5080
30748SOL     OW94560   4.261   5.905   0.724 -0.4294  0.1851  0.2087
30748SOL    HW194561   4.274   5.827   0.670  1.1605  1.4688 -1.4102
30748SOL    HW294562   4.283   5.877   0.813  0.2700 -1.1664 -0.3655
30749SOL     OW94563   1.700   3.652   1.674 -0.2358 -0.7157  0.2636
30749SOL    HW194564   1.631   3.614   1.727 -1.4910  1.5369  0.3485
30749SOL    HW294565   1.780   3.639   1.725 -1.1983  0.1133  2.0486
30750SOL     OW94566   7.670   3.668   4.475 -0.4812 -0.5314  0.1407
30750SOL    HW194567   7.694   3.739   4.534 -2.2888  0.3700 -0.1198
30750SOL    HW294568   7.621   3.607   4.530  0.7077 -1.4109  0.2712
30751SOL     OW94569   1.466   7.692   1.941  0.0509  0.2507  0.2217
30751SOL    HW194570   1.540   7.686   1.881 -0.2478  0.5342 -0.1796
30751SOL    HW294571   1.441   7.601   1.958 -1.7860  0.1233 -2.4802
30752SOL     OW94572   8.526   5.948   1.011 -0.0048 -0.4788 -0.1287
30752SOL    HW194573   8.599   5.888   1.027  0.5410  0.0429 -0.6570
30752SOL    HW294574   8.525   5.960   0.916 -0.8653 -0.5873 -0.1411
30753SOL     OW94575   4.115   4.690   1.318  0.2474 -0.4217  0.2811
30753SOL    HW194576   4.041   4.631   1.331  0.2102 -0.3483  0.4062
30753SOL    HW294577   4.120   4.741   1.399  0.3266 -0.3065  0.2049
30754SOL     OW94578   3.614   7.043   1.616  0.1321  0.0149  0.7694
30754SOL    HW194579   3.705   7.038   1.586 -0.1922 -0.1748 -0.2111
30754SOL    HW294580   3.562   7.025   1.538 -0.7704  1.2406  1.0514
30755SOL     OW94581  10.068   4.968   4.239 -0.3245  0.3259 -0.8540
30755SOL    HW194582  10.089   5.057   4.209 -0.2445 -0.1601 -2.2863
30755SOL    HW294583  10.096   4.967   4.331  1.6062  1.1546 -1.3815
30756SOL     OW94584   1.583   7.874   8.515 -0.0680 -0.4829 -0.1372
30756SOL    HW194585   1.663   7.906   8.557 -0.3885 -0.4029  0.4159
30756SOL    HW294586   1.609   7.791   8.475  0.2751 -0.4972  0.1128
30757SOL     OW94587   0.980   0.147   0.490 -0.3573  0.1032  0.0667
30757SOL    HW194588   1.039   0.086   0.534 -1.6494  0.0241  1.7850
30757SOL    HW294589   0.997   0.133   0.396  2.7853  0.5686  0.4634
30758SOL     OW94590   2.554   5.177   8.609 -0.2989  0.5153  0.1196
30758SOL    HW194591   2.560   5.192   8.514 -0.0992  0.7500  0.1696
30758SOL    HW294592   2.466   5.140   8.622  0.7572 -2.6291 -0.5924
30759SOL     OW94593   8.943   4.457   2.565  0.1874 -0.2948 -0.3258
30759SOL    HW194594   8.980   4.540   2.536  0.3499 -0.9794 -2.2483
30759SOL    HW294595   9.008   4.420   2.624  0.3269  0.7188  0.1683
30760SOL     OW94596   4.426  10.209   0.314  0.6575  0.1593  0.1845
30760SOL    HW194597   4.348  10.220   0.369  0.6973  0.2786  0.2162
30760SOL    HW294598   4.441  10.114   0.314 -1.8037 -0.4005 -3.0010
30761SOL     OW94599   7.024   4.550   5.012 -0.3301  0.3335  0.2754
30761SOL    HW194600   6.944   4.503   5.037  0.6530 -0.6710  1.7173
30761SOL    HW294601   7.016   4.636   5.053 -1.6812  1.1205 -1.5243
30762SOL     OW94602   7.668   0.696   7.599 -0.0892 -0.2284  0.4103
30762SOL    HW194603   7.606   0.751   7.550  1.2479  0.6460 -0.3900
30762SOL    HW294604   7.646   0.711   7.691 -0.7328  0.4679  0.1604
30763SOL     OW94605   7.978   8.510   4.796 -0.0192 -0.2966 -0.2417
30763SOL    HW194606   7.944   8.545   4.714 -1.1442 -1.4534 -0.2860
30763SOL    HW294607   7.924   8.551   4.864  0.7352  0.4491 -0.0590
30764SOL     OW94608   1.964   2.084   1.534 -0.0541 -0.2232  0.1369
30764SOL    HW194609   2.038   2.033   1.567  0.7184  0.9527  0.2695
30764SOL    HW294610   1.981   2.093   1.441  0.0199  0.1360  0.1855
30765SOL     OW94611   5.382   0.425   0.203  0.1168  0.0443 -0.0291
30765SOL    HW194612   5.368   0.357   0.137 -0.7363  0.3529 -0.1833
30765SOL    HW294613   5.377   0.378   0.287  2.5250 -0.5784 -0.1681
30766SOL     OW94614   4.589   7.018   9.471 -0.0756 -0.8714  1.0691
30766SOL    HW194615   4.494   7.005   9.477 -0.1717 -0.3492  0.7036
30766SOL    HW294616   4.619   7.018   9.562 -0.1732 -2.8235  1.1525
30767SOL     OW94617   9.841   4.692   9.383 -0.1360  0.0419 -0.0208
30767SOL    HW194618   9.765   4.658   9.430 -0.9738  0.0261 -1.3347
30767SOL    HW294619   9.896   4.615   9.368  0.4826  0.1596  1.4981
30768SOL     OW94620   7.065   8.118   5.453 -0.4315 -0.5702  0.0601
30768SOL    HW194621   7.026   8.088   5.371 -0.0232 -0.2795 -0.2428
30768SOL    HW294622   6.994   8.109   5.517 -0.4425 -1.7963 -0.0955
30769SOL     OW94623   8.587   6.201   1.262  0.1168  0.6662 -0.4012
30769SOL    HW194624   8.676   6.179   1.235  0.1058 -0.6989  0.5604
30769SOL    HW294625   8.596   6.230   1.353 -0.5418 -0.8970  0.2166
30770SOL     OW94626   7.812   6.101   1.562 -0.3023  0.0350 -0.2495
30770SOL    HW194627   7.897   6.075   1.525 -0.7378 -0.0169 -1.2623
30770SOL    HW294628   7.833   6.164   1.630  0.4928  1.1641 -1.4839
30771SOL     OW94629   7.572   3.762   3.760  0.3104  0.0767 -0.4986
30771SOL    HW194630   7.527   3.774   3.677 -1.6144 -0.2881  0.4332
30771SOL    HW294631   7.592   3.668   3.764 -1.3050 -0.2719  0.2239
30772SOL     OW94632   0.130   1.317  10.253 -0.5036  0.1629 -0.0642
30772SOL    HW194633   0.205   1.259  10.269 -1.3543 -1.6900 -2.3129
30772SOL    HW294634   0.072   1.301  10.328  0.0547 -0.5997  0.2227
30773SOL     OW94635   1.573   3.788   1.981  0.0641  0.6098 -0.0203
30773SOL    HW194636   1.629   3.826   2.049 -0.9181  0.0087  1.1535
30773SOL    HW294637   1.497   3.846   1.977  0.2045  0.7605 -0.7830
30774SOL     OW94638   3.555   8.433   3.958  0.0630  0.3263 -0.4846
30774SOL    HW194639   3.548   8.383   4.039 -0.8611 -0.1325 -0.8273
30774SOL    HW294640   3.582   8.520   3.986 -0.2308  0.1737  0.3191
30775SOL     OW94641   9.691  10.522   1.189 -0.1823 -0.5774 -0.2655
30775SOL    HW194642   9.713  10.538   1.281 -1.4563  0.0577 -0.0455
30775SOL    HW294643   9.744  10.584   1.141 -0.6800  0.2080  0.1750
30776SOL     OW94644   2.997   4.232   8.836 -0.5267  0.2898 -0.0515
30776SOL    HW194645   3.029   4.165   8.777 -0.7034 -0.5307  0.7680
30776SOL    HW294646   3.030   4.314   8.799  1.4904 -0.4021  0.0995
30777SOL     OW94647   2.779   7.182   1.738 -0.2451  0.1747  0.5921
30777SOL    HW194648   2.729   7.156   1.816 -0.8102 -2.4342 -0.5164
30777SOL    HW294649   2.713   7.184   1.668  0.2871  2.2689  0.0865
30778SOL     OW94650   1.639   4.280   3.898  0.0055 -0.6513 -0.0023
30778SOL    HW194651   1.681   4.313   3.978 -0.7826 -1.0277  0.5751
30778SOL    HW294652   1.569   4.343   3.881  0.7343 -0.0548 -0.9357
30779SOL     OW94653   9.359   9.801   5.471 -0.4787 -0.8469 -0.0221
30779SOL    HW194654   9.385   9.720   5.514 -0.6008 -1.2701 -0.7166
30779SOL    HW294655   9.295   9.773   5.405 -1.1912 -0.0735  0.3216
30780SOL     OW94656   9.664   8.385   2.865 -0.3700 -0.2215 -0.0333
30780SOL    HW194657   9.586   8.361   2.915 -1.3095  1.0866 -0.7784
30780SOL    HW294658   9.705   8.455   2.916  1.0468 -1.7089  0.9662
30781SOL     OW94659   4.634   1.192   1.787 -0.5855  0.1893 -0.3856
30781SOL    HW194660   4.716   1.213   1.741  0.4517 -1.1852  0.7151
30781SOL    HW294661   4.629   1.096   1.783 -2.5185  0.2701 -0.9845
30782SOL     OW94662   9.405   0.181   9.401 -0.3327 -0.1002  0.3354
30782SOL    HW194663   9.425   0.270   9.371  1.0800 -0.5991 -0.2589
30782SOL    HW294664   9.355   0.142   9.330  0.6861 -0.3938 -0.2286
30783SOL     OW94665  10.223   3.502   8.168 -0.1592  0.4998 -0.3683
30783SOL    HW194666  10.188   3.456   8.092  0.4345  0.5901 -0.7060
30783SOL    HW294667  10.179   3.586   8.168 -0.7379  0.2012 -0.1533
30784SOL     OW94668   0.352   1.056   6.117  0.2423  0.5217 -0.0546
30784SOL    HW194669   0.387   1.036   6.204 -0.3789 -1.2572 -0.1636
30784SOL    HW294670   0.426   1.095   6.070  0.4677  1.9307  1.3695
30785SOL     OW94671   0.760   8.283   4.810  0.4888  0.0305 -0.3189
30785SOL    HW194672   0.777   8.224   4.736  0.2635 -0.7007  0.2002
30785SOL    HW294673   0.689   8.241   4.858  1.5821 -0.2531  1.1121
30786SOL     OW94674   1.589  10.223   3.544 -0.1754  0.7828  0.0349
30786SOL    HW194675   1.634  10.175   3.614  0.1588  0.3160 -0.4908
30786SOL    HW294676   1.499  10.190   3.547  0.0932 -0.0237 -0.4366
30787SOL     OW94677  10.136   1.872   4.982 -0.0122  0.3374  0.3449
30787SOL    HW194678  10.206   1.937   4.983 -0.4584  0.8725 -0.9554
30787SOL    HW294679  10.145   1.826   5.066  2.9711 -0.8003 -0.4702
30788SOL     OW94680   3.414   9.463   4.790  0.2958  0.1786  0.0543
30788SOL    HW194681   3.457   9.454   4.705  1.8629 -0.4607  0.8625
30788SOL    HW294682   3.331   9.418   4.781  1.7870 -2.7394 -0.2739
30789SOL     OW94683   1.678   3.579  10.291 -0.4610 -0.8010 -0.1882
30789SOL    HW194684   1.685   3.507  10.229 -1.5891 -0.3145 -0.9321
30789SOL    HW294685   1.725   3.550  10.369  0.3209 -1.7402 -0.9942
30790SOL     OW94686   2.855   7.059   7.569  0.4642 -0.6674 -0.3685
30790SOL    HW194687   2.831   7.072   7.478 -0.5691  0.5872  0.0593
30790SOL    HW294688   2.845   7.145   7.610 -0.8606 -1.5455  1.3039
30791SOL     OW94689   8.226   8.415   1.569  0.4786  0.3163 -0.6360
30791SOL    HW194690   8.192   8.504   1.558 -0.4767 -0.1424 -1.5329
30791SOL    HW294691   8.252   8.388   1.482  0.9223 -0.2338 -0.3395
30792SOL     OW94692   7.229   9.304   7.909  0.2033 -0.1481  0.5223
30792SOL    HW194693   7.180   9.335   7.832 -1.1423  1.1535  1.8420
30792SOL    HW294694   7.260   9.217   7.884 -0.4570  0.1099 -1.3773
30793SOL     OW94695   6.895  10.015   3.759 -0.3484  0.0266 -0.6409
30793SOL    HW194696   6.867   9.982   3.844 -1.5888 -2.3500 -1.8767
30793SOL    HW294697   6.976  10.062   3.777 -0.9400  0.2154  1.9255
30794SOL     OW94698   6.039   3.649   2.525  0.1633 -0.3869  0.3675
30794SOL    HW194699   5.970   3.606   2.474  0.3431  2.9188 -3.1563
30794SOL    HW294700   5.993   3.714   2.579  0.2963 -0.2181  0.2809
30795SOL     OW94701  10.597   2.422   1.413  0.2867  0.0368 -0.4924
30795SOL    HW194702  10.650   2.440   1.335 -0.2929 -0.1173 -0.9238
30795SOL    HW294703  10.546   2.344   1.390  0.3836 -0.2320  0.1771
30796SOL     OW94704   2.718   5.190   2.174  0.1368  0.0555 -0.5536
30796SOL    HW194705   2.782   5.161   2.238  2.8026  0.0384 -3.0434
30796SOL    HW294706   2.702   5.114   2.119 -1.8686  0.1467 -0.1933
30797SOL     OW94707   8.204   0.579   8.310 -0.7586 -0.1499  0.2236
30797SOL    HW194708   8.246   0.585   8.396 -1.4747 -0.6246  0.6242
30797SOL    HW294709   8.159   0.494   8.312 -1.7627  0.3572 -0.1643
30798SOL     OW94710   4.277  10.246   2.385  0.4911  0.0892 -0.5351
30798SOL    HW194711   4.247  10.175   2.328  0.9141 -0.1958 -0.4094
30798SOL    HW294712   4.292  10.320   2.326 -2.5996  0.9809 -0.3603
30799SOL     OW94713   6.452   2.652   6.729  0.4599 -0.1158  0.3404
30799SOL    HW194714   6.381   2.590   6.711 -0.0702  0.5829 -0.0310
30799SOL    HW294715   6.423   2.700   6.806  0.8717 -0.3366  0.6320
30800SOL     OW94716   2.164   3.878   6.354  0.3567 -0.4043 -0.2135
30800SOL    HW194717   2.158   3.966   6.390  0.6014 -0.9240  1.1322
30800SOL    HW294718   2.229   3.834   6.408  0.5334 -1.3069 -1.1238
30801SOL     OW94719   0.780   2.475   0.121  0.2086  0.2560  0.2804
30801SOL    HW194720   0.789   2.562   0.083  0.9593  0.2962  0.5359
30801SOL    HW294721   0.720   2.486   0.194  0.0955  0.5062  0.1501
30802SOL     OW94722   9.717   8.523   0.215 -0.3323 -0.2281 -0.0714
30802SOL    HW194723   9.644   8.584   0.220 -0.2465 -0.0942 -0.4506
30802SOL    HW294724   9.676   8.436   0.218 -0.4476 -0.1518  0.5475
30803SOL     OW94725   3.197   7.021   5.484  0.1451 -0.2840 -0.2377
30803SOL    HW194726   3.200   7.111   5.451  1.5808 -0.2550 -0.1027
30803SOL    HW294727   3.137   6.975   5.425 -3.2404  1.4439  1.5759
30804SOL     OW94728   1.411   2.853   7.309 -0.2130 -0.6003 -0.2890
30804SOL    HW194729   1.374   2.872   7.395  0.8339 -1.1060  0.2964
30804SOL    HW294730   1.500   2.890   7.313 -0.2104 -0.4754 -1.2139
30805SOL     OW94731   0.254   6.777   5.413  0.2417  0.2413 -0.1456
30805SOL    HW194732   0.274   6.851   5.356  0.1421  1.2711  1.1284
30805SOL    HW294733   0.163   6.790   5.438 -0.3942 -1.3827 -1.4336
30806SOL     OW94734   0.200   9.183   8.924  0.0058 -0.0208  0.0576
30806SOL    HW194735   0.166   9.266   8.957  1.2164  0.2605  0.6706
30806SOL    HW294736   0.295   9.191   8.933  0.2653 -0.7367 -1.6474
30807SOL     OW94737   0.940   0.249   4.201  0.6953  0.2450  0.1098
30807SOL    HW194738   0.876   0.192   4.159 -0.0458  0.5127  0.8519
30807SOL    HW294739   0.891   0.295   4.269  0.9366  2.7332 -1.2651
30808SOL     OW94740   2.063   0.802   4.819 -0.5534 -0.0181 -0.1587
30808SOL    HW194741   2.086   0.823   4.910 -0.8481  0.4971 -0.2007
30808SOL    HW294742   1.968   0.794   4.819 -0.5606  0.0521 -0.4365
30809SOL     OW94743   5.792   4.884   2.090 -0.3053 -0.1455 -0.0856
30809SOL    HW194744   5.798   4.856   2.182 -3.0341 -1.5173 -0.2182
30809SOL    HW294745   5.753   4.971   2.095  3.0873  1.5609  0.0789
30810SOL     OW94746   2.746   8.563   9.971  0.0402  0.0079 -0.5715
30810SOL    HW194747   2.766   8.656   9.980  0.8139 -0.0864 -1.2540
30810SOL    HW294748   2.655   8.561   9.938 -0.6170  0.4613  1.1303
30811SOL     OW94749   6.050   6.792   2.420  0.0250 -0.0086 -0.2044
30811SOL    HW194750   6.005   6.866   2.461  0.9338  0.1950  0.4735
30811SOL    HW294751   6.139   6.796   2.456 -0.3599 -2.4760  1.2400
30812SOL     OW94752   7.013   4.701  10.521 -0.4151  0.3495  0.7288
30812SOL    HW194753   6.942   4.637  10.515 -0.1207 -0.0638  1.5184
30812SOL    HW294754   7.061   4.677  10.600  0.6801  0.5433  0.1555
30813SOL     OW94755   9.336   7.628   6.803 -0.1355 -0.1016  0.0402
30813SOL    HW194756   9.315   7.613   6.711 -2.3252  0.1841  0.4387
30813SOL    HW294757   9.390   7.707   6.802  1.7424 -1.3307 -1.1264
30814SOL     OW94758  10.409   6.290   6.837  0.4033  0.8239  0.2701
30814SOL    HW194759  10.335   6.298   6.897 -1.2783  0.1703 -1.5969
30814SOL    HW294760  10.471   6.233   6.883 -0.4305  1.0238  1.6950
30815SOL     OW94761   0.530   2.086   0.445  0.5748  0.5839  0.3765
30815SOL    HW194762   0.528   2.057   0.354  2.3136  1.5479 -0.0187
30815SOL    HW294763   0.617   2.062   0.477 -0.1693 -0.1783  1.9676
30816SOL     OW94764  10.017   8.199   9.610 -0.0596 -0.2534  0.3531
30816SOL    HW194765   9.954   8.262   9.646 -0.1218  1.0813 -1.8897
30816SOL    HW294766   9.964   8.136   9.561  0.1438 -1.0144  1.0872
30817SOL     OW94767   8.350   4.077   0.883 -0.2854 -0.2491 -0.7859
30817SOL    HW194768   8.324   4.005   0.941  0.9233  0.6458  0.9171
30817SOL    HW294769   8.402   4.035   0.815 -0.5398 -1.1281 -0.4507
30818SOL     OW94770   9.967   8.806   3.357  0.0403 -0.0596  0.1677
30818SOL    HW194771  10.058   8.825   3.334 -0.1255 -0.7368 -1.1273
30818SOL    HW294772   9.959   8.712   3.344 -0.8144 -0.0237  0.4112
30819SOL     OW94773   8.201   9.678   0.517  0.3030  0.0391 -0.5576
30819SOL    HW194774   8.182   9.644   0.604  0.9161  1.4529  0.1439
30819SOL    HW294775   8.274   9.738   0.529 -0.8592  1.7743 -1.7052
30820SOL     OW94776  10.544   7.791   9.916  0.5113  0.1133  0.0150
30820SOL    HW194777  10.580   7.866   9.868 -0.3519 -0.0470 -0.9104
30820SOL    HW294778  10.558   7.813  10.008  1.6557  0.7047 -0.2854
30821SOL     OW94779   2.921   9.907   1.099 -0.3877  0.4572 -0.2008
30821SOL    HW194780   2.931   9.994   1.138  0.9057  0.3906 -0.3568
30821SOL    HW294781   2.991   9.855   1.138 -1.1533 -0.5386 -0.1026
30822SOL     OW94782   2.410   3.725   6.563  0.0141  0.0603  0.0624
30822SOL    HW194783   2.492   3.774   6.562 -0.6396  1.2789 -2.8949
30822SOL    HW294784   2.433   3.639   6.528  0.1031  0.2272 -0.2843
30823SOL     OW94785  10.332   6.758   4.259  0.6592  0.2966  0.2523
30823SOL    HW194786  10.289   6.804   4.187 -0.2974 -1.0836 -0.0960
30823SOL    HW294787  10.424   6.753   4.232  0.4587  0.5014 -0.5065
30824SOL     OW94788  10.361   5.608   8.329 -0.0139 -0.0370  0.2420
30824SOL    HW194789  10.357   5.685   8.386  1.5223  0.5182 -0.3524
30824SOL    HW294790  10.287   5.554   8.357  0.9533 -0.0527  3.1332
30825SOL     OW94791   3.169   4.961   8.542  0.1261 -0.4638 -0.1746
30825SOL    HW194792   3.096   4.982   8.601  0.3934  3.0620 -0.8903
30825SOL    HW294793   3.136   4.889   8.488 -1.6758 -0.9420  1.4244
30826SOL     OW94794   7.752   0.086   8.642  0.2319  0.1088  0.2698
30826SOL    HW194795   7.677   0.145   8.651 -0.3968 -0.4308 -1.1457
30826SOL    HW294796   7.746   0.028   8.717 -0.5208  0.3429  0.3990
30827SOL     OW94797   3.900   1.614   5.724  0.0811  0.6043  0.3344
30827SOL    HW194798   3.982   1.574   5.752 -0.3335 -0.1100  0.5660
30827SOL    HW294799   3.926   1.692   5.676  0.9500 -0.3955 -0.8660
30828SOL     OW94800   4.168   9.396   1.440  0.0066  0.1880  0.1453
30828SOL    HW194801   4.203   9.425   1.356  0.6877 -1.0025 -0.0124
30828SOL    HW294802   4.078   9.370   1.421  0.2545 -0.3741 -0.3015
30829SOL     OW94803   1.254   4.156   4.342  0.3643 -0.0690 -0.1640
30829SOL    HW194804   1.241   4.211   4.265  0.3097 -1.6406 -1.3247
30829SOL    HW294805   1.260   4.218   4.415 -2.6342  1.3249 -0.9687
30830SOL     OW94806   6.482   9.185   3.597 -0.1929  0.3700 -0.1925
30830SOL    HW194807   6.494   9.159   3.688 -1.2138  0.2887 -0.0641
30830SOL    HW294808   6.448   9.107   3.554  0.9345  0.2055 -0.8068
30831SOL     OW94809   4.428   4.817   2.505 -0.0917 -0.2426 -0.1084
30831SOL    HW194810   4.516   4.787   2.483 -0.3091  0.1139 -1.5241
30831SOL    HW294811   4.430   4.826   2.601  1.1032 -1.1559 -0.0139
30832SOL     OW94812   7.909  10.371   7.361 -0.4751 -0.0015  0.2306
30832SOL    HW194813   7.828  10.421   7.369 -0.4445 -0.0112  0.6173
30832SOL    HW294814   7.882  10.286   7.326 -0.6448 -0.0408  0.4554
30833SOL     OW94815   3.112   9.299  10.036  0.1133 -0.0233 -0.3587
30833SOL    HW194816   3.194   9.338  10.067  0.5656 -0.1403 -1.3680
30833SOL    HW294817   3.047   9.329  10.099  0.4508  2.3697 -1.0403
30834SOL     OW94818   9.991   3.336   6.592  0.3843  0.3058 -0.5973
30834SOL    HW194819   9.925   3.347   6.661 -0.9091  2.0990 -2.0263
30834SOL    HW294820  10.072   3.316   6.640 -0.8155 -0.2800  1.3101
30835SOL     OW94821   1.528   9.639   9.557 -0.2491 -0.4140 -0.3749
30835SOL    HW194822   1.496   9.593   9.635  1.9165  0.4163  1.0846
30835SOL    HW294823   1.596   9.582   9.522 -1.2915 -0.8432 -1.8048
30836SOL     OW94824   4.786   5.068   1.836  0.0357 -0.2624  0.2697
30836SOL    HW194825   4.832   5.149   1.816  0.6391  0.1325  2.9554
30836SOL    HW294826   4.775   5.026   1.751  1.5695  1.6318 -0.9582
30837SOL     OW94827   2.002   7.936   7.322  0.0930 -0.0191  0.0640
30837SOL    HW194828   2.084   7.913   7.276 -0.1946  0.0552 -0.4930
30837SOL    HW294829   1.956   7.852   7.331 -0.5620  0.1878 -1.1937
30838SOL     OW94830   2.103   0.393   9.968 -0.4451 -0.3052  0.1687
30838SOL    HW194831   2.151   0.408  10.050 -2.1104 -4.1807  2.1100
30838SOL    HW294832   2.171   0.391   9.901  1.1997  1.2686  1.6760
30839SOL     OW94833   9.570   2.308   7.552 -0.1552 -0.1240  0.0221
30839SOL    HW194834   9.530   2.242   7.495 -0.1745  0.1412 -0.2692
30839SOL    HW294835   9.654   2.328   7.510  0.7161 -1.3351  1.0866
30840SOL     OW94836   3.075   9.527   2.059 -0.3210  0.0580  0.0983
30840SOL    HW194837   3.061   9.617   2.087  0.0217  0.7977 -1.9233
30840SOL    HW294838   3.002   9.508   2.000  0.0501 -0.6863 -0.1435
30841SOL     OW94839   2.971   4.303   4.494  0.6100  0.1784  0.3547
30841SOL    HW194840   2.959   4.320   4.401  0.2615  1.5150  0.6274
30841SOL    HW294841   2.945   4.211   4.504 -0.6970  0.4019 -0.6370
30842SOL     OW94842   0.449   5.278  10.308  0.1122  0.0764 -0.0147
30842SOL    HW194843   0.443   5.332  10.386  0.3772  0.5717 -0.3373
30842SOL    HW294844   0.481   5.193  10.340  0.6260  0.4061  0.3560
30843SOL     OW94845   9.787   0.154   5.987 -0.0962  0.0951  0.1899
30843SOL    HW194846   9.717   0.178   6.048 -0.0715 -0.2753  0.3689
30843SOL    HW294847   9.853   0.112   6.042 -0.0615 -0.2136 -0.0835
30844SOL     OW94848   5.454   7.135   1.455  0.2105 -0.5776  0.3218
30844SOL    HW194849   5.426   7.226   1.467 -1.7737 -1.1367  0.3284
30844SOL    HW294850   5.452   7.097   1.543 -1.1638 -1.1784  0.0559
30845SOL     OW94851   0.060  10.513   7.439 -0.2445 -0.1539 -0.4442
30845SOL    HW194852   0.042  10.510   7.533 -0.0526  0.6206 -0.3770
30845SOL    HW294853   0.104  10.431   7.421  1.9479  0.7075  0.6262
30846SOL     OW94854   2.149   6.398   8.490 -0.0082 -0.3152  0.0936
30846SOL    HW194855   2.079   6.364   8.545 -0.9533 -0.9406 -1.4432
30846SOL    HW294856   2.111   6.474   8.446  1.4988  1.7148  2.0680
30847SOL     OW94857  10.405   2.153   3.496  0.0082  0.0927  0.1238
30847SOL    HW194858  10.432   2.225   3.553 -1.3062 -1.1375  2.4352
30847SOL    HW294859  10.473   2.087   3.507 -1.5080 -1.2190  2.4969
30848SOL     OW94860   6.472   0.739   8.679 -0.1487  0.0716 -0.1240
30848SOL    HW194861   6.447   0.810   8.738  0.9608 -0.3786  0.9356
30848SOL    HW294862   6.403   0.673   8.689 -1.2621  1.0284 -1.2242
30849SOL     OW94863   2.412   4.307   8.939  0.2079 -0.4170 -0.1036
30849SOL    HW194864   2.386   4.273   9.024 -1.8300 -0.7727 -0.8069
30849SOL    HW294865   2.507   4.318   8.945 -0.0738  1.3891  2.8503
30850SOL     OW94866   6.286   2.418   4.473 -0.2173  0.2549 -0.4500
30850SOL    HW194867   6.224   2.437   4.403  0.3141 -1.2433 -1.3512
30850SOL    HW294868   6.309   2.504   4.508 -2.3040  0.8794 -0.5068
30851SOL     OW94869   0.927   3.157   5.137  0.0422  0.3250 -0.6841
30851SOL    HW194870   0.986   3.108   5.079  2.4906  0.1907  1.6897
30851SOL    HW294871   0.949   3.249   5.121  1.1461  0.2702  0.3213
30852SOL     OW94872   1.254   3.671   7.625  0.4161 -0.1140  0.5321
30852SOL    HW194873   1.221   3.618   7.553  0.7886 -0.9164  0.9327
30852SOL    HW294874   1.295   3.747   7.583  1.3679 -0.9817 -0.1622
30853SOL     OW94875   3.182   2.722   5.126 -0.2326  0.7427  0.0796
30853SOL    HW194876   3.218   2.661   5.190  1.1589  1.1699 -0.2604
30853SOL    HW294877   3.218   2.692   5.042 -1.3086  0.7288 -0.3844
30854SOL     OW94878   7.188   7.920   7.484 -0.2483  0.0082 -0.0380
30854SOL    HW194879   7.246   7.844   7.495 -0.8058 -0.5480 -0.8378
30854SOL    HW294880   7.240   7.982   7.433 -0.1904 -0.3124 -0.3759
30855SOL     OW94881   4.006   1.862   2.497  0.4683 -0.3783 -0.0456
30855SOL    HW194882   4.053   1.945   2.487  0.4875 -0.4006 -0.1458
30855SOL    HW294883   4.030   1.812   2.419 -0.1339 -0.1853 -0.3624
30856SOL     OW94884   1.964   2.609   1.177  0.0020 -0.0162 -0.1794
30856SOL    HW194885   1.919   2.688   1.207 -0.9182 -1.0918  1.4530
30856SOL    HW294886   1.946   2.544   1.245  2.7756 -0.9653 -0.2349
30857SOL     OW94887   2.171   9.437   4.055  0.2030 -0.3805 -0.2182
30857SOL    HW194888   2.222   9.380   3.997 -1.2155 -2.9266  0.8719
30857SOL    HW294889   2.151   9.382   4.131 -1.5442  1.4972  0.7709
30858SOL     OW94890   5.374   6.688   2.068 -0.2260  0.8881 -0.2758
30858SOL    HW194891   5.328   6.665   2.148 -0.8736  0.8554 -0.6459
30858SOL    HW294892   5.453   6.733   2.097 -0.6152  1.1621  0.3712
30859SOL     OW94893   7.151   1.528   8.935  0.4956  0.0945 -0.2643
30859SOL    HW194894   7.075   1.524   8.878  0.8380  0.8097 -0.7901
30859SOL    HW294895   7.188   1.440   8.933  0.3848  0.0626 -0.9776
30860SOL     OW94896   9.221   4.421   4.310  0.4129 -0.1117 -0.0378
30860SOL    HW194897   9.284   4.478   4.354  1.9355 -0.9759 -1.0045
30860SOL    HW294898   9.259   4.407   4.223 -1.5896  0.0775 -1.0036
30861SOL     OW94899   1.702   8.220   0.065 -0.2624  0.0928  0.3101
30861SOL    HW194900   1.752   8.290   0.024  0.3132 -0.2391  0.4427
30861SOL    HW294901   1.693   8.247   0.156  3.6305 -1.9057  1.5077
30862SOL     OW94902  10.121   2.616   6.809  0.1084  0.1553 -0.2297
30862SOL    HW194903  10.158   2.657   6.888 -0.6476 -1.6570  1.1438
30862SOL    HW294904  10.112   2.688   6.747  1.0275  1.6054  1.2352
30863SOL     OW94905   2.173   5.793   8.274 -0.1606 -0.2045  0.4410
30863SOL    HW194906   2.264   5.813   8.252 -0.0983 -1.2613 -0.3028
30863SOL    HW294907   2.159   5.836   8.358  0.4852  1.4689 -0.2608
30864SOL     OW94908   8.064   2.524   2.525  0.1369 -0.0336 -0.0350
30864SOL    HW194909   8.002   2.596   2.512 -0.0333 -0.0651  0.5542
30864SOL    HW294910   8.056   2.471   2.446  0.3599  0.6660 -0.5295
30865SOL     OW94911   9.918   9.708   1.285  0.0077  0.7437  0.3448
30865SOL    HW194912   9.837   9.718   1.235 -0.6891 -0.1812  1.2437
30865SOL    HW294913   9.926   9.789   1.335 -0.0776  1.0566 -0.1452
30866SOL     OW94914   8.751   1.097   8.734  0.2854 -0.2779  0.0422
30866SOL    HW194915   8.706   1.168   8.778  0.7961  1.4951 -2.1226
30866SOL    HW294916   8.695   1.020   8.748 -0.1295  0.4218  2.6721
30867SOL     OW94917   6.829   2.729   1.321  0.1404  0.3159 -0.6299
30867SOL    HW194918   6.913   2.701   1.359  0.9502  2.6217 -0.5742
30867SOL    HW294919   6.852   2.774   1.240 -0.7889  2.6776  0.3109
30868SOL     OW94920   7.174   1.409   3.054 -0.0825 -0.2977 -0.1465
30868SOL    HW194921   7.195   1.321   3.025  1.5144 -0.2348  0.6745
30868SOL    HW294922   7.157   1.400   3.148  2.7299  0.5745  0.5367
30869SOL     OW94923   8.492   8.280   9.719  0.0109 -0.0288  1.0280
30869SOL    HW194924   8.544   8.248   9.645  1.2260  0.3802  1.6610
30869SOL    HW294925   8.415   8.320   9.679 -0.0660 -1.0811  0.0759
30870SOL     OW94926   6.797   4.720   6.171  0.0754 -0.1223 -0.1749
30870SOL    HW194927   6.879   4.711   6.220 -0.9168 -2.4322  1.2053
30870SOL    HW294928   6.742   4.776   6.226  0.3991  0.7437 -0.7079
30871SOL     OW94929  10.233   0.947   1.624  0.7876  0.1556  0.0006
30871SOL    HW194930  10.161   0.906   1.576  0.6885  0.7546 -0.3560
30871SOL    HW294931  10.201   0.953   1.714  0.4433  0.3009 -0.1325
30872SOL     OW94932   6.142  10.143   8.612 -0.5927  0.0702 -0.0732
30872SOL    HW194933   6.233  10.168   8.625 -1.4497  3.3277  0.4636
30872SOL    HW294934   6.120  10.178   8.525 -0.9700 -2.0824 -0.9102
30873SOL     OW94935   3.686   6.609   2.688  0.3123  0.3510  0.0978
30873SOL    HW194936   3.739   6.682   2.721 -0.5869  1.3997 -0.7047
30873SOL    HW294937   3.614   6.602   2.751 -0.2450  0.9559 -0.4550
30874SOL     OW94938   5.849   3.958   4.367  0.4528  0.2501 -0.7323
30874SOL    HW194939   5.837   4.030   4.305  2.9300  1.4377  0.0518
30874SOL    HW294940   5.820   3.880   4.320  0.4286  1.3712 -2.6440
30875SOL     OW94941   4.552   0.101  10.203 -0.5066 -0.0198 -0.2493
30875SOL    HW194942   4.566   0.054  10.121  0.4596  0.6134 -0.4626
30875SOL    HW294943   4.544   0.032  10.269 -1.0172 -0.5214 -0.8221
30876SOL     OW94944   5.380   6.193   5.574 -0.2221  0.2071 -0.3054
30876SOL    HW194945   5.359   6.149   5.656 -0.8229  0.0644 -0.5286
30876SOL    HW294946   5.361   6.128   5.507  1.1589 -0.0068 -0.5245
30877SOL     OW94947   9.663   4.075   6.686  0.4144 -0.1287  0.1660
30877SOL    HW194948   9.633   4.069   6.777  0.3194 -2.4223  0.0453
30877SOL    HW294949   9.582   4.070   6.634  0.4641  1.2158 -0.0598
30878SOL     OW94950   7.931   3.499   0.903 -0.1555  0.0003  0.0903
30878SOL    HW194951   7.954   3.505   0.810 -1.7782  1.5033 -0.2689
30878SOL    HW294952   7.944   3.406   0.925 -1.2374 -0.7268 -2.0736
30879SOL     OW94953   9.000   0.371   4.843 -0.3368  0.3055 -0.3742
30879SOL    HW194954   8.984   0.307   4.912 -0.7732 -0.3493 -1.0581
30879SOL    HW294955   9.075   0.422   4.873 -1.0492  0.6158  0.9786
30880SOL     OW94956   3.364   9.320   0.382  0.1774  0.0591  0.0037
30880SOL    HW194957   3.419   9.392   0.412  1.5613 -1.4281  1.2479
30880SOL    HW294958   3.276   9.344   0.412  0.5028  1.4274 -0.0439
30881SOL     OW94959   8.878   7.301   8.607  0.7187 -0.1666  0.3717
30881SOL    HW194960   8.967   7.267   8.619 -0.3039 -2.3909  2.4838
30881SOL    HW294961   8.847   7.258   8.526  0.9871 -0.7628  0.5790
30882SOL     OW94962   9.115   0.970  10.011  0.2809  0.1199 -0.0104
30882SOL    HW194963   9.073   0.965   9.926 -0.4700  0.8385  0.2987
30882SOL    HW294964   9.065   1.037  10.059  0.4165 -0.5696  1.1389
30883SOL     OW94965   1.835   7.955   9.070 -0.3284  0.0765 -0.3470
30883SOL    HW194966   1.849   7.884   9.134  0.6013  0.7870  0.2536
30883SOL    HW294967   1.778   7.916   9.004  0.8824 -1.5236 -0.5002
30884SOL     OW94968   4.650   5.283   9.374  0.1836  0.4604  0.3933
30884SOL    HW194969   4.692   5.251   9.454  0.8774  0.6888  0.1213
30884SOL    HW294970   4.557   5.290   9.397  0.1365 -0.9700  0.7076
30885SOL     OW94971   9.986   1.141   5.480  0.1142  0.5928 -0.2143
30885SOL    HW194972   9.942   1.223   5.502  0.4654  0.9760 -0.9063
30885SOL    HW294973   9.947   1.076   5.539 -0.6514  1.1187 -0.1243
30886SOL     OW94974  10.120   4.403   6.023  0.2114  0.4748  0.2925
30886SOL    HW194975  10.162   4.365   5.946  0.4604  0.7533  0.2889
30886SOL    HW294976  10.164   4.362   6.097 -0.5796 -0.3946  0.2887
30887SOL     OW94977   0.503   6.976   3.915 -0.6770 -0.1300  0.3226
30887SOL    HW194978   0.585   6.954   3.870 -0.7796 -3.1051  1.3891
30887SOL    HW294979   0.459   7.035   3.854  2.1658  1.5053 -0.3294
30888SOL     OW94980   7.656   2.543   7.832  0.2980  0.2087 -0.0483
30888SOL    HW194981   7.615   2.607   7.891  0.0085 -0.3426  0.3591
30888SOL    HW294982   7.707   2.486   7.890  0.0206 -0.3340 -0.3339
30889SOL     OW94983   1.800   7.418   7.033  0.0977  0.3923 -0.0755
30889SOL    HW194984   1.731   7.462   6.984  0.6255  2.4219  0.9064
30889SOL    HW294985   1.829   7.347   6.975 -1.9829  0.2076 -0.9788
30890SOL     OW94986   4.042   2.675   1.152 -0.6778  0.3202  0.8400
30890SOL    HW194987   4.124   2.689   1.104 -0.0095 -1.3280  1.3909
30890SOL    HW294988   3.997   2.759   1.149  0.3489  0.8570 -0.7578
30891SOL     OW94989   8.964   5.274   0.977  0.0159 -0.0116  0.3108
30891SOL    HW194990   9.022   5.225   0.919 -1.9524  0.4242 -2.2017
30891SOL    HW294991   8.909   5.207   1.018  0.8185 -0.2536  1.0146
30892SOL     OW94992   3.213   5.702   3.890  0.6733  0.1625  0.3732
30892SOL    HW194993   3.305   5.678   3.897  0.7629  0.4614  0.2474
30892SOL    HW294994   3.168   5.621   3.866  0.9686  0.1179 -0.0347
30893SOL     OW94995   8.443   8.473   1.684 -0.1842  0.4639  0.2188
30893SOL    HW194996   8.438   8.569   1.688 -0.3403  0.6410 -2.3114
30893SOL    HW294997   8.360   8.447   1.644  0.9256 -0.4435 -1.6242
30894SOL     OW94998   4.174  10.216   8.978  0.2269 -0.3386  0.4169
30894SOL    HW194999   4.207  10.276   9.046  1.0146 -1.3960  0.9836
30894SOL    HW295000   4.227  10.137   8.988  0.2941 -0.5459 -1.3980
30895SOL     OW95001   7.428  10.249   5.234 -0.3548  0.4602 -0.1344
30895SOL    HW195002   7.360  10.217   5.174  0.6809 -3.2308  0.4540
30895SOL    HW295003   7.494  10.289   5.176 -0.1573 -1.5297 -1.3727
30896SOL     OW95004   9.809   8.364   5.563 -0.3560 -0.2731  0.0926
30896SOL    HW195005   9.857   8.301   5.509  0.7760 -0.3634  1.1410
30896SOL    HW295006   9.840   8.347   5.652  0.1406  1.9006  0.3846
30897SOL     OW95007   0.241   0.222   2.601  0.0080  0.4945 -0.2374
30897SOL    HW195008   0.265   0.315   2.604 -2.0109  1.0975 -1.0945
30897SOL    HW295009   0.189   0.213   2.521  0.3810 -1.4626 -0.3200
30898SOL     OW95010   0.793   6.644   4.175  0.3133 -0.0372  0.0371
30898SOL    HW195011   0.744   6.577   4.128  1.0010 -1.4470  1.2382
30898SOL    HW295012   0.727   6.692   4.225 -0.0990 -0.3219 -0.2334
30899SOL     OW95013   0.647   9.286   0.360  0.5575 -0.2413 -0.2718
30899SOL    HW195014   0.575   9.286   0.297  0.9339  0.4114 -0.7168
30899SOL    HW295015   0.646   9.374   0.398 -0.1572 -0.8680  1.2295
30900SOL     OW95016   7.047   0.079   3.134 -0.3090  0.1571  0.0597
30900SOL    HW195017   7.037   0.173   3.152 -0.3468  0.0799  0.4465
30900SOL    HW295018   6.962   0.041   3.158 -0.7743  0.2121 -1.3817
30901SOL     OW95019   6.088   9.773  10.277 -0.1259 -0.2607  0.2516
30901SOL    HW195020   5.993   9.766  10.287 -0.8101 -0.9554 -4.3376
30901SOL    HW295021   6.124   9.700  10.327 -2.1813 -1.0532  0.6490
30902SOL     OW95022   0.499   0.063   0.164  0.1664  0.2490 -0.8392
30902SOL    HW195023   0.565   0.008   0.121 -0.9492  0.0378 -2.3963
30902SOL    HW295024   0.482   0.133   0.101 -1.8217 -0.2789 -0.9824
30903SOL     OW95025  10.348   6.800  10.506  0.1399  0.4354  0.7258
30903SOL    HW195026  10.338   6.891  10.534  0.2580  1.8008 -3.1235
30903SOL    HW295027  10.259   6.770  10.487  0.2766  0.5452 -0.1285
30904SOL     OW95028  10.076   3.478   1.510  0.1338  0.1455  0.2800
30904SOL    HW195029  10.119   3.465   1.426  0.6459 -0.2672  0.5980
30904SOL    HW295030  10.145   3.461   1.575 -0.3747 -0.0222  0.7849
30905SOL     OW95031  10.287   8.808   1.428  0.4238 -0.0256 -0.1570
30905SOL    HW195032  10.242   8.892   1.424 -0.3905 -0.4968 -1.3994
30905SOL    HW295033  10.230   8.747   1.380  1.4129 -1.0931 -0.0341
30906SOL     OW95034   4.656   7.277   0.607 -0.1623 -0.4421 -0.1178
30906SOL    HW195035   4.621   7.270   0.696  2.0742 -1.6253  0.7544
30906SOL    HW295036   4.676   7.370   0.597  0.7199 -0.4637  1.1372
30907SOL     OW95037   9.855   2.066   5.416  0.0382  0.2684  0.0921
30907SOL    HW195038   9.910   2.090   5.342  1.8404 -0.2482  1.2190
30907SOL    HW295039   9.824   2.150   5.451  1.9431  0.7153  0.7816
30908SOL     OW95040   8.656   5.783   2.716  0.2122  0.7378 -0.1299
30908SOL    HW195041   8.659   5.803   2.623  0.0211  0.3965 -0.2136
30908SOL    HW295042   8.609   5.856   2.755  1.1043  1.3446 -0.1662
30909SOL     OW95043   0.772   9.108   7.703 -0.3026 -0.4853  0.3998
30909SOL    HW195044   0.842   9.073   7.648 -1.1854  0.5198 -1.4615
30909SOL    HW295045   0.790   9.203   7.705  0.1269 -0.5642  2.5140
30910SOL     OW95046   2.773   3.773   3.065 -0.2397 -0.1045  0.1728
30910SOL    HW195047   2.761   3.819   3.147  0.1263  1.5043 -0.6390
30910SOL    HW295048   2.861   3.735   3.072 -0.2114  0.0205  0.5268
30911SOL     OW95049  10.375  10.453   2.819 -0.7445 -0.2093  0.3917
30911SOL    HW195050  10.420  10.401   2.752 -0.5575 -0.3483  0.6253
30911SOL    HW295051  10.407  10.542   2.806 -1.2722 -0.0996 -0.1858
30912SOL     OW95052   3.498   9.327   6.637 -0.0017  0.4022 -0.3899
30912SOL    HW195053   3.414   9.281   6.640  0.2367  0.0348  2.1883
30912SOL    HW295054   3.476   9.413   6.600 -1.3641  0.0208 -0.5310
30913SOL     OW95055   3.492   3.182   9.677  0.5543 -0.5468 -0.0706
30913SOL    HW195056   3.437   3.247   9.721  0.4297 -1.4163  1.0804
30913SOL    HW295057   3.581   3.216   9.686  0.6841 -1.3085  1.9937
30914SOL     OW95058   3.526   2.646   4.535  0.0589  0.3557 -0.0459
30914SOL    HW195059   3.559   2.666   4.623 -1.1418  1.3239  0.2153
30914SOL    HW295060   3.522   2.551   4.532  1.9043  0.2420  0.2526
30915SOL     OW95061   9.348   8.586   3.186 -0.1696  0.3153 -0.3775
30915SOL    HW195062   9.400   8.665   3.171 -0.2821  0.1545 -1.7009
30915SOL    HW295063   9.411   8.515   3.185 -0.2068  0.2793 -0.2655
30916SOL     OW95064   4.275   5.559   8.746  0.5712  0.3149 -0.7731
30916SOL    HW195065   4.208   5.491   8.736  0.6400  0.2649 -0.8907
30916SOL    HW295066   4.248   5.628   8.686 -1.0919  1.6653  1.3686
30917SOL     OW95067   3.604   8.860   7.968 -0.7897 -0.1300 -0.0281
30917SOL    HW195068   3.576   8.859   8.059 -2.6407  0.5105 -0.5579
30917SOL    HW295069   3.648   8.945   7.957  0.6499 -0.7562  0.5620
30918SOL     OW95070   3.614   0.157   9.067  0.1910  0.1517 -0.2636
30918SOL    HW195071   3.609   0.245   9.103 -0.3963  1.6940 -3.7457
30918SOL    HW295072   3.681   0.113   9.120  0.6540  2.7279  1.4343
30919SOL     OW95073   7.278   5.193   1.785 -0.1074  0.6157  0.3734
30919SOL    HW195074   7.203   5.141   1.813  1.7888 -2.4973  0.1183
30919SOL    HW295075   7.269   5.201   1.690  0.4920 -0.8792  0.1722
30920SOL     OW95076   2.094   6.088   1.497 -0.1796 -0.5194 -0.3005
30920SOL    HW195077   2.187   6.099   1.475 -0.1984  0.5386  0.0930
30920SOL    HW295078   2.062   6.177   1.510 -1.1858 -0.8944 -0.1441
30921SOL     OW95079  10.584   3.270   2.672 -0.0737 -0.2989 -0.6632
30921SOL    HW195080  10.513   3.279   2.735  0.4642  0.1024 -0.1018
30921SOL    HW295081  10.632   3.352   2.678  1.8632 -1.4568  0.7302
30922SOL     OW95082   6.304   4.672   2.452 -0.3081  0.2893  0.0436
30922SOL    HW195083   6.379   4.708   2.405 -0.8095  0.7057 -0.4499
30922SOL    HW295084   6.256   4.622   2.385 -0.0350 -0.6656  0.5412
30923SOL     OW95085   2.413  10.422   1.601 -0.0437 -0.0253 -0.0562
30923SOL    HW195086   2.322  10.431   1.573 -0.2831 -2.2869 -0.2401
30923SOL    HW295087   2.465  10.439   1.522 -0.3033  0.8800 -0.0438
30924SOL     OW95088   8.637   8.418   1.468  0.0447  0.2955 -0.8294
30924SOL    HW195089   8.589   8.418   1.385  0.7420  1.4326 -1.2621
30924SOL    HW295090   8.573   8.444   1.534 -1.0442 -2.5579 -0.6222
30925SOL     OW95091   3.712   0.921   2.905  0.1837  0.7541  0.1657
30925SOL    HW195092   3.807   0.909   2.912  0.4121  1.9883 -0.5682
30925SOL    HW295093   3.681   0.844   2.857  0.5033 -0.6659  2.1052
30926SOL     OW95094   6.465  10.582   5.047 -0.1063 -0.1767 -0.6897
30926SOL    HW195095   6.405  10.541   4.984 -0.3710  1.8383 -1.8521
30926SOL    HW295096   6.444  10.541   5.131 -0.7318 -1.9321 -1.6446
30927SOL     OW95097   4.018   1.128   6.134  0.1509 -0.3370  0.3109
30927SOL    HW195098   3.966   1.130   6.054  1.8863  1.6623 -0.8987
30927SOL    HW295099   3.960   1.091   6.200 -2.0350 -0.1910 -1.4069
30928SOL     OW95100   5.320   9.914   2.124 -0.0957  0.3115 -0.1873
30928SOL    HW195101   5.383   9.939   2.192 -0.3269  0.9889 -0.2094
30928SOL    HW295102   5.373   9.905   2.045 -0.2945  3.4448 -0.8149
30929SOL     OW95103   5.576  10.263   1.703 -0.2498 -0.2644  0.2145
30929SOL    HW195104   5.531  10.246   1.620 -0.8928  0.8274  0.3258
30929SOL    HW295105   5.595  10.357   1.702 -2.2422  0.2436  2.2362
30930SOL     OW95106   0.184   9.045   0.318  0.4030  0.1404  0.9020
30930SOL    HW195107   0.145   9.002   0.395  0.3803 -1.0102  0.2656
30930SOL    HW295108   0.207   8.973   0.260  0.7425  0.9861 -0.0282
30931SOL     OW95109   9.646   2.745   5.047 -0.2713 -0.4538 -0.1913
30931SOL    HW195110   9.675   2.701   5.127 -0.2755 -1.1602 -0.5656
30931SOL    HW295111   9.592   2.679   5.002 -0.3976 -0.0134 -0.7000
30932SOL     OW95112  10.346   7.701   9.395 -0.5561 -0.2350  0.3094
30932SOL    HW195113  10.398   7.621   9.387 -0.8298 -0.2505 -2.1812
30932SOL    HW295114  10.409   7.772   9.381 -0.5794 -0.0584  1.0385
30933SOL     OW95115   0.859   7.050   9.499  0.3692  0.0915 -0.2308
30933SOL    HW195116   0.824   7.138   9.516 -0.9103 -0.6758  1.4411
30933SOL    HW295117   0.865   7.045   9.404 -2.2568  1.0156 -0.5524
30934SOL     OW95118   0.373   1.736  10.236  0.2094  0.1753 -0.3851
30934SOL    HW195119   0.306   1.746  10.169  0.1410 -0.1722 -0.3709
30934SOL    HW295120   0.448   1.786  10.203 -0.1639  0.8323 -0.2456
30935SOL     OW95121   2.383   7.814   4.054  0.0508  0.3198 -0.2282
30935SOL    HW195122   2.428   7.804   4.138 -1.7073 -2.8986  0.4920
30935SOL    HW295123   2.293   7.834   4.077 -0.7264 -1.7390 -1.2219
30936SOL     OW95124   2.836   1.221   6.616  0.2834 -0.3660 -0.1327
30936SOL    HW195125   2.920   1.242   6.577 -0.0299 -0.2687 -0.7722
30936SOL    HW295126   2.775   1.219   6.542 -0.3928  0.2040  0.3861
30937SOL     OW95127   3.827   6.983   8.119  0.0703 -0.9077  0.4098
30937SOL    HW195128   3.756   7.036   8.155  0.1644 -0.8832  0.5652
30937SOL    HW295129   3.826   6.903   8.173  0.1381 -0.9216  0.3898
30938SOL     OW95130  10.076   6.945   7.183  0.3194 -0.1712  0.0474
30938SOL    HW195131  10.090   6.856   7.150 -1.7243 -0.7683  0.6903
30938SOL    HW295132  10.163   6.972   7.214  1.0269 -1.8453 -0.3364
30939SOL     OW95133   0.331   9.106   8.156 -1.0093 -0.3632 -0.2629
30939SOL    HW195134   0.423   9.130   8.155 -0.5608 -1.9146 -2.0066
30939SOL    HW295135   0.284   9.186   8.134  0.0041  0.1827 -0.4485
30940SOL     OW95136   3.093  10.367   6.785 -0.0127  0.4014  0.2964
30940SOL    HW195137   3.160  10.336   6.724 -1.5278 -0.1406 -1.1848
30940SOL    HW295138   3.072  10.456   6.755 -0.4620  0.2970  0.2972
30941SOL     OW95139   3.476   3.995   8.917  0.3541 -0.1882 -0.1354
30941SOL    HW195140   3.537   3.964   8.984  0.2948  0.5366  0.2554
30941SOL    HW295141   3.532   4.039   8.852  0.4498 -1.1708 -0.7417
30942SOL     OW95142   9.659   2.376   8.096 -0.1624  0.0130 -0.0222
30942SOL    HW195143   9.693   2.412   8.014 -0.2399  0.5944  0.1937
30942SOL    HW295144   9.718   2.303   8.116 -0.8445 -0.9086 -1.2033
30943SOL     OW95145   3.031  10.286   3.759  0.3020 -0.5355 -0.1588
30943SOL    HW195146   3.125  10.275   3.775  0.4368  0.7241 -0.0049
30943SOL    HW295147   2.998  10.197   3.753  1.5931 -1.0020 -0.7098
30944SOL     OW95148   3.040   4.509   8.666  0.0283 -0.2170  0.2337
30944SOL    HW195149   2.980   4.565   8.616 -0.3033  0.0751  0.9494
30944SOL    HW295150   3.059   4.436   8.606  0.3786  0.5894 -0.6693
30945SOL     OW95151   2.662   9.497   0.036  0.9348  0.0234  0.0951
30945SOL    HW195152   2.640   9.486   0.128 -2.7605  1.7588 -0.4283
30945SOL    HW295153   2.689   9.588   0.028 -0.9567  0.5488 -0.8278
30946SOL     OW95154   9.520   7.815   9.843 -0.1837 -0.3213 -0.4784
30946SOL    HW195155   9.546   7.781   9.758  0.1263  0.1975 -0.5966
30946SOL    HW295156   9.572   7.895   9.854 -1.1054  0.2796 -0.3468
30947SOL     OW95157   8.046   3.316   7.532 -0.6369 -0.3113 -0.1447
30947SOL    HW195158   8.135   3.340   7.558 -0.5873  0.4328 -0.9438
30947SOL    HW295159   8.014   3.260   7.603  1.2414 -2.4072 -0.8458
30948SOL     OW95160   0.074   3.366   8.404 -0.2248  0.1944  0.3892
30948SOL    HW195161  -0.009   3.396   8.367 -1.2259 -1.8740  0.8388
30948SOL    HW295162   0.094   3.285   8.356  1.2005  0.2969  0.7483
30949SOL     OW95163   9.215  10.446   6.139  0.2724  0.3199 -0.2606
30949SOL    HW195164   9.281  10.378   6.130  1.0960  1.0542  0.1111
30949SOL    HW295165   9.180  10.457   6.050  1.2256  0.4914 -0.6209
30950SOL     OW95166   2.929   9.640   9.138 -0.4894  0.9438 -0.4458
30950SOL    HW195167   3.022   9.652   9.121 -0.4757  1.6028  0.0523
30950SOL    HW295168   2.902   9.572   9.077  0.6512 -0.3712  0.4427
30951SOL     OW95169   4.834   9.058   7.723  0.0333  0.3548 -0.5522
30951SOL    HW195170   4.802   8.978   7.764  0.8661  1.0289  1.5791
30951SOL    HW295171   4.759   9.117   7.724  0.0041  0.3127 -0.1114
30952SOL     OW95172   9.465   6.795   5.978 -0.1606  0.2293  0.1240
30952SOL    HW195173   9.449   6.876   5.931 -1.0058  1.5303  2.4590
30952SOL    HW295174   9.458   6.727   5.912  1.0090  2.0421 -2.0015
30953SOL     OW95175   5.892   0.984   8.460  0.3448  0.0083 -0.0934
30953SOL    HW195176   5.929   0.984   8.372  1.5271 -1.8157  0.3552
30953SOL    HW295177   5.813   0.930   8.453  0.8268 -0.7315  0.0966
30954SOL     OW95178   3.786   0.416   3.305 -0.0219 -0.2874 -0.5019
30954SOL    HW195179   3.776   0.327   3.270 -1.2396  0.0762 -1.1253
30954SOL    HW295180   3.787   0.404   3.400 -0.8414 -0.9243 -0.5602
30955SOL     OW95181   2.823   7.838   7.265 -0.2329  0.2476 -0.4849
30955SOL    HW195182   2.738   7.792   7.269 -0.2578  0.3955  1.1134
30955SOL    HW295183   2.887   7.771   7.287  0.0094  0.3138 -0.9756
30956SOL     OW95184   5.386   2.733   2.654 -0.0677 -0.5148 -0.1790
30956SOL    HW195185   5.350   2.680   2.583 -0.2668 -0.3235 -0.2222
30956SOL    HW295186   5.468   2.690   2.678  1.4647  0.9574 -2.4155
30957SOL     OW95187   7.091   3.001  10.023 -0.5026  0.3419 -0.0184
30957SOL    HW195188   7.064   2.960  10.105  0.9396 -0.4268  0.1005
30957SOL    HW295189   7.185   2.985  10.017 -0.8227 -1.3171 -2.7048
30958SOL     OW95190  10.392   7.031   6.682 -0.1153 -0.0557  0.1876
30958SOL    HW195191  10.370   7.124   6.672  2.3603  0.7788  1.7217
30958SOL    HW295192  10.344   7.004   6.760 -0.6398 -0.0332 -0.1173
30959SOL     OW95193   6.924  10.205   0.668  0.3069 -0.1296 -0.3329
30959SOL    HW195194   6.886  10.157   0.593 -2.1272 -0.8213  1.2288
30959SOL    HW295195   6.939  10.138   0.734 -0.2384  0.8221  0.7913
30960SOL     OW95196   6.500   9.127   2.013 -0.3874 -0.2956  0.0974
30960SOL    HW195197   6.575   9.089   2.058  0.2424  0.4377 -0.2968
30960SOL    HW295198   6.534   9.152   1.927 -1.2575 -0.5621 -0.3436
30961SOL     OW95199   9.427   5.434   7.080 -0.1510  0.3722  0.1123
30961SOL    HW195200   9.482   5.416   7.156 -1.2291 -1.3762  0.5247
30961SOL    HW295201   9.488   5.428   7.006  0.4959 -0.1562  0.6673
30962SOL     OW95202   6.888   2.200   1.808  0.1630 -0.8870  0.8026
30962SOL    HW195203   6.864   2.211   1.900 -0.1170  0.1070  0.6245
30962SOL    HW295204   6.816   2.151   1.769 -1.2260  1.3011  0.4661
30963SOL     OW95205   5.939   2.157   4.811  0.0233  0.3818  0.3531
30963SOL    HW195206   5.874   2.224   4.831  0.8758  0.9130  1.4674
30963SOL    HW295207   6.022   2.205   4.805  0.5338 -0.4758  0.3950
30964SOL     OW95208   3.779   9.563   2.628  0.2497  0.1017 -0.2319
30964SOL    HW195209   3.783   9.479   2.582 -0.4811  0.8781 -1.8115
30964SOL    HW295210   3.790   9.541   2.720 -0.9738 -1.8607 -0.4919
30965SOL     OW95211   0.326   0.571   1.420 -0.0217 -0.3918  0.7191
30965SOL    HW195212   0.298   0.606   1.505  0.3636 -1.5817  1.3563
30965SOL    HW295213   0.413   0.609   1.406 -1.7902  3.4586 -1.3483
30966SOL     OW95214   9.225   5.463   7.731 -0.5010 -0.3071 -0.0339
30966SOL    HW195215   9.202   5.384   7.682 -2.3986 -0.5442  1.1529
30966SOL    HW295216   9.165   5.530   7.697 -1.5225 -0.3598  1.6166
30967SOL     OW95217   0.875   9.737   2.506  0.1236  0.1204 -0.2135
30967SOL    HW195218   0.818   9.668   2.470 -0.8362 -0.0714  1.5394
30967SOL    HW295219   0.904   9.702   2.591  1.7377  0.8249 -0.4299
30968SOL     OW95220   4.065   2.938   4.673 -0.4067  0.3836 -0.1370
30968SOL    HW195221   4.123   2.958   4.600  0.9301 -0.3721  0.6728
30968SOL    HW295222   4.004   3.012   4.676 -0.4017  0.4878 -1.9068
30969SOL     OW95223   0.159   6.446   8.675 -0.2288  0.2502  0.2843
30969SOL    HW195224   0.230   6.414   8.732 -0.1632  0.9768  0.6217
30969SOL    HW295225   0.191   6.431   8.586 -0.4983 -1.2712  0.4123
30970SOL     OW95226   8.108   0.609   6.526  0.0951 -0.4664  0.4717
30970SOL    HW195227   8.069   0.527   6.557 -0.1507 -0.9767 -1.0916
30970SOL    HW295228   8.197   0.608   6.563  0.1209 -1.4781  0.4135
30971SOL     OW95229   8.998   8.316   6.292 -0.1070  0.1133 -0.0608
30971SOL    HW195230   9.040   8.252   6.349 -1.3702 -1.8112 -1.2010
30971SOL    HW295231   9.070   8.371   6.261  0.9263 -0.3409  1.4253
30972SOL     OW95232   8.840   3.689  10.132  0.9685  0.7379  0.5715
30972SOL    HW195233   8.814   3.602  10.162  1.3996  0.1578 -0.6602
30972SOL    HW295234   8.931   3.678  10.105  0.6302  1.2268 -0.8306
30973SOL     OW95235   0.093   1.127   1.267 -0.1903 -0.5212  0.3963
30973SOL    HW195236   0.089   1.213   1.224  1.6492 -1.5852 -2.1222
30973SOL    HW295237   0.023   1.076   1.226  1.0819 -1.3011 -0.9104
30974SOL     OW95238   5.799   4.539   0.696 -0.4158  0.1168 -0.1816
30974SOL    HW195239   5.710   4.572   0.708 -1.2170 -1.4755 -1.4542
30974SOL    HW295240   5.850   4.583   0.765 -2.5804 -0.5616  1.9885
30975SOL     OW95241   1.071   9.809   5.305  0.8668 -0.2306 -0.9684
30975SOL    HW195242   1.038   9.719   5.313  3.4254 -1.1801  0.2045
30975SOL    HW295243   1.089   9.835   5.396  1.4820  0.9262 -1.4066
30976SOL     OW95244   3.927   6.100  10.096 -0.1542  0.0766  0.4371
30976SOL    HW195245   4.005   6.084  10.043 -1.0001  1.1091 -1.1957
30976SOL    HW295246   3.883   6.173  10.053 -1.9887 -0.4250  1.3525
30977SOL     OW95247   2.471   0.817   3.873 -0.5374 -0.0333  0.0208
30977SOL    HW195248   2.517   0.839   3.954 -2.2892  2.3383  0.4505
30977SOL    HW295249   2.440   0.727   3.887 -1.4196  0.5597  2.3203
30978SOL     OW95250   3.716   3.356   4.730  0.9709  0.1107  0.2287
30978SOL    HW195251   3.684   3.375   4.818  2.3980 -1.7589  1.2418
30978SOL    HW295252   3.790   3.415   4.718 -1.8403  3.5777 -1.6341
30979SOL     OW95253   4.917   0.858   3.316  0.2560 -0.1786 -0.2594
30979SOL    HW195254   4.842   0.900   3.276 -0.4550  1.6120  2.6722
30979SOL    HW295255   4.950   0.798   3.249 -1.4163  1.7805 -3.0039
30980SOL     OW95256   4.580   9.866   8.498 -0.3807 -0.0979 -0.0816
30980SOL    HW195257   4.599   9.900   8.586  1.5410 -1.3437  0.0460
30980SOL    HW295258   4.667   9.846   8.462 -1.1761 -0.1126 -2.0625
30981SOL     OW95259   8.909   9.982   6.181 -0.3688 -0.0175  0.9625
30981SOL    HW195260   8.964   9.931   6.240  0.4020 -2.0437 -1.3309
30981SOL    HW295261   8.820   9.950   6.197 -0.3713  0.4460  1.9430
30982SOL     OW95262   9.026   9.834   9.697  0.5437  0.0904  0.9743
30982SOL    HW195263   8.976   9.800   9.771  0.7812 -0.0043  1.0908
30982SOL    HW295264   8.960   9.870   9.637  0.4057  1.0014  1.6517
30983SOL     OW95265   9.409   0.719   4.878  0.6573 -0.3602  0.7368
30983SOL    HW195266   9.455   0.635   4.869  0.4999 -0.5040  1.2505
30983SOL    HW295267   9.347   0.705   4.949 -0.6379 -0.3656 -0.3578
30984SOL     OW95268   7.470   9.212   9.432 -0.1315  0.1301  0.0798
30984SOL    HW195269   7.559   9.233   9.460  0.4041 -0.8255 -0.8211
30984SOL    HW295270   7.455   9.267   9.355 -0.1505 -0.0222 -0.0265
30985SOL     OW95271   9.441   1.363   6.954  0.0349 -0.0520  0.0074
30985SOL    HW195272   9.427   1.394   6.864 -1.4998  0.2629  0.3316
30985SOL    HW295273   9.353   1.351   6.989  0.6195 -0.3335  1.4284
30986SOL     OW95274   1.518  10.547  10.272  0.2385  0.0363  0.0199
30986SOL    HW195275   1.562  10.625  10.240 -0.7610  0.8502  0.5627
30986SOL    HW295276   1.532  10.549  10.367 -0.7892  0.2229  0.1840
30987SOL     OW95277   8.806   7.549   3.216 -0.3026  0.2094  0.5122
30987SOL    HW195278   8.821   7.621   3.155 -1.7268 -0.8215 -1.1669
30987SOL    HW295279   8.744   7.584   3.280  0.0432  0.8566  0.4967
30988SOL     OW95280   0.934   9.634  10.399 -0.3957  0.2591 -0.0466
30988SOL    HW195281   0.846   9.663  10.376 -1.1470  0.5036  2.7832
30988SOL    HW295282   0.992   9.689  10.347 -1.8489  4.0961  1.9731
30989SOL     OW95283  10.321   4.705   7.401 -0.5498 -0.2429 -0.2965
30989SOL    HW195284  10.271   4.786   7.411 -0.9490 -0.5843  0.5041
30989SOL    HW295285  10.399   4.717   7.455 -0.6172 -0.3960 -0.1633
30990SOL     OW95286   4.058   4.502   2.383  0.0478 -0.0801 -0.3074
30990SOL    HW195287   4.020   4.504   2.471 -1.5490 -1.0466 -0.9400
30990SOL    HW295288   3.994   4.546   2.328  1.0068  0.4665 -1.0191
30991SOL     OW95289  10.008   9.280   7.441 -0.2336  0.0968  0.1976
30991SOL    HW195290  10.101   9.262   7.443 -0.3962 -0.7408  0.3894
30991SOL    HW295291   9.969   9.214   7.498 -0.9185  0.5988  0.3269
30992SOL     OW95292  10.067   1.665   8.249  0.5806 -0.4280 -0.1365
30992SOL    HW195293   9.973   1.653   8.233  0.0794  1.0600  1.3451
30992SOL    HW295294  10.099   1.710   8.171 -0.5403  1.4860  0.4586
30993SOL     OW95295   7.808   8.385   4.409 -0.0663  0.2821 -0.1611
30993SOL    HW195296   7.834   8.456   4.468  1.7524 -0.5305  0.0765
30993SOL    HW295297   7.713   8.380   4.420  0.0684  0.9068  1.8686
30994SOL     OW95298   7.664   1.897   8.354 -0.0160  0.3044 -0.1544
30994SOL    HW195299   7.689   1.871   8.442 -1.2108 -2.2111 -0.4606
30994SOL    HW295300   7.585   1.951   8.366  0.9649  1.6857  0.3603
30995SOL     OW95301   5.997   4.059   0.930 -0.4669  0.2823 -0.5557
30995SOL    HW195302   6.063   4.016   0.875 -2.6131 -1.0733 -2.2499
30995SOL    HW295303   6.017   4.029   1.018  1.3174  0.1552 -0.9489
30996SOL     OW95304   0.185   0.583   8.582  0.4569  0.1471 -0.1664
30996SOL    HW195305   0.220   0.569   8.494  1.0768 -2.9597  0.4409
30996SOL    HW295306   0.258   0.562   8.641  0.1426  2.4191  1.1506
30997SOL     OW95307   0.413   0.324   8.122 -0.0140  0.2123  0.4966
30997SOL    HW195308   0.484   0.264   8.098  0.1894 -0.2184  2.0219
30997SOL    HW295309   0.342   0.266   8.152 -1.2570  0.6075 -1.4995
30998SOL     OW95310   1.096   6.714  10.187 -0.2819 -0.2237 -0.2375
30998SOL    HW195311   1.009   6.702  10.224  0.3970  0.3096  1.6078
30998SOL    HW295312   1.086   6.784  10.123 -1.5439 -1.3939 -1.4025
30999SOL     OW95313   9.880   2.535   9.414  0.3220  0.0479 -0.0665
30999SOL    HW195314   9.910   2.517   9.325 -1.5907 -0.6092 -0.6216
30999SOL    HW295315   9.799   2.485   9.423  0.2809  0.3842  1.9372
31000SOL     OW95316   2.976   1.107   3.236 -0.6386 -0.7084 -0.1106
31000SOL    HW195317   3.003   1.023   3.199 -0.5880 -0.7383 -0.0053
31000SOL    HW295318   3.033   1.171   3.194  1.4345 -1.0203  2.0324
31001SOL     OW95319   5.251   4.548   8.271  0.1701 -0.1897  1.1626
31001SOL    HW195320   5.237   4.597   8.190  1.5233 -2.4732 -0.5592
31001SOL    HW295321   5.173   4.567   8.323 -1.2996  0.5255 -1.1088
31002SOL     OW95322   6.990   4.842   2.053 -0.2668 -0.1281  0.5344
31002SOL    HW195323   7.074   4.822   2.096  1.0336  1.9753 -0.8435
31002SOL    HW295324   6.986   4.782   1.979 -0.2503 -0.5870  0.8994
31003SOL     OW95325   9.409   8.431   0.062 -0.4947  0.0739  0.4245
31003SOL    HW195326   9.318   8.421   0.034 -0.1675 -0.3430 -0.5688
31003SOL    HW295327   9.453   8.469  -0.014 -0.0241  1.2003  1.2341
31004SOL     OW95328  10.388   0.326   4.788 -0.8142  0.6820 -0.3545
31004SOL    HW195329  10.404   0.393   4.854 -0.6458  0.1551  0.1437
31004SOL    HW295330  10.471   0.317   4.741 -0.3325 -0.3355  0.6536
31005SOL     OW95331   6.227  10.200   1.954 -0.0115  0.2293 -0.1057
31005SOL    HW195332   6.132  10.210   1.942 -0.2874 -1.5518  0.2833
31005SOL    HW295333   6.255  10.282   1.994 -1.4354  0.6903  0.0095
31006SOL     OW95334   8.283   3.842   0.548 -0.0595  0.1425 -0.2251
31006SOL    HW195335   8.210   3.897   0.578  0.1505 -0.0897  0.7647
31006SOL    HW295336   8.361   3.882   0.587  0.1246 -0.6920  0.3115
31007SOL     OW95337   9.274   4.632   7.915  0.1001  0.1693 -0.3889
31007SOL    HW195338   9.219   4.575   7.968  0.1616  1.2675  0.8970
31007SOL    HW295339   9.334   4.572   7.870 -0.5127 -0.8418  0.1133
31008SOL     OW95340   4.451   2.384   5.497  0.2829 -0.6848  0.0992
31008SOL    HW195341   4.431   2.417   5.585  1.0031  1.4750 -0.4941
31008SOL    HW295342   4.546   2.393   5.489  0.1152  0.0480 -1.2385
31009SOL     OW95343   1.576   2.210   8.158  0.2193 -0.3939 -0.3684
31009SOL    HW195344   1.551   2.177   8.071 -0.7486  1.4079 -0.8324
31009SOL    HW295345   1.517   2.164   8.218 -1.4467  0.7693 -1.0431
31010SOL     OW95346   0.217   9.746   8.076 -0.0675  0.1076  0.3632
31010SOL    HW195347   0.311   9.754   8.096  0.0973  1.0123 -0.6899
31010SOL    HW295348   0.175   9.806   8.138  0.2706  1.4308 -0.6444
31011SOL     OW95349   9.596   5.700   2.957 -0.3584 -0.0110  0.1943
31011SOL    HW195350   9.573   5.789   2.983  0.2427  0.5769 -1.1680
31011SOL    HW295351   9.688   5.706   2.931 -0.3676 -0.9801 -0.0921
31012SOL     OW95352   4.891   2.621   3.672  0.2639 -0.8679  0.0371
31012SOL    HW195353   4.879   2.617   3.767  0.6286 -1.7697  0.0564
31012SOL    HW295354   4.894   2.714   3.652  0.0851 -0.6683  0.8980
31013SOL     OW95355   5.200   0.261   9.592 -0.0014 -0.2203  0.1556
31013SOL    HW195356   5.119   0.263   9.643  0.7167  0.3365  1.3078
31013SOL    HW295357   5.184   0.323   9.520  0.0053  1.2441  1.3577
31014SOL     OW95358   1.868   8.183   3.013  0.4187  0.2448  0.2896
31014SOL    HW195359   1.945   8.137   3.047  1.7068 -0.0798 -2.7460
31014SOL    HW295360   1.809   8.113   2.985 -0.4605  0.5055  1.4041
31015SOL     OW95361   4.031   5.931   6.697 -0.0373 -0.4666 -0.6490
31015SOL    HW195362   4.088   5.955   6.770 -1.3174  1.8890 -0.3394
31015SOL    HW295363   3.952   5.895   6.737  0.2002 -1.4120 -0.9924
31016SOL     OW95364   1.347   0.355   2.646 -0.3236 -0.2945 -0.3665
31016SOL    HW195365   1.378   0.319   2.729 -1.1374  1.9241  0.9772
31016SOL    HW295366   1.327   0.447   2.665 -1.3801  0.0629 -2.8101
31017SOL     OW95367   6.333   6.433   0.144  0.1671 -0.0318 -0.4829
31017SOL    HW195368   6.343   6.419   0.050  0.3712 -0.8562 -0.3458
31017SOL    HW295369   6.422   6.430   0.179  0.1623  0.9966 -0.3468
31018SOL     OW95370   0.010   4.573   5.498 -0.0852 -0.4292  0.0284
31018SOL    HW195371   0.005   4.479   5.480 -0.8448  0.0425 -2.7184
31018SOL    HW295372   0.081   4.604   5.442 -0.2940  0.7526  0.3896
31019SOL     OW95373   3.800   7.190   3.877  0.6675  0.4117  0.3396
31019SOL    HW195374   3.773   7.265   3.930 -0.1733 -0.0870  0.6461
31019SOL    HW295375   3.719   7.155   3.841  0.9667 -0.6920  0.6787
31020SOL     OW95376   6.846   6.581   9.983  0.0597 -0.1763  0.1487
31020SOL    HW195377   6.897   6.648   9.937  1.4902 -2.2932 -1.5056
31020SOL    HW295378   6.764   6.625  10.005  0.3190  1.7164 -2.2113
31021SOL     OW95379   1.255   3.896   4.337 -0.3238 -0.2666 -0.1288
31021SOL    HW195380   1.254   3.992   4.328 -1.2892 -0.2360  0.1603
31021SOL    HW295381   1.326   3.879   4.399  2.0255 -0.0123 -2.5623
31022SOL     OW95382   2.038   3.389   5.916 -0.2718 -0.1476  0.3641
31022SOL    HW195383   2.090   3.331   5.972 -0.9782 -0.1936  0.9872
31022SOL    HW295384   2.053   3.476   5.951 -0.1947 -0.0945  0.2025
31023SOL     OW95385   9.874   9.755   3.502  0.0896 -0.1403  0.0746
31023SOL    HW195386   9.934   9.814   3.456  0.2003 -0.6255 -0.4182
31023SOL    HW295387   9.829   9.811   3.565  1.4691  0.1354  0.8673
31024SOL     OW95388   2.706   7.182   0.712 -0.3260 -0.2786 -0.1544
31024SOL    HW195389   2.643   7.183   0.640 -0.4536 -0.5769 -0.0501
31024SOL    HW295390   2.759   7.261   0.700  0.8672 -1.2376 -1.6660
31025SOL     OW95391   1.308   6.804   8.700  0.9343 -0.1069  0.0229
31025SOL    HW195392   1.397   6.832   8.675  1.0390 -1.3489 -1.0973
31025SOL    HW295393   1.251   6.850   8.638  0.8302  0.2621  0.3887
31026SOL     OW95394   6.056   2.443   8.601 -0.0105  0.0112  0.6003
31026SOL    HW195395   6.058   2.458   8.507 -1.5986 -0.1672  0.5006
31026SOL    HW295396   6.119   2.505   8.637  2.7334 -1.8063 -0.7627
31027SOL     OW95397   5.900   3.817   6.155 -0.1669  0.2629 -0.0883
31027SOL    HW195398   5.992   3.846   6.152 -0.3294  1.1235  1.6794
31027SOL    HW295399   5.904   3.731   6.196 -0.1165  0.1860 -0.2571
31028SOL     OW95400   8.893   7.851  10.222  0.4316  0.1842 -0.0733
31028SOL    HW195401   8.947   7.914  10.270  2.1773  0.7434 -2.5813
31028SOL    HW295402   8.953   7.811  10.159 -1.6464 -0.6008 -1.6790
31029SOL     OW95403  10.068   6.771   9.936 -0.5973 -0.4672 -0.5450
31029SOL    HW195404  10.033   6.698   9.885 -0.5191 -0.4129 -0.6773
31029SOL    HW295405  10.134   6.810   9.879  1.7694 -2.2866  0.7877
31030SOL     OW95406   5.255  10.353   3.713 -0.2869  0.3030 -0.2014
31030SOL    HW195407   5.224  10.270   3.749 -0.6258  1.4021  2.2297
31030SOL    HW295408   5.181  10.413   3.723 -1.3868  0.2054 -5.2066
31031SOL     OW95409   3.493   3.673  10.342  0.5135  0.2619  0.0253
31031SOL    HW195410   3.540   3.756  10.346  0.9020  0.0333  0.2672
31031SOL    HW295411   3.523   3.625  10.419  0.3457 -0.1327 -0.1529
31032SOL     OW95412   9.911   3.958   0.450  0.1305  0.8647 -0.2861
31032SOL    HW195413   9.915   4.041   0.497  2.6735  0.2857  0.6903
31032SOL    HW295414   9.861   3.901   0.507 -0.6789  1.3995 -0.4438
31033SOL     OW95415   0.959   4.225   5.858  0.1100  0.3476  0.4774
31033SOL    HW195416   0.954   4.321   5.860  1.2884  0.4487 -0.4851
31033SOL    HW295417   0.994   4.205   5.771 -1.3667 -1.0333  0.1616
31034SOL     OW95418   3.500   8.473   3.426 -0.0247  0.0381  0.6634
31034SOL    HW195419   3.538   8.397   3.381  0.5545  1.4998 -1.4263
31034SOL    HW295420   3.524   8.459   3.518  1.0665 -1.7250  0.1737
31035SOL     OW95421   2.776   2.148   9.508 -0.0730  0.4153  0.5282
31035SOL    HW195422   2.789   2.056   9.529  3.6620  0.9311  1.1589
31035SOL    HW295423   2.731   2.184   9.585  0.3763 -0.4878  1.2295
31036SOL     OW95424   5.815   5.350   3.501  0.1008 -0.2371  0.1658
31036SOL    HW195425   5.869   5.391   3.433  1.0378 -1.1193  0.3514
31036SOL    HW295426   5.876   5.294   3.549 -0.7028 -0.2000  1.2639
31037SOL     OW95427   3.189   9.816  10.330  0.4472 -0.2763  0.3385
31037SOL    HW195428   3.194   9.727  10.298  0.7791 -0.1158 -0.0587
31037SOL    HW295429   3.149   9.866  10.259  0.0532 -0.1457  0.6436
31038SOL     OW95430   6.548   7.473   4.212  0.3078  0.4631  0.3207
31038SOL    HW195431   6.467   7.520   4.195  0.6796  0.9081 -0.2723
31038SOL    HW295432   6.604   7.495   4.137  0.8269 -0.1612  0.5167
31039SOL     OW95433   0.067  10.087   0.487  0.6551 -0.3346 -0.0033
31039SOL    HW195434   0.067   9.997   0.455  1.4516 -0.5079  0.4551
31039SOL    HW295435   0.043  10.140   0.411 -0.6683 -0.9847 -0.0719
31040SOL     OW95436  10.331   2.301   9.774  0.5997  0.2887 -0.1877
31040SOL    HW195437  10.328   2.393   9.747 -1.2221  0.5020  0.6004
31040SOL    HW295438  10.347   2.253   9.692 -0.7259  1.1787 -1.0146
31041SOL     OW95439   6.805  10.089   4.249  0.9946  0.5577  0.1904
31041SOL    HW195440   6.825  10.039   4.170 -1.9780 -0.2050 -0.1987
31041SOL    HW295441   6.809  10.180   4.221  0.2878  0.3036 -0.8121
31042SOL     OW95442   1.824   0.592   3.034 -0.3578  0.7225 -0.6226
31042SOL    HW195443   1.855   0.596   3.124 -0.1581  0.7520 -0.6915
31042SOL    HW295444   1.882   0.652   2.986  1.8748 -1.8839 -1.4500
31043SOL     OW95445   7.332   5.356   0.966  0.9511 -0.0399  0.0424
31043SOL    HW195446   7.313   5.320   1.053 -1.2610  0.8382 -0.0112
31043SOL    HW295447   7.335   5.451   0.980 -1.6393  0.3032 -1.1173
31044SOL     OW95448   0.038   8.681   7.723  0.5590  0.5731  0.2728
31044SOL    HW195449   0.113   8.622   7.730 -0.7649 -1.0107  1.9024
31044SOL    HW295450  -0.008   8.651   7.645  0.9122  0.7205  0.0024
31045SOL     OW95451   3.465   0.717   5.102 -0.6980 -0.4522 -0.7326
31045SOL    HW195452   3.399   0.779   5.133 -2.9326 -2.8640 -0.2663
31045SOL    HW295453   3.429   0.683   5.020  0.4386 -1.1260 -0.9684
31046SOL     OW95454   6.356   9.680   9.911  0.2458 -0.3650  0.8555
31046SOL    HW195455   6.352   9.764   9.864  0.6115  0.3205  2.0101
31046SOL    HW295456   6.328   9.701  10.000  0.2347 -1.4988  1.1308
31047SOL     OW95457   5.685   0.346  10.088 -0.4991  0.3660  0.1038
31047SOL    HW195458   5.763   0.361  10.143 -0.6192  1.1523  0.0787
31047SOL    HW295459   5.721   0.327  10.002 -0.3296  0.6738  0.1033
31048SOL     OW95460   1.120   0.428   8.868 -0.0446 -0.3034  0.1721
31048SOL    HW195461   1.197   0.460   8.915  0.4729 -1.5709  0.2316
31048SOL    HW295462   1.155   0.363   8.807 -1.1454 -1.4242  0.6943
31049SOL     OW95463   8.820   5.701   5.704  0.1997 -0.3171  0.2628
31049SOL    HW195464   8.912   5.694   5.731  0.7580  0.0137 -1.4343
31049SOL    HW295465   8.811   5.642   5.630 -0.9700 -0.3457  0.4034
31050SOL     OW95466   9.093   2.749   4.403 -0.5227 -0.6197 -0.2237
31050SOL    HW195467   9.041   2.798   4.339  1.2954  0.2460 -1.1208
31050SOL    HW295468   9.079   2.657   4.381  1.1229 -0.3516 -2.8795
31051SOL     OW95469   4.353   4.739   0.361  0.3555  0.0336  0.2873
31051SOL    HW195470   4.294   4.793   0.416 -0.4200 -0.3456 -0.1558
31051SOL    HW295471   4.327   4.649   0.380  0.7706 -0.1359  0.0479
31052SOL     OW95472   4.970   3.672   6.343 -0.5856 -0.0394 -0.2006
31052SOL    HW195473   5.055   3.713   6.331 -0.4427  0.2192  1.4584
31052SOL    HW295474   4.916   3.740   6.383 -0.5640 -1.1665  1.8935
31053SOL     OW95475  10.109   4.812   2.278  0.2225 -0.0379 -0.7669
31053SOL    HW195476  10.075   4.724   2.292  1.5547 -0.5428 -0.4959
31053SOL    HW295477  10.037   4.870   2.302 -0.2703 -1.0331  0.2640
31054SOL     OW95478   1.351   5.505   5.159 -0.2458  0.3089 -0.3283
31054SOL    HW195479   1.314   5.543   5.079 -1.0272  0.5147  0.1207
31054SOL    HW295480   1.288   5.527   5.227 -0.2679 -1.0144  0.1098
31055SOL     OW95481   5.295   5.952   0.502 -0.2053 -0.0582  0.0505
31055SOL    HW195482   5.209   5.989   0.522  0.6865  1.7379  0.7975
31055SOL    HW295483   5.340   5.948   0.586  0.1928 -1.7391 -0.2100
31056SOL     OW95484   5.215   4.980   0.717  0.1685 -0.7100  0.6254
31056SOL    HW195485   5.131   4.939   0.697  0.3187 -0.8184  0.1898
31056SOL    HW295486   5.274   4.946   0.649  0.4449 -0.2619  0.6400
31057SOL     OW95487   2.550   8.120   5.996  0.2895  0.3699 -0.9499
31057SOL    HW195488   2.495   8.165   6.060 -0.0919  0.6486 -1.4721
31057SOL    HW295489   2.566   8.034   6.035 -1.7425 -0.2698 -1.4378
31058SOL     OW95490   7.504  10.422   5.962  0.2952  0.2853  0.1494
31058SOL    HW195491   7.557  10.342   5.965  2.0258  1.3559 -0.4976
31058SOL    HW295492   7.417  10.394   5.990  0.7268 -1.9242 -0.5076
31059SOL     OW95493   6.154   7.075   5.132  0.0804  0.0559 -0.5336
31059SOL    HW195494   6.151   7.124   5.215  0.1291  1.7507 -1.4778
31059SOL    HW295495   6.081   7.109   5.081  0.1725 -0.8123 -1.2681
31060SOL     OW95496   1.950   4.561   2.455  0.0090  0.4442  0.2723
31060SOL    HW195497   1.998   4.618   2.514  0.0603  1.2913 -0.5716
31060SOL    HW295498   1.863   4.600   2.448 -0.2557 -0.1033  0.4089
31061SOL     OW95499   9.680   7.144   1.145  0.1239  0.0698  0.1014
31061SOL    HW195500   9.759   7.199   1.147  0.3290 -0.2018 -0.2948
31061SOL    HW295501   9.612   7.202   1.109  0.5010 -0.1198 -0.9502
31062SOL     OW95502   8.955   5.370   8.078 -0.1847  0.6985  0.2521
31062SOL    HW195503   9.012   5.306   8.120 -1.1646  0.8667  1.9045
31062SOL    HW295504   8.878   5.375   8.133  0.0412  3.6411  0.5062
31063SOL     OW95505   1.920   0.853   2.671 -0.1269  0.0185  0.2098
31063SOL    HW195506   1.979   0.795   2.719 -0.7422 -0.0658  0.8777
31063SOL    HW295507   1.849   0.796   2.641  1.2532 -0.3922 -2.6754
31064SOL     OW95508   3.434   9.282   1.435  0.5884  0.7260 -0.3464
31064SOL    HW195509   3.488   9.347   1.389 -0.0690  0.2674 -1.8564
31064SOL    HW295510   3.471   9.278   1.523  3.0720  0.3762 -1.3228
31065SOL     OW95511   0.623   7.911   0.938  0.3051  0.5847 -0.4435
31065SOL    HW195512   0.602   7.953   0.855 -0.8289  0.4618 -0.2383
31065SOL    HW295513   0.695   7.851   0.918 -0.0477  0.4623 -1.3636
31066SOL     OW95514   1.516   3.420   0.712  0.4996 -0.4099 -0.1651
31066SOL    HW195515   1.486   3.350   0.770 -0.3624  1.7284  2.2165
31066SOL    HW295516   1.598   3.450   0.751  1.0785 -0.3545 -1.3884
31067SOL     OW95517   7.052   1.814  10.137  0.1419 -0.1773 -0.0979
31067SOL    HW195518   7.054   1.834  10.044  0.3412 -1.8732 -0.4960
31067SOL    HW295519   6.965   1.842  10.166 -0.6657 -1.3652 -1.2578
31068SOL     OW95520   8.156   0.136   2.446 -0.4495 -0.0433  0.2106
31068SOL    HW195521   8.172   0.224   2.479 -2.6939  0.4229  0.2082
31068SOL    HW295522   8.186   0.138   2.355  0.7752  0.2701  0.5992
31069SOL     OW95523   6.067   4.085   2.506 -0.4183 -0.3965  0.1932
31069SOL    HW195524   6.017   4.070   2.586 -1.7624 -0.6841 -0.6729
31069SOL    HW295525   6.156   4.056   2.528 -0.5390  0.3318  1.8288
31070SOL     OW95526   0.684   4.774   3.109 -0.1324 -0.2817  0.3449
31070SOL    HW195527   0.772   4.802   3.083  0.0088 -1.8448 -1.0944
31070SOL    HW295528   0.626   4.828   3.056  0.0432 -0.7228 -0.3098
31071SOL     OW95529   2.904   1.111   1.171 -0.1682 -0.1170  0.1623
31071SOL    HW195530   2.953   1.053   1.229  0.3436 -1.1636 -1.2474
31071SOL    HW295531   2.954   1.192   1.169  1.0781 -0.8767 -0.5803
31072SOL     OW95532   9.698   2.124   8.460  0.3546 -0.3494 -0.3221
31072SOL    HW195533   9.788   2.139   8.430 -0.1087  2.2224 -0.6314
31072SOL    HW295534   9.684   2.190   8.527 -2.1295  1.1660 -2.1644
31073SOL     OW95535   0.106   8.858  10.207 -0.2091  0.5932  1.1670
31073SOL    HW195536   0.092   8.915  10.132  0.8952  1.2069  1.4064
31073SOL    HW295537   0.121   8.771  10.169 -2.3942  0.3250  0.8221
31074SOL     OW95538   6.087   6.146   4.283 -0.5091 -0.1202 -0.7033
31074SOL    HW195539   6.048   6.209   4.223 -0.9148 -0.2930 -0.6222
31074SOL    HW295540   6.178   6.139   4.254 -0.2125  1.1617 -0.1821
31075SOL     OW95541   4.896   5.033   0.180 -0.0814 -0.2373 -0.4414
31075SOL    HW195542   4.950   4.961   0.146  1.5472  1.4438 -1.5822
31075SOL    HW295543   4.944   5.065   0.256 -0.7646 -0.2839  0.0182
31076SOL     OW95544   5.614   6.333   0.580 -0.3919 -0.1828 -0.8318
31076SOL    HW195545   5.567   6.281   0.515 -2.4285 -1.4384  1.4565
31076SOL    HW295546   5.605   6.424   0.549 -0.9515 -0.7538 -2.4619
31077SOL     OW95547   0.201   8.344   3.651 -0.5221  0.3480  0.1476
31077SOL    HW195548   0.120   8.328   3.603  1.2866 -0.5753 -2.8136
31077SOL    HW295549   0.232   8.428   3.619  1.3910 -0.8921 -1.4348
31078SOL     OW95550   6.731   1.922   2.107  0.2348 -0.1892 -0.9158
31078SOL    HW195551   6.676   1.910   2.029 -0.7817 -0.6852 -0.1512
31078SOL    HW295552   6.727   1.837   2.152  2.2681 -0.4853 -1.2222
31079SOL     OW95553   7.282   7.534   7.753  0.4065  0.2676  0.6685
31079SOL    HW195554   7.289   7.593   7.678 -0.5727 -0.4974 -0.0577
31079SOL    HW295555   7.364   7.547   7.801  1.7155 -0.2085 -1.2870
31080SOL     OW95556   9.317   4.304  10.523  0.0717 -0.1247 -0.1304
31080SOL    HW195557   9.224   4.324  10.533 -0.1311 -1.7280  1.7049
31080SOL    HW295558   9.324   4.263  10.437 -0.9239  0.0199 -0.2912
31081SOL     OW95559   7.061   1.252   1.646  0.0821  0.1844  0.4930
31081SOL    HW195560   7.126   1.264   1.576 -1.7883 -1.1638 -1.6181
31081SOL    HW295561   7.110   1.214   1.718  2.3528  2.7793  0.4662
31082SOL     OW95562   1.854   5.213   8.102 -0.1187  0.1073  0.0217
31082SOL    HW195563   1.861   5.253   8.189  1.4056  1.9211 -0.8634
31082SOL    HW295564   1.768   5.240   8.070 -0.7894 -0.7730  1.0307
31083SOL     OW95565   0.314   6.145   6.380  0.3721 -0.0581  0.8561
31083SOL    HW195566   0.335   6.201   6.306  2.1937  1.1408  2.1712
31083SOL    HW295567   0.289   6.206   6.450 -2.9467 -1.2293  0.8453
31084SOL     OW95568   6.540   3.677   8.077 -0.4788  0.5651 -0.1416
31084SOL    HW195569   6.487   3.734   8.022 -0.5765 -0.0577 -0.7150
31084SOL    HW295570   6.477   3.620   8.121 -0.5365  2.0791  1.8785
31085SOL     OW95571   2.462   3.096   2.442 -0.1766 -0.7199 -0.3310
31085SOL    HW195572   2.517   3.115   2.519  1.6457 -2.0283 -1.2583
31085SOL    HW295573   2.429   3.182   2.415  0.5507 -0.0287  0.8871
31086SOL     OW95574   2.458   5.888   6.363  0.2313 -0.5269  0.3567
31086SOL    HW195575   2.464   5.838   6.444 -2.6291 -0.3095  0.8354
31086SOL    HW295576   2.485   5.828   6.295 -1.8798 -2.4183  1.0538
31087SOL     OW95577   3.949   5.597   2.850  0.1215 -0.1797  0.0963
31087SOL    HW195578   3.950   5.686   2.885 -0.4709 -0.2444  0.3012
31087SOL    HW295579   3.889   5.550   2.908  1.1664 -0.9552  0.5604
31088SOL     OW95580   2.548   7.248   4.990 -0.2580  0.3146  0.4273
31088SOL    HW195581   2.489   7.195   4.936  1.8245 -0.6156 -1.0936
31088SOL    HW295582   2.630   7.199   4.989  1.1668  2.5926  0.6815
31089SOL     OW95583   6.484   3.741   5.104  0.6251  0.0946  0.1773
31089SOL    HW195584   6.458   3.821   5.058 -1.1926 -0.7705 -0.3974
31089SOL    HW295585   6.520   3.772   5.187 -0.5888  1.5134  0.2229
31090SOL     OW95586  10.026   6.186   7.804 -0.3209  0.1043  0.1813
31090SOL    HW195587  10.017   6.099   7.765 -0.2379  0.3922 -0.5026
31090SOL    HW295588  10.095   6.228   7.751 -0.8343  0.8212  0.0728
31091SOL     OW95589   8.454   8.020   7.092  0.3173  0.2423 -0.1099
31091SOL    HW195590   8.534   8.072   7.085 -0.0463  0.6666 -1.4098
31091SOL    HW295591   8.421   8.039   7.180  0.7131  1.4545 -0.2000
31092SOL     OW95592   7.563   8.420   7.978 -0.0804  0.0449  0.1140
31092SOL    HW195593   7.477   8.379   7.969 -0.3948  0.5829  0.6007
31092SOL    HW295594   7.575   8.470   7.897 -1.5107  2.3147  1.2193
31093SOL     OW95595   1.286   5.946   3.087 -0.3371 -0.3647  0.5968
31093SOL    HW195596   1.208   6.002   3.093  0.6035  1.0912 -0.0115
31093SOL    HW295597   1.273   5.896   3.006  0.1964  1.2988 -0.5733
31094SOL     OW95598  10.049   2.384   8.069  0.3506 -0.2694  0.2383
31094SOL    HW195599  10.055   2.461   8.126  0.1058 -0.3027  0.3109
31094SOL    HW295600   9.966   2.395   8.023 -0.6401 -1.4196  1.6297
31095SOL     OW95601   9.383  10.246   5.815 -0.1240 -0.0161 -0.0801
31095SOL    HW195602   9.391  10.176   5.751  0.6207  0.7747 -0.8821
31095SOL    HW295603   9.422  10.211   5.895 -2.8921 -1.7750  0.6485
31096SOL     OW95604   8.582   9.453   6.562  0.0788 -0.2649  0.1112
31096SOL    HW195605   8.555   9.519   6.499  0.4568 -0.2208 -0.0062
31096SOL    HW295606   8.502   9.431   6.610 -0.3001 -0.6063 -0.6706
31097SOL     OW95607   4.979   7.508   2.889 -0.2876 -0.1444  0.1864
31097SOL    HW195608   5.020   7.456   2.820  0.0003  0.4395 -0.0923
31097SOL    HW295609   5.048   7.520   2.955 -0.5537 -0.6787  0.5741
31098SOL     OW95610   3.829   8.179   3.614  0.2596 -0.7094  0.1453
31098SOL    HW195611   3.880   8.190   3.694  0.8298 -3.2342  0.2109
31098SOL    HW295612   3.752   8.234   3.627  2.0626  1.8441  0.7780
31099SOL     OW95613   2.062   0.770   3.984  0.3518 -0.3487 -0.4798
31099SOL    HW195614   2.068   0.861   4.012 -1.1011 -0.7140  1.1875
31099SOL    HW295615   2.008   0.772   3.905  1.6910  0.3620 -1.4185
31100SOL     OW95616   5.501   4.396   2.766  0.2604  0.1089 -0.8375
31100SOL    HW195617   5.502   4.487   2.798  0.2623  0.0098 -0.5469
31100SOL    HW295618   5.496   4.404   2.671 -0.2752  0.4140 -0.7910
31101SOL     OW95619   6.960   1.982   2.344  0.3493  0.2456 -0.1789
31101SOL    HW195620   6.886   1.949   2.396  1.3795 -0.2305  1.0309
31101SOL    HW295621   6.921   2.006   2.260 -1.2697  0.4756  0.5991
31102SOL     OW95622   3.659   8.259   6.855  0.3418  0.1050  0.9410
31102SOL    HW195623   3.733   8.224   6.805  1.2671  0.2338  2.1707
31102SOL    HW295624   3.636   8.188   6.915 -0.5387  0.0693  0.5696
31103SOL     OW95625   8.894   1.860   6.423  1.0595  0.7309  0.5721
31103SOL    HW195626   8.859   1.774   6.402  1.6626  0.5433  0.3182
31103SOL    HW295627   8.867   1.877   6.513 -0.1515  0.8287  0.2111
31104SOL     OW95628   8.961   1.521   2.339 -0.0783 -0.0317 -0.1550
31104SOL    HW195629   8.923   1.519   2.251  0.1004 -0.4649 -0.2246
31104SOL    HW295630   8.897   1.568   2.392  0.9989  2.6816 -1.0731
31105SOL     OW95631   5.124   9.057   1.993 -0.0954  0.1867 -0.7306
31105SOL    HW195632   5.204   9.093   2.031 -0.0167 -1.1244  0.4248
31105SOL    HW295633   5.082   9.131   1.951 -0.0574  1.7182  1.7203
31106SOL     OW95634   5.673   2.864   6.655 -0.4938  0.5358 -0.7559
31106SOL    HW195635   5.604   2.838   6.594 -0.4785 -0.1467 -0.4879
31106SOL    HW295636   5.755   2.841   6.611 -0.4889 -0.1426 -0.3990
31107SOL     OW95637   1.411   9.894   1.716 -0.2439 -0.0310  0.5897
31107SOL    HW195638   1.500   9.859   1.721  0.0984  0.7648  0.3248
31107SOL    HW295639   1.422   9.981   1.676 -0.6514  1.6899  3.8542
31108SOL     OW95640   8.853   2.105   0.750 -0.7974  0.1056 -0.3438
31108SOL    HW195641   8.891   2.193   0.753 -2.1231  0.6875  0.1767
31108SOL    HW295642   8.823   2.096   0.660 -0.5651  0.1385 -0.4265
31109SOL     OW95643  10.454   9.814   0.559  0.3210 -0.0793 -0.3844
31109SOL    HW195644  10.440   9.720   0.568  3.1805 -0.5001  0.5269
31109SOL    HW295645  10.501   9.824   0.476 -0.9944  0.7144 -1.0621
31110SOL     OW95646   9.612   7.884   4.108  0.4964 -0.4067 -0.4809
31110SOL    HW195647   9.571   7.937   4.040 -0.2706  1.7047  1.4788
31110SOL    HW295648   9.705   7.888   4.088  0.2646 -0.1532 -1.6046
31111SOL     OW95649   9.532   9.973   3.170  0.6288 -0.3179 -0.2841
31111SOL    HW195650   9.594   9.916   3.217  1.2150  0.8333  0.3722
31111SOL    HW295651   9.449   9.925   3.173  1.0880 -1.0998  0.3301
31112SOL     OW95652   8.897   3.814   6.224  0.3890  0.4833 -0.2003
31112SOL    HW195653   8.844   3.741   6.191 -1.3527  1.0085  1.2599
31112SOL    HW295654   8.936   3.780   6.305 -0.3808  1.1071  0.4532
31113SOL     OW95655   9.210   9.111   2.464  0.0369 -0.1533  0.1926
31113SOL    HW195656   9.263   9.040   2.429  0.8936 -0.3170  1.7067
31113SOL    HW295657   9.138   9.121   2.401  0.7412 -1.3042 -0.8477
31114SOL     OW95658   1.798   5.610   4.938  0.2376 -0.0894  0.6298
31114SOL    HW195659   1.853   5.684   4.964 -0.0345  0.9556 -1.4762
31114SOL    HW295660   1.713   5.629   4.978  0.2669  0.5843  0.3989
31115SOL     OW95661   8.997  10.081   0.691  0.4224 -0.1475  0.0156
31115SOL    HW195662   9.046  10.163   0.703 -0.4262  0.6509 -1.6145
31115SOL    HW295663   9.063  10.013   0.695  1.1095  0.5807  1.7409
31116SOL     OW95664   3.469   0.603   7.806  0.2135 -0.3744  0.1235
31116SOL    HW195665   3.433   0.519   7.776 -1.6841  0.2303  0.5254
31116SOL    HW295666   3.562   0.586   7.818 -0.1263 -2.4680  0.3012
31117SOL     OW95667   5.908   5.506   5.397 -0.1394  0.1834  0.3516
31117SOL    HW195668   5.917   5.532   5.488  2.7382  1.0429 -0.1048
31117SOL    HW295669   5.977   5.441   5.383  0.1319  0.7967 -1.4364
31118SOL     OW95670   4.594   7.777   2.648  0.0872  0.2634 -0.3823
31118SOL    HW195671   4.604   7.870   2.626  2.3035  0.1800  0.0279
31118SOL    HW295672   4.667   7.734   2.603  0.7258 -0.8851  1.6394
31119SOL     OW95673   5.601   6.451   2.211  0.4290  0.8165  0.6996
31119SOL    HW195674   5.531   6.447   2.276 -0.0817  1.0962  0.1747
31119SOL    HW295675   5.608   6.544   2.189  0.0978  0.6371 -0.1801
31120SOL     OW95676   5.023   3.352   3.407  0.4821  0.1974  0.3785
31120SOL    HW195677   5.114   3.377   3.423 -0.0535  2.9613 -0.3365
31120SOL    HW295678   4.973   3.433   3.422 -1.9277 -1.3134  1.1101
31121SOL     OW95679   2.269   3.807  10.244 -0.6549 -0.3458  0.6332
31121SOL    HW195680   2.275   3.716  10.217 -0.0892 -0.1005 -0.1176
31121SOL    HW295681   2.179   3.818  10.274 -1.3420 -0.6429 -1.2046
31122SOL     OW95682   7.134   6.736   7.040 -0.0771  0.1822 -0.1285
31122SOL    HW195683   7.150   6.693   7.124  0.7715 -0.5548 -0.6489
31122SOL    HW295684   7.040   6.753   7.039 -0.2007 -0.4017  0.6904
31123SOL     OW95685   3.804   5.772   6.314  0.8409  0.1348 -0.3441
31123SOL    HW195686   3.761   5.833   6.254  2.1986  0.9833 -0.4987
31123SOL    HW295687   3.757   5.783   6.397  0.5335  0.7777 -0.5916
31124SOL     OW95688   9.619   9.183   5.919  0.5535  0.5828 -0.1989
31124SOL    HW195689   9.639   9.266   5.877 -0.2750 -0.1003 -2.0270
31124SOL    HW295690   9.611   9.120   5.847 -2.4171 -0.3532  0.7836
31125SOL     OW95691   4.019   3.737   1.986 -0.3148  0.3141  0.3459
31125SOL    HW195692   4.036   3.725   2.080  0.6031 -1.5782 -0.0124
31125SOL    HW295693   3.943   3.682   1.968  0.6000 -0.7851 -0.3200
31126SOL     OW95694   5.464   1.496   7.969  0.2910  0.0085 -0.2510
31126SOL    HW195695   5.467   1.401   7.964  1.6390  0.0588 -0.8488
31126SOL    HW295696   5.388   1.521   7.916  0.9901 -0.6656 -1.6241
31127SOL     OW95697   3.544   1.770   0.508  0.1489 -0.2831 -0.1935
31127SOL    HW195698   3.578   1.767   0.597  1.4286 -1.9591 -0.6683
31127SOL    HW295699   3.613   1.811   0.456 -0.1646 -0.2059 -0.5612
31128SOL     OW95700   9.104   6.522   7.211 -0.3065 -0.3923 -0.4142
31128SOL    HW195701   9.153   6.525   7.129 -0.2493  0.4123 -0.3613
31128SOL    HW295702   9.166   6.490   7.276  0.4828  1.6066 -0.1361
31129SOL     OW95703   1.176   9.008   9.684  0.3091 -0.3542 -0.4586
31129SOL    HW195704   1.262   9.012   9.642 -0.3705 -0.5743 -1.9387
31129SOL    HW295705   1.175   8.924   9.730  2.1416  1.1058  2.5591
31130SOL     OW95706   9.837   1.969   3.587  0.2356 -0.1996 -0.0620
31130SOL    HW195707   9.899   2.036   3.557  0.0283 -0.4456 -1.0696
31130SOL    HW295708   9.884   1.887   3.577  0.1652 -0.2878  0.3145
31131SOL     OW95709   2.019   0.887   5.652 -0.1258  0.1226  0.0946
31131SOL    HW195710   2.105   0.860   5.682 -0.0903 -0.2831 -0.3563
31131SOL    HW295711   2.034   0.971   5.608 -0.1938  0.7636  1.2589
31132SOL     OW95712   5.777   5.844   5.567 -0.1312 -0.0404 -0.3874
31132SOL    HW195713   5.801   5.833   5.659  0.0156  0.0481 -0.4132
31132SOL    HW295714   5.796   5.936   5.548 -1.5591  0.3341 -0.1099
31133SOL     OW95715   1.347   0.965   1.709  0.2477  0.2099  0.6046
31133SOL    HW195716   1.323   0.931   1.795 -1.8827  1.7216  0.6789
31133SOL    HW295717   1.430   0.921   1.689 -0.3364 -1.9087  2.3842
31134SOL     OW95718   0.360  10.346   7.341  0.1409  0.3688 -0.2563
31134SOL    HW195719   0.376  10.440   7.326  1.6584 -0.0182 -1.2334
31134SOL    HW295720   0.378  10.333   7.434 -0.0092  1.0312 -0.1266
31135SOL     OW95721   5.160   3.892   1.483  0.6207 -0.1473  0.3540
31135SOL    HW195722   5.213   3.962   1.521  0.6329 -0.9094  1.8251
31135SOL    HW295723   5.209   3.812   1.503  0.8748 -0.5838 -1.7436
31136SOL     OW95724   1.959  10.572   0.170 -0.1028 -0.3306 -0.4575
31136SOL    HW195725   2.009  10.529   0.240 -0.3600  0.6431  0.3410
31136SOL    HW295726   2.019  10.637   0.135  1.1383 -2.7386 -3.2275
31137SOL     OW95727   8.245   1.790   8.351 -0.0171 -0.2068 -0.2549
31137SOL    HW195728   8.269   1.837   8.271  1.2674  0.4878  0.5216
31137SOL    HW295729   8.250   1.855   8.420  0.8054 -1.2444  0.7015
31138SOL     OW95730   8.457   5.009   5.254 -0.4404  0.1240 -0.4083
31138SOL    HW195731   8.383   5.042   5.203 -1.3718 -3.4475 -1.7031
31138SOL    HW295732   8.419   4.943   5.312  1.1597  1.4686  2.3936
31139SOL     OW95733   9.183   6.955   2.143  0.5495  0.6260  0.5050
31139SOL    HW195734   9.107   6.994   2.186 -1.2500  2.5576 -3.8258
31139SOL    HW295735   9.257   7.012   2.167 -0.1018  0.9521  1.8091
31140SOL     OW95736   7.228   7.081   0.251 -0.2270  0.1895 -0.1947
31140SOL    HW195737   7.149   7.082   0.305  0.9882 -0.3288  1.6913
31140SOL    HW295738   7.289   7.138   0.297  0.7765 -0.0427 -1.1936
31141SOL     OW95739   3.128   0.119   2.771  0.1568  0.1447 -0.0878
31141SOL    HW195740   3.096   0.053   2.709 -1.6025  1.5458 -0.7692
31141SOL    HW295741   3.211   0.148   2.733 -0.8967  0.9972 -1.8874
31142SOL     OW95742   0.033   0.743   1.781  0.0128 -0.0410  0.5197
31142SOL    HW195743   0.109   0.733   1.722 -1.1336 -0.4874 -0.9373
31142SOL    HW295744   0.000   0.831   1.763 -2.4101 -1.3459 -2.1851
31143SOL     OW95745   8.458   8.489   9.071  0.4373 -0.4827  0.1510
31143SOL    HW195746   8.502   8.470   9.154 -0.3529  0.1439  0.7248
31143SOL    HW295747   8.496   8.572   9.042 -0.5607  0.2160  0.8017
31144SOL     OW95748   6.289  10.510   7.333  0.0481 -0.2868  0.2526
31144SOL    HW195749   6.222  10.470   7.277 -1.1955  1.5703  0.3156
31144SOL    HW295750   6.273  10.604   7.325  0.7291  0.0974  2.6491
31145SOL     OW95751   5.695   5.705   8.613  0.6577  0.1110  0.1796
31145SOL    HW195752   5.754   5.649   8.663  1.3871 -0.0857 -0.8765
31145SOL    HW295753   5.753   5.760   8.561 -0.0037 -2.1307 -3.1919
31146SOL     OW95754   5.984   7.310   0.120 -0.7594  0.1419  0.3850
31146SOL    HW195755   5.990   7.237   0.182 -0.0936  0.5567  0.8275
31146SOL    HW295756   5.991   7.388   0.175  0.0375  0.5158 -0.2394
31147SOL     OW95757   6.436   1.716   9.220 -0.8359  0.0770 -0.6643
31147SOL    HW195758   6.521   1.710   9.176 -1.3058  1.3627 -1.8148
31147SOL    HW295759   6.455   1.761   9.303 -0.2570 -0.5380 -0.4543
31148SOL     OW95760   0.678  10.421   7.435  0.0310  0.2476 -0.0941
31148SOL    HW195761   0.715  10.335   7.412  0.0319  0.6060 -1.5824
31148SOL    HW295762   0.755  10.477   7.448  0.0302  0.1243  0.4266
31149SOL     OW95763   5.322   1.202   4.045 -0.4116  0.2594 -0.1150
31149SOL    HW195764   5.362   1.116   4.056 -2.2351 -0.6073  0.2644
31149SOL    HW295765   5.360   1.236   3.964  0.2788 -0.9461 -0.3273
31150SOL     OW95766   5.401   3.109   0.133 -0.1503  0.1606  0.6034
31150SOL    HW195767   5.368   3.033   0.085 -0.7055  1.7204 -1.6352
31150SOL    HW295768   5.346   3.113   0.212 -0.2576 -1.5875  0.6601
31151SOL     OW95769   1.911   8.674   4.646  0.2154 -0.3851 -0.4332
31151SOL    HW195770   1.958   8.751   4.612 -0.7900  0.5124  0.1458
31151SOL    HW295771   1.847   8.653   4.578 -0.9435  0.6300  0.3066
31152SOL     OW95772   1.959   2.893   1.848  0.2554 -0.1478 -0.4199
31152SOL    HW195773   1.898   2.870   1.918  0.8514  0.1335  0.2054
31152SOL    HW295774   1.982   2.984   1.866  2.0442 -0.6892  0.2751
31153SOL     OW95775   2.833   1.553   3.551 -0.6210  0.3144  0.2022
31153SOL    HW195776   2.788   1.474   3.580  1.1089 -0.7188  0.2158
31153SOL    HW295777   2.827   1.550   3.455  1.8280 -1.4002  0.0203
31154SOL     OW95778   9.751   5.812   5.765 -0.0504 -0.7270 -0.2355
31154SOL    HW195779   9.816   5.881   5.774 -2.1259  1.4471 -0.7208
31154SOL    HW295780   9.799   5.730   5.778  2.7401  0.7365 -0.7596
31155SOL     OW95781   3.379   5.044   7.504 -0.3873  0.1310  0.2160
31155SOL    HW195782   3.338   5.112   7.451  1.0804  0.7061 -0.2343
31155SOL    HW295783   3.365   4.964   7.454  0.4617  0.5773 -0.7741
31156SOL     OW95784   3.625   5.514   5.651 -0.0499  0.4833 -0.1440
31156SOL    HW195785   3.696   5.552   5.599  0.1332  0.6168  0.2017
31156SOL    HW295786   3.670   5.457   5.714 -0.3594 -0.9666 -1.1922
31157SOL     OW95787   7.367   2.135   7.353 -0.1337 -0.6579  0.1222
31157SOL    HW195788   7.416   2.216   7.339  0.5828 -1.4483 -2.7041
31157SOL    HW295789   7.390   2.081   7.277 -2.2316 -2.6874  0.8376
31158SOL     OW95790   7.875   4.629   1.929  0.1776 -0.1743 -0.1790
31158SOL    HW195791   7.846   4.581   2.007 -1.7710 -1.2439 -1.4807
31158SOL    HW295792   7.820   4.706   1.926  0.6085  0.1356 -0.2350
31159SOL     OW95793   8.908   4.694   3.724  0.2282  0.1457 -0.0031
31159SOL    HW195794   8.950   4.698   3.810 -0.9949  0.9538  0.5860
31159SOL    HW295795   8.890   4.785   3.701 -1.4231 -0.1586 -0.0850
31160SOL     OW95796   4.991   3.023   7.658 -0.0511 -0.1495  0.1959
31160SOL    HW195797   4.976   3.018   7.753 -0.2368 -0.6808  0.1415
31160SOL    HW295798   4.953   2.942   7.624 -1.8298  0.9500 -0.5763
31161SOL     OW95799   7.576   8.117   9.369  0.0544 -0.1883  0.4443
31161SOL    HW195800   7.671   8.111   9.373  0.0363 -0.0947  1.2826
31161SOL    HW295801   7.545   8.028   9.386  0.0002 -0.6210 -1.6472
31162SOL     OW95802   7.760   7.698   2.382 -0.3269  0.5913  0.0456
31162SOL    HW195803   7.697   7.642   2.428 -1.1930  0.5271 -1.1756
31162SOL    HW295804   7.796   7.642   2.313 -0.1711  1.1320 -0.3175
31163SOL     OW95805   3.787   2.928   0.630 -0.0894 -0.3936  0.3081
31163SOL    HW195806   3.780   3.010   0.679  0.9818 -0.2546  0.2600
31163SOL    HW295807   3.863   2.884   0.668  1.2510  0.0731 -1.6745
31164SOL     OW95808   6.315   4.856   3.662  0.2568  0.1566 -0.0518
31164SOL    HW195809   6.327   4.772   3.618  1.3848  0.2592  0.0170
31164SOL    HW295810   6.365   4.918   3.608 -1.4324  1.0161 -0.7208
31165SOL     OW95811   5.760   5.755   6.986 -0.0384 -0.2192  1.0790
31165SOL    HW195812   5.849   5.775   6.956 -0.4400 -0.8278 -0.5961
31165SOL    HW295813   5.732   5.683   6.931 -2.2529  1.1192  0.3542
31166SOL     OW95814   1.868   6.664   4.137  0.3221  0.4616 -0.4717
31166SOL    HW195815   1.954   6.678   4.097 -0.0696  0.8582 -1.2063
31166SOL    HW295816   1.817   6.621   4.069  0.3112 -0.9466  0.4053
31167SOL     OW95817   2.328   0.144   1.067 -0.4365  0.2068 -0.1101
31167SOL    HW195818   2.256   0.190   1.024  1.1652  0.4764 -2.6544
31167SOL    HW295819   2.356   0.078   1.004  1.0893 -0.3924  1.1256
31168SOL     OW95820   8.648  10.124   6.324  0.1876  0.2237 -0.1113
31168SOL    HW195821   8.587  10.059   6.358  0.4544 -0.9018 -1.6603
31168SOL    HW295822   8.622  10.206   6.366 -0.5642 -0.7500  1.4054
31169SOL     OW95823   3.108   2.755   3.956  0.2523  0.0421 -0.1763
31169SOL    HW195824   3.133   2.663   3.950  1.3920  0.3890 -1.0121
31169SOL    HW295825   3.016   2.757   3.927  0.6246 -0.6571 -1.4852
31170SOL     OW95826   2.331   2.752   0.881 -0.5174  0.4473 -0.0011
31170SOL    HW195827   2.293   2.670   0.914  0.0030  0.7822  1.5394
31170SOL    HW295828   2.425   2.737   0.884 -0.4429  0.6629 -0.9634
31171SOL     OW95829   1.830   5.031   2.245  0.5306 -0.1549  0.8348
31171SOL    HW195830   1.891   4.963   2.217  1.2371  0.1933  1.5014
31171SOL    HW295831   1.834   5.030   2.340 -0.8261 -0.4071  0.9131
31172SOL     OW95832   4.021   2.478   7.874  0.0594  0.1153  0.1390
31172SOL    HW195833   4.049   2.448   7.961 -1.1171 -1.3216  0.0621
31172SOL    HW295834   3.957   2.413   7.846 -0.3182  1.0999 -1.3970
31173SOL     OW95835   6.230   4.339   6.746 -0.0668 -0.1684 -0.2331
31173SOL    HW195836   6.183   4.256   6.740  1.1917 -0.8034 -2.2996
31173SOL    HW295837   6.177   4.401   6.695  0.9808 -0.7722 -2.1694
31174SOL     OW95838   6.737   5.271   0.428 -0.4084  0.2886  0.1580
31174SOL    HW195839   6.699   5.193   0.467 -1.7676  0.0085 -1.5891
31174SOL    HW295840   6.800   5.302   0.493 -0.9616 -1.3548  1.5627
31175SOL     OW95841   0.406   8.784   7.007  0.4379 -0.0972 -0.4143
31175SOL    HW195842   0.361   8.712   6.963  0.4755 -0.1742 -0.3271
31175SOL    HW295843   0.368   8.786   7.095  0.2620  0.1510 -0.4962
31176SOL     OW95844   5.193   1.147   2.581  0.3070  0.3234  0.4617
31176SOL    HW195845   5.181   1.239   2.557  1.7102  0.3472 -0.2753
31176SOL    HW295846   5.105   1.111   2.585 -0.2856  1.7945  1.1403
31177SOL     OW95847   2.350   1.905   9.089  0.8103  0.2547  0.4610
31177SOL    HW195848   2.305   1.822   9.101 -1.9150  1.3708 -0.9420
31177SOL    HW295849   2.386   1.926   9.175 -1.3785 -0.8062  1.7247
31178SOL     OW95850   0.258  10.359   1.604  0.7983 -0.0883 -0.5006
31178SOL    HW195851   0.209  10.370   1.686  0.6150  0.2027 -0.6457
31178SOL    HW295852   0.213  10.288   1.558  0.6224  0.0556 -0.5515
31179SOL     OW95853   3.065   9.109   6.804 -0.2191 -0.5828  0.2825
31179SOL    HW195854   2.980   9.152   6.808  0.4814  0.8217  0.8468
31179SOL    HW295855   3.045   9.015   6.798 -1.8083 -0.1501 -2.3055
31180SOL     OW95856   4.919   6.557   1.080 -0.7988  0.3365  0.5406
31180SOL    HW195857   4.987   6.623   1.096 -0.4987 -0.0663  0.9368
31180SOL    HW295858   4.961   6.473   1.098 -0.6823 -0.1131 -1.5697
31181SOL     OW95859   6.103   4.077   6.814  0.4091 -0.4102  0.1801
31181SOL    HW195860   6.010   4.062   6.795 -0.1213  2.1409  0.3186
31181SOL    HW295861   6.148   4.002   6.776 -1.4796 -0.3465 -2.4515
31182SOL     OW95862  10.250   8.123   1.104 -0.0253 -0.5109 -0.4298
31182SOL    HW195863  10.325   8.077   1.142  0.3946 -1.4072 -2.2368
31182SOL    HW295864  10.289   8.185   1.042 -0.6850  0.9611  0.5627
31183SOL     OW95865   9.435   0.858   4.350  0.0361  0.5440 -0.7706
31183SOL    HW195866   9.415   0.940   4.394 -0.4905  0.1671 -0.3026
31183SOL    HW295867   9.395   0.790   4.404  2.1787 -0.2195 -0.0027
31184SOL     OW95868   4.214   4.342   8.930  0.3368  0.0907 -0.0846
31184SOL    HW195869   4.131   4.358   8.974 -0.6485 -0.2082 -1.7450
31184SOL    HW295870   4.229   4.248   8.941 -0.5129 -0.2151 -1.3247
31185SOL     OW95871   6.440   7.378   1.598  0.6453 -0.5464  0.4808
31185SOL    HW195872   6.368   7.428   1.559  1.3168  0.3259  0.3240
31185SOL    HW295873   6.404   7.291   1.612  0.3090 -0.8438 -1.8741
31186SOL     OW95874   6.815   5.303   6.372  0.1481  0.2353 -0.1531
31186SOL    HW195875   6.804   5.249   6.294 -4.6813  1.1434 -0.3938
31186SOL    HW295876   6.853   5.384   6.339 -1.4945  0.4787 -1.5805
31187SOL     OW95877   6.963   5.734   0.813  0.1603 -0.0398  0.1156
31187SOL    HW195878   6.886   5.684   0.786  0.9256 -1.7748  0.9646
31187SOL    HW295879   6.987   5.697   0.898  0.4856  2.1644  1.0272
31188SOL     OW95880   1.154   6.111   0.378  0.2118  0.0710 -0.1443
31188SOL    HW195881   1.173   6.195   0.336  1.6647 -0.0482  0.2131
31188SOL    HW295882   1.118   6.134   0.463 -1.4472  0.3069 -0.8616
31189SOL     OW95883   5.558   8.694   0.665 -0.0525  0.2053  0.3602
31189SOL    HW195884   5.625   8.703   0.598 -1.1502 -2.6455 -1.3222
31189SOL    HW295885   5.476   8.711   0.619 -0.8559 -2.1311  0.7743
31190SOL     OW95886   9.735   1.120   3.735 -0.0159  0.6630 -0.1224
31190SOL    HW195887   9.682   1.199   3.748  0.9981  1.1362  1.4147
31190SOL    HW295888   9.735   1.077   3.821  1.9301  0.6112 -0.1011
31191SOL     OW95889   9.408   8.308   3.596  0.5306  0.0801 -0.4695
31191SOL    HW195890   9.425   8.402   3.588 -0.5167  0.6432  2.4889
31191SOL    HW295891   9.491   8.271   3.625  0.5301  0.3560 -0.1122
31192SOL     OW95892   2.781   2.384   2.737  0.0723 -0.3898 -0.0857
31192SOL    HW195893   2.704   2.438   2.719  0.7777  0.5565 -0.3508
31192SOL    HW295894   2.815   2.417   2.820 -0.1637 -1.2324  0.3567
31193SOL     OW95895   0.637   3.261   7.461 -0.0898  0.4735 -0.1468
31193SOL    HW195896   0.593   3.334   7.417 -0.3611  0.4938  0.1543
31193SOL    HW295897   0.727   3.292   7.474 -0.3083  0.9136  0.3409
31194SOL     OW95898   3.437   7.968   6.669 -0.1547 -0.2829 -0.1495
31194SOL    HW195899   3.343   7.984   6.674 -0.3345 -1.1382 -0.6304
31194SOL    HW295900   3.457   7.967   6.575  0.4790  0.6451 -0.0430
31195SOL     OW95901   7.915   8.921  10.287 -0.0397 -0.1683 -0.1282
31195SOL    HW195902   7.825   8.932  10.319 -0.7529 -0.9854 -1.7177
31195SOL    HW295903   7.946   9.011  10.272 -0.3935  0.1418  0.9399
31196SOL     OW95904  10.228   6.637   7.422 -0.2988 -0.4675 -0.1393
31196SOL    HW195905  10.290   6.702   7.456 -1.6029  0.7900 -0.0483
31196SOL    HW295906  10.226   6.569   7.488 -0.6567  0.5633  0.9474
31197SOL     OW95907   0.405   1.038   8.780 -0.0765 -0.1864  0.2251
31197SOL    HW195908   0.378   1.063   8.868 -1.4643  2.0655 -0.7261
31197SOL    HW295909   0.337   0.977   8.750 -1.3456  1.3728 -0.2682
31198SOL     OW95910   2.983   3.778   8.607  0.2960  0.5204  0.0505
31198SOL    HW195911   2.913   3.767   8.672  0.1433  2.1064  0.2075
31198SOL    HW295912   3.057   3.729   8.642 -0.6172 -0.9236  0.0476
31199SOL     OW95913   0.272   4.981   5.842  0.0225 -0.1801  0.2250
31199SOL    HW195914   0.217   5.055   5.867  2.0718  1.1640  1.0006
31199SOL    HW295915   0.239   4.907   5.893 -0.7380  0.7048  1.0322
31200SOL     OW95916   0.139   4.155   0.020  0.0878  0.4121  0.2307
31200SOL    HW195917   0.083   4.144  -0.057 -0.7118  1.7877  0.5721
31200SOL    HW295918   0.181   4.240   0.007  2.4910 -0.7635 -0.2157
31201SOL     OW95919   8.287   2.409   2.630 -0.2544  0.6339  0.0369
31201SOL    HW195920   8.330   2.450   2.556 -0.1976 -1.2373 -1.0235
31201SOL    HW295921   8.203   2.455   2.638  0.4467  1.9678 -0.0916
31202SOL     OW95922   4.545   6.399   9.380  0.4245  0.0864  0.0578
31202SOL    HW195923   4.473   6.348   9.344  1.3369 -0.6697 -0.7527
31202SOL    HW295924   4.586   6.341   9.445 -0.4807  0.9992  1.4945
31203SOL     OW95925   2.781   9.526   2.520 -0.1299 -0.1429 -0.0253
31203SOL    HW195926   2.840   9.452   2.507 -1.0317 -0.6138 -1.6298
31203SOL    HW295927   2.771   9.532   2.615  0.5588 -1.6005  0.1593
31204SOL     OW95928   5.239   2.874   2.865  0.0103 -0.0933  0.3303
31204SOL    HW195929   5.173   2.933   2.828  0.8676  0.5036 -0.2811
31204SOL    HW295930   5.296   2.852   2.791  2.0070  1.4449  1.3204
31205SOL     OW95931   7.152   9.940   4.154  0.2247  0.4675  0.4626
31205SOL    HW195932   7.133   9.849   4.179  4.4477 -0.6618  0.2616
31205SOL    HW295933   7.153   9.988   4.237 -0.0916 -0.0739  0.7863
31206SOL     OW95934   3.037   0.407   0.596 -0.1959  0.0766  1.0796
31206SOL    HW195935   2.951   0.417   0.556  0.5361  0.0333 -0.6145
31206SOL    HW295936   3.071   0.496   0.603  1.2908 -0.0513 -2.3296
31207SOL     OW95937   5.809   0.101   4.975 -0.4147  0.2230 -0.2215
31207SOL    HW195938   5.743   0.124   5.041 -0.4470  1.1071 -0.5513
31207SOL    HW295939   5.804   0.005   4.969 -0.9241  0.1909  0.5244
31208SOL     OW95940   6.062   5.521   9.435 -0.0208  0.5799 -0.4103
31208SOL    HW195941   6.116   5.517   9.514 -1.5572  0.4519  0.6944
31208SOL    HW295942   6.038   5.430   9.417 -0.7855  0.7330 -0.2014
31209SOL     OW95943   7.092   8.871   2.962 -0.3780 -0.6739 -0.1206
31209SOL    HW195944   7.058   8.814   2.893 -2.0117  1.1349 -0.9047
31209SOL    HW295945   7.153   8.929   2.918 -1.1292  0.2348 -0.0013
31210SOL     OW95946   9.806  10.114   5.801 -0.8007  0.0325 -0.0425
31210SOL    HW195947   9.839  10.132   5.713 -0.5877 -1.9947 -0.4361
31210SOL    HW295948   9.796  10.200   5.841  0.3219  0.9419 -1.5954
31211SOL     OW95949   3.369   8.690   6.203 -0.5278 -0.3048  0.0085
31211SOL    HW195950   3.397   8.653   6.119  1.0451  0.3022  0.2317
31211SOL    HW295951   3.445   8.681   6.260 -1.1436  0.4636  0.9786
31212SOL     OW95952   6.590   9.618   5.801 -0.2856  0.1123 -0.3415
31212SOL    HW195953   6.644   9.617   5.722  0.7150 -0.6290  0.3256
31212SOL    HW295954   6.507   9.579   5.773 -0.3641  0.9097 -1.2864
31213SOL     OW95955   4.857   9.759   2.465  0.5338 -0.2104  0.6697
31213SOL    HW195956   4.942   9.732   2.499  0.0835 -1.7910  0.5979
31213SOL    HW295957   4.851   9.852   2.487  3.0196  0.4166 -0.8631
31214SOL     OW95958   2.969   9.244   5.512 -0.7163  0.6072  0.2193
31214SOL    HW195959   2.975   9.334   5.480 -0.5538 -0.0314 -1.7195
31214SOL    HW295960   2.917   9.199   5.445 -0.9527 -0.6935  1.2507
31215SOL     OW95961   3.644   5.086   4.684 -0.1075  0.1700 -0.1928
31215SOL    HW195962   3.577   5.097   4.617  0.7182 -0.9045 -1.2467
31215SOL    HW295963   3.599   5.041   4.756 -0.3871 -1.1761 -1.1683
31216SOL     OW95964   2.281   9.686   8.699 -0.3845  0.3622  0.6515
31216SOL    HW195965   2.359   9.636   8.674 -1.9083 -1.0382 -1.7269
31216SOL    HW295966   2.233   9.627   8.757 -0.5533  0.4481  0.5989
31217SOL     OW95967   2.636   8.112   6.282  0.3224  0.3036 -0.3562
31217SOL    HW195968   2.643   8.028   6.238 -1.1406 -1.0355  1.7654
31217SOL    HW295969   2.663   8.095   6.372 -0.2154  2.0558  0.1909
31218SOL     OW95970  10.490   7.436   0.240  0.3271  0.1951  0.3661
31218SOL    HW195971  10.506   7.347   0.270 -0.7275 -0.3292 -0.5596
31218SOL    HW295972  10.398   7.452   0.261  0.2885  0.7656 -0.2067
31219SOL     OW95973   5.953   6.137   2.426  0.3282 -0.5040  0.5248
31219SOL    HW195974   5.973   6.172   2.513  0.9384 -1.5204  0.8156
31219SOL    HW295975   5.913   6.210   2.379  0.0494  0.0817  1.6371
31220SOL     OW95976   7.535   2.114   0.674 -0.6826 -0.3277  0.0981
31220SOL    HW195977   7.570   2.038   0.628  1.0836 -0.1241  1.0158
31220SOL    HW295978   7.466   2.078   0.730  0.3458 -1.3627  0.7758
31221SOL     OW95979   6.532   9.723   8.778  0.2115  0.7099 -0.2275
31221SOL    HW195980   6.504   9.812   8.802 -1.8971  0.5338 -1.7908
31221SOL    HW295981   6.483   9.703   8.699 -1.1679 -2.7246  1.3055
31222SOL     OW95982   5.112   9.510   3.043 -0.2604  0.3762 -0.1171
31222SOL    HW195983   5.024   9.488   3.013 -0.6381  0.9661  0.5415
31222SOL    HW295984   5.169   9.474   2.975 -1.0797  1.4985 -1.4700
31223SOL     OW95985   5.805   2.079   2.100  0.4431  0.3283 -0.6553
31223SOL    HW195986   5.713   2.100   2.088  0.2953  0.6478  0.8084
31223SOL    HW295987   5.847   2.108   2.019 -0.6350  0.8460 -1.0478
31224SOL     OW95988   4.524   4.982   9.429 -0.3261  0.4574  0.5502
31224SOL    HW195989   4.480   5.066   9.443  0.7111  0.8919  1.3517
31224SOL    HW295990   4.479   4.944   9.354 -1.4689  1.2760  0.7833
31225SOL     OW95991   6.182   1.269   4.854 -0.5248  0.0099 -0.3641
31225SOL    HW195992   6.243   1.340   4.872  1.7221 -1.4504 -1.6691
31225SOL    HW295993   6.157   1.280   4.762 -0.5294 -0.5875 -0.4418
31226SOL     OW95994   5.127   6.342   2.236 -0.2838  0.0984  0.3265
31226SOL    HW195995   5.144   6.278   2.166  1.0632  1.4006 -0.5799
31226SOL    HW295996   5.151   6.296   2.317 -0.2785 -0.8637 -0.2070
31227SOL     OW95997   7.560   9.185   7.522 -0.0750 -0.0367 -0.1485
31227SOL    HW195998   7.612   9.134   7.584  0.7709  1.5217  0.4823
31227SOL    HW295999   7.624   9.216   7.458 -0.8021 -0.8852 -1.3238
31228SOL     OW96000   3.515  10.086   9.014 -0.5478  0.3041 -0.2407
31228SOL    HW196001   3.525  10.180   9.024 -3.1973  0.9613 -2.4529
31228SOL    HW296002   3.434  10.065   9.060  0.4687 -1.1104  0.9874
31229SOL     OW96003   6.845   9.304   1.773 -0.2918  0.4999 -0.9825
31229SOL    HW196004   6.788   9.367   1.816 -2.0687 -1.4354 -0.3579
31229SOL    HW296005   6.868   9.344   1.689 -0.5999  2.3221 -0.2299
31230SOL     OW96006   7.572   5.656   9.119  0.2053  0.0557 -0.2824
31230SOL    HW196007   7.496   5.613   9.079  0.3683  1.4511 -2.2068
31230SOL    HW296008   7.543   5.677   9.208 -1.5127  0.1611 -0.8198
31231SOL     OW96009   3.792   0.933   8.444 -0.0204 -0.1763  0.3117
31231SOL    HW196010   3.875   0.898   8.477 -1.0216 -1.2118  1.8632
31231SOL    HW296011   3.818   1.007   8.390  1.9393 -0.6923  0.4429
31232SOL     OW96012   0.999   1.263   8.834 -0.0509  0.9885 -0.3806
31232SOL    HW196013   0.985   1.237   8.925 -0.1835  0.2340 -0.6132
31232SOL    HW296014   0.918   1.308   8.809 -0.4637  0.2123 -0.4662
31233SOL     OW96015   8.871   2.998   3.159 -0.2841 -0.1576 -0.0350
31233SOL    HW196016   8.862   3.006   3.254 -2.2918 -2.0311  0.0090
31233SOL    HW296017   8.910   2.912   3.145 -1.7987 -0.7454 -0.8971
31234SOL     OW96018  10.590   3.845   4.699  0.0093  0.7102  0.6630
31234SOL    HW196019  10.560   3.764   4.659 -0.6469  1.6514 -0.8375
31234SOL    HW296020  10.542   3.851   4.782  1.9967 -1.6823  2.1425
31235SOL     OW96021   5.582   5.532   6.868 -0.2120 -0.0937  0.1648
31235SOL    HW196022   5.503   5.568   6.828 -0.3950 -0.5113  0.1559
31235SOL    HW296023   5.634   5.501   6.794 -0.4672 -0.6950  0.2371
31236SOL     OW96024   4.497   9.736   5.008  0.0091 -0.0044 -0.3711
31236SOL    HW196025   4.476   9.651   4.968  0.0955 -0.3419  0.2912
31236SOL    HW296026   4.579   9.762   4.966 -1.0937  0.7888 -2.1563
31237SOL     OW96027   5.616   8.147   2.098 -0.2161 -0.0226 -0.1041
31237SOL    HW196028   5.595   8.231   2.057  1.6003  0.4545 -0.1345
31237SOL    HW296029   5.560   8.084   2.052 -1.7756  1.1561  0.0614
31238SOL     OW96030   5.811   7.125   0.951  0.0568  0.3469 -0.0215
31238SOL    HW196031   5.805   7.202   0.895 -1.6935  1.7550  1.9443
31238SOL    HW296032   5.862   7.062   0.900 -1.2113  1.5907 -3.0665
31239SOL     OW96033   1.111   4.464   4.980  0.0077  0.1909 -0.2730
31239SOL    HW196034   1.173   4.461   5.053  0.0109 -0.2661 -0.2924
31239SOL    HW296035   1.063   4.381   4.986 -1.2410  0.9152  0.2944
31240SOL     OW96036  10.208   9.792   9.291 -0.0186  0.3591 -0.3951
31240SOL    HW196037  10.208   9.845   9.211  0.1337  0.3148 -0.4250
31240SOL    HW296038  10.144   9.723   9.274 -1.7129  1.6797  0.4167
31241SOL     OW96039   5.937  10.315   6.551 -0.5415  0.1370  0.1965
31241SOL    HW196040   5.980  10.230   6.540 -1.8898 -0.5430  0.0386
31241SOL    HW296041   6.003  10.369   6.595  1.1191 -0.2974 -1.6139
31242SOL     OW96042   7.253   8.406   4.515 -0.1572 -0.0237 -0.0462
31242SOL    HW196043   7.161   8.380   4.523 -0.1037 -0.3039 -0.2923
31242SOL    HW296044   7.293   8.378   4.598 -0.8799  2.7377  1.3510
31243SOL     OW96045   2.185   3.700   2.057 -0.1840  0.2998  0.1429
31243SOL    HW196046   2.261   3.672   2.007  0.9666 -0.9318  2.4279
31243SOL    HW296047   2.156   3.781   2.014  1.3988 -0.0674 -1.7435
31244SOL     OW96048   6.982   1.502   8.467  0.4830  0.0811 -0.3155
31244SOL    HW196049   7.039   1.578   8.458  0.1883  0.1511 -1.8564
31244SOL    HW296050   6.914   1.514   8.400 -1.6757  0.2559  1.7556
31245SOL     OW96051   9.789   4.274   9.026  0.5781  0.0496  0.5165
31245SOL    HW196052   9.826   4.217   8.958  1.2532  0.9176  0.1278
31245SOL    HW296053   9.750   4.347   8.977 -0.6674 -0.2899  0.9861
31246SOL     OW96054   6.364   1.511   2.063  0.1197 -0.6775 -0.6290
31246SOL    HW196055   6.357   1.586   2.004 -2.5774 -1.2518 -1.1467
31246SOL    HW296056   6.441   1.463   2.032  0.6056  0.7029 -1.6622
31247SOL     OW96057   4.687   8.714  10.471  0.1707  0.2502 -0.2938
31247SOL    HW196058   4.747   8.779  10.436 -0.5467  0.5226 -1.0590
31247SOL    HW296059   4.667   8.657  10.396 -0.6652  0.2835 -0.1127
31248SOL     OW96060   5.904   2.306   2.919 -0.6229 -0.0731  0.0191
31248SOL    HW196061   6.000   2.310   2.912 -0.7624  0.7010 -2.9434
31248SOL    HW296062   5.879   2.238   2.856 -2.0272 -1.1710  1.6721
31249SOL     OW96063   9.452   7.979   5.352  0.2333  0.3340 -0.1548
31249SOL    HW196064   9.397   7.978   5.273 -0.1651  1.6334  0.0891
31249SOL    HW296065   9.542   7.970   5.318 -0.0500 -1.1114 -0.5996
31250SOL     OW96066   1.273   3.023   8.032  0.0225  0.5227  0.1655
31250SOL    HW196067   1.323   3.102   8.047 -0.7643  0.5247  3.6806
31250SOL    HW296068   1.214   3.017   8.107 -0.5682 -2.9409 -0.3935
31251SOL     OW96069   7.017   8.199   0.777 -0.0183  0.2341 -0.5509
31251SOL    HW196070   7.050   8.110   0.778 -1.6327 -0.4512 -1.7701
31251SOL    HW296071   7.074   8.246   0.716  0.8365  0.0495  0.1002
31252SOL     OW96072   9.003   1.176  10.128  0.3420 -0.0689 -0.0633
31252SOL    HW196073   8.934   1.242  10.135 -0.0600 -0.3632 -1.1370
31252SOL    HW296074   8.985   1.115  10.200 -0.3222  0.0386 -0.1356
31253SOL     OW96075   6.371   1.905   1.641  0.1042  0.1130 -0.1184
31253SOL    HW196076   6.369   1.959   1.562 -1.7761  2.1146  1.1854
31253SOL    HW296077   6.401   1.819   1.610 -3.4474 -0.1884 -3.6453
31254SOL     OW96078   8.707   9.419   2.141  0.7981 -0.1512  0.2476
31254SOL    HW196079   8.674   9.353   2.202  0.0148 -0.5426 -0.5657
31254SOL    HW296080   8.640   9.488   2.142  0.4513 -0.4567 -0.6170
31255SOL     OW96081   8.127   7.000   3.502 -0.0718 -0.0327 -0.2019
31255SOL    HW196082   8.175   7.074   3.539 -0.2327  2.0103 -3.6628
31255SOL    HW296083   8.183   6.924   3.518  2.4556  1.6249 -0.6800
31256SOL     OW96084   9.067   7.891   3.599 -0.3949  0.3556  0.0391
31256SOL    HW196085   9.082   7.985   3.607  0.3924  0.2145  0.2475
31256SOL    HW296086   9.155   7.852   3.595 -0.6560 -0.5492  1.9354
31257SOL     OW96087   9.276   2.835   4.837  0.3774 -0.1124  0.4909
31257SOL    HW196088   9.253   2.804   4.924 -1.6920  0.4796  0.2136
31257SOL    HW296089   9.238   2.770   4.777  2.4716 -0.9639 -0.0287
31258SOL     OW96090   8.270   3.573   5.629 -0.0347  0.2027 -0.5689
31258SOL    HW196091   8.190   3.529   5.658  0.3560 -1.9244 -2.4308
31258SOL    HW296092   8.242   3.628   5.556  0.2368 -1.0373 -1.6453
31259SOL     OW96093   3.780   3.546   5.693  0.5047  0.3896  0.5771
31259SOL    HW196094   3.800   3.639   5.702 -0.2418  1.0257 -2.7328
31259SOL    HW296095   3.865   3.503   5.685  0.8485  1.3248 -1.2786
31260SOL     OW96096   8.515   2.121   2.130 -0.4456  0.1953 -0.1330
31260SOL    HW196097   8.419   2.121   2.125 -0.4634 -0.8425 -0.1111
31260SOL    HW296098   8.543   2.110   2.039 -0.3279  0.8486 -0.1829
31261SOL     OW96099   9.671   9.166   8.824  0.8044 -0.1676 -0.4977
31261SOL    HW196100   9.593   9.112   8.833  1.1101 -0.5879 -0.3215
31261SOL    HW296101   9.642   9.255   8.843  0.8295 -0.6063  1.8387
31262SOL     OW96102   7.676   9.270   8.412 -0.5611  0.5079 -0.2615
31262SOL    HW196103   7.749   9.261   8.473 -0.0016  2.2676 -0.5944
31262SOL    HW296104   7.682   9.193   8.355  1.1584  0.6849 -0.3729
31263SOL     OW96105   6.299   6.827   5.104  0.2362 -0.5242  0.2511
31263SOL    HW196106   6.301   6.781   5.188 -1.4084 -0.6028  0.2774
31263SOL    HW296107   6.254   6.910   5.123  2.5107  0.8471  0.0544
31264SOL     OW96108   3.255   9.500   7.878  0.0313 -0.4437  0.2894
31264SOL    HW196109   3.316   9.427   7.879  0.9435  0.2314 -1.8304
31264SOL    HW296110   3.260   9.536   7.967  2.0721 -0.9406  0.4291
31265SOL     OW96111   3.381   1.821  10.587  0.2843 -0.6715 -0.0598
31265SOL    HW196112   3.411   1.812  10.677 -0.1838  3.6335  0.7143
31265SOL    HW296113   3.418   1.904  10.557  0.8245 -2.1563 -4.0898
31266SOL     OW96114   2.100   1.854   5.061 -0.0752 -0.1984 -0.0864
31266SOL    HW196115   2.164   1.826   5.127 -0.5104  0.9701  0.8748
31266SOL    HW296116   2.039   1.910   5.109 -1.2603 -0.4922 -1.1927
31267SOL     OW96117   5.139   6.611   4.473  0.2082  0.0520 -0.2737
31267SOL    HW196118   5.094   6.533   4.507 -0.8704  1.1088  0.8091
31267SOL    HW296119   5.076   6.652   4.414  0.3260  0.7121  0.0476
31268SOL     OW96120   0.524   3.721   5.483 -0.4197 -0.4396 -0.5626
31268SOL    HW196121   0.428   3.728   5.490 -0.4577 -1.7813  0.8192
31268SOL    HW296122   0.557   3.789   5.541 -0.5347  0.1715 -1.2138
31269SOL     OW96123   4.181   3.976   4.520  0.6845  0.0065  0.7707
31269SOL    HW196124   4.163   3.888   4.552  0.2566 -0.2075 -0.0328
31269SOL    HW296125   4.210   3.964   4.430 -2.8062  0.8414 -0.6415
31270SOL     OW96126   5.501   1.671   4.275 -0.2210  0.1378  0.6618
31270SOL    HW196127   5.560   1.739   4.308 -0.8933  0.2319  1.7046
31270SOL    HW296128   5.515   1.597   4.334 -0.7126 -0.0450  0.5506
31271SOL     OW96129   8.388   3.410   7.578  0.1342 -0.1643  0.4122
31271SOL    HW196130   8.343   3.358   7.645  0.2061 -0.2583  0.3881
31271SOL    HW296131   8.397   3.350   7.504  0.8461 -0.3425  0.6317
31272SOL     OW96132  10.443   1.813  10.505  0.4324  0.1396  0.2933
31272SOL    HW196133  10.528   1.769  10.504  0.4555  0.1725  0.6177
31272SOL    HW296134  10.381   1.746  10.476  0.7468  0.5120 -1.2929
31273SOL     OW96135   5.053   9.405  10.549  0.3781 -0.3768  0.4037
31273SOL    HW196136   5.143   9.372  10.541  0.4144 -0.1893  0.0375
31273SOL    HW296137   5.062   9.488  10.595  0.3590 -0.5007  0.6371
31274SOL     OW96138   2.439   1.999   6.863 -0.5198 -0.0948  0.1061
31274SOL    HW196139   2.371   1.932   6.874 -0.3077 -0.4602 -0.7518
31274SOL    HW296140   2.396   2.081   6.888 -0.3369 -0.7064  2.7708
31275SOL     OW96141   3.455   4.985   6.827  0.3963 -0.9405  0.3491
31275SOL    HW196142   3.397   4.912   6.847 -0.3893 -0.1680  0.9421
31275SOL    HW296143   3.500   5.004   6.909  0.6604 -0.8068  0.1775
31276SOL     OW96144   8.102   9.193   4.703 -0.1089  0.2850 -0.0614
31276SOL    HW196145   8.034   9.157   4.760 -0.2230 -0.2587 -0.5343
31276SOL    HW296146   8.184   9.158   4.739 -0.1905 -0.1598 -0.3015
31277SOL     OW96147   9.889   6.379  10.416 -0.3621  0.3039 -0.4248
31277SOL    HW196148   9.845   6.415  10.493  0.7386 -0.9623  0.8500
31277SOL    HW296149   9.972   6.427  10.412 -0.3331  0.2311 -0.7250
31278SOL     OW96150   3.122   5.917   8.742 -0.1287  0.5193  0.3053
31278SOL    HW196151   3.147   5.825   8.744  1.0131  0.8193  0.6055
31278SOL    HW296152   3.077   5.928   8.658 -1.0480 -0.4837  0.6457
31279SOL     OW96153   7.924   7.421   3.915  0.0219 -0.5218  0.1610
31279SOL    HW196154   7.896   7.417   4.007 -0.2789  1.5447  0.1938
31279SOL    HW296155   7.843   7.410   3.865 -0.1683  0.5801  0.1984
31280SOL     OW96156   7.466   9.149   7.073 -0.0256 -0.5167  0.0998
31280SOL    HW196157   7.505   9.230   7.106 -0.1981 -0.2431 -0.3574
31280SOL    HW296158   7.541   9.095   7.049  0.0849 -0.2114 -0.2578
31281SOL     OW96159   5.579   9.091   6.687  1.1131  0.2085 -0.0698
31281SOL    HW196160   5.614   9.022   6.630  0.5053 -0.7435  0.6854
31281SOL    HW296161   5.576   9.052   6.774  2.0929  1.6664  0.6708
31282SOL     OW96162   8.381   0.663   6.077  0.1731  0.0054  0.0871
31282SOL    HW196163   8.315   0.726   6.104 -1.0647 -0.7029 -1.1891
31282SOL    HW296164   8.406   0.618   6.158 -1.5675 -0.3240  0.4696
31283SOL     OW96165   9.767   3.515   2.050 -0.0025 -0.2650  0.4571
31283SOL    HW196166   9.767   3.603   2.088  3.0138 -0.0950  0.2421
31283SOL    HW296167   9.760   3.530   1.955  1.1481 -0.1769  0.3710
31284SOL     OW96168   3.163   5.343   1.114  0.2354 -0.2071 -0.4282
31284SOL    HW196169   3.104   5.290   1.061  0.9969 -1.8045  0.2495
31284SOL    HW296170   3.152   5.310   1.203 -1.6420  2.9587  0.7053
31285SOL     OW96171   9.869   5.831   1.357  0.3276  0.7207  0.1903
31285SOL    HW196172   9.774   5.820   1.361  0.6234 -2.4309  0.8778
31285SOL    HW296173   9.893   5.864   1.444 -0.0832  1.3195  0.0846
31286SOL     OW96174   0.043  10.230   8.386  0.2323  0.0490  0.5785
31286SOL    HW196175  -0.017  10.232   8.312  0.0993  2.8378  0.6675
31286SOL    HW296176   0.093  10.149   8.374 -1.5139 -0.8659 -1.0996
31287SOL     OW96177   3.310   8.832   8.260 -0.2262  0.0743  0.1995
31287SOL    HW196178   3.405   8.830   8.256 -0.2552 -0.7852 -0.2316
31287SOL    HW296179   3.285   8.902   8.200  0.0722 -0.9196 -1.1129
31288SOL     OW96180   0.991   9.458   2.235 -0.0398  0.6818 -0.2669
31288SOL    HW196181   1.066   9.494   2.283  2.1654 -2.5653 -0.9590
31288SOL    HW296182   0.940   9.413   2.302  1.2270 -1.0321 -0.4034
31289SOL     OW96183   0.194   0.249   7.048 -0.0575 -0.2612  0.0981
31289SOL    HW196184   0.224   0.212   7.131 -0.8985 -2.8499 -0.6764
31289SOL    HW296185   0.150   0.330   7.072  2.6328  0.8399  1.7930
31290SOL     OW96186   9.609  10.062   9.279  0.1519 -0.0701 -0.5202
31290SOL    HW196187   9.686  10.022   9.239  1.1725  0.8256  0.4856
31290SOL    HW296188   9.552  10.084   9.205  0.6420 -1.1407 -1.2506
31291SOL     OW96189   6.518   3.433   5.846 -0.0482  0.4664  0.8443
31291SOL    HW196190   6.468   3.476   5.776  2.7054  1.0543 -0.9032
31291SOL    HW296191   6.593   3.395   5.801 -0.3652 -2.9980  2.8997
31292SOL     OW96192   1.398   6.412   8.122 -0.5325  0.4905  0.7028
31292SOL    HW196193   1.431   6.494   8.087 -0.3860  0.5733  1.0287
31292SOL    HW296194   1.417   6.347   8.054  1.6366  0.2529  1.4457
31293SOL     OW96195   8.166   5.863   8.895 -0.3240 -0.3319 -0.3711
31293SOL    HW196196   8.169   5.911   8.813 -3.1195 -0.0355 -0.3693
31293SOL    HW296197   8.089   5.896   8.941 -1.2525 -3.3852  0.5248
31294SOL     OW96198   1.782   4.193   7.605  0.3764 -0.3594 -0.0495
31294SOL    HW196199   1.789   4.276   7.652 -0.8527 -0.0924 -0.2809
31294SOL    HW296200   1.690   4.168   7.616  0.6145 -1.4379 -0.4098
31295SOL     OW96201   2.568   3.717   5.072  0.4438 -0.4017 -0.1457
31295SOL    HW196202   2.624   3.718   4.994  0.4019 -3.5130 -0.3710
31295SOL    HW296203   2.622   3.676   5.140 -0.5756 -0.7737  0.4672
31296SOL     OW96204   1.659   0.529   6.065  0.0394 -0.0147  0.3345
31296SOL    HW196205   1.609   0.537   6.146 -0.6525  0.7293 -0.1456
31296SOL    HW296206   1.595   0.549   5.996  1.0336  1.1521 -0.2838
31297SOL     OW96207   6.360   5.384   2.686  0.8412  0.2657 -0.2717
31297SOL    HW196208   6.322   5.464   2.651 -0.9717 -0.3134  0.2602
31297SOL    HW296209   6.425   5.357   2.621 -1.4665 -0.0740 -2.5962
31298SOL     OW96210   2.307   6.447   1.435 -0.2414 -0.2038 -0.0215
31298SOL    HW196211   2.225   6.434   1.483  0.4873 -0.2280  1.2633
31298SOL    HW296212   2.366   6.379   1.468  0.7818  0.7706  0.2384
31299SOL     OW96213   5.919   4.363   5.355 -0.0914 -0.2697  0.1656
31299SOL    HW196214   6.012   4.362   5.333  0.1035  1.4410  0.8252
31299SOL    HW296215   5.901   4.453   5.380 -2.4590  0.0480 -2.1990
31300SOL     OW96216   2.442   4.037   6.853 -0.2913 -0.3770  0.2171
31300SOL    HW196217   2.416   3.990   6.932  0.5850 -1.0859  0.0976
31300SOL    HW296218   2.421   4.128   6.872 -1.4021 -0.7102  0.7119
31301SOL     OW96219   9.043   4.381  10.549 -0.3561 -0.5028  0.1881
31301SOL    HW196220   8.976   4.436  10.507 -1.1092 -1.3950  0.2017
31301SOL    HW296221   9.017   4.378  10.641 -1.6131 -2.6699 -0.1792
31302SOL     OW96222   8.738   8.359   4.240 -0.2663 -0.4238 -0.5240
31302SOL    HW196223   8.648   8.372   4.208 -0.5642  0.7124  0.6709
31302SOL    HW296224   8.793   8.380   4.165 -0.9168  2.7869 -0.2385
31303SOL     OW96225   9.111  10.465   5.452  0.0155 -0.9572  0.0253
31303SOL    HW196226   9.027  10.510   5.464 -0.0087 -0.3245 -2.1014
31303SOL    HW296227   9.173  10.515   5.506 -0.6284 -0.2962  0.1728
31304SOL     OW96228   9.562   1.459   8.415  0.0173  0.1778 -0.2876
31304SOL    HW196229   9.566   1.515   8.492 -1.5368  0.5815 -0.4529
31304SOL    HW296230   9.523   1.377   8.446  0.4155 -0.0677 -0.4326
31305SOL     OW96231   5.139   2.106   6.194 -0.0082  0.2481 -0.4929
31305SOL    HW196232   5.049   2.098   6.162 -0.3600  1.0697  0.2402
31305SOL    HW296233   5.136   2.066   6.281  0.5678 -0.5651 -0.8366
31306SOL     OW96234   3.986   1.159   7.545 -0.2865 -0.5414 -0.9704
31306SOL    HW196235   3.962   1.128   7.632  0.6256  0.0520 -0.4872
31306SOL    HW296236   4.081   1.168   7.548 -0.2381 -0.5143 -2.0372
31307SOL     OW96237  10.375   3.470  10.561 -0.0391 -0.0215 -0.2327
31307SOL    HW196238  10.398   3.551  10.605  0.7064 -0.3797  0.0490
31307SOL    HW296239  10.372   3.404  10.631 -0.5565 -0.2596 -0.4668
31308SOL     OW96240   8.683   1.221   3.680 -0.0139 -0.1517 -0.0475
31308SOL    HW196241   8.757   1.220   3.740 -0.7599 -1.9065  0.9073
31308SOL    HW296242   8.704   1.154   3.615 -0.5450 -0.3291 -0.0429
31309SOL     OW96243   1.874   2.279   5.171  0.1561 -0.2646 -0.0072
31309SOL    HW196244   1.791   2.318   5.197 -0.4991 -2.2207  1.0974
31309SOL    HW296245   1.882   2.298   5.078 -1.9458 -0.7113 -0.3199
31310SOL     OW96246   7.247   3.086   8.816  0.3296  0.0082 -0.0533
31310SOL    HW196247   7.297   3.033   8.878  0.7813  1.1713  0.5955
31310SOL    HW296248   7.313   3.126   8.760  0.0918  0.9162  0.2998
31311SOL     OW96249   0.642   2.588   8.175  0.5130  0.5281 -0.2319
31311SOL    HW196250   0.564   2.533   8.178  0.6155  0.4006  0.2891
31311SOL    HW296251   0.608   2.677   8.161  0.1880  0.6133  0.9502
31312SOL     OW96252   8.896   8.580  10.133 -1.0581  0.1471  0.3437
31312SOL    HW196253   8.926   8.648  10.073  1.3547 -1.8411 -0.9211
31312SOL    HW296254   8.922   8.498  10.090 -3.7344 -1.6280  1.7971
31313SOL     OW96255   2.646   3.638  10.340  0.1964  0.9543 -0.4810
31313SOL    HW196256   2.720   3.675  10.388 -1.3645  0.5014  2.5277
31313SOL    HW296257   2.640   3.548  10.370  0.1004  0.1000 -2.8633
31314SOL     OW96258   3.216   2.753   0.480 -0.1424 -0.1791 -0.1811
31314SOL    HW196259   3.272   2.750   0.403  1.0898  0.2932  0.6698
31314SOL    HW296260   3.275   2.771   0.553 -1.3058 -0.3675  0.8543
31315SOL     OW96261   0.877   7.470   2.828 -0.1579  0.1739 -0.1295
31315SOL    HW196262   0.880   7.543   2.766  0.1696 -0.1521 -0.5014
31315SOL    HW296263   0.784   7.458   2.847 -0.1553  1.4050  0.7997
31316SOL     OW96264   5.992   8.376   3.979  0.7869  0.3318  0.2595
31316SOL    HW196265   5.985   8.308   4.046  0.9358 -0.0007 -0.0569
31316SOL    HW296266   5.921   8.357   3.918  2.0039 -0.7382 -0.8876
31317SOL     OW96267  10.086   0.176   7.903 -0.2529  0.2760  0.1942
31317SOL    HW196268  10.176   0.204   7.915 -0.0184 -0.6584  0.7653
31317SOL    HW296269  10.092   0.082   7.888 -1.1945 -0.0261  1.4906
31318SOL     OW96270   3.749   0.547   7.815 -0.7843 -0.3344  0.1972
31318SOL    HW196271   3.835   0.536   7.854 -1.1469 -0.8596  0.8664
31318SOL    HW296272   3.761   0.615   7.749 -0.0484  0.1772  0.8496
31319SOL     OW96273   4.249   1.086   4.303  0.0436  0.5574  0.1438
31319SOL    HW196274   4.226   1.052   4.390  0.0407 -0.6301 -0.3051
31319SOL    HW296275   4.243   1.181   4.313 -1.4582  0.4057  1.0404
31320SOL     OW96276   3.931   8.867   1.234  0.0862 -0.4020  0.3314
31320SOL    HW196277   3.890   8.947   1.200 -0.2081 -0.8565 -0.4144
31320SOL    HW296278   3.869   8.798   1.211  1.7662 -1.2733 -1.8083
31321SOL     OW96279   3.701   0.342   9.627  0.1672  0.0433  0.7610
31321SOL    HW196280   3.650   0.272   9.666 -0.6363  0.7347  0.9748
31321SOL    HW296281   3.762   0.369   9.696  1.7515 -1.6273  0.1062
31322SOL     OW96282   0.014   5.956   0.148 -0.6021 -0.1094 -0.9094
31322SOL    HW196283   0.025   6.038   0.100  0.6303 -0.4089 -1.1918
31322SOL    HW296284  -0.069   5.921   0.116 -1.1665  1.0403 -0.7446
31323SOL     OW96285   7.952   9.367   5.980  0.3146 -0.3506 -0.0909
31323SOL    HW196286   7.912   9.319   5.907  0.9067 -2.4408  0.8673
31323SOL    HW296287   7.881   9.416   6.019 -0.3740 -0.5834 -1.0245
31324SOL     OW96288   1.930   5.373  10.071  0.4582 -0.2490 -0.6932
31324SOL    HW196289   1.992   5.437  10.105 -0.3700  1.2738 -1.9214
31324SOL    HW296290   1.967   5.288  10.095  2.6038  0.6267 -0.7081
31325SOL     OW96291   3.085   7.971   5.669  0.0113  0.8499  0.1542
31325SOL    HW196292   2.995   7.948   5.691  0.2617  1.4283  1.9480
31325SOL    HW296293   3.079   8.060   5.633 -0.4106 -0.1368 -2.4694
31326SOL     OW96294   0.627   4.801   1.891 -0.2912 -0.1089 -0.2686
31326SOL    HW196295   0.622   4.743   1.815 -0.9512  0.5413 -0.7365
31326SOL    HW296296   0.538   4.835   1.901 -0.1251  0.1168  0.5678
31327SOL     OW96297   3.753   6.957   0.511 -0.2717 -0.3107  0.5599
31327SOL    HW196298   3.684   6.974   0.446 -1.9568 -0.5047  2.1964
31327SOL    HW296299   3.761   6.862   0.513  0.2923 -0.2730  0.1352
31328SOL     OW96300  10.571   6.224   4.984 -0.0711 -0.1559  0.0738
31328SOL    HW196301  10.665   6.246   4.986 -0.4344  1.5138  0.8597
31328SOL    HW296302  10.533   6.288   4.924 -1.1866  1.5159  2.4091
31329SOL     OW96303   1.270   2.452   3.935 -0.1816 -0.3211  0.0015
31329SOL    HW196304   1.276   2.545   3.914  0.5192 -0.7559 -1.9230
31329SOL    HW296305   1.210   2.448   4.010 -1.0513  1.5808 -0.5365
31330SOL     OW96306   1.629   4.659   8.961 -0.0911  0.2809  0.4254
31330SOL    HW196307   1.693   4.663   9.032 -1.1311  0.4238  1.3830
31330SOL    HW296308   1.664   4.718   8.894  1.5974 -0.9048  0.2016
31331SOL     OW96309   7.615   8.104   3.719 -0.2281 -0.0286  0.8361
31331SOL    HW196310   7.608   8.186   3.769  1.7604 -0.7030  2.3273
31331SOL    HW296311   7.669   8.047   3.774 -1.7935 -2.4786 -0.0262
31332SOL     OW96312   7.577   3.195   8.339 -0.1748  0.0913  0.1089
31332SOL    HW196313   7.488   3.203   8.304 -1.0333  1.9479  2.4206
31332SOL    HW296314   7.564   3.162   8.428  1.5273 -0.0975  0.3155
31333SOL     OW96315   9.645   3.758   6.209  0.1481  0.6482  0.2144
31333SOL    HW196316   9.648   3.741   6.115 -0.0446  0.3413  0.2621
31333SOL    HW296317   9.554   3.785   6.226  0.1863  0.7193  0.3087
31334SOL     OW96318   6.168   1.613   2.455  0.0773 -0.0266 -0.4325
31334SOL    HW196319   6.161   1.662   2.373 -0.4778  0.2981 -0.1942
31334SOL    HW296320   6.212   1.532   2.430 -0.1566  0.0330 -1.0678
31335SOL     OW96321  10.145   3.024   8.178  0.0999  0.4611  0.0720
31335SOL    HW196322  10.126   2.934   8.207 -0.3828  0.2370 -0.8777
31335SOL    HW296323  10.199   3.013   8.100 -1.7087  0.8918 -1.3196
31336SOL     OW96324   9.918   4.133   8.806  0.2051  0.5652  0.1200
31336SOL    HW196325   9.995   4.185   8.782  1.6014 -1.9870 -1.5109
31336SOL    HW296326   9.954   4.047   8.827 -2.0093  0.0215  2.0904
31337SOL     OW96327   3.365   5.445   8.786 -0.2520  0.0648 -0.6962
31337SOL    HW196328   3.307   5.510   8.746 -1.0229 -0.1943 -0.0307
31337SOL    HW296329   3.307   5.392   8.841  0.7457  0.3410  0.6796
31338SOL     OW96330   5.497   3.746   4.819  0.3064 -0.2065 -0.0625
31338SOL    HW196331   5.517   3.823   4.765 -0.3010 -0.3647 -0.5254
31338SOL    HW296332   5.555   3.678   4.785  0.5428 -0.0690  0.0631
31339SOL     OW96333   1.514   0.377  10.353  0.5549 -0.6808 -0.0600
31339SOL    HW196334   1.479   0.359  10.441 -2.8183 -0.8907 -1.3059
31339SOL    HW296335   1.554   0.295  10.326  1.2829 -0.7311  1.1083
31340SOL     OW96336   5.568   8.656   2.938  0.6320  0.4973 -0.2301
31340SOL    HW196337   5.597   8.702   2.859  1.1620 -1.6383 -1.3571
31340SOL    HW296338   5.596   8.712   3.010  1.1205  1.9818 -1.5112
31341SOL     OW96339   9.700   8.061   6.862 -0.1749  0.2360 -0.7036
31341SOL    HW196340   9.691   8.157   6.862 -0.7042  0.1963 -1.6860
31341SOL    HW296341   9.716   8.039   6.954 -4.7014  0.8453  0.4950
31342SOL     OW96342   1.525   8.420  10.156 -0.2059 -0.0160  0.3487
31342SOL    HW196343   1.547   8.427  10.064  0.1098  0.8996  0.4867
31342SOL    HW296344   1.431   8.401  10.157  0.1282 -1.9138 -0.1854
31343SOL     OW96345   1.061   7.317   8.798 -0.7394 -0.3004  0.5427
31343SOL    HW196346   1.113   7.369   8.737  0.3095 -0.7873  0.9950
31343SOL    HW296347   1.108   7.234   8.805 -0.7807 -0.2355  2.0578
31344SOL     OW96348   7.707   4.906   9.291 -0.2947 -0.4569  0.1460
31344SOL    HW196349   7.725   4.997   9.265  1.0878 -0.4230  1.1031
31344SOL    HW296350   7.639   4.914   9.358 -0.1108 -0.1018  0.2989
31345SOL     OW96351   2.023   3.899   8.455  0.2343 -0.2616  0.1921
31345SOL    HW196352   2.111   3.896   8.420  0.3465  0.2489  0.4201
31345SOL    HW296353   1.968   3.860   8.387  0.3534  1.2763 -0.8283
31346SOL     OW96354   6.248   4.393   0.423  0.1887 -0.4853  0.4038
31346SOL    HW196355   6.307   4.468   0.413 -0.7581  0.5363  2.1058
31346SOL    HW296356   6.284   4.327   0.363  1.2064  1.2006 -0.9441
31347SOL     OW96357   1.648   1.556   2.407  0.1785 -0.2094 -0.0465
31347SOL    HW196358   1.723   1.504   2.379  0.6899  0.4038  0.1356
31347SOL    HW296359   1.619   1.515   2.489 -0.7518 -1.4557 -0.9638
31348SOL     OW96360   9.066   9.260   7.246  0.1106 -0.0085  0.1891
31348SOL    HW196361   9.036   9.199   7.178 -0.8633  1.1134 -0.4419
31348SOL    HW296362   8.987   9.278   7.298  0.3406  0.8204  0.2622
31349SOL     OW96363   6.579   7.653   7.712  0.3113  0.4166 -0.1420
31349SOL    HW196364   6.528   7.651   7.631 -0.5557  2.7806  0.2664
31349SOL    HW296365   6.664   7.615   7.688 -0.9511 -1.8696 -1.3027
31350SOL     OW96366   3.351   8.226   3.857  0.0443 -0.2750  0.3465
31350SOL    HW196367   3.380   8.258   3.942  0.7595  1.4869 -0.5069
31350SOL    HW296368   3.343   8.304   3.803  1.0889 -1.4411 -1.6488
31351SOL     OW96369   5.475   6.152   4.418  0.8812  0.6114 -1.1668
31351SOL    HW196370   5.441   6.204   4.345 -1.2599 -1.5088 -1.7964
31351SOL    HW296371   5.534   6.089   4.376  1.7145  1.0761 -0.7030
31352SOL     OW96372   6.587   0.747   0.610 -0.0662 -0.0068  0.4164
31352SOL    HW196373   6.586   0.680   0.679 -0.4999 -0.4793 -0.0428
31352SOL    HW296374   6.671   0.732   0.565 -0.4847 -0.7307 -0.1473
31353SOL     OW96375   1.952   2.888   3.132  0.6672  0.0478 -0.8298
31353SOL    HW196376   1.944   2.862   3.224 -2.1832 -1.0214 -1.2872
31353SOL    HW296377   1.998   2.814   3.091 -1.4372 -1.3182 -0.8845
31354SOL     OW96378   6.550   5.052   1.273 -0.0381 -0.0558  0.0082
31354SOL    HW196379   6.568   5.084   1.362 -1.5889 -1.2941  0.8321
31354SOL    HW296380   6.473   5.102   1.245  0.2019  0.0432 -0.4661
31355SOL     OW96381  10.127   2.418   3.460 -0.1192  0.0452 -0.2278
31355SOL    HW196382  10.044   2.427   3.509 -0.4300  1.1610 -0.9207
31355SOL    HW296383  10.161   2.333   3.486 -1.9323 -0.8394 -0.6016
31356SOL     OW96384   4.266   0.383   0.912  0.6089 -0.1149  0.0546
31356SOL    HW196385   4.235   0.295   0.936  1.3338 -0.4114 -0.0672
31356SOL    HW296386   4.328   0.368   0.841  2.1451  0.3144  1.2435
31357SOL     OW96387   5.464   0.350   0.757  0.3644 -0.2523 -0.1569
31357SOL    HW196388   5.557   0.371   0.754  0.4461  1.1185  4.4110
31357SOL    HW296389   5.451   0.313   0.844 -3.1290 -2.1224 -1.2886
31358SOL     OW96390   8.147   9.962   2.003  0.2393 -0.3481 -0.9205
31358SOL    HW196391   8.094  10.042   2.010 -1.3126 -1.3198 -1.1761
31358SOL    HW296392   8.141   9.937   1.911  1.5707 -0.2370 -1.0685
31359SOL     OW96393   2.160   9.509   8.911  0.0431 -0.6151 -0.2323
31359SOL    HW196394   2.109   9.440   8.869 -1.6916 -0.0087  0.7584
31359SOL    HW296395   2.200   9.466   8.987  1.6451 -1.2563 -1.3806
31360SOL     OW96396   0.002   3.520   8.655 -0.2662 -1.1704  0.4377
31360SOL    HW196397   0.030   3.470   8.732  2.2015  0.7211  0.8648
31360SOL    HW296398   0.007   3.457   8.583  0.3458 -2.1896  1.3322
31361SOL     OW96399   0.494   4.989   0.534 -0.2913 -0.1477  0.2919
31361SOL    HW196400   0.487   5.025   0.622  1.2340  1.1429 -0.0513
31361SOL    HW296401   0.588   4.993   0.514 -0.2600 -2.8125 -0.4571
31362SOL     OW96402   5.875   2.060   4.044  0.3480 -0.2492 -0.0742
31362SOL    HW196403   5.803   2.075   4.105  1.3505  0.8140  0.8807
31362SOL    HW296404   5.852   2.112   3.967  1.3858  2.3862  1.2967
31363SOL     OW96405   9.838   5.052   1.491  0.2686  0.6292  0.5124
31363SOL    HW196406   9.867   4.983   1.551  0.0134  1.2569  1.3746
31363SOL    HW296407   9.780   5.107   1.543 -1.8921 -0.1520 -0.9543
31364SOL     OW96408   8.558   6.682   1.039  0.1078 -0.2220  0.4756
31364SOL    HW196409   8.510   6.598   1.043 -1.3287  0.6268  2.4286
31364SOL    HW296410   8.604   6.688   1.122 -1.1270  1.6167  1.0979
31365SOL     OW96411   5.281   5.325   5.971  0.3337  0.1156  0.1998
31365SOL    HW196412   5.353   5.355   5.915  0.1657 -1.3225 -0.8470
31365SOL    HW296413   5.203   5.336   5.917  0.0557 -0.3911  0.4936
31366SOL     OW96414   4.055   7.510  10.286 -0.3110 -0.0569 -0.0446
31366SOL    HW196415   4.122   7.542  10.346  1.5341 -0.6617 -1.6701
31366SOL    HW296416   4.043   7.418  10.310 -0.4342  0.0003  0.1181
31367SOL     OW96417   9.958   7.753   9.764  0.5604 -0.2352 -0.0271
31367SOL    HW196418  10.023   7.789   9.825  0.5620  0.0438 -0.1908
31367SOL    HW296419   9.958   7.659   9.781 -1.1476  0.0615  2.0771
31368SOL     OW96420   0.631   1.089  10.170 -0.2524 -0.3566  0.1635
31368SOL    HW196421   0.590   1.170  10.199  0.0091 -0.4651  0.8601
31368SOL    HW296422   0.610   1.083  10.077 -0.7217  0.2364  0.2278
31369SOL     OW96423   7.149   4.872   2.367 -0.0678 -0.4721  0.2245
31369SOL    HW196424   7.195   4.801   2.323 -0.0329 -1.2205  1.4180
31369SOL    HW296425   7.218   4.923   2.410  0.1133  1.4464 -2.1307
31370SOL     OW96426   9.961   3.859   8.072  0.2504  0.4176  0.0205
31370SOL    HW196427  10.052   3.887   8.082  0.2146  0.7537 -0.5643
31370SOL    HW296428   9.963   3.798   7.999 -0.3318  2.1392 -1.5049
31371SOL     OW96429   6.483   4.310   6.674  0.0544  0.0618  0.1365
31371SOL    HW196430   6.395   4.299   6.711  0.3886 -0.0605  0.9015
31371SOL    HW296431   6.471   4.373   6.602 -1.0455 -1.5578 -1.1819
31372SOL     OW96432   2.122   8.271   0.771  0.0441 -0.2879 -0.0972
31372SOL    HW196433   2.124   8.302   0.680  2.3338  0.4203  0.1235
31372SOL    HW296434   2.126   8.351   0.824 -0.1700 -0.7323  0.6049
31373SOL     OW96435   7.617   9.732   7.384 -0.0900  0.2595  0.2869
31373SOL    HW196436   7.685   9.797   7.366 -1.0616  2.1802  2.9904
31373SOL    HW296437   7.665   9.656   7.419  0.8908  0.2825 -0.9498
31374SOL     OW96438   4.888   1.542   0.774  0.2434  0.0596  0.8732
31374SOL    HW196439   4.930   1.457   0.761 -1.6074 -1.3654  3.3507
31374SOL    HW296440   4.799   1.530   0.741  0.2704  1.4717  0.1876
31375SOL     OW96441   7.023   3.145   3.088 -0.2907  0.0380  0.1905
31375SOL    HW196442   7.082   3.200   3.140 -2.0983  1.1681  1.1261
31375SOL    HW296443   7.007   3.195   3.008  1.7031 -1.2697 -1.1559
31376SOL     OW96444   6.222   0.179   0.038  0.1434  0.0591  0.7258
31376SOL    HW196445   6.190   0.089   0.037 -1.3652  0.5506 -0.9537
31376SOL    HW296446   6.149   0.230   0.073  0.0747  0.8775 -0.5234
31377SOL     OW96447   7.917   3.939   1.538 -1.2732  0.8044 -0.1559
31377SOL    HW196448   7.973   4.016   1.544 -0.4610  0.1171  2.3253
31377SOL    HW296449   7.879   3.930   1.626 -1.6588 -1.3897 -0.4835
31378SOL     OW96450   8.490   4.034  10.032  0.3624  0.2203 -0.5358
31378SOL    HW196451   8.483   4.119  10.075 -0.4673 -0.1743  0.1337
31378SOL    HW296452   8.503   4.055   9.940 -0.9727  1.0937 -0.5573
31379SOL     OW96453   6.887   0.453   2.535 -0.2977  0.5126 -0.0729
31379SOL    HW196454   6.919   0.395   2.465  1.4741  1.5941 -0.2324
31379SOL    HW296455   6.898   0.402   2.615  1.4196  0.6524 -0.1871
31380SOL     OW96456   6.248   3.216   9.911  0.1058  0.2929 -0.1610
31380SOL    HW196457   6.174   3.158   9.891  0.3015 -0.3832  1.0227
31380SOL    HW296458   6.315   3.193   9.846  0.8018 -1.9946  1.2649
31381SOL     OW96459   4.192  10.194   0.845  0.3345  0.1784  0.6420
31381SOL    HW196460   4.261  10.260   0.839  0.5532 -0.0642  0.4384
31381SOL    HW296461   4.115  10.236   0.808  0.2074  0.6736  1.4615
31382SOL     OW96462   2.376   1.006  10.281  0.0203  0.4616  0.0899
31382SOL    HW196463   2.396   1.069  10.212  3.1181 -0.9980 -0.5282
31382SOL    HW296464   2.378   1.058  10.361 -0.0773  1.5728 -0.5953
31383SOL     OW96465   1.090   4.076   9.936 -0.8278 -0.5121  0.1414
31383SOL    HW196466   1.158   4.087   9.870 -1.3601  1.7717 -0.1323
31383SOL    HW296467   1.038   4.002   9.905  0.5622 -1.2607 -0.4859
31384SOL     OW96468   4.373   9.460   1.840 -0.1546 -0.3197 -0.5288
31384SOL    HW196469   4.423   9.521   1.894  1.3656 -0.7565 -1.3745
31384SOL    HW296470   4.320   9.516   1.782 -0.1117  0.1646 -0.1021
31385SOL     OW96471   4.827   5.599   2.617 -0.4306 -0.1835 -0.3218
31385SOL    HW196472   4.827   5.642   2.532 -0.9444 -0.5335 -0.5026
31385SOL    HW296473   4.758   5.533   2.611 -0.2688 -0.4141  0.2628
31386SOL     OW96474   3.954   3.815  10.197 -0.1921 -0.3331  0.4626
31386SOL    HW196475   3.955   3.722  10.176 -2.5924 -0.1105 -1.0930
31386SOL    HW296476   3.981   3.858  10.116 -0.9324  0.3446  0.5608
31387SOL     OW96477   7.019   2.429   0.772 -0.4756 -0.3688  0.2112
31387SOL    HW196478   7.113   2.445   0.775 -0.0862 -2.4043  0.3789
31387SOL    HW296479   6.991   2.438   0.863 -0.4133  0.0094  0.1962
31388SOL     OW96480   6.210   9.206   4.270  0.1356  0.1744 -0.0043
31388SOL    HW196481   6.251   9.226   4.354  0.6660 -0.8967  0.0035
31388SOL    HW296482   6.248   9.270   4.210  3.2404 -1.8389 -0.3913
31389SOL     OW96483   5.083   9.137   7.374  0.1816  0.4138  1.1286
31389SOL    HW196484   5.068   9.099   7.461  0.0991 -0.4206  0.7582
31389SOL    HW296485   5.176   9.158   7.373  0.4771 -0.8218  0.9444
31390SOL     OW96486   1.419   9.160   1.609 -0.1161 -0.0825 -0.0517
31390SOL    HW196487   1.365   9.134   1.534  0.3058  0.5217 -0.5805
31390SOL    HW296488   1.440   9.078   1.653  0.2623 -0.5420 -1.0422
31391SOL     OW96489   3.361   3.175   2.050 -1.0358  0.1410  0.2256
31391SOL    HW196490   3.291   3.109   2.053 -1.7552  0.9022  0.7961
31391SOL    HW296491   3.410   3.162   2.131 -1.3225  0.4361  0.4543
31392SOL     OW96492   0.074   2.407   3.940 -0.3157 -0.5585  0.3473
31392SOL    HW196493   0.126   2.463   3.883 -0.1415 -0.7693  0.3002
31392SOL    HW296494   0.118   2.322   3.938 -0.3384 -0.5816  0.7515
31393SOL     OW96495   3.184   1.186   0.897 -0.5554  0.3429  0.1900
31393SOL    HW196496   3.139   1.134   0.964 -1.0006  0.5905  0.0899
31393SOL    HW296497   3.113   1.225   0.845 -0.2295 -1.0108 -1.3478
31394SOL     OW96498   6.072   0.564   4.937  0.7591  0.3162 -0.2914
31394SOL    HW196499   6.026   0.546   5.019  1.0027  1.7383  0.1844
31394SOL    HW296500   6.161   0.535   4.952  0.4703 -0.7602 -0.5761
31395SOL     OW96501   4.542  10.321   6.611  0.3227  0.1293 -0.1776
31395SOL    HW196502   4.517  10.263   6.683  2.2646 -0.5979 -0.0200
31395SOL    HW296503   4.618  10.369   6.643 -0.7528  2.2427 -0.6105
31396SOL     OW96504   9.062   0.974   3.082 -0.3827  0.1014 -0.3409
31396SOL    HW196505   9.144   0.947   3.125 -1.5867 -0.9750  1.3913
31396SOL    HW296506   9.015   1.022   3.149 -1.4645  0.1699 -1.1271
31397SOL     OW96507   5.649   0.141   8.727  0.4153  0.1588  0.1795
31397SOL    HW196508   5.583   0.174   8.666  0.2895 -1.0961 -0.4108
31397SOL    HW296509   5.715   0.101   8.670  0.9297  0.0823  0.8228
31398SOL     OW96510   6.714   1.126   0.909 -0.1470 -0.4968 -0.1583
31398SOL    HW196511   6.656   1.200   0.928  1.7248  1.5272 -1.8174
31398SOL    HW296512   6.677   1.086   0.831 -0.5913 -0.6757  0.1415
31399SOL     OW96513   1.204   8.855   5.351 -0.8880  0.2889 -0.0624
31399SOL    HW196514   1.132   8.855   5.288 -1.1503 -1.6491  0.1673
31399SOL    HW296515   1.172   8.801   5.424  0.1627  0.8246  0.8291
31400SOL     OW96516   6.547   3.010   6.103  0.3651 -0.2875  0.0411
31400SOL    HW196517   6.458   3.014   6.067 -0.2056 -1.4002  1.2171
31400SOL    HW296518   6.598   2.967   6.035  0.0110  0.3699 -0.6551
31401SOL     OW96519   2.888   5.408   4.764 -0.5045  0.0932  0.0373
31401SOL    HW196520   2.892   5.335   4.826 -0.4103  0.9778  1.1142
31401SOL    HW296521   2.803   5.400   4.722  0.5371 -2.1738 -1.8478
31402SOL     OW96522   1.337   7.325   7.014  0.3407  0.1056  0.2042
31402SOL    HW196523   1.286   7.270   6.955 -1.3573 -0.3581  1.9974
31402SOL    HW296524   1.395   7.265   7.060 -0.7783 -0.1145  1.4104
31403SOL     OW96525  10.354   5.419   9.694 -0.9284  0.0601  0.1321
31403SOL    HW196526  10.387   5.492   9.746 -0.5966  1.0188 -1.3451
31403SOL    HW296527  10.433   5.371   9.668 -1.0129  0.0509 -0.1161
31404SOL     OW96528   2.725   0.715   2.623  0.2844 -0.0665 -0.0204
31404SOL    HW196529   2.817   0.721   2.646  0.6887 -0.3952 -1.4344
31404SOL    HW296530   2.725   0.700   2.528 -1.1578 -1.9179  0.2120
31405SOL     OW96531   2.482   4.276   7.622  0.1206  0.1886  0.0573
31405SOL    HW196532   2.393   4.255   7.592  0.2229  0.0578 -0.1481
31405SOL    HW296533   2.503   4.206   7.684 -0.5270  1.0454  1.3083
31406SOL     OW96534   6.534   2.454   1.929 -0.4855 -0.4113  0.2133
31406SOL    HW196535   6.617   2.500   1.915 -0.6044 -0.4282 -0.6395
31406SOL    HW296536   6.554   2.388   1.995 -0.2553  0.6859  1.2794
31407SOL     OW96537   7.618   0.591   7.115 -0.3481  0.1013 -0.4143
31407SOL    HW196538   7.666   0.654   7.061  0.0417 -0.5920 -0.8969
31407SOL    HW296539   7.562   0.545   7.054  1.0792 -1.6262 -0.5012
31408SOL     OW96540   1.223   1.358   0.636 -0.6376  0.7428  0.4671
31408SOL    HW196541   1.198   1.412   0.711 -0.1071 -2.3712  3.1696
31408SOL    HW296542   1.140   1.333   0.596 -1.0698  1.0924  1.1162
31409SOL     OW96543   7.890   4.443   0.946  0.2980 -0.0543 -0.4425
31409SOL    HW196544   7.884   4.532   0.979  3.2091 -0.8107  2.6144
31409SOL    HW296545   7.950   4.449   0.871  1.8731  0.4042  0.8079
31410SOL     OW96546   0.991   9.125   9.510 -0.1992  0.1530  0.3513
31410SOL    HW196547   1.043   9.078   9.575  1.8805 -0.7331 -1.8160
31410SOL    HW296548   0.959   9.057   9.451 -1.2421  1.0195 -0.1173
31411SOL     OW96549   8.777   2.623   0.906 -0.4435 -0.1828 -0.4314
31411SOL    HW196550   8.863   2.625   0.948 -0.7255 -0.1153  0.1588
31411SOL    HW296551   8.794   2.591   0.818  0.3031  0.6451 -0.6068
31412SOL     OW96552   6.197   5.506   5.279  0.1579  0.5708 -0.0769
31412SOL    HW196553   6.275   5.560   5.276  0.0807  0.6913  0.0724
31412SOL    HW296554   6.145   5.533   5.203  0.7766 -0.2982 -0.8312
31413SOL     OW96555   0.492   0.830  10.572  0.2188 -0.2250  0.0708
31413SOL    HW196556   0.408   0.789  10.554 -0.5478  0.0900  2.5945
31413SOL    HW296557   0.470   0.917  10.606  1.6749  0.7299 -1.2520
31414SOL     OW96558  10.540   6.248   9.487  0.1443  0.2835  0.3547
31414SOL    HW196559  10.629   6.285   9.492 -0.0059  0.5294  3.5554
31414SOL    HW296560  10.555   6.155   9.471  0.7891  0.7106 -1.8936
31415SOL     OW96561   0.349   3.282   5.510  0.2387 -0.2957 -0.3317
31415SOL    HW196562   0.296   3.203   5.524 -2.2512  1.3076 -0.0956
31415SOL    HW296563   0.346   3.328   5.594  1.5201  0.1530 -0.5074
31416SOL     OW96564   1.786   1.760   8.441 -0.5011  0.5332 -0.1338
31416SOL    HW196565   1.801   1.723   8.529 -2.3343  0.6377  0.2697
31416SOL    HW296566   1.754   1.848   8.458 -2.1697  0.0869 -0.8298
31417SOL     OW96567   3.947   0.301   0.539  0.5842 -0.1336 -0.0496
31417SOL    HW196568   3.931   0.323   0.447  0.6892  0.8713  0.1581
31417SOL    HW296569   3.939   0.384   0.585 -0.1789 -0.7477  0.9564
31418SOL     OW96570   0.502   8.481   0.548 -0.4846 -0.1196  0.2297
31418SOL    HW196571   0.424   8.520   0.508  0.4825 -0.5497 -2.2388
31418SOL    HW296572   0.521   8.405   0.494  0.0621 -1.6868  2.4915
31419SOL     OW96573   7.968   2.951   1.027 -0.3892 -0.4721  0.3348
31419SOL    HW196574   7.924   2.925   1.108  0.1554 -1.6673  0.2706
31419SOL    HW296575   8.050   2.990   1.056  0.6185 -2.4687  0.3701
31420SOL     OW96576   7.570   0.046   7.872  0.5551  0.1865  0.2204
31420SOL    HW196577   7.569   0.130   7.827  0.5323  0.0771  0.0179
31420SOL    HW296578   7.565   0.069   7.965  0.0363  0.3964  0.1473
31421SOL     OW96579   8.448  10.349   5.516 -0.3185  0.4139 -0.3112
31421SOL    HW196580   8.439  10.361   5.611 -0.0061 -0.3314 -0.1789
31421SOL    HW296581   8.359  10.349   5.483 -0.6179 -1.7345  0.3105
31422SOL     OW96582   0.675   7.834   8.708 -0.1303  0.0889  0.2285
31422SOL    HW196583   0.695   7.868   8.795  1.7688  1.5859 -0.7397
31422SOL    HW296584   0.739   7.875   8.650 -1.5491 -0.5980 -1.9548
31423SOL     OW96585   8.083   9.464   5.726  0.4445  0.0281  0.1886
31423SOL    HW196586   8.064   9.399   5.658  1.2036 -0.4217  0.3898
31423SOL    HW296587   8.158   9.427   5.773  1.1095  1.2145  0.0923
31424SOL     OW96588   2.211   8.626   2.456 -0.2584  0.6177 -0.0290
31424SOL    HW196589   2.265   8.607   2.532 -0.9866  2.0394  0.8847
31424SOL    HW296590   2.265   8.602   2.381 -0.3547 -3.0598  0.8847
31425SOL     OW96591   9.411   2.289   5.908 -0.1777  0.0892  0.7282
31425SOL    HW196592   9.440   2.346   5.837  0.3705 -0.0975  0.7967
31425SOL    HW296593   9.413   2.345   5.986 -0.2125  0.1347  0.6965
31426SOL     OW96594   8.897   6.594   5.394 -0.0114  0.1958 -0.1260
31426SOL    HW196595   8.855   6.524   5.343 -1.4645 -0.7161  2.1592
31426SOL    HW296596   8.841   6.670   5.381 -0.9052 -0.2886  0.8102
31427SOL     OW96597   5.643   3.409   5.792  0.5002 -0.2044  0.1178
31427SOL    HW196598   5.689   3.325   5.799 -0.0585 -0.4994  0.3297
31427SOL    HW296599   5.644   3.430   5.699 -0.8689 -1.3144 -0.1675
31428SOL     OW96600   3.357   4.675   5.481  0.2533 -0.2101  0.3684
31428SOL    HW196601   3.425   4.696   5.545  1.5893 -1.1951 -0.6573
31428SOL    HW296602   3.388   4.715   5.399  0.0001 -1.2847 -0.2788
31429SOL     OW96603   0.278   3.674   4.044  0.2876  0.2666  0.3624
31429SOL    HW196604   0.344   3.734   4.078  0.2442 -0.7589  2.4012
31429SOL    HW296605   0.328   3.596   4.017 -0.0723 -0.8681  2.7285
31430SOL     OW96606   5.346   7.883   0.784 -0.1752 -0.0139 -0.0256
31430SOL    HW196607   5.327   7.894   0.691  0.7044  0.1472 -0.1908
31430SOL    HW296608   5.323   7.967   0.823  0.0236  0.1210 -0.1957
31431SOL     OW96609   9.598   9.105   5.193  0.1200 -0.7677  0.4185
31431SOL    HW196610   9.616   9.029   5.248  0.1329 -0.2617  1.1188
31431SOL    HW296611   9.680   9.119   5.144  0.6380 -0.2976  1.3948
31432SOL     OW96612   9.497  10.334   6.783  0.2370 -0.0027  0.0614
31432SOL    HW196613   9.493  10.309   6.691  0.8996  2.9470 -0.8774
31432SOL    HW296614   9.444  10.268   6.828  0.1673 -1.7246 -2.3459
31433SOL     OW96615   4.998   6.346   8.463  0.2404  0.5068 -0.4802
31433SOL    HW196616   4.965   6.435   8.458 -0.6752  0.3433  1.4700
31433SOL    HW296617   5.086   6.355   8.502 -0.7582  0.4906  1.9675
31434SOL     OW96618   8.253   7.832   4.231  0.2727 -0.1717 -0.5035
31434SOL    HW196619   8.172   7.881   4.221  2.3623  3.2426 -2.5092
31434SOL    HW296620   8.281   7.813   4.141  1.8209 -1.1008  0.1268
31435SOL     OW96621   3.584   8.857   5.067  0.0170 -0.0761 -0.0026
31435SOL    HW196622   3.635   8.851   5.148 -0.0646  2.7693  0.3673
31435SOL    HW296623   3.498   8.888   5.096 -0.0503  0.8699 -1.1523
31436SOL     OW96624  10.378   2.648   2.755  0.3061  0.1559 -0.1415
31436SOL    HW196625  10.421   2.599   2.825 -1.3712  0.8283  1.4115
31436SOL    HW296626  10.303   2.594   2.730 -0.4734  1.0236  0.2745
31437SOL     OW96627   4.191   4.011   7.387  0.2411  0.1683 -0.1633
31437SOL    HW196628   4.262   3.948   7.400 -0.8961 -0.9826  0.6765
31437SOL    HW296629   4.186   4.059   7.469 -0.6884 -0.5493  0.2145
31438SOL     OW96630   6.347   9.949   8.950 -0.0804 -0.9029  0.7236
31438SOL    HW196631   6.288  10.024   8.938 -1.6788 -1.9973  1.3030
31438SOL    HW296632   6.435   9.985   8.941 -0.8216  0.9023  0.3026
31439SOL     OW96633   9.096   8.998   3.689 -0.2241  0.0699  0.1188
31439SOL    HW196634   9.112   8.930   3.625  0.4405  0.9462 -0.6818
31439SOL    HW296635   9.008   9.029   3.671  0.9938  2.4129 -2.4883
31440SOL     OW96636   0.120   3.503   3.885 -0.1373  0.0463 -0.0336
31440SOL    HW196637   0.146   3.522   3.795  2.2921 -1.7659  0.1852
31440SOL    HW296638   0.155   3.576   3.936  2.2061 -0.9273 -0.1226
31441SOL     OW96639   9.562   7.036   8.210 -0.2478  0.4399  0.2884
31441SOL    HW196640   9.621   7.094   8.257  0.7023 -1.4580  1.5721
31441SOL    HW296641   9.555   6.958   8.265 -1.3993 -0.7159 -1.3692
31442SOL     OW96642   0.315   0.974   5.386 -0.1718  0.7785 -0.0725
31442SOL    HW196643   0.250   1.041   5.405  1.1592  1.9979  0.3822
31442SOL    HW296644   0.270   0.891   5.403 -1.2145  1.6130  1.4994
31443SOL     OW96645   3.919   9.183   6.720 -0.2261  0.2441  0.0579
31443SOL    HW196646   4.003   9.137   6.712 -0.8290 -0.9568  0.4655
31443SOL    HW296647   3.938   9.259   6.774  0.3793 -0.6140  1.0729
31444SOL     OW96648   9.063   3.489   5.645  0.1890 -0.0396 -0.1937
31444SOL    HW196649   9.127   3.559   5.653  0.6460 -0.5307  0.4698
31444SOL    HW296650   9.019   3.486   5.730  0.6256 -0.9966  0.0049
31445SOL     OW96651   1.893   3.888   5.550 -0.1534  0.2835  0.2262
31445SOL    HW196652   1.944   3.808   5.562 -0.4742  0.3105  2.1127
31445SOL    HW296653   1.957   3.953   5.523  0.8226  0.2543  2.3079
31446SOL     OW96654   8.456   8.999   4.026 -0.4702 -0.3460 -0.1110
31446SOL    HW196655   8.544   9.014   3.992 -1.0291 -0.7048 -1.7819
31446SOL    HW296656   8.436   8.909   4.003 -1.5376 -0.0498 -0.3816
31447SOL     OW96657   1.635   1.507   5.245 -0.8629 -0.6404  0.3079
31447SOL    HW196658   1.580   1.432   5.222 -1.0777 -0.6212  0.7387
31447SOL    HW296659   1.572   1.573   5.277 -0.4838 -1.1362  2.1990
31448SOL     OW96660   4.170   5.750   0.386  0.0397  0.0166  0.7041
31448SOL    HW196661   4.195   5.673   0.336 -0.2596 -0.8046  1.7682
31448SOL    HW296662   4.251   5.780   0.428  0.1607  0.3018  0.2710
31449SOL     OW96663   1.027   7.368   9.558  0.0506  0.6483  0.3493
31449SOL    HW196664   1.074   7.395   9.478 -0.0585  0.1923  0.1263
31449SOL    HW296665   0.935   7.385   9.539 -0.0124  0.1988  0.2335
31450SOL     OW96666   9.556   0.348   5.384  0.2901  0.4014  0.3943
31450SOL    HW196667   9.496   0.371   5.455  1.8071  2.5871  1.0661
31450SOL    HW296668   9.580   0.432   5.346  0.2447 -0.6608 -2.1604
31451SOL     OW96669   9.428   4.457   3.032  0.1169  0.0875 -0.0762
31451SOL    HW196670   9.372   4.471   2.955  0.6728  1.6366 -0.2356
31451SOL    HW296671   9.511   4.427   2.995  0.2310  0.3703 -0.0545
31452SOL     OW96672   0.373   6.412   4.289  0.0776  0.2654  0.1434
31452SOL    HW196673   0.398   6.454   4.207  1.9337  0.6678  0.8694
31452SOL    HW296674   0.455   6.377   4.324 -0.7184 -0.1163  1.7184
31453SOL     OW96675   7.468   8.831   0.260  0.3543  0.3500  0.4298
31453SOL    HW196676   7.515   8.830   0.177 -1.6643  0.1460 -0.7936
31453SOL    HW296677   7.458   8.739   0.284  2.3695  0.4309  1.8439
31454SOL     OW96678   8.682   2.147   1.900 -0.6557  0.3686  0.3420
31454SOL    HW196679   8.740   2.213   1.938 -0.9133  0.1870  1.0769
31454SOL    HW296680   8.642   2.191   1.824 -1.5623  1.4169  1.3748
31455SOL     OW96681   0.004   6.997   2.309 -0.0144  0.0453  0.2529
31455SOL    HW196682   0.013   6.904   2.288  0.3144 -0.0213  0.6881
31455SOL    HW296683   0.021   7.002   2.403  1.0003  0.6833  0.0454
31456SOL     OW96684   4.152   2.148   6.569  0.4819  0.1310 -0.3728
31456SOL    HW196685   4.084   2.168   6.504 -0.5172 -0.1775  0.5546
31456SOL    HW296686   4.230   2.130   6.516 -0.9596 -2.8961 -1.6965
31457SOL     OW96687   5.267   2.275   9.026 -0.3246  0.0111 -0.1809
31457SOL    HW196688   5.325   2.349   9.046 -0.8948  0.7933 -1.3000
31457SOL    HW296689   5.326   2.204   8.999  0.1622  0.6051 -0.7159
31458SOL     OW96690   6.699   0.756   4.230  0.2976  0.5871 -0.2802
31458SOL    HW196691   6.731   0.667   4.215 -0.7501  0.7011 -4.2299
31458SOL    HW296692   6.663   0.753   4.319  0.9595 -2.6853  0.0263
31459SOL     OW96693   3.663  10.104   2.902  0.5027 -0.6991 -0.2836
31459SOL    HW196694   3.628  10.191   2.883  2.0548 -0.3474 -1.7696
31459SOL    HW296695   3.621  10.046   2.838  0.8766 -0.6852 -0.5476
31460SOL     OW96696   5.494   4.496   6.690  0.1571  0.4197 -0.4737
31460SOL    HW196697   5.485   4.437   6.615 -0.4104 -0.9458  0.6194
31460SOL    HW296698   5.406   4.529   6.705  0.2574  0.6464 -0.3850
31461SOL     OW96699   9.731   9.871   0.959  0.2253 -0.1824 -0.0218
31461SOL    HW196700   9.785   9.866   0.880  1.4839  1.2542  0.6852
31461SOL    HW296701   9.646   9.836   0.933  1.2113 -1.6144 -1.4459
31462SOL     OW96702   9.465   9.208   2.710  0.0126  0.1371  0.1391
31462SOL    HW196703   9.371   9.214   2.692 -0.3602 -1.7203  1.2865
31462SOL    HW296704   9.500   9.156   2.637 -0.3500 -1.5114  1.0908
31463SOL     OW96705   2.532   6.570   6.182  0.2345  0.2670  0.0160
31463SOL    HW196706   2.620   6.562   6.219 -0.5722 -0.6964  1.7890
31463SOL    HW296707   2.527   6.501   6.116  0.7878  0.3405 -0.1105
31464SOL     OW96708   7.358   1.086   6.958 -0.0951 -0.0708  0.2923
31464SOL    HW196709   7.397   1.026   6.895 -0.1983  1.1855 -1.0386
31464SOL    HW296710   7.277   1.043   6.986  0.0924 -0.7778 -0.2420
31465SOL     OW96711   9.646   5.913   0.384 -0.5642  0.0471 -0.0292
31465SOL    HW196712   9.704   5.844   0.416 -1.0353 -0.3879 -0.1119
31465SOL    HW296713   9.560   5.890   0.418 -0.9723 -0.1283 -1.1599
31466SOL     OW96714   2.236   9.271   2.936 -0.1175 -0.0419  0.8462
31466SOL    HW196715   2.223   9.213   2.861  1.1306  0.3032  0.3240
31466SOL    HW296716   2.188   9.230   3.008 -0.2438 -1.0765  0.1897
31467SOL     OW96717   6.832   0.732   5.704 -0.5418  0.3051  0.4850
31467SOL    HW196718   6.811   0.825   5.697 -1.1812  0.0725 -1.2370
31467SOL    HW296719   6.859   0.707   5.616  1.8227 -0.6650  1.4074
31468SOL     OW96720   6.117   6.214   8.264  0.2733 -0.2635  0.0380
31468SOL    HW196721   6.144   6.226   8.356  0.6966 -2.3752  0.2515
31468SOL    HW296722   6.197   6.185   8.220  0.1712  1.1541 -1.1243
31469SOL     OW96723   6.687   9.760   4.278 -0.5758 -0.0382  0.1046
31469SOL    HW196724   6.733   9.739   4.359 -1.2350 -2.1294 -0.0103
31469SOL    HW296725   6.751   9.744   4.209 -0.8674 -1.1636  0.0648
31470SOL     OW96726   5.332   2.873   7.844  0.0343  0.6068  0.2343
31470SOL    HW196727   5.357   2.795   7.795 -0.1805  0.3966  0.4534
31470SOL    HW296728   5.270   2.840   7.910  1.0911  0.7155  1.3020
31471SOL     OW96729   1.082   4.722   7.025  0.2345  0.1506 -0.2047
31471SOL    HW196730   1.038   4.660   6.967 -0.9238 -1.0651  1.8716
31471SOL    HW296731   1.013   4.755   7.082  1.4987  0.4893  1.1841
31472SOL     OW96732   6.270   2.531   9.703  0.7487 -0.0330  0.1681
31472SOL    HW196733   6.181   2.530   9.737  1.1026 -1.0682  1.1177
31472SOL    HW296734   6.325   2.536   9.781  1.5472 -0.3959 -0.3595
31473SOL     OW96735   1.094   4.166   5.612 -0.0180 -0.0428  0.7180
31473SOL    HW196736   1.148   4.241   5.586  0.3135  0.2942  2.2721
31473SOL    HW296737   1.080   4.117   5.531  1.7207  0.4387  0.0844
31474SOL     OW96738   2.373   2.266   6.586  0.0723  0.1269 -0.0031
31474SOL    HW196739   2.338   2.178   6.582 -1.4600  0.7417 -2.1862
31474SOL    HW296740   2.296   2.323   6.585  1.0404  1.4908 -0.2470
31475SOL     OW96741   6.587   6.277   5.543 -0.2973  0.0597  0.6472
31475SOL    HW196742   6.611   6.347   5.481  1.9807 -0.2573  1.0839
31475SOL    HW296743   6.624   6.306   5.627 -1.9953 -0.2632  1.5480
31476SOL     OW96744   4.083   2.975   3.541 -0.5641  0.3564 -0.1416
31476SOL    HW196745   4.078   3.060   3.584 -2.3805 -0.0520  0.5486
31476SOL    HW296746   4.007   2.972   3.484  0.3913 -0.1706 -1.4379
31477SOL     OW96747   1.248   7.876  10.147  0.4532  0.3687 -0.1207
31477SOL    HW196748   1.205   7.792  10.162 -0.2957  0.8642  0.6233
31477SOL    HW296749   1.329   7.854  10.101 -0.0982 -0.6863 -0.6223
31478SOL     OW96750   1.146   6.506   5.839  0.1601 -0.0352  0.3527
31478SOL    HW196751   1.085   6.449   5.887 -1.9553  1.3807 -0.4882
31478SOL    HW296752   1.184   6.562   5.906 -0.4930 -0.0579  0.7537
31479SOL     OW96753   0.062   1.927   2.132  0.4030  0.1044 -0.4790
31479SOL    HW196754   0.104   1.869   2.195 -1.9771 -1.3748 -0.1444
31479SOL    HW296755   0.077   2.015   2.166 -0.5186 -0.6402  2.0082
31480SOL     OW96756   9.076   2.109   7.984  0.4933  0.8867 -0.4741
31480SOL    HW196757   8.996   2.154   7.957 -1.0157 -0.7372  1.0088
31480SOL    HW296758   9.089   2.135   8.076 -0.6844 -1.8211  0.5883
31481SOL     OW96759   4.339   4.863  10.437 -0.2340 -0.4182  0.1892
31481SOL    HW196760   4.270   4.912  10.482  0.4503 -0.2885  1.1231
31481SOL    HW296761   4.421   4.895  10.475  0.3942 -0.1877 -1.2704
31482SOL     OW96762   2.412   2.467   9.768  0.2021  0.2115 -0.2924
31482SOL    HW196763   2.322   2.474   9.800  0.4430  0.7383  0.2836
31482SOL    HW296764   2.403   2.439   9.677 -0.5322 -0.1397 -0.1191
31483SOL     OW96765   9.259   7.024   8.202 -0.0725 -0.1457 -0.1000
31483SOL    HW196766   9.206   6.946   8.183  0.7651 -0.6568 -0.3839
31483SOL    HW296767   9.348   6.998   8.178  0.3683  0.5725  0.7494
31484SOL     OW96768  10.335   4.514   7.778 -0.5634  0.7208 -1.0730
31484SOL    HW196769  10.267   4.471   7.830 -0.1667 -0.6651 -1.6615
31484SOL    HW296770  10.295   4.527   7.692  0.2891 -1.3354 -1.8467
31485SOL     OW96771   2.906   9.649   3.151 -0.0735  0.3649  0.4256
31485SOL    HW196772   2.837   9.661   3.086  0.1936  2.2979  0.4567
31485SOL    HW296773   2.985   9.681   3.108  0.6737 -1.0037  0.7088
31486SOL     OW96774  10.405   7.139   4.501  0.2344 -0.0057 -0.4062
31486SOL    HW196775  10.400   7.153   4.406  0.1788  1.0789 -0.2614
31486SOL    HW296776  10.472   7.201   4.531 -1.1958  1.1946  0.5133
31487SOL     OW96777   3.806   1.266   8.723  0.6715  0.3294 -0.7694
31487SOL    HW196778   3.735   1.277   8.660 -0.4815  0.1369  0.4631
31487SOL    HW296779   3.793   1.336   8.787 -1.0423 -2.1461  1.8413
31488SOL     OW96780   4.011  10.018  10.164  0.4087  0.4095  0.4263
31488SOL    HW196781   4.009   9.928  10.196 -0.8125 -0.1594 -1.1275
31488SOL    HW296782   4.082  10.019  10.100 -1.0157 -0.0975 -1.2223
31489SOL     OW96783   2.728   8.409   5.904 -0.1120 -0.6511 -0.6621
31489SOL    HW196784   2.745   8.501   5.926 -1.4342 -0.5966  0.2548
31489SOL    HW296785   2.810   8.378   5.867  0.1262  1.1051 -1.7399
31490SOL     OW96786   9.689   9.716   2.535 -0.2856 -0.5870 -0.1112
31490SOL    HW196787   9.653   9.632   2.507 -1.1475 -0.9184  1.8262
31490SOL    HW296788   9.723   9.700   2.623 -0.0935  0.9913  0.1397
31491SOL     OW96789   8.036   8.827   6.103  0.0601  0.5128 -0.6019
31491SOL    HW196790   8.037   8.922   6.110 -0.7125  0.5382 -0.7225
31491SOL    HW296791   7.975   8.799   6.172  1.4244 -0.0032  0.4457
31492SOL     OW96792   0.296   3.909  10.573 -0.1412  0.3294  0.4463
31492SOL    HW196793   0.254   3.829  10.604 -0.4552 -0.6115 -2.1000
31492SOL    HW296794   0.224   3.972  10.564  0.2295  1.2546  3.2560
31493SOL     OW96795   0.476   9.890   3.739  0.1394  0.5320  0.8741
31493SOL    HW196796   0.445   9.882   3.829 -0.7167  0.1989  0.5626
31493SOL    HW296797   0.460   9.804   3.700 -1.2531  1.1919 -0.1099
31494SOL     OW96798   1.824   8.483   1.911 -0.1812 -0.0264 -0.1211
31494SOL    HW196799   1.834   8.393   1.879  0.4475 -0.6784  1.7280
31494SOL    HW296800   1.733   8.488   1.939 -0.1229 -0.2317  0.1176
31495SOL     OW96801   3.500   4.588   9.544  0.3927 -0.4690  0.1951
31495SOL    HW196802   3.483   4.669   9.496 -0.5795 -0.9313 -0.2769
31495SOL    HW296803   3.414   4.560   9.574  0.9837 -0.0380  2.5286
31496SOL     OW96804   2.471   0.089   3.849 -0.9498 -0.1707 -0.1313
31496SOL    HW196805   2.532   0.160   3.831 -0.6087  0.0309  1.6461
31496SOL    HW296806   2.397   0.131   3.892 -0.7721 -0.8646  0.8811
31497SOL     OW96807  10.543   9.894   3.674 -0.2978  0.3972 -0.0280
31497SOL    HW196808  10.609   9.921   3.738  1.4110  1.7872 -2.1917
31497SOL    HW296809  10.585   9.825   3.623 -1.3052 -0.1369 -0.1583
31498SOL     OW96810   7.851   1.629  10.181  0.3638 -0.1200 -0.0350
31498SOL    HW196811   7.800   1.604  10.104 -1.0517  1.0826  0.4527
31498SOL    HW296812   7.902   1.705  10.152 -0.3775  0.5019  0.2824
31499SOL     OW96813   4.103   6.176   2.225 -0.4404  0.1157  0.1413
31499SOL    HW196814   4.012   6.172   2.198 -0.0411  0.7830 -1.4529
31499SOL    HW296815   4.103   6.153   2.317 -2.2287  0.2232  0.1851
31500SOL     OW96816   9.074   9.810   6.310 -0.6171  0.5022  0.2026
31500SOL    HW196817   9.165   9.784   6.321 -0.2577  0.5467 -2.1722
31500SOL    HW296818   9.031   9.783   6.391  1.4387  0.2709  1.2728
31501SOL     OW96819   0.086   5.338   7.849 -0.0486  0.0653  0.2172
31501SOL    HW196820   0.135   5.256   7.847  0.2969  0.2019  1.6701
31501SOL    HW296821   0.049   5.347   7.761 -3.3636 -3.5773  1.0030
31502SOL     OW96822   1.027   4.449   8.176 -0.4974  0.4477 -0.0237
31502SOL    HW196823   1.108   4.492   8.204 -1.6602  2.7013  0.1161
31502SOL    HW296824   1.013   4.381   8.242 -0.3840  2.1738  1.8818
31503SOL     OW96825   0.380   2.531   1.951 -0.3091 -0.2880  0.4051
31503SOL    HW196826   0.289   2.507   1.968 -0.3883 -0.5079 -0.3095
31503SOL    HW296827   0.378   2.575   1.867  0.2196 -0.1008  0.4880
31504SOL     OW96828   5.166   6.636   1.879 -0.1339 -0.2050 -0.1578
31504SOL    HW196829   5.224   6.647   1.955  0.4312 -0.2607 -0.5789
31504SOL    HW296830   5.077   6.645   1.916  0.0806  4.6262 -0.1765
31505SOL     OW96831   4.467   4.985   1.889 -0.1098  0.3144  0.2098
31505SOL    HW196832   4.516   4.937   1.955 -0.6470 -2.5718 -1.3265
31505SOL    HW296833   4.457   5.073   1.925  1.1367 -0.6309  3.1170
31506SOL     OW96834   9.224   5.164   4.802 -0.5500  0.5082 -0.1119
31506SOL    HW196835   9.319   5.156   4.803 -0.6525 -1.9540 -1.8929
31506SOL    HW296836   9.208   5.255   4.774  1.2305  1.1248  0.7283
31507SOL     OW96837   1.686   1.660   1.560  0.5162 -0.2741 -0.0061
31507SOL    HW196838   1.710   1.752   1.570 -2.6579  0.4658  1.8902
31507SOL    HW296839   1.758   1.611   1.600  2.3686  1.2816 -1.2714
31508SOL     OW96840   5.260   6.728   9.740 -0.2856  0.0250 -0.1146
31508SOL    HW196841   5.172   6.693   9.727 -0.0426  0.2208 -2.7581
31508SOL    HW296842   5.315   6.650   9.748 -0.3089 -0.1867 -1.7197
31509SOL     OW96843   5.373   1.717   8.931  0.1490 -0.6009  0.2300
31509SOL    HW196844   5.452   1.674   8.897 -0.1392  0.3480 -1.7507
31509SOL    HW296845   5.306   1.649   8.929  0.7753 -1.2891  1.5019
31510SOL     OW96846   8.365   6.622   6.276  1.2569 -0.7991 -0.2978
31510SOL    HW196847   8.424   6.696   6.263  1.3556 -1.2031 -2.4793
31510SOL    HW296848   8.382   6.565   6.201 -1.3831 -1.2612 -0.6240
31511SOL     OW96849   8.035   5.709   1.279 -0.1579  0.2788 -0.5103
31511SOL    HW196850   8.013   5.792   1.236 -0.8501 -0.5401 -1.7900
31511SOL    HW296851   7.968   5.700   1.347 -0.3733  0.5427 -0.6845
31512SOL     OW96852   5.005  10.297   2.623  0.0578  1.0649  0.5780
31512SOL    HW196853   5.078  10.358   2.633  0.3628  0.7860  0.1014
31512SOL    HW296854   4.955  10.305   2.704 -0.4391  2.6252  0.1453
31513SOL     OW96855   0.229   6.323   1.789 -0.9894 -0.0915  0.1201
31513SOL    HW196856   0.148   6.349   1.833 -1.1100 -1.3497  0.6803
31513SOL    HW296857   0.219   6.229   1.773 -0.4832  0.1248 -1.6618
31514SOL     OW96858   4.321   9.931   8.745  0.2716  0.2114 -0.1198
31514SOL    HW196859   4.327   9.947   8.839 -0.2529 -0.0900 -0.0273
31514SOL    HW296860   4.412   9.920   8.717  0.4254  0.1601  0.3763
31515SOL     OW96861   5.262   1.162  10.076 -0.2347 -0.1761 -0.2096
31515SOL    HW196862   5.218   1.116  10.005  1.4346 -0.1015 -1.3658
31515SOL    HW296863   5.348   1.184  10.040  0.3716  0.5736  1.5805
31516SOL     OW96864   0.378  10.504   8.236  0.2579  0.4396 -0.4614
31516SOL    HW196865   0.380  10.532   8.144 -0.1236 -2.1821 -1.3434
31516SOL    HW296866   0.286  10.506   8.259  0.3582  1.1337 -0.0971
31517SOL     OW96867   6.071   0.680   7.903 -0.4709  0.2312 -0.2672
31517SOL    HW196868   5.997   0.704   7.958  1.0432  2.7282  0.8385
31517SOL    HW296869   6.031   0.648   7.822 -2.7263  0.5125  0.6632
31518SOL     OW96870   8.925   6.542   1.617 -0.1523  0.1888 -0.6899
31518SOL    HW196871   8.841   6.582   1.594  0.9557  2.0901 -1.6169
31518SOL    HW296872   8.962   6.515   1.533  0.4302 -0.1163 -0.3393
31519SOL     OW96873   3.451   5.465  10.588 -0.3693 -0.6578  0.4981
31519SOL    HW196874   3.374   5.521  10.575 -0.7242 -0.9187  1.4013
31519SOL    HW296875   3.419   5.376  10.573  0.0794 -0.6735 -0.4389
31520SOL     OW96876   0.119   3.089   1.941 -0.1000  0.0287  0.5199
31520SOL    HW196877   0.183   3.140   1.892 -0.2438  1.6545  1.9635
31520SOL    HW296878   0.056   3.153   1.973 -1.1200 -1.2450  1.1581
31521SOL     OW96879   6.048   6.079   1.860  0.4440 -0.0035  0.0936
31521SOL    HW196880   5.998   6.150   1.901  0.9911  0.6246 -0.3065
31521SOL    HW296881   6.107   6.048   1.929  0.6115  0.3289  0.1028
31522SOL     OW96882   0.318   8.219   4.828  0.6919  0.4697 -0.0014
31522SOL    HW196883   0.263   8.287   4.868  0.7293  0.9691 -0.7608
31522SOL    HW296884   0.258   8.146   4.812  0.1840  1.0735 -0.9792
31523SOL     OW96885   8.288   8.141   7.631 -0.2733  0.5321 -0.4448
31523SOL    HW196886   8.381   8.139   7.609 -0.0495 -1.6491  0.4660
31523SOL    HW296887   8.284   8.195   7.711  0.3036  0.1648 -0.1603
31524SOL     OW96888   7.778   6.636   4.011 -0.4145 -0.2770  0.2154
31524SOL    HW196889   7.767   6.657   3.918 -0.1656  1.4502  0.5396
31524SOL    HW296890   7.691   6.606   4.039 -0.3390 -1.4028 -0.6984
31525SOL     OW96891  10.143   8.122   7.417  0.1881  0.3134  0.0578
31525SOL    HW196892  10.171   8.120   7.508 -0.9254  1.3811  0.4430
31525SOL    HW296893  10.048   8.114   7.420  0.0771  1.0318 -0.9716
31526SOL     OW96894   3.830   5.119  10.100 -0.1746  0.4325  0.2380
31526SOL    HW196895   3.788   5.163  10.026  0.0773  0.0601 -0.1279
31526SOL    HW296896   3.787   5.033  10.104  0.0461  0.3242  0.3099
31527SOL     OW96897   1.239   8.554   9.420  0.3756 -0.2749  0.1739
31527SOL    HW196898   1.168   8.583   9.363  0.5938 -0.3676 -0.1544
31527SOL    HW296899   1.217   8.463   9.442 -0.1890  0.0636  1.0122
31528SOL     OW96900  10.422   1.467   9.789 -0.4170 -0.2561 -0.3102
31528SOL    HW196901  10.455   1.488   9.876  1.0855  0.0666 -0.9176
31528SOL    HW296902  10.339   1.422   9.804 -0.1612 -0.2378  1.2765
31529SOL     OW96903   0.538   2.373   2.668 -0.0113  0.1860 -0.7829
31529SOL    HW196904   0.564   2.460   2.698  1.0929  0.3368 -2.0823
31529SOL    HW296905   0.443   2.370   2.682  0.2206  0.7905  1.2300
31530SOL     OW96906  10.054   2.888   5.100 -0.5094  0.0361  0.1189
31530SOL    HW196907   9.995   2.821   5.066 -0.7662  0.9662 -1.3783
31530SOL    HW296908  10.140   2.864   5.064 -0.5713  0.4098 -0.2835
31531SOL     OW96909   8.392   9.096   2.588 -0.1338 -0.4775  0.1528
31531SOL    HW196910   8.339   9.100   2.668  0.0999 -0.9271  0.3365
31531SOL    HW296911   8.437   9.011   2.594  1.2757  0.2489  0.4445
31532SOL     OW96912   3.831   9.621   0.541  0.8035  0.3506 -0.1299
31532SOL    HW196913   3.885   9.659   0.472  1.9411  0.9765  1.0577
31532SOL    HW296914   3.893   9.594   0.608 -0.1500 -1.6251  0.0383
31533SOL     OW96915   3.248   3.788   6.489 -0.2138 -0.3238  0.4953
31533SOL    HW196916   3.338   3.821   6.488 -0.5728  0.6927 -0.1945
31533SOL    HW296917   3.204   3.836   6.418 -1.0161 -1.6152  0.0790
31534SOL     OW96918   1.222   0.804   4.627 -0.7225  0.0984 -0.3403
31534SOL    HW196919   1.193   0.815   4.718 -0.7697  0.9762 -0.4537
31534SOL    HW296920   1.249   0.892   4.600  0.5736 -0.4003 -0.7476
31535SOL     OW96921   1.930   9.032   0.895 -0.7990 -0.8281  0.1607
31535SOL    HW196922   2.023   9.017   0.876 -1.0800 -0.7405 -1.3808
31535SOL    HW296923   1.931   9.077   0.980  0.5335 -1.2402  0.3967
31536SOL     OW96924   4.452   9.102   3.012 -0.1220  0.1291  0.2384
31536SOL    HW196925   4.463   9.155   2.934  0.5276 -0.2963  0.0363
31536SOL    HW296926   4.406   9.024   2.982  1.3290 -0.6588  0.0074
31537SOL     OW96927   9.570   5.209   5.764  0.1034  0.3606  0.2921
31537SOL    HW196928   9.479   5.218   5.794  0.2286 -0.6992  1.0201
31537SOL    HW296929   9.622   5.253   5.831  0.3113 -1.2683  1.2594
31538SOL     OW96930   7.620   0.035   9.020 -0.2322 -0.1771 -0.7356
31538SOL    HW196931   7.698   0.017   8.969  0.3792  0.3381 -0.0045
31538SOL    HW296932   7.586   0.117   8.984  0.1523  0.1432 -0.3718
31539SOL     OW96933   8.736   8.613   5.027 -0.1962 -0.0634  0.2511
31539SOL    HW196934   8.772   8.526   5.012  0.7687  0.1124  1.3901
31539SOL    HW296935   8.660   8.618   4.969  0.8705 -0.9150 -1.2680
31540SOL     OW96936   8.002   6.970   6.035  0.2634  0.0395 -0.0666
31540SOL    HW196937   8.001   6.884   5.994 -0.3756 -0.2562  0.5486
31540SOL    HW296938   7.920   6.974   6.085 -0.3045  1.4409 -1.0133
31541SOL     OW96939   5.227   9.912   8.571 -0.9651  0.1677  0.2784
31541SOL    HW196940   5.245   9.823   8.602  0.0653  0.4516  0.5267
31541SOL    HW296941   5.215   9.963   8.651  0.4098  0.6407  0.2052
31542SOL     OW96942   9.512   5.227   9.408 -0.5267  0.2768  0.1922
31542SOL    HW196943   9.533   5.181   9.490  0.6647 -1.5324 -1.0657
31542SOL    HW296944   9.417   5.220   9.401 -0.5772 -0.1375  1.0980
31543SOL     OW96945   2.116   1.946   2.626  0.3839 -0.4048 -0.2442
31543SOL    HW196946   2.080   1.872   2.674 -1.0967  0.0440 -0.5776
31543SOL    HW296947   2.040   1.982   2.579  1.3701  0.4171 -1.2474
31544SOL     OW96948   1.273   4.214   9.764  0.1165  0.1306  0.2226
31544SOL    HW196949   1.328   4.138   9.746 -1.1044 -1.1865  1.7178
31544SOL    HW296950   1.318   4.260   9.835  0.5086  0.4108 -0.2081
31545SOL     OW96951   5.262   1.730   6.537 -0.1650 -0.0189 -0.1337
31545SOL    HW196952   5.343   1.739   6.587 -1.0906  0.9244  1.2751
31545SOL    HW296953   5.208   1.672   6.591 -0.1417 -1.3586 -1.4834
31546SOL     OW96954   8.556   6.560   5.926  0.0827 -0.2343 -0.7129
31546SOL    HW196955   8.476   6.518   5.957 -0.4858 -0.7975 -2.7772
31546SOL    HW296956   8.526   6.628   5.866  1.1289 -0.5669 -1.6544
31547SOL     OW96957  10.270   5.230   5.097 -0.2431 -0.3033 -0.2021
31547SOL    HW196958  10.209   5.277   5.153  0.0481 -0.1066 -0.0466
31547SOL    HW296959  10.302   5.158   5.152  0.4096  0.1747  0.0520
31548SOL     OW96960   6.574   4.134   3.379  0.0295 -0.1533 -0.3236
31548SOL    HW196961   6.564   4.228   3.395  0.1756 -0.5421  2.4968
31548SOL    HW296962   6.656   4.110   3.422 -1.0695 -1.9348  0.9130
31549SOL     OW96963   8.486   2.217  10.298 -0.5433 -0.0457 -0.0433
31549SOL    HW196964   8.526   2.139  10.337 -1.3896 -1.5033 -1.8823
31549SOL    HW296965   8.558   2.260  10.252 -0.1267  0.0987  0.7279
31550SOL     OW96966   9.060   8.439   9.105  0.7198 -0.2337 -0.0808
31550SOL    HW196967   9.066   8.345   9.119 -0.8485 -0.4099 -0.4271
31550SOL    HW296968   9.013   8.472   9.183 -0.4010 -0.0268 -0.8200
31551SOL     OW96969   5.982   8.318   0.573 -0.3175  0.2076 -0.0326
31551SOL    HW196970   6.039   8.259   0.622  2.5098  0.4885 -2.6696
31551SOL    HW296971   5.978   8.280   0.485 -0.9461  2.2954 -0.9680
31552SOL     OW96972   3.989   1.018   9.246  0.0715 -0.1257  0.5056
31552SOL    HW196973   3.973   1.098   9.196  0.0297  0.1632  0.9736
31552SOL    HW296974   4.011   0.952   9.180  1.9110  0.6947  0.2150
31553SOL     OW96975   1.028   2.874   0.342  0.2012 -0.0171  0.1321
31553SOL    HW196976   1.017   2.943   0.408 -0.8020  0.0851 -0.1278
31553SOL    HW296977   0.976   2.801   0.374  0.7912 -0.4468  0.1130
31554SOL     OW96978   7.363   5.777   5.795  0.0044  0.0313 -0.2804
31554SOL    HW196979   7.444   5.727   5.787  0.0566  0.2751 -1.4115
31554SOL    HW296980   7.326   5.749   5.879  2.3531  1.5489  1.3868
31555SOL     OW96981   7.675   8.063   8.225  0.1097 -0.4044  0.1737
31555SOL    HW196982   7.750   8.064   8.165  0.4902 -1.8666  0.6025
31555SOL    HW296983   7.670   7.973   8.256 -2.1403 -0.4716 -0.2317
31556SOL     OW96984   5.105   8.494   9.875 -0.3083 -0.1007 -0.0898
31556SOL    HW196985   5.123   8.491   9.969  0.1666  2.4389 -0.0325
31556SOL    HW296986   5.035   8.430   9.862  0.0691 -0.9743  1.8685
31557SOL     OW96987   4.839   2.409   0.505 -0.5371  0.9663  0.2961
31557SOL    HW196988   4.786   2.337   0.471 -0.3904  2.0811 -2.5941
31557SOL    HW296989   4.899   2.368   0.567 -0.6676 -1.3562 -1.0207
31558SOL     OW96990   1.328   7.199   8.842  0.1121  0.8193  0.2581
31558SOL    HW196991   1.406   7.158   8.878  0.0175  1.6739  1.4869
31558SOL    HW296992   1.255   7.156   8.888  0.0069  2.2064  1.4693
31559SOL     OW96993   4.148   0.196   6.147  0.2219  0.3242 -0.3558
31559SOL    HW196994   4.097   0.278   6.149  0.6627  0.5855  0.5560
31559SOL    HW296995   4.133   0.157   6.233  0.4908 -0.2702 -0.5770
31560SOL     OW96996   6.113   4.813   8.642 -0.1101 -0.2124 -0.4883
31560SOL    HW196997   6.192   4.862   8.617 -0.5452 -0.0438 -1.5897
31560SOL    HW296998   6.071   4.868   8.707 -0.2732  0.6030 -1.2635
31561SOL     OW96999   9.044   0.264   3.632  0.3481  0.3561  0.3635
31561SOL    HW197000   9.019   0.257   3.540  2.8592 -1.0999 -0.3323
31561SOL    HW297001   8.985   0.204   3.678 -2.1661  2.4757  0.0971
31562SOL     OW97002   8.785   6.317   3.919 -0.0255 -0.2619 -0.1010
31562SOL    HW197003   8.713   6.256   3.907  0.0132 -0.1788 -0.7969
31562SOL    HW297004   8.858   6.277   3.871 -0.9111  1.9443 -3.6176
31563SOL     OW97005   2.680   3.395   6.125  0.1445 -0.0174 -0.0681
31563SOL    HW197006   2.629   3.390   6.043 -1.2717 -0.7306  0.8165
31563SOL    HW297007   2.614   3.410   6.193  1.1737 -0.4860  1.0667
31564SOL     OW97008   7.113   7.988   9.886  0.4929 -0.4131  0.0261
31564SOL    HW197009   7.083   7.918   9.944 -0.6288  1.2289  1.5502
31564SOL    HW297010   7.153   8.052   9.945  0.5935  0.6802 -1.1817
31565SOL     OW97011   6.672   8.722   4.857  0.5038  0.2912 -0.0108
31565SOL    HW197012   6.760   8.710   4.893  0.0343  1.6257  1.7337
31565SOL    HW297013   6.613   8.701   4.929 -0.5925  0.2149 -0.9041
31566SOL     OW97014   2.308  10.512   9.202  0.2974 -0.2586  0.3833
31566SOL    HW197015   2.247  10.464   9.146 -0.6173  1.4563 -0.1737
31566SOL    HW297016   2.266  10.514   9.288 -0.0599  0.1990  0.2053
31567SOL     OW97017   6.311   8.947   5.313 -0.1974 -0.8555 -0.4232
31567SOL    HW197018   6.283   9.038   5.311 -0.8031 -1.0486 -1.4155
31567SOL    HW297019   6.378   8.944   5.381  0.1074  0.4124 -0.6355
31568SOL     OW97020   2.959   8.392   6.917  0.3047  0.4866  0.6771
31568SOL    HW197021   3.021   8.373   6.847  1.2113 -1.0306  1.8155
31568SOL    HW297022   2.874   8.363   6.883  0.7861 -0.5137  0.2777
31569SOL     OW97023   0.850   6.977   9.228  0.2967 -0.1448 -0.6153
31569SOL    HW197024   0.763   7.015   9.235  0.0239 -0.7824 -0.4943
31569SOL    HW297025   0.836   6.890   9.189  0.3817 -1.9948  3.0382
31570SOL     OW97026   9.219   8.556   1.712  0.2138  0.0762  0.2219
31570SOL    HW197027   9.306   8.529   1.683  0.2757  1.3593 -0.8972
31570SOL    HW297028   9.160   8.492   1.672  0.6329 -0.8409  1.0402
31571SOL     OW97029  10.160   4.934   4.480  0.2677 -0.0828 -0.2068
31571SOL    HW197030  10.122   4.893   4.558 -0.5310 -1.1692 -1.1418
31571SOL    HW297031  10.247   4.963   4.509 -0.1053 -0.2548  1.1527
31572SOL     OW97032   3.186   7.919   7.640 -0.2851  0.2469 -0.2221
31572SOL    HW197033   3.195   7.865   7.561  0.4985 -1.7536  1.1780
31572SOL    HW297034   3.092   7.923   7.656 -0.4236  0.3445 -1.0185
31573SOL     OW97035   8.082   6.999   7.005 -0.2358 -0.0219  0.5106
31573SOL    HW197036   8.115   6.945   7.077  0.4554  0.2666  0.4188
31573SOL    HW297037   8.158   7.049   6.975 -0.9971  1.5633  1.0717
31574SOL     OW97038   0.140   7.316   0.527  0.3504  0.6515 -0.3994
31574SOL    HW197039   0.185   7.353   0.603  0.9000  0.1814 -0.4908
31574SOL    HW297040   0.052   7.354   0.530  0.8016  1.7326 -0.3237
31575SOL     OW97041   2.648   5.515   8.066 -0.9468  0.4144 -0.0200
31575SOL    HW197042   2.667   5.443   8.006  1.0597  0.4378  0.5311
31575SOL    HW297043   2.691   5.491   8.148 -2.1821  1.1947  0.9026
31576SOL     OW97044   3.571  10.594   3.229  0.0610  0.1650 -0.2823
31576SOL    HW197045   3.570  10.644   3.311  1.4494  1.6174 -1.0892
31576SOL    HW297046   3.646  10.535   3.239 -2.0429 -2.5138  1.0029
31577SOL     OW97047   4.619   7.562   3.639  1.2166 -0.3767  0.3419
31577SOL    HW197048   4.622   7.600   3.727 -0.0328 -1.5505  0.9188
31577SOL    HW297049   4.544   7.503   3.640  0.3314  0.5793 -1.9439
31578SOL     OW97050   6.119   3.522   0.402  0.0858  0.3027  0.1273
31578SOL    HW197051   6.188   3.583   0.376  0.4377 -0.7476 -1.6230
31578SOL    HW297052   6.164   3.438   0.410 -0.5816  0.0441  1.3978
31579SOL     OW97053   8.010   7.351   1.559  0.5277 -0.0635  0.5953
31579SOL    HW197054   8.085   7.292   1.563  1.8612  1.5976  1.4526
31579SOL    HW297055   7.971   7.346   1.646 -0.5196 -1.0582  0.0995
31580SOL     OW97056   2.099   4.299   1.823  0.1853 -0.1508  0.1480
31580SOL    HW197057   2.066   4.283   1.735  2.2193  0.8543 -0.8854
31580SOL    HW297058   2.080   4.219   1.871 -2.7182 -0.0136 -0.5743
31581SOL     OW97059   0.549   8.691   3.256  0.0553  0.2259  0.2376
31581SOL    HW197060   0.547   8.752   3.182  0.5830 -0.6598 -0.5277
31581SOL    HW297061   0.566   8.746   3.332 -0.8813  1.2086 -0.2358
31582SOL     OW97062   9.635   0.582  10.561 -0.2807  0.2921 -0.2065
31582SOL    HW197063   9.568   0.603  10.626 -0.5663 -0.2136 -0.3259
31582SOL    HW297064   9.585   0.564  10.481  0.1412  2.5389 -1.0498
31583SOL     OW97065   2.968   3.655   5.504 -0.0965 -0.1021  0.5531
31583SOL    HW197066   2.990   3.696   5.420  2.1079 -0.2553  0.9998
31583SOL    HW297067   3.050   3.615   5.533 -1.2565 -1.6004  1.9408
31584SOL     OW97068  10.379   0.553   9.214  0.1260 -0.2837  0.0646
31584SOL    HW197069  10.303   0.562   9.273  0.2450 -1.3360  0.4072
31584SOL    HW297070  10.430   0.633   9.228 -1.1022  0.6142 -0.4530
31585SOL     OW97071   5.670   1.230   7.632  0.2996  0.3374  0.4739
31585SOL    HW197072   5.646   1.250   7.541 -0.5093  0.8212  0.7788
31585SOL    HW297073   5.602   1.273   7.684  0.1332 -0.8388  1.2743
31586SOL     OW97074   1.686   8.282   5.407  0.2472  0.3722  0.0272
31586SOL    HW197075   1.631   8.343   5.457 -0.2672  0.8673 -1.0906
31586SOL    HW297076   1.760   8.335   5.377 -0.4559  0.6253 -1.3752
31587SOL     OW97077   1.530   8.049   4.472 -0.0403 -0.1873  0.5404
31587SOL    HW197078   1.553   7.993   4.398  1.6819 -1.2360  1.7983
31587SOL    HW297079   1.451   8.095   4.444  0.7913 -0.2217 -2.0872
31588SOL     OW97080   3.392   5.622   7.744 -0.3068 -0.8000  0.0925
31588SOL    HW197081   3.387   5.527   7.737  2.2177 -0.9061 -1.6943
31588SOL    HW297082   3.486   5.640   7.753 -0.8122  1.4891  1.6118
31589SOL     OW97083   4.122   9.324  10.310 -0.3409  0.5131 -0.2763
31589SOL    HW197084   4.044   9.364  10.272  0.2370  0.2787 -1.7801
31589SOL    HW297085   4.114   9.231  10.288  1.0286  0.7014 -1.6765
31590SOL     OW97086   9.262   0.773   7.125 -0.0073 -0.0558  0.2938
31590SOL    HW197087   9.292   0.762   7.035 -1.1039 -1.6285  0.0846
31590SOL    HW297088   9.342   0.767   7.178  0.7385  1.5926 -0.5832
31591SOL     OW97089   4.544   3.315   3.210  0.2823 -0.1657 -0.6688
31591SOL    HW197090   4.607   3.304   3.138 -0.1151 -0.0891 -1.0299
31591SOL    HW297091   4.598   3.311   3.289  1.1002  2.3801 -1.0240
31592SOL     OW97092   9.845   5.706   0.399 -0.7941  0.2202  0.0926
31592SOL    HW197093   9.924   5.759   0.398 -0.0384 -0.8611 -1.5814
31592SOL    HW297094   9.860   5.642   0.469  0.2289 -0.5060 -0.7451
31593SOL     OW97095   8.965   7.120   3.962 -0.2581  0.8390  0.3831
31593SOL    HW197096   8.928   7.033   3.978 -0.8122  0.6977 -1.4824
31593SOL    HW297097   9.040   7.125   4.021  0.8748 -1.6270 -0.7385
31594SOL     OW97098   6.509   1.092   3.934 -0.1883  0.0504  0.0504
31594SOL    HW197099   6.590   1.073   3.981 -0.4421  1.4344  1.1084
31594SOL    HW297100   6.472   1.006   3.913  1.4586 -0.5929 -0.3280
31595SOL     OW97101   8.343   1.767  10.322 -0.0555  0.9445 -0.2756
31595SOL    HW197102   8.253   1.736  10.323  0.7780 -1.7712  0.2382
31595SOL    HW297103   8.392   1.695  10.282  1.9325  2.1823 -0.1861
31596SOL     OW97104   0.427   2.199   5.452 -0.2568  0.4743 -0.2024
31596SOL    HW197105   0.451   2.289   5.434  1.3984  0.3695  1.2059
31596SOL    HW297106   0.468   2.148   5.382 -0.5129  0.7371 -0.5435
31597SOL     OW97107   2.434  10.050   6.263  0.1075 -0.1790 -0.1905
31597SOL    HW197108   2.364  10.012   6.315 -0.3800 -0.2929 -0.9154
31597SOL    HW297109   2.513  10.039   6.317 -0.4657  0.2071  0.7510
31598SOL     OW97110   2.585   9.696   5.771  0.4995  0.4556 -0.2261
31598SOL    HW197111   2.511   9.757   5.773  0.5661  0.5880 -1.5477
31598SOL    HW297112   2.563   9.632   5.839  0.1445  1.5933  0.7742
31599SOL     OW97113   1.704   0.339   1.383 -0.4574  0.1516  0.0814
31599SOL    HW197114   1.630   0.393   1.411  0.1082  0.6554  0.6360
31599SOL    HW297115   1.717   0.278   1.456 -0.5287 -0.1507 -0.1569
31600SOL     OW97116   8.529   8.039   1.700  0.3608 -0.1293  0.4183
31600SOL    HW197117   8.604   8.050   1.643  1.7156 -0.7968  1.9872
31600SOL    HW297118   8.456   8.017   1.641  1.0051  1.9055 -1.2797
31601SOL     OW97119   2.875   6.469   0.667 -0.3027  0.1849 -0.2518
31601SOL    HW197120   2.795   6.520   0.680 -1.6213 -1.8328  0.0923
31601SOL    HW297121   2.908   6.453   0.756  0.5646  1.0876 -0.3967
31602SOL     OW97122   6.825   0.124   5.292  0.5654  0.2405 -0.4197
31602SOL    HW197123   6.871   0.208   5.288 -0.3140  0.7624  0.0407
31602SOL    HW297124   6.759   0.130   5.223 -0.2682  0.4181  0.3747
31603SOL     OW97125   4.008   4.711   3.140 -0.5611 -0.4461  0.1212
31603SOL    HW197126   3.990   4.782   3.202 -1.5996  0.2994 -0.9897
31603SOL    HW297127   3.956   4.638   3.172 -1.2832  0.0100  0.0173
31604SOL     OW97128   1.939   9.598   3.290  0.3189  0.0413 -0.3519
31604SOL    HW197129   1.938   9.526   3.353 -2.5527  1.1699  1.0649
31604SOL    HW297130   1.922   9.556   3.206 -0.8293 -1.0219  0.3780
31605SOL     OW97131   5.332   0.857   1.112 -0.0908  0.1144  0.0746
31605SOL    HW197132   5.359   0.942   1.077 -0.6747  0.2405 -0.0799
31605SOL    HW297133   5.276   0.878   1.187 -2.6511 -0.0176 -1.6607
31606SOL     OW97134   7.619   9.627   1.838 -0.4768  0.2345  0.7461
31606SOL    HW197135   7.529   9.594   1.836 -0.2260 -0.4737  0.8837
31606SOL    HW297136   7.609   9.722   1.852 -1.2252  0.3168 -0.2050
31607SOL     OW97137   3.487   1.535   9.501  0.7365 -0.1092  0.2597
31607SOL    HW197138   3.472   1.457   9.448 -0.5485  1.9411 -2.6276
31607SOL    HW297139   3.408   1.543   9.554 -0.4928  0.7238 -1.5911
31608SOL     OW97140   9.661   8.309   1.714  0.3235  0.2423  0.4058
31608SOL    HW197141   9.692   8.394   1.684  0.1836 -0.4089 -1.8213
31608SOL    HW297142   9.739   8.253   1.712 -0.2075 -0.5638 -1.9413
31609SOL     OW97143   2.803   7.659   9.035  0.5645 -0.1319 -0.0249
31609SOL    HW197144   2.809   7.675   9.129  0.0465  0.6971 -0.1277
31609SOL    HW297145   2.889   7.684   9.001 -0.3316  3.0229 -0.2410
31610SOL     OW97146   9.592   2.452   3.616 -0.0687 -0.5372  0.1136
31610SOL    HW197147   9.556   2.540   3.623 -0.5193 -0.6163 -0.9532
31610SOL    HW297148   9.580   2.414   3.703 -0.6091  0.1761  0.3633
31611SOL     OW97149   2.238   9.231   6.484 -0.4777  0.4889 -0.2547
31611SOL    HW197150   2.209   9.309   6.530  0.8477  0.6027  0.4342
31611SOL    HW297151   2.325   9.254   6.451 -1.3380  0.4180 -2.8551
31612SOL     OW97152   2.904   4.898   8.414 -0.2713 -0.2734 -0.1110
31612SOL    HW197153   2.811   4.903   8.436 -0.4869 -2.1057 -0.4306
31612SOL    HW297154   2.905   4.858   8.327  0.8253 -0.7484  0.1099
31613SOL     OW97155   1.851   8.912   9.458 -0.2814  0.2844  0.7717
31613SOL    HW197156   1.864   8.820   9.435  3.0575  0.6713  0.5331
31613SOL    HW297157   1.863   8.914   9.553  1.1476  0.5905  0.6133
31614SOL     OW97158   6.019   5.677   3.198  0.4748  0.1940 -0.1054
31614SOL    HW197159   5.933   5.635   3.191  0.5640 -0.0795  0.3810
31614SOL    HW297160   6.029   5.694   3.291  0.7391  0.6757 -0.2224
31615SOL     OW97161   4.694   4.836   6.006 -0.1954 -0.6042 -0.4254
31615SOL    HW197162   4.710   4.791   6.090 -0.8756 -1.2527 -0.6293
31615SOL    HW297163   4.751   4.791   5.944  0.7260  0.2421 -0.2165
31616SOL     OW97164   0.100   7.608   0.385 -0.2167  0.2942 -0.3520
31616SOL    HW197165   0.177   7.558   0.357 -0.2892  1.2421 -2.4960
31616SOL    HW297166   0.025   7.557   0.353 -0.4397 -0.0094  0.6369
31617SOL     OW97167   5.944   1.562   5.083 -0.3970 -0.0321  0.2573
31617SOL    HW197168   5.922   1.602   5.168 -0.8153  1.2593 -0.4340
31617SOL    HW297169   6.030   1.523   5.098 -0.1149  0.8380  1.0884
31618SOL     OW97170   2.029   0.889   1.418 -0.2188 -0.3297 -0.0741
31618SOL    HW197171   2.070   0.970   1.388  0.5162 -0.8800 -0.5915
31618SOL    HW297172   2.059   0.880   1.509  1.4620 -1.0938 -0.6536
31619SOL     OW97173   8.161   0.072   8.326  0.5816  0.3091  0.1201
31619SOL    HW197174   8.245   0.111   8.347  0.7729 -0.2057  0.3185
31619SOL    HW297175   8.183  -0.013   8.287  0.1759  0.4352 -0.3992
31620SOL     OW97176   5.725   8.072   7.060 -0.4778  0.0093  0.3547
31620SOL    HW197177   5.712   7.987   7.020  0.3136 -0.2965  0.7245
31620SOL    HW297178   5.727   8.054   7.154 -1.1883  0.5616  0.4873
31621SOL     OW97179   9.430   9.508   6.824  0.1601 -0.1158  0.4027
31621SOL    HW197180   9.519   9.490   6.854 -0.2690 -1.3368  1.0176
31621SOL    HW297181   9.399   9.423   6.792  0.1671  0.8504 -2.4518
31622SOL     OW97182   1.388   7.870   3.009 -0.5283  0.5370 -0.9015
31622SOL    HW197183   1.347   7.954   3.032 -1.3604  0.1160 -0.8016
31622SOL    HW297184   1.324   7.827   2.953  0.2685  0.3266 -1.6662
31623SOL     OW97185   5.014   1.758   0.851 -0.3379  0.3258 -0.0464
31623SOL    HW197186   5.027   1.801   0.766 -0.6445  1.5518  0.4940
31623SOL    HW297187   4.976   1.673   0.830 -3.5896  1.8815 -1.0410
31624SOL     OW97188   4.948   8.088   3.865 -0.3509 -0.3114  0.4677
31624SOL    HW197189   4.917   8.002   3.894 -1.8051  0.3659  1.0019
31624SOL    HW297190   5.032   8.070   3.823 -1.4445 -2.2402 -1.0633
31625SOL     OW97191   7.039   1.608   6.847 -0.4536  0.4518 -0.2812
31625SOL    HW197192   6.991   1.589   6.766  0.2801 -0.8235 -0.4427
31625SOL    HW297193   7.115   1.551   6.844  0.4688  1.5838  0.5419
31626SOL     OW97194   7.298   3.783   3.085 -0.4252  0.1654 -0.4295
31626SOL    HW197195   7.280   3.772   3.179  1.5456  0.2508 -0.0010
31626SOL    HW297196   7.292   3.695   3.049  2.5426 -0.5637  0.5573
31627SOL     OW97197   2.865   0.161   0.856  0.4342  0.1607 -0.9053
31627SOL    HW197198   2.888   0.253   0.842  0.9824  0.4215  1.2311
31627SOL    HW297199   2.776   0.153   0.824  0.0857  1.6675 -0.3916
31628SOL     OW97200   3.243   9.246   3.124  0.3581  0.0474 -0.3754
31628SOL    HW197201   3.269   9.289   3.206 -0.9702  0.2347 -0.0370
31628SOL    HW297202   3.260   9.310   3.056  1.1014  0.0336 -0.2147
31629SOL     OW97203   9.895   7.460   2.635 -0.1475 -0.0296 -0.0468
31629SOL    HW197204   9.816   7.406   2.625  0.2362 -0.4928 -0.6059
31629SOL    HW297205   9.933   7.464   2.547  0.4504  0.1981  0.2173
31630SOL     OW97206   7.575   7.471   6.831  0.1855  0.2848 -0.0474
31630SOL    HW197207   7.526   7.453   6.911 -0.3755  1.3008 -0.1468
31630SOL    HW297208   7.638   7.399   6.825 -0.4438 -0.3544  0.7566
31631SOL     OW97209   3.478   6.858   2.971 -0.7452 -0.2440 -0.4139
31631SOL    HW197210   3.550   6.920   2.986 -1.4114  0.3389  0.4674
31631SOL    HW297211   3.425   6.900   2.903  0.2423 -1.1268 -1.7756
31632SOL     OW97212   4.486   6.800   0.123 -0.5752  0.0251  0.4929
31632SOL    HW197213   4.543   6.801   0.200 -1.8840 -3.1257  1.6803
31632SOL    HW297214   4.440   6.883   0.127  0.4355  0.5630  2.3094
31633SOL     OW97215   9.354   4.340   0.228 -0.0160  0.9135  0.0834
31633SOL    HW197216   9.351   4.308   0.137  1.3631  2.3613 -0.5199
31633SOL    HW297217   9.431   4.396   0.231  0.1875  0.5903  2.2896
31634SOL     OW97218   0.234   8.016  10.110  0.4237  0.5536 -0.6347
31634SOL    HW197219   0.274   8.070  10.179  1.0118 -0.7959  0.1186
31634SOL    HW297220   0.162   8.069  10.077 -0.2979  1.0043  1.4760
31635SOL     OW97221   7.151   3.024   7.895 -0.1196  0.1703 -0.3700
31635SOL    HW197222   7.080   3.066   7.944 -0.6258  0.3629 -1.2443
31635SOL    HW297223   7.172   3.086   7.825  0.5865 -0.1045 -0.4075
31636SOL     OW97224   4.473   9.376   0.999  0.4336  0.7056  0.2192
31636SOL    HW197225   4.548   9.428   0.971  1.6353 -0.0008  1.9750
31636SOL    HW297226   4.446   9.414   1.082  1.0888 -1.1245  1.3470
31637SOL     OW97227   8.363   6.555   9.541 -0.1756  0.0090  0.0862
31637SOL    HW197228   8.319   6.470   9.530 -1.2095  0.0706  2.9493
31637SOL    HW297229   8.456   6.533   9.545 -0.3689 -0.8680 -0.0375
31638SOL     OW97230   3.903   7.229   5.771 -0.4773  0.2146  0.7890
31638SOL    HW197231   3.828   7.196   5.820 -0.9419 -2.1324 -1.2943
31638SOL    HW297232   3.871   7.238   5.682  1.6093 -0.5488 -0.0984
31639SOL     OW97233   1.208   8.269   0.393 -0.4370 -0.0754 -0.4101
31639SOL    HW197234   1.142   8.272   0.324  0.1456 -0.2594 -0.9779
31639SOL    HW297235   1.248   8.356   0.393 -1.2844  0.3423  0.5521
31640SOL     OW97236   2.048   4.019   9.009  0.2264 -0.0993  0.0293
31640SOL    HW197237   1.991   4.056   8.942 -0.9836  1.1087  1.6361
31640SOL    HW297238   2.070   4.094   9.065  0.4621 -1.1996  1.4639
31641SOL     OW97239   7.953   8.519   5.436  0.0936 -0.0293  0.1294
31641SOL    HW197240   8.000   8.602   5.436  0.3654 -0.1778 -0.2739
31641SOL    HW297241   7.871   8.537   5.482 -0.2749  0.7147 -0.7771
31642SOL     OW97242   8.861   7.191   9.715 -0.1838 -0.5514  0.2531
31642SOL    HW197243   8.944   7.184   9.764 -0.0848  1.9908  0.6121
31642SOL    HW297244   8.859   7.114   9.659  1.5695 -1.5891  1.5319
31643SOL     OW97245   8.861   8.904   7.331  0.0062 -0.4744 -0.1133
31643SOL    HW197246   8.790   8.941   7.278  0.4717 -0.5551 -0.8044
31643SOL    HW297247   8.902   8.839   7.274  2.0804  1.1525 -0.5749
31644SOL     OW97248   7.153   6.381   3.694  0.3779 -1.1745  0.2716
31644SOL    HW197249   7.218   6.451   3.695 -0.6891 -0.1521  1.5243
31644SOL    HW297250   7.171   6.330   3.773  0.3043 -1.4984  0.0804
31645SOL     OW97251   1.191   4.095   8.146  0.0501  0.3352 -0.1368
31645SOL    HW197252   1.148   4.136   8.221 -0.4500 -2.4258  1.1960
31645SOL    HW297253   1.283   4.087   8.171 -0.1556 -0.7782  0.3072
31646SOL     OW97254   3.505   1.700   6.140 -0.1507 -0.4581  0.0647
31646SOL    HW197255   3.582   1.645   6.127  0.8140  0.5674  1.2548
31646SOL    HW297256   3.432   1.638   6.146  0.6971 -1.5042 -0.1934
31647SOL     OW97257   5.065   6.292   5.819 -0.3824  0.0504  0.0685
31647SOL    HW197258   5.071   6.375   5.772 -0.2304  1.7377  2.8178
31647SOL    HW297259   5.143   6.243   5.793  0.4961  1.5725 -0.2683
31648SOL     OW97260  10.589   5.545   0.807  0.2349 -0.0798 -0.0545
31648SOL    HW197261  10.632   5.488   0.871 -0.6879  0.2250  0.8691
31648SOL    HW297262  10.622   5.516   0.722  1.0653 -0.8600  0.5245
31649SOL     OW97263   9.091  10.413   9.097  0.1045 -0.2221 -0.0913
31649SOL    HW197264   9.095  10.468   9.019  0.9850  0.5553  0.4854
31649SOL    HW297265   9.014  10.358   9.083  0.1428  0.0302 -1.4183
31650SOL     OW97266   4.120   9.159   7.403 -0.0833 -0.3400 -0.3967
31650SOL    HW197267   4.201   9.152   7.352  0.4640  0.6205  0.2870
31650SOL    HW297268   4.101   9.253   7.405 -0.7290 -0.4735  0.1872
31651SOL     OW97269   3.666   1.194   0.979  0.4673  0.3658 -0.1831
31651SOL    HW197270   3.652   1.243   0.899  2.7291 -0.8034 -1.3821
31651SOL    HW297271   3.757   1.213   1.004 -0.2243  0.8520  2.2414
31652SOL     OW97272   1.234   8.451   4.861  0.5761 -0.3127  0.0528
31652SOL    HW197273   1.308   8.439   4.920  1.7421  1.7140 -0.8852
31652SOL    HW297274   1.269   8.504   4.789 -2.1870  2.3610  0.4689
31653SOL     OW97275   5.596  10.339   4.451 -0.2128  0.0916 -0.0290
31653SOL    HW197276   5.588  10.417   4.506  1.0525 -0.3125  0.7668
31653SOL    HW297277   5.595  10.266   4.513 -1.1461 -0.5266 -0.7445
31654SOL     OW97278   4.251   3.872   4.269  0.2045  0.3440  0.2243
31654SOL    HW197279   4.340   3.837   4.280  0.3522  0.4497 -0.6000
31654SOL    HW297280   4.257   3.931   4.194 -0.5945  0.2461  0.0724
31655SOL     OW97281   7.619   3.986  10.436  0.1838 -0.2674  0.5420
31655SOL    HW197282   7.583   3.897  10.446  0.5995 -0.4054  0.8353
31655SOL    HW297283   7.587   4.033  10.513  0.0873 -0.2047  0.4634
31656SOL     OW97284   6.997   7.093   8.709 -0.2656 -0.2667 -0.0439
31656SOL    HW197285   7.071   7.142   8.674 -0.0964 -1.0852 -0.8448
31656SOL    HW297286   7.017   7.083   8.802 -0.5124  1.5465  0.2466
31657SOL     OW97287   9.634   3.493   8.913 -0.2634  0.1592  0.4398
31657SOL    HW197288   9.617   3.441   8.991  0.8003 -1.4568 -0.3786
31657SOL    HW297289   9.703   3.554   8.939  1.8082 -1.9418  0.1846
31658SOL     OW97290   0.555   7.688   6.666 -0.6131 -0.2286  0.1994
31658SOL    HW197291   0.572   7.754   6.733  1.3127  1.1702 -1.5306
31658SOL    HW297292   0.463   7.701   6.643 -0.4978  1.3373  0.4820
31659SOL     OW97293   6.179   9.114   7.978  0.1792  0.0048 -0.4782
31659SOL    HW197294   6.147   9.200   7.954  0.8174  0.2219 -0.5623
31659SOL    HW297295   6.201   9.072   7.895 -1.4862 -0.7892 -0.5464
31660SOL     OW97296   9.740   7.992   9.828  0.2412 -0.0711 -0.6623
31660SOL    HW197297   9.818   8.031   9.869  0.1844  0.1721 -0.7830
31660SOL    HW297298   9.758   7.898   9.828  0.1555 -0.0921  0.0963
31661SOL     OW97299   3.034   4.412  10.016  0.2899  0.3366  0.4558
31661SOL    HW197300   3.102   4.479  10.010  0.7830 -0.1923 -0.0259
31661SOL    HW297301   3.078   4.336  10.054  0.0935 -0.1556 -0.2769
31662SOL     OW97302   8.913   4.611   5.009  0.1057 -0.8350  0.3019
31662SOL    HW197303   8.995   4.569   4.981  0.7727  0.2180  0.6196
31662SOL    HW297304   8.912   4.695   4.962 -0.5733 -0.6472  0.6469
31663SOL     OW97305   0.132   6.239   2.329  0.3150  0.2159  0.0551
31663SOL    HW197306   0.103   6.245   2.238  0.8671  1.4153 -0.0576
31663SOL    HW297307   0.224   6.215   2.323  0.5653  1.0861  0.2573
31664SOL     OW97308   8.490   9.910   3.854 -0.6434  0.1797 -0.5411
31664SOL    HW197309   8.509   9.963   3.776 -3.2028  1.3748 -0.4574
31664SOL    HW297310   8.529   9.959   3.926  0.1152  0.0435 -0.8475
31665SOL     OW97311   1.569   1.512   8.049 -0.2152 -0.0072 -0.3218
31665SOL    HW197312   1.565   1.605   8.027 -1.6092  0.1775  0.6011
31665SOL    HW297313   1.632   1.476   7.987 -0.5174  1.3399 -1.4781
31666SOL     OW97314   8.712   1.225   9.830 -0.2074 -0.0645 -0.0844
31666SOL    HW197315   8.794   1.276   9.833 -1.1328  1.6328 -1.5572
31666SOL    HW297316   8.675   1.236   9.917  1.2357 -1.1176  0.7153
31667SOL     OW97317   8.548   7.671   5.229  0.5318 -0.5476  0.5201
31667SOL    HW197318   8.553   7.762   5.201  1.8246 -0.8625 -0.3709
31667SOL    HW297319   8.455   7.655   5.244  0.1224  0.5236 -0.7055
31668SOL     OW97320   2.498   9.517   4.670  0.2999 -0.7975 -0.0499
31668SOL    HW197321   2.559   9.486   4.604  1.3240  0.5087  0.2460
31668SOL    HW297322   2.485   9.609   4.649 -0.2996 -0.6578  0.8682
31669SOL     OW97323   6.727   1.841   7.888 -0.2906  0.4701  0.3305
31669SOL    HW197324   6.646   1.871   7.847 -0.8532 -0.6882  0.5271
31669SOL    HW297325   6.759   1.916   7.938 -1.3791  0.8706  0.4515
31670SOL     OW97326   4.882   8.227   6.954  0.0297  0.1401 -0.5041
31670SOL    HW197327   4.945   8.295   6.932  0.3181 -0.6131 -2.1256
31670SOL    HW297328   4.799   8.257   6.916 -0.4043  0.6562  0.7772
31671SOL     OW97329   0.927   6.520   4.402 -0.6012 -0.1815 -0.3608
31671SOL    HW197330   0.923   6.426   4.385 -0.8929 -0.2153 -0.1148
31671SOL    HW297331   0.904   6.562   4.319 -2.5666 -0.3391  0.0731
31672SOL     OW97332   7.634   5.625   1.716 -0.4518 -0.2577 -0.6192
31672SOL    HW197333   7.705   5.670   1.761 -0.7525  1.9506 -2.1709
31672SOL    HW297334   7.662   5.534   1.712  0.6558 -0.1184  1.8214
31673SOL     OW97335   8.413   3.832   0.211 -0.5251  0.0559  0.2256
31673SOL    HW197336   8.367   3.827   0.127 -0.4364  0.1071  0.1729
31673SOL    HW297337   8.396   3.748   0.253 -2.2488  0.7751  1.0377
31674SOL     OW97338   6.980   9.931   7.145  0.0089  0.2255  0.3826
31674SOL    HW197339   7.064   9.912   7.102 -0.1958 -0.1678  0.1531
31674SOL    HW297340   6.925   9.856   7.125 -0.9460  1.2165 -0.8760
31675SOL     OW97341   0.610   7.177   8.338  0.2833 -0.7768 -0.1457
31675SOL    HW197342   0.701   7.153   8.317  0.2171 -2.2893  1.1201
31675SOL    HW297343   0.613   7.207   8.429 -0.5230 -1.1484  0.0111
31676SOL     OW97344   5.264   9.323   7.933  0.1882 -0.1079 -0.0948
31676SOL    HW197345   5.236   9.233   7.921 -0.2698 -0.0373  0.4002
31676SOL    HW297346   5.183   9.372   7.949  0.6261 -0.0677  2.4206
31677SOL     OW97347   2.585   4.021   8.690  0.7325 -0.8169 -0.0387
31677SOL    HW197348   2.518   3.986   8.630 -2.1347  1.4571  1.5454
31677SOL    HW297349   2.604   4.108   8.656  0.0601 -0.0134  1.5456
31678SOL     OW97350   2.449   7.223   6.388 -0.5157  0.2490 -0.4748
31678SOL    HW197351   2.506   7.188   6.319  0.6209 -0.3583  0.7145
31678SOL    HW297352   2.393   7.150   6.413 -2.2678  1.0045 -2.0295
31679SOL     OW97353   9.761   8.667   1.172  0.5391 -0.2069  0.2327
31679SOL    HW197354   9.818   8.598   1.206 -0.2859 -0.1689  1.7718
31679SOL    HW297355   9.693   8.620   1.125 -0.5712 -0.5716  2.1003
31680SOL     OW97356   3.752   8.570   8.751  0.3845 -0.3520 -0.2100
31680SOL    HW197357   3.825   8.565   8.812 -0.1905 -1.2869  0.4051
31680SOL    HW297358   3.674   8.569   8.805 -0.1102  1.6157 -0.7977
31681SOL     OW97359   0.967   9.358  10.484 -0.0205 -0.1308 -0.2785
31681SOL    HW197360   1.033   9.361  10.414 -0.7836  1.1276 -0.9715
31681SOL    HW297361   0.922   9.442  10.478  0.8018  0.6314  2.6458
31682SOL     OW97362   1.987   0.791   0.559 -0.1958 -0.3222  0.4152
31682SOL    HW197363   1.906   0.828   0.593  0.1467  0.7683  0.0667
31682SOL    HW297364   1.962   0.703   0.529 -1.4524  0.3172 -0.5076
31683SOL     OW97365   9.064   4.932   1.643  0.0007  0.2434  0.5328
31683SOL    HW197366   9.157   4.956   1.641  0.0087  0.2248  0.6962
31683SOL    HW297367   9.051   4.883   1.562  0.7209 -1.9763  1.6788
31684SOL     OW97368   0.304   4.793   4.457 -0.0284 -0.4193 -0.4304
31684SOL    HW197369   0.240   4.784   4.386 -0.7652 -0.9851  0.2823
31684SOL    HW297370   0.316   4.887   4.467 -1.0481 -0.2951 -0.3196
31685SOL     OW97371   7.749  10.199   2.178 -0.5210  0.2706 -0.4027
31685SOL    HW197372   7.721  10.290   2.186 -0.5140  0.2425 -0.0750
31685SOL    HW297373   7.801  10.182   2.256 -2.0841 -0.5658  0.5071
31686SOL     OW97374   4.335   9.963  10.293  0.0823  0.7453  0.0477
31686SOL    HW197375   4.324  10.035  10.355  0.9894  0.6276  0.3478
31686SOL    HW297376   4.268   9.899  10.319  0.5146  0.6562  0.9591
31687SOL     OW97377   9.127   7.369   3.892 -0.2340  0.3669  0.6870
31687SOL    HW197378   9.206   7.361   3.945 -0.3147  1.5624  1.0161
31687SOL    HW297379   9.064   7.311   3.934 -0.0384  0.6743  1.4221
31688SOL     OW97380   8.920   1.138   8.309  0.1480  0.0035 -0.2478
31688SOL    HW197381   8.968   1.193   8.247 -0.2534 -0.1926 -0.7359
31688SOL    HW297382   8.897   1.060   8.259 -1.1765  0.3308 -0.1976
31689SOL     OW97383   6.745   0.999   8.840 -0.6769 -0.0890  0.2948
31689SOL    HW197384   6.734   1.094   8.843  1.4569  0.3381 -1.8133
31689SOL    HW297385   6.800   0.979   8.915  0.1534  0.6046 -0.1065
31690SOL     OW97386   9.992   0.348   5.617  0.1387  0.0418  0.2119
31690SOL    HW197387   9.995   0.252   5.622 -2.7313 -0.3007 -1.9812
31690SOL    HW297388   9.954   0.375   5.700  1.6294 -0.6032  1.1448
31691SOL     OW97389   2.437   1.469   7.042  0.0498  0.1406  0.2908
31691SOL    HW197390   2.491   1.502   7.114 -1.7538  3.5116  0.3251
31691SOL    HW297391   2.355   1.443   7.083 -0.3382  0.3760 -0.3271
31692SOL     OW97392   1.521   3.496   7.279 -0.3666  0.1171  0.1077
31692SOL    HW197393   1.553   3.574   7.324  0.6333  0.2223 -0.7539
31692SOL    HW297394   1.590   3.431   7.290  0.5211  0.5585 -2.3487
31693SOL     OW97395   6.292   3.984   3.914 -0.0791 -0.1937  0.0509
31693SOL    HW197396   6.323   3.967   3.825  0.0727  0.1972  0.0295
31693SOL    HW297397   6.317   3.905   3.963  0.7171  0.0022 -0.0246
31694SOL     OW97398   7.145   0.044   5.051  0.0707  0.1812  0.1605
31694SOL    HW197399   7.234   0.009   5.051 -0.2091 -0.5647  1.1440
31694SOL    HW297400   7.151   0.124   5.103 -0.0147 -0.4061  1.1031
31695SOL     OW97401   4.922   6.446   1.474 -0.6906 -0.4266 -0.5163
31695SOL    HW197402   5.015   6.467   1.467 -1.0693  1.6458  0.0852
31695SOL    HW297403   4.920   6.351   1.485  1.2787 -0.6495 -1.5892
31696SOL     OW97404   4.697  10.312   7.400 -0.3184  0.0497 -0.0305
31696SOL    HW197405   4.692  10.271   7.486 -0.2866 -1.1523 -0.5887
31696SOL    HW297406   4.773  10.370   7.405 -1.6987  1.8640  1.5083
31697SOL     OW97407   7.537   6.815   1.923 -0.1319 -0.0156  0.0127
31697SOL    HW197408   7.603   6.873   1.884  0.0840  0.0800  0.5061
31697SOL    HW297409   7.488   6.872   1.982 -0.8048 -0.0373 -0.5114
31698SOL     OW97410   4.398   0.790   0.577  0.1687 -0.1752 -0.3359
31698SOL    HW197411   4.465   0.722   0.567 -1.0375 -1.3932 -0.4035
31698SOL    HW297412   4.401   0.812   0.671  0.3256 -0.5914 -0.2401
31699SOL     OW97413   8.365  10.285   5.962 -0.0407  0.1600 -0.2405
31699SOL    HW197414   8.435  10.260   6.021  0.1743  0.2562 -0.4501
31699SOL    HW297415   8.358  10.212   5.900  0.0618  0.2723 -0.3851
31700SOL     OW97416   5.365   8.400   7.427  0.1823 -0.2048  0.0492
31700SOL    HW197417   5.302   8.423   7.358  0.4361 -0.1739 -0.1720
31700SOL    HW297418   5.337   8.451   7.503 -2.1463 -2.6671  1.0321
31701SOL     OW97419   8.316   7.034   1.311  0.6456 -0.0837 -0.1639
31701SOL    HW197420   8.287   7.068   1.226  0.4428  0.8497  0.2624
31701SOL    HW297421   8.411   7.026   1.302  0.7738  1.1688 -0.0973
31702SOL     OW97422   6.261   1.357   6.945  0.0560  0.3108  0.2617
31702SOL    HW197423   6.336   1.355   7.004  1.0948 -1.5755 -1.0062
31702SOL    HW297424   6.280   1.429   6.885  1.1506 -0.4342 -0.3368
31703SOL     OW97425   6.420   2.253   7.724 -0.0762  0.0427  0.0192
31703SOL    HW197426   6.508   2.285   7.746  0.8771 -1.4452 -1.3435
31703SOL    HW297427   6.381   2.323   7.672  0.1202  0.9026  1.0029
31704SOL     OW97428   4.393   3.408   7.350  0.0822 -0.3450 -0.5926
31704SOL    HW197429   4.436   3.365   7.423  0.8654 -3.0608 -2.5052
31704SOL    HW297430   4.424   3.498   7.353  1.5092 -0.8518  1.3230
31705SOL     OW97431   9.764   9.382   6.260 -0.6567  0.2802 -0.2060
31705SOL    HW197432   9.730   9.335   6.184 -1.9212  0.4263  0.2375
31705SOL    HW297433   9.808   9.459   6.223  0.2785 -0.5472 -0.8598
31706SOL     OW97434   5.087   1.409   4.831 -0.0938 -0.9326  0.0842
31706SOL    HW197435   5.020   1.374   4.772  1.2691  0.7845 -2.7072
31706SOL    HW297436   5.161   1.348   4.821 -0.1984 -1.1865  0.8345
31707SOL     OW97437   6.353   1.624   9.989  0.3994  0.2969  0.2107
31707SOL    HW197438   6.347   1.568  10.066 -1.3403 -0.1921 -0.2373
31707SOL    HW297439   6.415   1.580   9.931  1.3984  0.4570  1.1448
31708SOL     OW97440   2.045   8.046   6.791 -0.6807 -0.5527  0.7060
31708SOL    HW197441   1.951   8.046   6.776 -0.6663 -0.7821  0.6040
31708SOL    HW297442   2.068   8.138   6.801 -0.5218 -0.2332 -1.7806
31709SOL     OW97443   9.974   1.770   8.927  0.7607  0.2009 -0.0228
31709SOL    HW197444  10.023   1.828   8.985  1.2006  0.3718 -0.5559
31709SOL    HW297445   9.891   1.754   8.973  1.0075  0.5152  0.5406
31710SOL     OW97446   9.693   0.395   4.995  0.1988 -0.5134 -0.3779
31710SOL    HW197447   9.770   0.367   5.045  0.2099 -0.0880 -0.1447
31710SOL    HW297448   9.620   0.348   5.035  0.4607 -1.7578 -1.3016
31711SOL     OW97449   4.546   9.518   7.122  0.0959 -0.5491 -0.2721
31711SOL    HW197450   4.514   9.579   7.189 -0.2848 -1.2006  0.1513
31711SOL    HW297451   4.637   9.544   7.107  0.8077 -1.5667  1.8893
31712SOL     OW97452   3.384   6.082   5.744  0.1457  0.2482 -0.1208
31712SOL    HW197453   3.347   6.040   5.667  0.7549  0.8989 -0.7876
31712SOL    HW297454   3.468   6.117   5.714 -1.3220  4.0432 -0.3294
31713SOL     OW97455   6.090   0.323   2.127 -0.4657 -0.6517 -0.2508
31713SOL    HW197456   6.153   0.388   2.094 -0.3971 -1.0931 -1.0233
31713SOL    HW297457   6.140   0.272   2.191 -1.0288  1.1948  1.7693
31714SOL     OW97458   5.386   3.556   6.530 -0.3212 -0.1294 -0.2044
31714SOL    HW197459   5.313   3.589   6.477 -0.9244 -2.8466 -1.2958
31714SOL    HW297460   5.463   3.566   6.474  0.3808  3.1915  1.1330
31715SOL     OW97461   2.493   7.019   9.633 -0.0640 -0.3363 -0.9448
31715SOL    HW197462   2.422   7.031   9.570 -0.4215  0.6436 -0.3726
31715SOL    HW297463   2.489   7.097   9.689  0.9892 -0.6276 -0.4416
31716SOL     OW97464   4.380   0.539   9.743  0.4897  0.1345  0.0549
31716SOL    HW197465   4.338   0.576   9.820 -1.2822 -0.5152 -0.5593
31716SOL    HW297466   4.373   0.607   9.676 -0.9307 -0.4837 -0.4663
31717SOL     OW97467   3.473   3.917   4.442  0.0287  0.3843  0.0057
31717SOL    HW197468   3.550   3.861   4.428 -0.7264 -1.0876  1.4057
31717SOL    HW297469   3.473   3.934   4.536 -1.1836  0.6449 -0.0295
31718SOL     OW97470   1.597   5.289   2.152  0.0810  0.4031 -0.1600
31718SOL    HW197471   1.533   5.321   2.088 -0.5512 -1.2335 -0.3924
31718SOL    HW297472   1.674   5.345   2.139 -0.5578  1.0620 -1.3134
31719SOL     OW97473   3.317   7.613   5.888 -0.1260 -0.2598 -0.3560
31719SOL    HW197474   3.330   7.695   5.841 -2.0573  0.0494 -0.4299
31719SOL    HW297475   3.326   7.636   5.980  1.7274 -0.4837 -0.4423
31720SOL     OW97476  10.272  10.156   2.686  0.0473 -0.1518  0.1913
31720SOL    HW197477  10.337  10.222   2.710  0.3355 -0.3699  0.0262
31720SOL    HW297478  10.313  10.073   2.711  0.1444 -0.3469 -0.5771
31721SOL     OW97479   5.773   5.428   7.807 -1.1456  0.0354  0.8862
31721SOL    HW197480   5.697   5.485   7.809 -0.8094  0.5574 -0.3060
31721SOL    HW297481   5.753   5.358   7.870 -2.7662 -0.0631  0.2917
31722SOL     OW97482   0.982   0.125  10.289  0.2950 -0.0986 -0.4741
31722SOL    HW197483   0.949   0.116  10.379  0.0825  0.4517 -0.4990
31722SOL    HW297484   1.077   0.128  10.300  0.2926 -0.4683 -0.3087
31723SOL     OW97485   4.436   0.170   7.607 -0.3169 -0.1447  0.6056
31723SOL    HW197486   4.374   0.118   7.659 -0.0532 -0.7509  0.3257
31723SOL    HW297487   4.380   0.220   7.547 -0.6975  1.3137  2.0933
31724SOL     OW97488   5.252   2.480   1.448 -0.3245 -0.2769 -0.3805
31724SOL    HW197489   5.306   2.429   1.387 -1.3161 -1.5316 -0.2500
31724SOL    HW297490   5.164   2.444   1.437 -1.0929  1.5153 -0.3603
31725SOL     OW97491   3.711   6.712   8.088 -0.1835  0.2715  0.1019
31725SOL    HW197492   3.755   6.717   8.172  0.1016 -3.9992  0.4340
31725SOL    HW297493   3.618   6.700   8.110 -0.7542  3.0356 -0.4269
31726SOL     OW97494   8.422   8.514   0.318  0.0440 -0.5591  0.4660
31726SOL    HW197495   8.464   8.483   0.237 -1.6674  1.8724 -1.5248
31726SOL    HW297496   8.366   8.442   0.345 -1.6170 -0.4578 -2.3203
31727SOL     OW97497   1.945   7.848   9.864  0.2522  0.1907  0.3129
31727SOL    HW197498   2.001   7.776   9.891 -0.1633  0.2129  1.2600
31727SOL    HW297499   1.913   7.886   9.945  1.2866  2.1265 -0.1361
31728SOL     OW97500  10.582   0.065   6.987 -0.3024  0.4685  0.2327
31728SOL    HW197501  10.577   0.025   7.074  0.7991  0.4871  0.3188
31728SOL    HW297502  10.639   0.142   6.999 -0.5302  0.7424 -0.4032
31729SOL     OW97503   5.095   5.450   8.768 -0.0636 -0.3734 -0.5271
31729SOL    HW197504   5.011   5.434   8.724 -0.3418 -1.2494  0.2994
31729SOL    HW297505   5.071   5.470   8.858  0.6357 -1.1077 -0.1701
31730SOL     OW97506   9.009   8.384   3.723  0.4276 -0.2560 -0.3654
31730SOL    HW197507   9.005   8.472   3.685  0.2365  0.2252  0.7266
31730SOL    HW297508   8.987   8.397   3.815  0.9194 -1.3848 -0.0752
31731SOL     OW97509   1.220   7.880   8.781 -0.4950  0.5434  0.0033
31731SOL    HW197510   1.187   7.828   8.854  0.5746 -0.2651 -0.0595
31731SOL    HW297511   1.309   7.904   8.808 -0.4798  1.1470 -0.5768
31732SOL     OW97512   4.758   2.918   4.092  0.2911  0.1277  0.0616
31732SOL    HW197513   4.680   2.974   4.102 -0.1817 -0.7581  1.7859
31732SOL    HW297514   4.749   2.880   4.005 -1.4297 -0.2273  0.3476
31733SOL     OW97515   5.368   9.079   3.549 -0.0288  0.0633  0.4423
31733SOL    HW197516   5.447   9.134   3.545 -0.3195  0.4425 -0.1854
31733SOL    HW297517   5.345   9.063   3.457  0.2376 -1.3964  0.5960
31734SOL     OW97518   3.176   7.881   4.975 -0.0964  0.0016  0.7944
31734SOL    HW197519   3.116   7.819   4.934 -0.6226  0.0968  1.4080
31734SOL    HW297520   3.262   7.862   4.935 -0.3747 -0.6740  0.5074
31735SOL     OW97521   7.919   9.193  10.192  0.2158 -0.3611 -0.0417
31735SOL    HW197522   7.991   9.252  10.166 -0.6311 -0.3146 -2.4826
31735SOL    HW297523   7.866   9.246  10.251  1.2206  0.1940  0.3987
31736SOL     OW97524   8.652  10.520   1.881  0.0500 -0.2265  0.4925
31736SOL    HW197525   8.663  10.603   1.833 -0.5188  0.2420  1.1487
31736SOL    HW297526   8.696  10.535   1.965 -0.7999 -0.2622  0.9636
31737SOL     OW97527   9.152   2.920   9.229 -0.3336  0.1483  0.4107
31737SOL    HW197528   9.065   2.882   9.239 -1.3583  2.7031  2.2400
31737SOL    HW297529   9.163   2.976   9.306  2.8027  0.1946  0.0484
31738SOL     OW97530   0.789   9.659   4.790 -0.0780 -0.4466  0.4946
31738SOL    HW197531   0.719   9.616   4.741 -0.8660  0.0314  1.1757
31738SOL    HW297532   0.763   9.751   4.793  0.5446 -0.2727  0.8295
31739SOL     OW97533   0.507   0.543   6.181 -0.6046  0.3221 -0.0164
31739SOL    HW197534   0.440   0.524   6.247 -1.8978  2.3991 -0.6391
31739SOL    HW297535   0.461   0.535   6.097  0.1816  0.8542 -0.5119
31740SOL     OW97536   4.675   2.485   1.788  0.5861 -0.6635  0.4349
31740SOL    HW197537   4.638   2.460   1.873  1.2112 -0.4716  0.7648
31740SOL    HW297538   4.722   2.566   1.806 -0.5424  0.2130 -0.4078
31741SOL     OW97539   8.882   1.142   0.918 -0.4000  0.3058  0.1963
31741SOL    HW197540   8.891   1.190   0.836 -0.2955  0.4960  0.3199
31741SOL    HW297541   8.823   1.195   0.971 -1.0259 -0.1655 -0.0179
31742SOL     OW97542   6.619   3.515   8.466 -0.2254 -0.2229  0.2314
31742SOL    HW197543   6.536   3.474   8.442 -0.6687 -0.5685  2.2341
31742SOL    HW297544   6.685   3.450   8.444 -0.7011 -0.9312  0.8584
31743SOL     OW97545   5.641   5.687   4.472  0.0608 -0.5663  0.1492
31743SOL    HW197546   5.702   5.614   4.473  0.5560 -0.1666  1.1684
31743SOL    HW297547   5.599   5.684   4.559 -2.0538 -1.3759 -0.8312
31744SOL     OW97548   8.908   4.279   6.773  0.4748 -0.4906  0.2205
31744SOL    HW197549   8.986   4.328   6.745  0.3374 -1.0026 -1.1141
31744SOL    HW297550   8.850   4.346   6.808  1.4483 -0.0817  1.1213
31745SOL     OW97551   0.775   1.763   8.162  0.3425 -0.0723 -0.9542
31745SOL    HW197552   0.821   1.685   8.130  1.2236 -0.5380  1.2755
31745SOL    HW297553   0.834   1.836   8.142  1.2571 -0.4545  0.2590
31746SOL     OW97554   4.049   2.199   7.545 -0.4621 -0.2350  0.2864
31746SOL    HW197555   3.955   2.182   7.552 -0.2031 -1.5919  0.6212
31746SOL    HW297556   4.090   2.114   7.555  0.8267  0.3647  0.3015
31747SOL     OW97557   7.627   2.327   8.465  0.6020 -0.2075 -0.0668
31747SOL    HW197558   7.625   2.423   8.466 -0.5568 -0.1905 -1.6543
31747SOL    HW297559   7.541   2.301   8.432  1.2859 -1.7627 -0.7176
31748SOL     OW97560   8.085   2.099   2.541  0.1041 -0.1581 -0.0253
31748SOL    HW197561   8.117   2.159   2.608 -0.0105  0.0812 -0.1825
31748SOL    HW297562   7.993   2.086   2.563 -0.4905  1.5396 -1.2957
31749SOL     OW97563   3.388   2.170   7.147  0.3881  1.3256  0.0994
31749SOL    HW197564   3.472   2.177   7.193  2.0778 -0.9954 -2.3421
31749SOL    HW297565   3.348   2.091   7.183 -0.0209  1.5268  0.0967
31750SOL     OW97566   5.441   6.966   1.008  0.8081  0.2312  0.5367
31750SOL    HW197567   5.435   6.882   1.053  2.2474  0.6635  1.6016
31750SOL    HW297568   5.457   7.030   1.077  3.2132  0.8978 -0.5138
31751SOL     OW97569   1.754   7.193   8.405 -0.0108  0.0516  0.4497
31751SOL    HW197570   1.673   7.236   8.433 -2.1150 -3.3563  0.2680
31751SOL    HW297571   1.783   7.145   8.483  1.9059  1.1920  0.4947
31752SOL     OW97572   9.199   5.773   3.280 -0.3959 -0.4271  0.0256
31752SOL    HW197573   9.281   5.771   3.329 -0.5834 -0.5936  0.3339
31752SOL    HW297574   9.148   5.700   3.315 -0.1218 -1.2090 -1.1391
31753SOL     OW97575  10.403   4.020   0.077 -0.3363 -0.1765  0.3655
31753SOL    HW197576  10.413   4.114   0.092  1.3376 -0.0789 -1.0802
31753SOL    HW297577  10.311   4.009   0.053 -0.2502  1.2957 -0.7590
31754SOL     OW97578   5.431   6.419   5.344  0.3052 -0.0131  0.1941
31754SOL    HW197579   5.501   6.356   5.329 -1.4609 -1.7998 -1.0910
31754SOL    HW297580   5.426   6.427   5.440  1.5568 -0.6542  0.3295
31755SOL     OW97581   3.861   1.208   4.220  0.3219 -0.7094  0.6362
31755SOL    HW197582   3.895   1.151   4.151  0.1929 -0.0632  0.0108
31755SOL    HW297583   3.768   1.220   4.197  0.4372  0.0518  0.5215
31756SOL     OW97584   3.816   3.928   9.831  0.8087 -0.0831 -0.3090
31756SOL    HW197585   3.793   4.019   9.852  0.4971 -0.0927 -0.6125
31756SOL    HW297586   3.905   3.918   9.867 -0.2509 -0.5613  2.4615
31757SOL     OW97587  10.123   0.215   2.418 -0.1906  0.6711 -0.5429
31757SOL    HW197588  10.199   0.157   2.424 -0.8431 -0.0772  3.7712
31757SOL    HW297589  10.049   0.156   2.404 -0.5228  0.7058  0.8980
31758SOL     OW97590   2.728   8.303   8.673  0.0643 -0.4125  0.4493
31758SOL    HW197591   2.692   8.380   8.629  1.1554 -0.0079  0.2551
31758SOL    HW297592   2.766   8.336   8.754  1.2210 -0.6167  0.0057
31759SOL     OW97593  10.553   9.184   7.526  0.6178 -0.8351 -0.2423
31759SOL    HW197594  10.600   9.224   7.453 -0.6850  1.3699  0.0387
31759SOL    HW297595  10.618   9.130   7.570  1.8513 -0.9150 -2.0603
31760SOL     OW97596   2.503   2.652   4.501 -0.2637  0.4359  0.2522
31760SOL    HW197597   2.556   2.726   4.530  1.0783  0.0030 -0.9612
31760SOL    HW297598   2.520   2.584   4.567  0.6216  0.3461 -0.0512
31761SOL     OW97599   3.033   0.461   1.336 -0.4180 -0.0900  0.0890
31761SOL    HW197600   2.972   0.391   1.360  0.4318 -0.2914  1.7818
31761SOL    HW297601   3.021   0.528   1.403  2.0668 -0.6842  1.2661
31762SOL     OW97602   0.485  10.402   3.253  0.1391  0.0403 -0.5270
31762SOL    HW197603   0.530  10.411   3.169 -0.2928  0.8787 -0.6775
31762SOL    HW297604   0.523  10.471   3.308 -0.5881  0.4229 -0.4911
31763SOL     OW97605   6.858   7.861   0.200 -1.2941 -0.1691 -0.2112
31763SOL    HW197606   6.816   7.937   0.240 -0.4521 -0.2425  0.8459
31763SOL    HW297607   6.950   7.885   0.194 -0.9724 -1.1985  0.3730
31764SOL     OW97608   0.151   5.264  10.371  0.0226  0.0266 -0.8521
31764SOL    HW197609   0.135   5.358  10.373  1.9893  0.4170  2.6671
31764SOL    HW297610   0.229   5.254  10.316  1.9764  0.9754  1.5884
31765SOL     OW97611   0.637   6.282   4.590 -0.1150  0.1076  0.4452
31765SOL    HW197612   0.690   6.317   4.661 -1.0339 -0.6732  1.5655
31765SOL    HW297613   0.548   6.282   4.625 -0.7268  0.5304 -1.0477
31766SOL     OW97614   8.484   3.238   2.750  0.1122  0.7555 -0.1451
31766SOL    HW197615   8.559   3.179   2.740 -0.7284 -0.1303 -1.5117
31766SOL    HW297616   8.454   3.223   2.840  1.9583  1.6409  0.6625
31767SOL     OW97617   5.482   3.587   5.515 -0.6145 -0.0349  0.0665
31767SOL    HW197618   5.394   3.607   5.484 -0.0719  1.7818 -0.4230
31767SOL    HW297619   5.540   3.636   5.456  0.6180  0.5158  1.6559
31768SOL     OW97620   8.391   5.805   5.475  0.2444  0.2948  0.1304
31768SOL    HW197621   8.417   5.715   5.494  0.1520  0.3785  0.6699
31768SOL    HW297622   8.473   5.855   5.473  0.1697  0.4964  1.4850
31769SOL     OW97623   1.178   3.517   8.937  0.2126 -0.3212  0.2277
31769SOL    HW197624   1.200   3.573   9.012 -0.3696  1.2365 -0.7120
31769SOL    HW297625   1.193   3.573   8.860 -1.6142 -1.0243 -0.6930
31770SOL     OW97626   3.833   1.714   3.082  0.4239  0.1717  0.2765
31770SOL    HW197627   3.746   1.696   3.047  0.4438 -0.0694  0.3495
31770SOL    HW297628   3.861   1.794   3.038  0.6713 -0.4259 -0.6683
31771SOL     OW97629   6.812   9.829   2.698 -0.3452  0.3287  0.2480
31771SOL    HW197630   6.735   9.820   2.754  0.7262  1.9405  2.1030
31771SOL    HW297631   6.874   9.765   2.732 -0.5714 -0.4925 -0.8149
31772SOL     OW97632   0.119   4.961   5.182  0.2924  0.0203 -0.6165
31772SOL    HW197633   0.182   4.955   5.254  1.5604  0.6733 -1.6397
31772SOL    HW297634   0.120   4.874   5.142 -0.8102 -0.5079  0.4402
31773SOL     OW97635   8.998   2.757   7.242  0.5853  0.3428  0.0391
31773SOL    HW197636   8.962   2.735   7.328 -2.1517  2.0248 -0.5355
31773SOL    HW297637   8.980   2.680   7.188  0.5582  0.0198  0.5044
31774SOL     OW97638   3.347   7.832   4.758  0.1989  0.0550 -0.5624
31774SOL    HW197639   3.317   7.806   4.671  0.3229  0.2104 -0.6514
31774SOL    HW297640   3.399   7.911   4.744  0.7686 -0.2868 -0.4249
31775SOL     OW97641   6.767   7.764   8.217  0.3238  0.2130  0.0213
31775SOL    HW197642   6.802   7.817   8.145 -0.8521  2.5892  1.0730
31775SOL    HW297643   6.687   7.725   8.181 -0.1708  1.2612 -0.0693
31776SOL     OW97644   5.463   2.636   8.036 -0.2861 -0.0412  0.4378
31776SOL    HW197645   5.485   2.561   7.981 -0.3646 -0.5675  1.1089
31776SOL    HW297646   5.507   2.710   7.994  1.0618 -0.7156  0.6035
31777SOL     OW97647   4.837   1.920   6.633  0.9727 -0.2017  0.0536
31777SOL    HW197648   4.870   1.897   6.720  2.2050  0.4360 -0.2089
31777SOL    HW297649   4.887   1.999   6.610 -2.3838  2.3204  0.5870
31778SOL     OW97650   3.978   7.076   0.320  0.3203 -0.0808  0.2469
31778SOL    HW197651   3.933   7.055   0.402  1.0727 -0.8313  0.4750
31778SOL    HW297652   3.959   7.001   0.263 -1.1614  0.9404 -0.7001
31779SOL     OW97653   4.525   4.005   5.151 -0.7899  0.6397 -0.0912
31779SOL    HW197654   4.472   3.935   5.188 -1.8793  0.7355 -1.3623
31779SOL    HW297655   4.598   3.960   5.108 -1.6754  0.2253 -1.2115
31780SOL     OW97656   9.378   6.771   8.369  0.4410  0.7950  0.1227
31780SOL    HW197657   9.397   6.735   8.282 -2.2957 -1.2613  0.2257
31780SOL    HW297658   9.463   6.771   8.414  1.4218 -0.9554 -1.5714
31781SOL     OW97659   1.046   2.390   5.146 -0.0112  0.6625 -0.6424
31781SOL    HW197660   0.955   2.370   5.123 -0.2485 -0.1495  0.9114
31781SOL    HW297661   1.047   2.393   5.242  1.5620  0.8780 -0.6390
31782SOL     OW97662   7.736   8.023  10.521 -0.1530 -0.2675 -0.0130
31782SOL    HW197663   7.683   7.980  10.454  2.2640 -0.5363 -1.8937
31782SOL    HW297664   7.741   7.960  10.593 -0.0209 -1.4535 -1.0283
31783SOL     OW97665   8.355   9.110   7.157  0.2308 -0.2380  0.0627
31783SOL    HW197666   8.331   9.045   7.091  1.1743 -0.5873  0.0356
31783SOL    HW297667   8.402   9.178   7.109  2.1578 -1.1669  0.5055
31784SOL     OW97668   9.940   0.071   9.290 -0.1841  0.1407 -0.3960
31784SOL    HW197669   9.863   0.015   9.283 -1.1873  1.2379  1.2451
31784SOL    HW297670  10.006   0.017   9.334 -1.0164  0.0890  0.8430
31785SOL     OW97671   9.850   8.784   9.635 -0.3485 -0.0001  0.6325
31785SOL    HW197672   9.857   8.740   9.550  0.4915  0.0671  0.6645
31785SOL    HW297673   9.836   8.713   9.697 -0.4641 -0.0923  0.5022
31786SOL     OW97674  10.530   0.033   7.255 -0.3010 -0.3358  0.0646
31786SOL    HW197675  10.594  -0.018   7.305  0.3793 -1.0513 -1.4630
31786SOL    HW297676  10.449   0.027   7.305  0.0896 -1.8971  0.5527
31787SOL     OW97677   3.473   4.302   8.583  0.0099 -0.0164  0.1443
31787SOL    HW197678   3.548   4.285   8.526  0.2143  0.8405  0.1527
31787SOL    HW297679   3.431   4.216   8.593  1.2017 -0.5773  0.4451
31788SOL     OW97680   2.080   9.905   7.992 -0.2864  0.5143  0.0235
31788SOL    HW197681   2.069   9.893   8.086  0.9160 -1.9797 -0.0586
31788SOL    HW297682   2.144   9.976   7.983 -0.7068  1.0372  1.0470
31789SOL     OW97683   2.047   7.778   0.230 -0.2214 -0.5436 -0.1918
31789SOL    HW197684   1.993   7.701   0.216  0.1692 -0.8300 -0.1439
31789SOL    HW297685   2.002   7.848   0.183  0.1553 -1.0935 -1.4103
31790SOL     OW97686   7.944   2.526   3.991  0.1921  0.4404 -0.0251
31790SOL    HW197687   7.949   2.435   4.022 -1.1313  0.2089 -0.4146
31790SOL    HW297688   7.850   2.545   3.991  0.4012  1.5117 -0.8175
31791SOL     OW97689   2.413   7.079   8.385 -0.7999 -0.0162  0.1159
31791SOL    HW197690   2.422   7.148   8.319  1.0805  0.4146  0.7502
31791SOL    HW297691   2.426   7.124   8.469 -0.2398 -1.0121  0.5876
31792SOL     OW97692   0.166   4.426   1.894  0.0397 -0.3424  0.2139
31792SOL    HW197693   0.083   4.381   1.876 -1.3065  1.7969  0.7315
31792SOL    HW297694   0.203   4.378   1.968 -2.6278  0.8006  2.4918
31793SOL     OW97695   9.141   5.403   5.281 -0.2458 -0.3374 -0.3525
31793SOL    HW197696   9.088   5.471   5.239  0.5486 -0.9117 -2.3659
31793SOL    HW297697   9.225   5.445   5.298 -0.0630 -0.5442 -0.7437
31794SOL     OW97698   9.584   0.009   9.528  0.2008 -0.0305 -0.7259
31794SOL    HW197699   9.562  -0.066   9.473 -1.3501 -1.1484  1.2993
31794SOL    HW297700   9.540   0.083   9.487 -1.0204 -0.8591 -0.9591
31795SOL     OW97701   0.531   8.403   8.676  0.0584  0.4696  0.6358
31795SOL    HW197702   0.626   8.416   8.686  0.0598  1.3379 -0.2933
31795SOL    HW297703   0.492   8.472   8.729 -0.0201  0.9768 -0.0639
31796SOL     OW97704   4.688   1.627  10.400 -0.0917 -0.2176  0.3483
31796SOL    HW197705   4.659   1.593  10.484  0.2802 -0.6820  0.2910
31796SOL    HW297706   4.608   1.634  10.348 -0.2846 -0.1863  0.6452
31797SOL     OW97707   8.371   1.883   1.102 -0.4416 -0.2315 -0.1573
31797SOL    HW197708   8.323   1.957   1.064  0.0707 -0.5733 -1.5320
31797SOL    HW297709   8.405   1.916   1.185  2.5148  2.2175 -2.1096
31798SOL     OW97710   1.777  10.017   2.390  0.1414  0.3383 -0.2376
31798SOL    HW197711   1.715   9.989   2.322  0.1139 -0.5274  0.1295
31798SOL    HW297712   1.760  10.111   2.400 -1.8033 -0.0399  0.5413
31799SOL     OW97713   0.838   4.652   7.499 -0.4608 -0.5860  0.2139
31799SOL    HW197714   0.809   4.680   7.586  0.1933  1.1438 -0.0934
31799SOL    HW297715   0.906   4.587   7.517  1.2089  1.2902  1.1122
31800SOL     OW97716   4.520   9.493   2.473  0.3193  0.3939 -0.2414
31800SOL    HW197717   4.541   9.463   2.384 -1.5190 -1.4041 -0.1597
31800SOL    HW297718   4.605   9.511   2.513  1.2796 -0.2949 -1.8658
31801SOL     OW97719   6.872   8.380   4.132  0.0646  0.3797 -0.1105
31801SOL    HW197720   6.830   8.411   4.052 -2.4853 -1.7749  0.2820
31801SOL    HW297721   6.814   8.409   4.202  0.1608 -1.1245  0.6166
31802SOL     OW97722   9.603   1.391  10.295 -0.1390 -0.0220 -0.2306
31802SOL    HW197723   9.665   1.383  10.368  0.1215 -0.0801 -0.4588
31802SOL    HW297724   9.591   1.301  10.265  0.2047  0.0688 -0.6379
31803SOL     OW97725   2.438   7.714   3.089  0.1250  0.1585 -0.3488
31803SOL    HW197726   2.415   7.626   3.120  0.4792  0.6438  1.4114
31803SOL    HW297727   2.356   7.749   3.053 -0.4332 -0.3067  0.4320
31804SOL     OW97728   1.332   8.294   6.330  0.5916  0.0037  0.4276
31804SOL    HW197729   1.331   8.389   6.340  0.1863 -0.1380  2.0385
31804SOL    HW297730   1.391   8.278   6.257  1.0852  1.4724  0.4678
31805SOL     OW97731   2.717   7.397   9.019 -0.0041 -0.1480 -0.0456
31805SOL    HW197732   2.768   7.364   9.093 -0.4049  0.4987  0.5273
31805SOL    HW297733   2.757   7.481   8.997 -2.1033  1.4463  1.8255
31806SOL     OW97734   8.542   0.480   7.609  0.2963  0.6308  0.8238
31806SOL    HW197735   8.585   0.524   7.682  0.2746  2.5500 -0.2416
31806SOL    HW297736   8.606   0.415   7.579  1.6537  2.0524  0.5364
31807SOL     OW97737   1.154   0.231   5.106  0.5719  0.2651  0.0532
31807SOL    HW197738   1.225   0.168   5.104  1.0258  0.7577  0.4940
31807SOL    HW297739   1.145   0.261   5.015 -0.1176 -0.9372 -0.2946
31808SOL     OW97740   8.846   5.225   5.115  0.3971 -0.1815 -0.8831
31808SOL    HW197741   8.796   5.158   5.068 -2.1809  1.7022 -1.0337
31808SOL    HW297742   8.827   5.209   5.207  1.6132 -0.9675 -0.7427
31809SOL     OW97743   0.967   8.558   2.124  0.4030 -0.4630  0.6909
31809SOL    HW197744   0.982   8.500   2.198  0.1093  0.8022  1.7664
31809SOL    HW297745   1.041   8.620   2.126 -0.7965  1.0199  1.3671
31810SOL     OW97746   6.201   4.881   2.718 -0.3306 -0.3258 -0.3621
31810SOL    HW197747   6.269   4.892   2.785 -0.4668  0.6976 -0.3743
31810SOL    HW297748   6.209   4.790   2.690  1.6824  0.0125 -1.0586
31811SOL     OW97749   7.012   2.292   5.341  0.1672  0.2556  0.3140
31811SOL    HW197750   6.944   2.252   5.286  1.5176 -1.8907  0.1141
31811SOL    HW297751   7.076   2.223   5.354  2.3469  2.2045  0.5118
31812SOL     OW97752  10.593   0.633   3.643 -0.0736  0.2695 -0.1601
31812SOL    HW197753  10.589   0.550   3.689 -0.6377  0.1043 -0.4905
31812SOL    HW297754  10.676   0.631   3.596  1.1911  1.0224  1.8885
31813SOL     OW97755   1.457   3.371   8.061 -0.1870 -0.8004 -0.3360
31813SOL    HW197756   1.408   3.402   7.985 -2.3633  0.6160  1.4979
31813SOL    HW297757   1.540   3.418   8.058 -0.7879  0.2359 -1.1417
31814SOL     OW97758   0.295   0.249  10.228  0.2254 -0.0116  0.4385
31814SOL    HW197759   0.274   0.178  10.167 -2.6297  0.8116  0.2948
31814SOL    HW297760   0.240   0.322  10.199  2.2454  1.9500  1.2457
31815SOL     OW97761   4.009   0.403   5.079 -1.0210 -0.4674 -0.3704
31815SOL    HW197762   4.090   0.390   5.030 -0.6995 -0.5768  0.1834
31815SOL    HW297763   3.943   0.354   5.030 -0.8571 -0.0058 -1.0813
31816SOL     OW97764   7.374   5.201   0.550 -0.6928  0.1219 -0.0459
31816SOL    HW197765   7.345   5.119   0.510  2.0007 -2.1754  2.2596
31816SOL    HW297766   7.461   5.215   0.514 -0.0290  0.4261  1.5913
31817SOL     OW97767   4.583   5.386   1.744 -0.5893 -0.3144 -0.3159
31817SOL    HW197768   4.557   5.357   1.657  0.0411 -1.5182 -0.1183
31817SOL    HW297769   4.674   5.355   1.754  0.1774  1.8045 -0.1260
31818SOL     OW97770   6.711   0.807   0.001 -0.6362 -0.2886  0.0011
31818SOL    HW197771   6.652   0.843  -0.065 -0.0532  1.3867  0.3674
31818SOL    HW297772   6.766   0.880   0.028  1.5550 -1.7509 -0.2207
31819SOL     OW97773   6.948   6.956   4.509 -0.2264  0.1316 -0.2123
31819SOL    HW197774   7.008   7.029   4.528 -0.3373  0.1815 -0.0540
31819SOL    HW297775   6.886   6.956   4.582  0.6070 -0.9953  0.5284
31820SOL     OW97776   6.021   4.826   6.265 -0.7201 -0.1960  0.2977
31820SOL    HW197777   5.928   4.821   6.242 -0.9096  1.8586  0.3963
31820SOL    HW297778   6.040   4.920   6.262  0.7452 -0.3625  2.6751
31821SOL     OW97779  10.422   3.668   8.964  0.5628  0.1131 -0.2630
31821SOL    HW197780  10.442   3.575   8.962 -0.7099 -0.2254  0.9980
31821SOL    HW297781  10.505   3.711   8.944  0.6944 -1.2601 -3.2065
31822SOL     OW97782   8.849   3.306   2.018  0.2332  0.2721  0.3569
31822SOL    HW197783   8.841   3.346   1.932  1.6127 -1.1781 -0.5093
31822SOL    HW297784   8.759   3.295   2.049 -0.3648 -0.3913 -1.5058
31823SOL     OW97785   6.382   0.873   3.811 -0.1821 -0.5831 -0.1287
31823SOL    HW197786   6.293   0.909   3.805  0.0228  0.6470  2.5362
31823SOL    HW297787   6.376   0.807   3.880  1.1258  0.1609  0.7390
31824SOL     OW97788   6.559   5.667   0.394  0.5947  0.0172  0.0853
31824SOL    HW197789   6.571   5.627   0.480 -2.1285 -0.6493  0.2491
31824SOL    HW297790   6.643   5.711   0.376  1.7147 -0.9712  2.4270
31825SOL     OW97791   0.815   9.269   6.285 -0.3034  0.1784 -0.6539
31825SOL    HW197792   0.805   9.247   6.193 -2.6136 -2.3892  0.0839
31825SOL    HW297793   0.726   9.284   6.316  0.4078  0.9411  1.1980
31826SOL     OW97794   1.108   3.653   9.341 -0.2100 -0.0215  0.0530
31826SOL    HW197795   1.099   3.745   9.367 -1.2770  0.2230 -1.0691
31826SOL    HW297796   1.161   3.656   9.262  1.1435 -0.5436  0.9161
31827SOL     OW97797   8.092   4.669   5.438 -0.0954 -0.0449 -0.0770
31827SOL    HW197798   8.040   4.649   5.516 -1.5560  0.7759 -0.8027
31827SOL    HW297799   8.116   4.584   5.402 -1.2032 -0.4493  0.1059
31828SOL     OW97800   0.858   7.240   4.197  0.4304 -0.3036  0.0319
31828SOL    HW197801   0.787   7.182   4.171 -0.4998  0.3566  1.0160
31828SOL    HW297802   0.821   7.293   4.268  1.1967  1.5938 -0.9223
31829SOL     OW97803   9.418   9.465   0.073 -0.1440  0.4267  0.3225
31829SOL    HW197804   9.377   9.539   0.029 -1.6544  0.0615  1.0538
31829SOL    HW297805   9.423   9.397   0.006 -1.5395  0.1996  0.4172
31830SOL     OW97806   7.199   9.876   8.657 -0.5272 -0.4304  0.1261
31830SOL    HW197807   7.144   9.842   8.587 -0.3101 -0.8533  0.1576
31830SOL    HW297808   7.276   9.911   8.612 -0.5440 -0.3934  0.1258
31831SOL     OW97809   4.472   6.047   3.067  0.8103  0.3619 -0.5267
31831SOL    HW197810   4.431   6.016   2.987 -0.8290 -0.9807  0.7565
31831SOL    HW297811   4.442   5.987   3.135  1.6036  1.8227  1.2245
31832SOL     OW97812   4.587   6.720   6.070 -0.3558  0.6066  0.0269
31832SOL    HW197813   4.635   6.652   6.118 -0.0937  0.6635 -0.1488
31832SOL    HW297814   4.656   6.776   6.033 -0.5265  0.1310 -1.0449
31833SOL     OW97815   5.654   5.716   3.080  0.0796 -0.0469  0.6434
31833SOL    HW197816   5.728   5.777   3.091  0.7189 -0.6305 -0.2496
31833SOL    HW297817   5.633   5.688   3.168  2.8183 -2.0335  0.8037
31834SOL     OW97818   2.949   6.630   4.547  0.4677  0.1960 -0.0468
31834SOL    HW197819   2.976   6.694   4.481  3.2440  0.0340  0.8072
31834SOL    HW297820   3.031   6.594   4.580 -0.9355 -1.7829  1.5028
31835SOL     OW97821   0.170   4.116   5.318  0.4540  0.3244 -0.0602
31835SOL    HW197822   0.190   4.023   5.313  1.8291  0.5935  0.1605
31835SOL    HW297823   0.254   4.158   5.337 -0.6061  1.3487  2.8326
31836SOL     OW97824   8.018   3.045   0.337  0.0740 -0.4262  0.0003
31836SOL    HW197825   8.029   2.985   0.411  0.5964 -1.1615 -0.6653
31836SOL    HW297826   8.101   3.092   0.331 -0.4452  0.6224  0.7243
31837SOL     OW97827   3.031   5.209   8.698  0.3219 -0.0276 -0.6025
31837SOL    HW197828   3.089   5.222   8.623  1.3673  2.5235  0.5433
31837SOL    HW297829   2.991   5.295   8.712 -0.6000 -0.7046  1.1574
31838SOL     OW97830   2.366   1.164  10.521 -0.2935 -0.2154 -0.2812
31838SOL    HW197831   2.360   1.126  10.609  1.9681  0.2469  0.1340
31838SOL    HW297832   2.277   1.194  10.502 -1.1316 -1.5259  1.2780
31839SOL     OW97833   8.983   0.218   1.586 -0.0576  0.2853  0.2544
31839SOL    HW197834   8.951   0.186   1.671  0.3374  1.5738  0.9055
31839SOL    HW297835   8.924   0.178   1.522 -0.4934 -0.5445  1.1454
31840SOL     OW97836   0.148   3.883   2.990  0.0335  0.0485  0.4747
31840SOL    HW197837   0.173   3.951   2.926 -0.2906  0.0041  0.3013
31840SOL    HW297838   0.088   3.827   2.942 -1.1944  0.7148  1.1857
31841SOL     OW97839   8.032   1.449   2.125  0.2182 -0.1932  0.3938
31841SOL    HW197840   8.052   1.365   2.085  0.4857  0.3816 -0.7263
31841SOL    HW297841   7.974   1.428   2.198 -0.4706 -1.2535 -0.4307
31842SOL     OW97842   6.437   3.849   8.312  0.2648  0.6871 -0.6917
31842SOL    HW197843   6.474   3.930   8.278  0.8341  0.4708 -0.5979
31842SOL    HW297844   6.513   3.795   8.334 -0.1026  0.0731 -0.8836
31843SOL     OW97845   7.776   0.160   2.119  0.2271 -0.0903 -0.0673
31843SOL    HW197846   7.865   0.195   2.124 -0.6660  2.4257  0.0284
31843SOL    HW297847   7.780   0.093   2.051  2.4212 -0.9387  0.8116
31844SOL     OW97848   9.589   7.840  10.287 -0.2639 -0.4177  0.5986
31844SOL    HW197849   9.577   7.822  10.193 -1.9763 -0.9799  0.8812
31844SOL    HW297850   9.533   7.776  10.330 -0.1539  0.3934  1.9866
31845SOL     OW97851   3.036   1.851   3.730  0.4115  0.1232 -0.0045
31845SOL    HW197852   3.047   1.811   3.643  0.2433 -1.4985  0.6681
31845SOL    HW297853   2.971   1.795   3.773  0.0342  1.2686  0.9519
31846SOL     OW97854   5.079   2.239   3.645 -0.1240 -0.1013  0.1992
31846SOL    HW197855   5.097   2.317   3.698  0.3590 -0.5574  0.7144
31846SOL    HW297856   5.147   2.240   3.578 -1.9546  1.6402 -1.7825
31847SOL     OW97857  10.396   9.350   1.719  0.3029 -0.4340  0.4287
31847SOL    HW197858  10.402   9.407   1.643  0.8911  0.7372  1.3405
31847SOL    HW297859  10.308   9.312   1.713  0.1355  0.0830 -0.5177
31848SOL     OW97860   3.957  10.331   9.502  0.2190 -0.5416 -0.0594
31848SOL    HW197861   3.862  10.340   9.514  0.3799 -1.0892  1.9037
31848SOL    HW297862   3.989  10.421   9.497 -0.3909 -0.3530 -0.7627
31849SOL     OW97863  10.290   8.349   3.377  0.3864  0.1199  0.0259
31849SOL    HW197864  10.200   8.379   3.375  0.4663  0.3619 -1.1498
31849SOL    HW297865  10.336   8.414   3.430 -0.4131 -0.9556  2.1309
31850SOL     OW97866   2.419   9.956  10.421  0.0976 -0.2615 -0.2647
31850SOL    HW197867   2.408   9.900  10.345 -0.6942 -1.1606  0.4828
31850SOL    HW297868   2.512   9.979  10.421 -0.0346  0.3649 -1.8924
31851SOL     OW97869   0.093   8.982   2.388  0.4642 -0.0790 -0.0935
31851SOL    HW197870   0.114   8.890   2.372  0.0199 -0.3017  0.5379
31851SOL    HW297871   0.129   9.000   2.474 -2.0778 -0.5669  1.1650
31852SOL     OW97872   8.856   7.410   2.987 -0.0808  0.2227 -0.0697
31852SOL    HW197873   8.863   7.450   3.074  0.0634  2.9986 -1.2551
31852SOL    HW297874   8.762   7.408   2.969 -0.3114 -2.3991  0.9207
31853SOL     OW97875   0.518   7.605   1.250  0.8499 -0.2924  0.3401
31853SOL    HW197876   0.605   7.624   1.215  1.4025  0.9708  2.2371
31853SOL    HW297877   0.533   7.538   1.317  0.3536 -0.2023  0.5465
31854SOL     OW97878   4.121   6.239   9.588  0.4380  0.0664 -0.3608
31854SOL    HW197879   4.207   6.279   9.603  1.0506 -1.6375  1.1367
31854SOL    HW297880   4.060   6.297   9.633  1.0985  0.1666  0.4480
31855SOL     OW97881   1.654   9.187   0.383 -0.1253 -0.0022 -0.5548
31855SOL    HW197882   1.644   9.117   0.318 -0.5395  0.0830 -0.5891
31855SOL    HW297883   1.708   9.149   0.452 -1.5865 -0.8865  0.1668
31856SOL     OW97884   8.300   1.540   7.657  0.2082 -0.4131  0.2340
31856SOL    HW197885   8.286   1.503   7.745  0.1287  0.5318  0.6248
31856SOL    HW297886   8.391   1.568   7.657  0.4456 -1.1582 -0.2781
31857SOL     OW97887   2.913  10.286   4.506 -0.5894  0.3616 -0.5523
31857SOL    HW197888   2.942  10.330   4.586  0.3459 -0.6220 -0.3420
31857SOL    HW297889   2.839  10.339   4.476  0.7889  2.3642 -0.5709
31858SOL     OW97890  10.035   2.499   4.284 -0.5068 -0.2252 -0.1332
31858SOL    HW197891  10.046   2.580   4.334  1.1954  0.3002 -1.2694
31858SOL    HW297892  10.111   2.496   4.226 -0.1201 -3.0333  0.3938
31859SOL     OW97893   1.435   6.755   8.342 -0.2233 -0.4989 -0.2892
31859SOL    HW197894   1.431   6.671   8.296  0.7897 -1.7563  1.7397
31859SOL    HW297895   1.528   6.764   8.367 -0.5702  0.5171  0.7376
31860SOL     OW97896   5.045   3.888   8.605  0.3542 -0.5635  0.6602
31860SOL    HW197897   5.093   3.949   8.661  0.4254 -1.2396  1.3660
31860SOL    HW297898   5.109   3.819   8.585  0.5101 -0.0189 -0.7877
31861SOL     OW97899   6.021   0.969   0.477 -0.3602 -0.1129 -0.5687
31861SOL    HW197900   6.005   0.882   0.442 -0.1019 -1.1004  1.5956
31861SOL    HW297901   6.094   0.958   0.538 -1.5733  1.1574  1.2334
31862SOL     OW97902   2.393   5.619   8.020 -0.1524 -0.1988 -0.4526
31862SOL    HW197903   2.470   5.578   8.060 -0.6552  0.6969  1.5613
31862SOL    HW297904   2.370   5.561   7.947  0.9772 -1.8019  0.4057
31863SOL     OW97905   4.754   3.136   7.945 -0.6476  0.0668 -0.2689
31863SOL    HW197906   4.830   3.194   7.942  0.0432 -0.8649 -1.2392
31863SOL    HW297907   4.681   3.190   7.913 -0.5951  1.2027  1.3961
31864SOL     OW97908   5.073   8.276   2.772  0.1449  0.7902  0.7733
31864SOL    HW197909   5.016   8.261   2.848 -0.4304 -0.7769  0.0763
31864SOL    HW297910   5.157   8.237   2.797 -0.2892 -0.4760  0.3204
31865SOL     OW97911   7.826   0.244   0.900  0.3650  0.1001  0.0706
31865SOL    HW197912   7.841   0.180   0.830  2.1953 -2.3100  2.4354
31865SOL    HW297913   7.883   0.317   0.877  0.6713 -0.4754 -1.1228
31866SOL     OW97914   1.655   7.274   7.633 -0.6798  0.2807  0.7714
31866SOL    HW197915   1.612   7.351   7.596  0.2958  0.2962 -0.4077
31866SOL    HW297916   1.697   7.306   7.712 -0.7401  0.8474  0.5796
31867SOL     OW97917   0.852   5.083   6.709 -0.0974  0.0716 -0.5890
31867SOL    HW197918   0.818   5.161   6.666 -0.1234  0.5597  0.2990
31867SOL    HW297919   0.810   5.010   6.663 -0.7991  0.6027 -0.8060
31868SOL     OW97920   1.415   5.209   5.277 -0.1278  0.0617  0.0580
31868SOL    HW197921   1.348   5.223   5.344 -0.2230  0.4135 -0.1111
31868SOL    HW297922   1.427   5.294   5.236 -0.7723 -0.3485 -1.0327
31869SOL     OW97923   4.333   5.478   8.160  0.2420  0.6811 -0.2117
31869SOL    HW197924   4.270   5.550   8.158 -0.2761  0.2345 -2.0168
31869SOL    HW297925   4.362   5.474   8.251  0.3004  3.1617 -0.0573
31870SOL     OW97926   6.335   7.720   1.967 -0.2583 -0.8473  0.4124
31870SOL    HW197927   6.276   7.729   1.893 -0.6378 -1.1115  0.6783
31870SOL    HW297928   6.384   7.802   1.970 -1.5230 -0.0868  0.9694
31871SOL     OW97929   5.385   5.798   0.293 -0.1930  0.3562  0.6775
31871SOL    HW197930   5.323   5.816   0.224  0.8350  1.1981 -0.0613
31871SOL    HW297931   5.359   5.855   0.365 -2.8947 -2.4150  2.0863
31872SOL     OW97932   4.008   4.077   7.195  0.3449 -0.0775 -0.0355
31872SOL    HW197933   4.071   4.056   7.263  0.8771  0.6136 -0.3010
31872SOL    HW297934   3.958   4.150   7.230  0.0660 -0.2598 -0.0519
31873SOL     OW97935   1.402   3.308   8.718 -0.0731 -0.3772 -0.5589
31873SOL    HW197936   1.400   3.401   8.737  0.1954 -0.4510 -0.1452
31873SOL    HW297937   1.466   3.272   8.780  0.7047 -0.6595 -1.4991
31874SOL     OW97938   3.001   0.609   4.924 -0.4303 -0.4181 -0.2647
31874SOL    HW197939   3.021   0.586   5.015 -1.1253 -0.4091 -0.1035
31874SOL    HW297940   2.921   0.661   4.929 -0.2136 -0.0190 -0.8466
31875SOL     OW97941   7.857   3.928   3.752  0.8085  0.5762 -0.1731
31875SOL    HW197942   7.952   3.917   3.751  0.7553 -1.6296  3.1648
31875SOL    HW297943   7.823   3.841   3.774 -1.9401  1.5043 -0.3147
31876SOL     OW97944   2.098   3.530   6.690  0.2145  0.0372 -0.4947
31876SOL    HW197945   2.160   3.470   6.647 -0.4067 -1.5243  0.6873
31876SOL    HW297946   2.064   3.584   6.619  1.6698 -0.1949 -1.4270
31877SOL     OW97947   3.928   6.325   7.525  0.3411  0.6245  0.6485
31877SOL    HW197948   3.928   6.301   7.618  1.7847 -0.3079  0.4422
31877SOL    HW297949   3.841   6.300   7.494 -0.5533  1.9536  1.9671
31878SOL     OW97950   8.235   4.386   7.321 -0.2179  0.1540  0.0721
31878SOL    HW197951   8.194   4.467   7.352 -0.5811  0.6206 -1.5584
31878SOL    HW297952   8.320   4.385   7.365 -0.7177  0.7540  1.1061
31879SOL     OW97953   7.362   3.366   5.141 -0.2477  0.1789  0.2886
31879SOL    HW197954   7.274   3.332   5.154 -0.3810  0.1657 -0.5890
31879SOL    HW297955   7.375   3.365   5.046  0.6312  0.3473  0.3938
31880SOL     OW97956   6.546   7.813   6.874  0.0533  0.2497 -0.4055
31880SOL    HW197957   6.513   7.903   6.875  0.8163  0.5873 -2.0873
31880SOL    HW297958   6.494   7.769   6.807  0.8422 -0.0626 -0.8358
31881SOL     OW97959   8.502   8.594   0.586 -0.2929 -0.7421 -0.2107
31881SOL    HW197960   8.472   8.586   0.495  0.1564  3.6039 -0.9691
31881SOL    HW297961   8.595   8.573   0.583 -0.3427 -0.9026 -0.6835
31882SOL     OW97962   6.811   1.899   8.642 -0.2963 -0.3370  0.3627
31882SOL    HW197963   6.799   1.876   8.549  0.9243 -0.0867  0.1348
31882SOL    HW297964   6.859   1.825   8.679 -0.0789 -0.0718  0.6120
31883SOL     OW97965   2.781   9.444   9.345 -0.0469 -0.4526 -0.2969
31883SOL    HW197966   2.712   9.443   9.279  0.7084  0.9705 -1.1543
31883SOL    HW297967   2.833   9.521   9.324 -0.4865  0.8044  2.6983
31884SOL     OW97968   5.288   9.343   8.747  0.1740 -0.3090  0.4711
31884SOL    HW197969   5.264   9.251   8.738  1.0659 -0.5146  0.0697
31884SOL    HW297970   5.372   9.342   8.793  0.1221  0.3071  0.5882
31885SOL     OW97971   8.891   6.138   5.026 -0.8434  0.2465 -0.0824
31885SOL    HW197972   8.840   6.081   4.969 -3.0174  0.4280  1.5471
31885SOL    HW297973   8.959   6.081   5.062 -0.0256 -0.0952 -2.0322
31886SOL     OW97974   6.299   2.608   3.446  0.5686  0.1615 -0.1281
31886SOL    HW197975   6.286   2.701   3.426  1.8333  0.1589 -1.1311
31886SOL    HW297976   6.365   2.580   3.383  0.2080 -1.4278  0.1722
31887SOL     OW97977   1.710   9.837   1.980 -0.3010 -0.1484  0.2088
31887SOL    HW197978   1.697   9.927   2.008 -1.1299 -0.1577 -0.1095
31887SOL    HW297979   1.780   9.804   2.037  0.3238  0.8197  0.0266
31888SOL     OW97980   3.389   0.244   4.090  0.0485 -0.0744  0.7278
31888SOL    HW197981   3.330   0.169   4.088  0.2645 -0.2351  0.2346
31888SOL    HW297982   3.428   0.241   4.177  0.6504 -1.0043  0.4420
31889SOL     OW97983   7.772   7.533   4.877  0.1045 -0.0974  0.3741
31889SOL    HW197984   7.700   7.593   4.898 -0.8467 -0.3163 -1.9358
31889SOL    HW297985   7.782   7.541   4.782  1.1318 -2.3184  0.2449
31890SOL     OW97986   0.821  10.458   9.430 -0.0772 -0.4088 -0.2750
31890SOL    HW197987   0.857  10.441   9.517 -1.4337 -1.8371  0.0295
31890SOL    HW297988   0.876  10.529   9.396  0.0129  0.7231  2.0184
31891SOL     OW97989   9.470   9.832   4.767  0.5544 -0.1415 -0.3435
31891SOL    HW197990   9.528   9.790   4.704  1.7886  1.3733 -0.2968
31891SOL    HW297991   9.430   9.904   4.719 -0.7050 -0.6900 -0.1468
31892SOL     OW97992   0.833  10.521   0.146 -0.7352  0.2927 -0.3523
31892SOL    HW197993   0.778  10.518   0.225  0.4232 -0.4867  0.4648
31892SOL    HW297994   0.841  10.429   0.119 -0.3110  0.4583 -0.8005
31893SOL     OW97995   2.761   0.060  10.357 -0.3770  0.3664 -0.3227
31893SOL    HW197996   2.761   0.034  10.265 -0.9949 -0.4204 -0.1117
31893SOL    HW297997   2.668   0.076  10.378 -0.3053  0.0066  0.3026
31894SOL     OW97998   8.613   5.885   8.636  0.0921 -1.1658  0.5799
31894SOL    HW197999   8.660   5.965   8.661  1.2653 -1.9218  0.8551
31894SOL    HW298000   8.649   5.817   8.693 -0.1053 -2.1182 -0.4105
31895SOL     OW98001   1.748   8.814   0.292  0.0731 -0.2183 -0.1230
31895SOL    HW198002   1.721   8.725   0.316 -0.4470 -0.5457 -1.7900
31895SOL    HW298003   1.667   8.857   0.265  0.2645  0.9032  0.9906
31896SOL     OW98004   2.717   9.726   3.588  0.1741  0.0277  0.4120
31896SOL    HW198005   2.704   9.741   3.494 -2.1961  1.3590  0.8661
31896SOL    HW298006   2.654   9.658   3.610 -0.2419  0.6701  1.2511
31897SOL     OW98007   4.956   9.482   1.534  0.2700  0.0015  0.0517
31897SOL    HW198008   5.005   9.547   1.584  0.3140 -1.3917  1.9488
31897SOL    HW298009   5.021   9.440   1.478  1.3019 -1.5518  2.2502
31898SOL     OW98010   6.063   3.364   8.078 -0.0028  0.3200 -0.0851
31898SOL    HW198011   6.006   3.427   8.123 -1.3994 -0.8656 -0.1317
31898SOL    HW298012   6.097   3.412   8.003  0.0559  1.4319  0.6212
31899SOL     OW98013   4.243  10.118   7.297  0.3836 -0.0244  0.0127
31899SOL    HW198014   4.334  10.088   7.289 -0.2178 -2.0714  0.3262
31899SOL    HW298015   4.198  10.046   7.340 -1.4156  0.9511 -0.1562
31900SOL     OW98016   8.064   5.443   9.455 -0.3939 -0.0179 -0.3770
31900SOL    HW198017   8.004   5.468   9.524 -0.9996  0.2975 -1.0054
31900SOL    HW298018   8.122   5.518   9.444 -0.6644  0.1614 -0.5982
31901SOL     OW98019   0.966   5.314   3.846  0.0652 -0.1824 -0.1416
31901SOL    HW198020   0.956   5.341   3.755 -1.2386  2.1419  0.6128
31901SOL    HW298021   1.033   5.372   3.882  0.7189 -1.2130  0.3595
31902SOL     OW98022   5.305   2.343   2.839 -0.2929 -0.3963  0.2362
31902SOL    HW198023   5.336   2.266   2.887  1.4441  1.0649  1.6002
31902SOL    HW298024   5.254   2.393   2.903  0.3783  0.6062  0.0055
31903SOL     OW98025   2.544   8.314   4.865 -0.4605  0.3453  0.1637
31903SOL    HW198026   2.507   8.281   4.947  1.0054 -1.4343  0.1807
31903SOL    HW298027   2.501   8.262   4.797  0.4232 -0.2487  0.0408
31904SOL     OW98028   1.291   3.419   7.132 -0.4057 -1.1571  0.5453
31904SOL    HW198029   1.270   3.384   7.218 -0.1475 -2.2697  0.1731
31904SOL    HW298030   1.379   3.457   7.142 -0.5774 -0.8518  0.8894
31905SOL     OW98031   2.174   9.923   5.207  0.2074  0.1902  0.1042
31905SOL    HW198032   2.206  10.013   5.211  2.2167 -0.5208  0.9481
31905SOL    HW298033   2.218   9.884   5.131 -0.1856 -0.2686  0.1005
31906SOL     OW98034   6.871   2.667   7.608  0.0821  0.0960  0.2490
31906SOL    HW198035   6.951   2.716   7.628 -0.0707 -0.2754  1.9504
31906SOL    HW298036   6.873   2.655   7.513  1.9977  0.1652  0.2408
31907SOL     OW98037   8.425   1.486   2.475  0.7131  0.4469 -0.0946
31907SOL    HW198038   8.489   1.439   2.422  1.3353 -0.7178  1.6254
31907SOL    HW298039   8.475   1.522   2.548 -0.3733  0.6138  0.5975
31908SOL     OW98040   3.499   4.435   0.498 -0.5203 -0.3312 -0.2335
31908SOL    HW198041   3.580   4.480   0.474  0.0845 -0.3364  1.6081
31908SOL    HW298042   3.454   4.498   0.555 -1.2091 -0.8310 -0.2198
31909SOL     OW98043   2.051   3.599   5.127 -0.1551 -0.4021 -0.5572
31909SOL    HW198044   2.009   3.583   5.212  0.2265 -0.0060 -0.2876
31909SOL    HW298045   2.145   3.589   5.145 -0.0458  0.0960 -0.8400
31910SOL     OW98046   2.579  10.336   7.159  0.1703  0.8987  0.1575
31910SOL    HW198047   2.662  10.322   7.204 -1.7364 -2.7949  3.1688
31910SOL    HW298048   2.550  10.422   7.187  1.2377  0.6226  2.3231
31911SOL     OW98049   7.077   2.304   2.229 -0.0122 -0.2818 -0.7488
31911SOL    HW198050   7.002   2.322   2.172 -0.7509  0.4847  0.4243
31911SOL    HW298051   7.134   2.248   2.176  0.1566  1.7499 -2.9045
31912SOL     OW98052   3.946   0.443   6.658  0.3483 -0.2497 -0.0915
31912SOL    HW198053   3.989   0.526   6.640  1.6357 -1.1659 -1.4657
31912SOL    HW298054   3.906   0.417   6.575  0.9309 -1.5276 -0.0057
31913SOL     OW98055   9.606   2.007   6.661 -0.6601  0.1068 -0.4987
31913SOL    HW198056   9.619   2.085   6.715 -1.3719 -0.6192  0.7801
31913SOL    HW298057   9.560   2.038   6.583 -1.4220  0.8897  0.2455
31914SOL     OW98058   7.214   7.423   0.009 -0.4167  0.1481  0.2787
31914SOL    HW198059   7.298   7.462  -0.013 -0.3506 -0.1774 -0.0605
31914SOL    HW298060   7.203   7.440   0.103 -0.7812  1.6989 -0.0270
31915SOL     OW98061  10.177  10.240   4.246 -0.0590 -0.4508  0.7096
31915SOL    HW198062  10.234  10.221   4.172  0.2869  0.1871  0.8104
31915SOL    HW298063  10.233  10.283   4.310 -0.3073 -1.1862  1.4342
31916SOL     OW98064   6.431   6.480   6.594 -0.1617 -0.2944  0.2701
31916SOL    HW198065   6.373   6.403   6.598  0.1721 -0.6121 -0.6602
31916SOL    HW298066   6.518   6.443   6.581  0.3322  0.1702  2.0164
31917SOL     OW98067   5.192   2.233   3.362 -0.0839 -0.1632 -0.1755
31917SOL    HW198068   5.229   2.307   3.410  0.9936  0.5914 -2.0384
31917SOL    HW298069   5.106   2.264   3.333 -0.6564 -0.5534  1.0194
31918SOL     OW98070   6.301   3.109   1.264 -0.3607  0.2857 -0.2529
31918SOL    HW198071   6.273   3.189   1.309 -1.2393 -0.8166  1.2801
31918SOL    HW298072   6.222   3.076   1.222 -0.0786  0.0554 -0.6102
31919SOL     OW98073   0.482   1.000   2.876 -0.1640 -0.0974  0.2532
31919SOL    HW198074   0.572   1.014   2.844  0.1070 -1.1506  0.5292
31919SOL    HW298075   0.482   1.034   2.965 -1.1472  3.6569 -0.9807
31920SOL     OW98076   2.819   9.165   4.038  0.1792 -0.4547  0.7048
31920SOL    HW198077   2.801   9.257   4.019 -0.5657 -0.6961  0.2033
31920SOL    HW298078   2.911   9.163   4.063  1.1354  0.0423 -2.3029
31921SOL     OW98079   1.563   0.377   1.783  0.5843  0.1967  0.4554
31921SOL    HW198080   1.638   0.353   1.728 -0.2350 -1.6134  0.0433
31921SOL    HW298081   1.588   0.460   1.822  3.4009 -0.9504  1.3930
31922SOL     OW98082   3.242   6.353   9.481  0.3938 -0.2348 -0.5932
31922SOL    HW198083   3.151   6.360   9.453  0.8065 -1.6013 -2.5035
31922SOL    HW298084   3.266   6.441   9.508 -1.1325  0.4185 -1.2733
31923SOL     OW98085   8.196   4.145   4.038 -0.4018  0.1575  0.0711
31923SOL    HW198086   8.223   4.066   4.084 -1.0279 -0.5535 -0.7664
31923SOL    HW298087   8.274   4.201   4.039  0.2096 -0.6793  0.1923
31924SOL     OW98088   5.677   3.433   6.628  0.1930 -0.3186 -0.4105
31924SOL    HW198089   5.622   3.478   6.691 -0.6859 -1.1142 -0.5962
31924SOL    HW298090   5.690   3.346   6.665  0.5183 -0.4544 -0.8342
31925SOL     OW98091   7.894   0.412   3.999 -0.5364  0.3408  0.5844
31925SOL    HW198092   7.835   0.419   3.923  0.3619 -0.7655 -0.2484
31925SOL    HW298093   7.836   0.414   4.074 -1.3868  2.5908 -0.0337
31926SOL     OW98094   4.749   4.377   2.268 -0.4979  0.2270 -0.6704
31926SOL    HW198095   4.679   4.433   2.233 -0.8722 -0.3731 -0.8983
31926SOL    HW298096   4.826   4.400   2.215 -1.2418 -1.2533 -2.5203
31927SOL     OW98097   3.022   8.119   6.162  0.3459  0.2242  0.4650
31927SOL    HW198098   3.059   8.054   6.103  0.5948 -0.6342  1.5292
31927SOL    HW298099   2.931   8.129   6.133  0.4339 -0.2670  0.0085
31928SOL     OW98100   7.506   8.518   3.706  0.4320 -0.0741  0.1833
31928SOL    HW198101   7.421   8.477   3.722  0.1688  0.7006  0.8201
31928SOL    HW298102   7.491   8.611   3.719  1.7350 -0.0632  2.0349
31929SOL     OW98103   7.937   3.835   0.577  0.0948  0.4482  0.1357
31929SOL    HW198104   7.915   3.742   0.586 -1.5031  0.7137 -0.6405
31929SOL    HW298105   8.008   3.836   0.513  0.0098 -0.2251  0.0190
31930SOL     OW98106   1.440   5.388   6.406  0.3110  0.4072 -0.0498
31930SOL    HW198107   1.386   5.467   6.395  0.3719  0.4676  0.0769
31930SOL    HW298108   1.395   5.321   6.355 -0.0210  0.3952  0.2493
31931SOL     OW98109   8.374   3.440   9.770 -0.3217  0.2058 -0.0734
31931SOL    HW198110   8.355   3.509   9.707 -0.1384  0.2382 -0.0942
31931SOL    HW298111   8.345   3.360   9.727  0.2824  0.1667 -0.4145
31932SOL     OW98112   1.430   6.179   1.642  0.9042 -0.4015 -0.4151
31932SOL    HW198113   1.477   6.196   1.560  1.6190  1.0428  0.2551
31932SOL    HW298114   1.481   6.110   1.685  0.1781 -1.6113 -1.4268
31933SOL     OW98115   7.422   2.814   2.675  0.4987  0.3447 -0.1405
31933SOL    HW198116   7.357   2.755   2.636  0.3404  0.5412 -0.1742
31933SOL    HW298117   7.407   2.898   2.632 -1.1811  1.1809  1.9253
31934SOL     OW98118   7.265   8.984   1.062 -0.3654 -0.1406 -0.0746
31934SOL    HW198119   7.239   9.075   1.072  2.1740  0.7023 -0.3910
31934SOL    HW298120   7.294   8.977   0.971 -1.9472 -1.6976 -0.5068
31935SOL     OW98121   5.875   9.871   6.688 -0.5218  0.0442 -0.2594
31935SOL    HW198122   5.951   9.858   6.631  0.4968  0.4622  0.9306
31935SOL    HW298123   5.822   9.937   6.645  1.4867  2.2284  0.4104
31936SOL     OW98124  10.132  10.289   9.624  0.4111  0.1055  0.7593
31936SOL    HW198125  10.115  10.258   9.713 -1.0632 -0.7749  0.2070
31936SOL    HW298126  10.089  10.225   9.568 -0.8303  1.9323 -0.5028
31937SOL     OW98127   7.520   4.196   4.571  0.3354 -0.3175  0.2698
31937SOL    HW198128   7.510   4.251   4.649  0.9286 -0.2941  0.3368
31937SOL    HW298129   7.505   4.107   4.602 -1.0427 -0.1760  0.0800
31938SOL     OW98130   4.723   0.587   8.612 -0.0944 -0.4637  0.5675
31938SOL    HW198131   4.781   0.652   8.573 -1.2575  1.4852  1.9228
31938SOL    HW298132   4.672   0.553   8.539  0.6290  0.0502 -0.1862
31939SOL     OW98133   7.177   7.248   6.553 -0.4691 -0.4563  0.5619
31939SOL    HW198134   7.206   7.221   6.466 -1.2808  1.1605 -0.2629
31939SOL    HW298135   7.110   7.185   6.578 -0.6641 -0.5865 -0.2720
31940SOL     OW98136   9.197   5.789   7.256  0.4716  0.4261 -0.0628
31940SOL    HW198137   9.219   5.767   7.165  3.8322 -0.4022  0.8119
31940SOL    HW298138   9.215   5.709   7.305 -2.3910  0.4990  1.2959
31941SOL     OW98139   4.076   8.840   9.105  0.4784 -0.2424  0.2249
31941SOL    HW198140   4.049   8.858   9.015  0.1473  0.9522  0.5502
31941SOL    HW298141   4.133   8.913   9.128 -0.1192 -0.0873  1.2751
31942SOL     OW98142   9.130   5.494   0.361 -0.1159  0.2113  0.4883
31942SOL    HW198143   9.040   5.522   0.343  0.1631  0.8281 -0.0032
31942SOL    HW298144   9.123   5.400   0.377 -1.0078  0.4591  1.6405
31943SOL     OW98145   0.670   0.641   2.676 -0.5255  0.2963 -0.4225
31943SOL    HW198146   0.694   0.723   2.632 -0.0381  0.5071  0.2338
31943SOL    HW298147   0.750   0.588   2.674 -0.1721  0.7272  1.1462
31944SOL     OW98148   2.912   6.802   4.290  0.4582  0.4226  0.1682
31944SOL    HW198149   2.852   6.864   4.249  3.3454  2.5981 -1.0953
31944SOL    HW298150   2.907   6.723   4.236 -0.4714  0.9355 -0.5094
31945SOL     OW98151   1.434   0.452   5.415 -0.5299  0.6342 -0.2213
31945SOL    HW198152   1.410   0.451   5.323 -3.3058  0.5445  0.4057
31945SOL    HW298153   1.472   0.366   5.432  0.8322  0.9687 -1.4344
31946SOL     OW98154   3.408   9.476   8.366  0.8379 -0.1244  0.0512
31946SOL    HW198155   3.425   9.553   8.311  4.8384  0.1925  1.4384
31946SOL    HW298156   3.339   9.503   8.425  0.6602  1.6231 -0.8944
31947SOL     OW98157   1.655   5.277   7.241 -0.2579 -0.0185 -0.6314
31947SOL    HW198158   1.650   5.185   7.216 -1.2110 -0.4270  0.8831
31947SOL    HW298159   1.747   5.292   7.261 -0.5004 -1.7211  2.5639
31948SOL     OW98160   1.994   3.209   8.419  0.2005 -0.4936 -0.3722
31948SOL    HW198161   1.969   3.136   8.476  0.2074 -0.5809 -0.4791
31948SOL    HW298162   2.033   3.274   8.477 -1.9974  0.4790  0.1309
31949SOL     OW98163   2.789   8.723   7.265 -0.1643  0.6503  0.0435
31949SOL    HW198164   2.858   8.660   7.287 -1.2321 -0.5471  0.0188
31949SOL    HW298165   2.806   8.798   7.322 -0.0974 -0.4929  1.5696
31950SOL     OW98166   0.284   3.205   7.324  0.2191  0.1976 -0.3505
31950SOL    HW198167   0.199   3.240   7.296  0.7304  0.3705 -1.8022
31950SOL    HW298168   0.348   3.269   7.291  1.0259 -0.9549 -1.0891
31951SOL     OW98169   5.175   3.677   4.963  0.0745  0.1736  0.6963
31951SOL    HW198170   5.164   3.741   4.892 -0.6868 -1.3423 -0.6166
31951SOL    HW298171   5.099   3.619   4.955  0.5069 -0.6405  2.1315
31952SOL     OW98172  10.368   5.926   0.447 -0.4582 -0.0750 -0.1844
31952SOL    HW198173  10.330   5.925   0.360 -0.4024 -0.9373 -0.2076
31952SOL    HW298174  10.437   5.860   0.444 -1.9691 -1.8083  1.1769
31953SOL     OW98175   4.178   8.704   9.479 -0.5693  0.2786  0.5976
31953SOL    HW198176   4.161   8.794   9.505 -0.8597  0.7867 -1.2075
31953SOL    HW298177   4.245   8.710   9.411  0.7196 -1.0330  1.6799
31954SOL     OW98178   8.689   7.708   1.727  0.4771 -0.1137 -0.3575
31954SOL    HW198179   8.635   7.713   1.648 -2.3330  2.4474  1.5257
31954SOL    HW298180   8.705   7.614   1.738 -0.9224 -0.7301 -2.7229
31955SOL     OW98181   0.906  10.281   0.018 -0.1931 -0.5439 -0.0698
31955SOL    HW198182   0.931  10.253   0.107  1.3647  1.7688  0.2974
31955SOL    HW298183   0.962  10.229  -0.040 -0.2480 -1.1001  0.3654
31956SOL     OW98184   4.345   8.218   8.788 -0.0200 -0.4718  0.2131
31956SOL    HW198185   4.275   8.155   8.775 -0.8039  0.7971 -2.3981
31956SOL    HW298186   4.322   8.291   8.732  3.1893  0.1670 -0.4543
31957SOL     OW98187   6.332   6.981   6.672 -0.0401 -0.1591  0.0850
31957SOL    HW198188   6.348   6.989   6.766 -1.5793  0.4513  0.3275
31957SOL    HW298189   6.252   7.032   6.657 -0.0520 -0.5912 -1.4840
31958SOL     OW98190   4.457   5.666   3.962  0.3074  0.3098 -0.0264
31958SOL    HW198191   4.534   5.722   3.955  0.2368  0.4136  0.0216
31958SOL    HW298192   4.456   5.615   3.881  0.4815  0.2365  0.0172
31959SOL     OW98193   6.605   0.515   0.758  0.0266 -0.3160 -0.0105
31959SOL    HW198194   6.687   0.483   0.796  0.8346  2.2033  0.5048
31959SOL    HW298195   6.540   0.497   0.826  0.6324  0.0447  0.6765
31960SOL     OW98196   1.706   2.437  10.287  0.5092  0.5558  0.0545
31960SOL    HW198197   1.663   2.462  10.205  0.3634 -0.5119 -0.2126
31960SOL    HW298198   1.800   2.452  10.270  0.6567 -1.2759 -0.9435
31961SOL     OW98199   6.019   6.910  10.214 -0.2144  0.3163  0.2514
31961SOL    HW198200   6.105   6.870  10.204 -0.2930  0.5937 -2.2933
31961SOL    HW298201   5.960   6.851  10.165 -1.3535  0.5210  1.3189
31962SOL     OW98202   4.711   8.259   2.122 -0.5869 -0.1668  0.7901
31962SOL    HW198203   4.806   8.251   2.115 -0.4132  1.8132  0.3861
31962SOL    HW298204   4.696   8.309   2.202 -1.1103  1.5860 -0.3389
31963SOL     OW98205   2.615   4.321   6.822 -0.2559  0.3737  0.4916
31963SOL    HW198206   2.647   4.407   6.794  0.6371 -0.0447  0.1972
31963SOL    HW298207   2.662   4.303   6.904  1.0251 -0.6501 -0.4171
31964SOL     OW98208   2.430   4.383   9.771 -0.2658 -0.0678 -0.6320
31964SOL    HW198209   2.393   4.381   9.859  1.0736 -1.5177 -0.0603
31964SOL    HW298210   2.514   4.429   9.781 -0.1623 -0.1234 -1.1718
31965SOL     OW98211   3.726   3.893   7.658 -0.3070  0.0586 -0.1877
31965SOL    HW198212   3.795   3.953   7.629 -0.4712  0.5073  0.3342
31965SOL    HW298213   3.696   3.852   7.577  0.8670 -0.4797 -0.3817
31966SOL     OW98214   8.469   6.677   9.815  0.1546 -0.1086 -0.1885
31966SOL    HW198215   8.515   6.760   9.803  0.9518 -0.3008  1.2975
31966SOL    HW298216   8.475   6.634   9.729 -0.7272  1.5530 -1.1416
31967SOL     OW98217   2.697  10.274   6.580  0.0350 -0.2068  0.6206
31967SOL    HW198218   2.609  10.293   6.612  0.1459 -0.3811  1.0284
31967SOL    HW298219   2.746  10.355   6.595 -0.3360  0.2844 -0.6383
31968SOL     OW98220   5.565   4.467   7.022  0.6289  0.9692 -0.0202
31968SOL    HW198221   5.643   4.413   7.011  0.0278 -0.2240  1.2138
31968SOL    HW298222   5.511   4.447   6.946  0.8314  0.5666 -0.0611
31969SOL     OW98223   7.941   4.041   9.634 -0.4764  0.4380  0.0503
31969SOL    HW198224   7.937   4.080   9.721 -0.8621 -0.7418  0.5781
31969SOL    HW298225   7.879   3.968   9.637  2.1762 -1.9989  0.0472
31970SOL     OW98226   5.682   0.606   9.519  0.0102 -0.1268  0.0749
31970SOL    HW198227   5.649   0.629   9.606 -1.7747 -0.8880 -0.3649
31970SOL    HW298228   5.659   0.514   9.508  0.3535 -0.0898 -1.1478
31971SOL     OW98229   8.655   6.568   1.304 -0.4937  0.0551 -0.3384
31971SOL    HW198230   8.579   6.570   1.362 -0.5914  0.3643 -0.4754
31971SOL    HW298231   8.630   6.510   1.233 -1.2595  1.4620 -1.2715
31972SOL     OW98232   3.094   0.045   6.969  0.7107 -0.0690  0.3058
31972SOL    HW198233   3.019   0.085   7.012  1.7256 -0.0806  2.2012
31972SOL    HW298234   3.102  -0.041   7.010  0.1718 -1.1973 -1.8038
31973SOL     OW98235   7.741   2.405   0.189  0.2599 -0.0966  0.5581
31973SOL    HW198236   7.657   2.366   0.214 -0.2559 -0.7769 -1.9762
31973SOL    HW298237   7.750   2.480   0.247 -2.4496  0.4248  0.4503
31974SOL     OW98238   6.015   5.871   5.751 -0.7159  0.3327 -0.3553
31974SOL    HW198239   6.033   5.964   5.766 -0.7062  0.0575  1.6159
31974SOL    HW298240   6.050   5.827   5.828 -2.0343 -1.1570 -0.5531
31975SOL     OW98241   6.412   5.475   6.170  0.5253 -0.2468  0.2187
31975SOL    HW198242   6.473   5.468   6.243 -0.4319  0.4875  1.1200
31975SOL    HW298243   6.380   5.386   6.156 -0.7272 -0.1164  1.9946
31976SOL     OW98244   3.422   2.890   1.091 -0.0853  0.4177  0.5481
31976SOL    HW198245   3.398   2.818   1.148  1.6686 -0.2299  0.5137
31976SOL    HW298246   3.460   2.848   1.013 -2.1925  1.2765 -1.0499
31977SOL     OW98247   5.406   4.926   7.767  0.3671  0.9137 -0.1670
31977SOL    HW198248   5.387   4.923   7.860  0.2091  0.4230 -0.2134
31977SOL    HW298249   5.342   4.867   7.727  1.5579 -0.2615 -0.3886
31978SOL     OW98250   4.733   5.159   8.587  0.3790 -0.3977 -0.2220
31978SOL    HW198251   4.699   5.154   8.497 -0.7411 -1.1008  0.2081
31978SOL    HW298252   4.816   5.112   8.584  0.2379 -0.6202 -0.8429
31979SOL     OW98253   1.234   4.842   6.824  0.3385 -0.0970  0.9918
31979SOL    HW198254   1.176   4.805   6.890 -1.9557 -0.5410 -1.1410
31979SOL    HW298255   1.222   4.937   6.833 -2.2660 -0.2026 -0.6171
31980SOL     OW98256   5.736   1.493   6.095 -0.5439  0.6497 -0.5693
31980SOL    HW198257   5.670   1.549   6.055 -0.5360  0.6789 -0.5407
31980SOL    HW298258   5.764   1.435   6.024 -0.9593  0.3064 -0.4531
31981SOL     OW98259   2.862   5.120   0.010 -0.2806  0.0255  0.0563
31981SOL    HW198260   2.789   5.110   0.070 -0.1593 -0.6352  0.1002
31981SOL    HW298261   2.935   5.149   0.065  0.3514 -2.3560  0.6185
31982SOL     OW98262   2.600   3.506   7.937 -0.3723 -0.6183 -0.3020
31982SOL    HW198263   2.695   3.515   7.947 -0.5224  1.2966 -0.0872
31982SOL    HW298264   2.565   3.528   8.023 -1.0396 -0.2785 -0.6511
31983SOL     OW98265   6.596   6.683   0.923 -0.1879  0.3278  0.1788
31983SOL    HW198266   6.554   6.605   0.961 -0.1915  0.4423  0.4146
31983SOL    HW298267   6.524   6.734   0.886 -0.1614  0.1149 -0.1682
31984SOL     OW98268   6.481   9.735   9.116 -0.2127  0.1533  0.3527
31984SOL    HW198269   6.420   9.738   9.189 -3.0267 -0.0774 -1.8067
31984SOL    HW298270   6.441   9.792   9.049  1.0544 -1.3059 -1.7754
31985SOL     OW98271   6.423   7.471   7.186  0.3055  0.3178 -0.6259
31985SOL    HW198272   6.485   7.401   7.167 -1.3943 -0.9998 -1.5925
31985SOL    HW298273   6.473   7.551   7.173  2.2765 -0.6764  0.4054
31986SOL     OW98274   0.245   6.522   7.161  0.2633 -0.5542  0.3492
31986SOL    HW198275   0.336   6.492   7.154  0.0634 -0.9960 -0.4463
31986SOL    HW298276   0.203   6.491   7.081 -0.7977 -1.0913  1.0836
31987SOL     OW98277   7.634   7.992   4.398 -0.3271 -0.7500 -0.0021
31987SOL    HW198278   7.672   7.920   4.447 -0.9674 -0.8362  0.3786
31987SOL    HW298279   7.608   8.055   4.464  0.7138  0.0883 -0.3613
31988SOL     OW98280   8.546   1.851  10.504  0.3727 -0.2699  0.0946
31988SOL    HW198281   8.526   1.944  10.517 -0.0356 -0.3952  0.3912
31988SOL    HW298282   8.469   1.817  10.458  0.0639 -0.6777  0.8980
31989SOL     OW98283   4.856   2.971   6.230  0.0600 -0.4603 -0.2548
31989SOL    HW198284   4.854   2.916   6.309 -0.5531  0.9497  0.7492
31989SOL    HW298285   4.928   2.935   6.178 -0.8079 -2.6857 -0.0111
31990SOL     OW98286  10.305   5.247   2.720  0.6434  0.2489 -0.5725
31990SOL    HW198287  10.237   5.241   2.653  1.8736 -0.4450 -1.8161
31990SOL    HW298288  10.326   5.340   2.726 -0.3182  0.4544 -0.2561
31991SOL     OW98289   9.197  10.479  10.045  0.2076 -0.4183 -0.1701
31991SOL    HW198290   9.204  10.553   9.985 -1.1324 -0.1028  0.0331
31991SOL    HW298291   9.270  10.422  10.021  2.4907  1.8328  0.9172
31992SOL     OW98292   8.405   6.953   8.405 -0.1150  0.1537 -0.3618
31992SOL    HW198293   8.397   6.869   8.360  0.2657  0.5484 -1.2075
31992SOL    HW298294   8.492   6.951   8.444 -0.5281 -0.2766  0.5694
31993SOL     OW98295   1.804   3.043   5.320 -0.7255  0.1637  0.5445
31993SOL    HW198296   1.874   3.009   5.376 -1.0479 -0.8072  0.3750
31993SOL    HW298297   1.838   3.127   5.288  1.0479 -0.9882 -0.8012
31994SOL     OW98298   1.336   6.090   1.224 -0.5325 -0.4889 -0.0876
31994SOL    HW198299   1.251   6.051   1.246 -0.3676 -1.3334 -0.8481
31994SOL    HW298300   1.350   6.157   1.290 -1.2442 -1.1478  0.7564
31995SOL     OW98301   8.310  10.076   4.707 -0.2394  0.0050 -0.3343
31995SOL    HW198302   8.238  10.129   4.672  0.1591 -0.4153 -1.8842
31995SOL    HW298303   8.387  10.107   4.659  0.5671  0.1753  1.0240
31996SOL     OW98304   6.615   0.115   9.067  0.7279  0.5873  0.3805
31996SOL    HW198305   6.625   0.043   9.005 -2.2661  0.5712 -0.2536
31996SOL    HW298306   6.642   0.080   9.151 -0.8194 -1.4039  0.1215
31997SOL     OW98307   2.845   9.954   2.110 -0.2127 -0.1079 -0.0488
31997SOL    HW198308   2.847  10.037   2.062 -0.3851 -0.1706 -0.1633
31997SOL    HW298309   2.804   9.977   2.194 -0.2822 -0.0806 -0.0894
31998SOL     OW98310   4.145   5.646   4.775  0.1797 -0.5356  0.4226
31998SOL    HW198311   4.079   5.715   4.762  3.3183  2.9604  1.2488
31998SOL    HW298312   4.165   5.649   4.868  0.2151 -2.9186  0.5499
31999SOL     OW98313   2.403   0.121   2.142  0.0526  0.5499  0.3389
31999SOL    HW198314   2.310   0.111   2.121 -0.0194  0.0114  0.8758
31999SOL    HW298315   2.411   0.085   2.231  0.9582 -0.3871 -0.0982
32000SOL     OW98316   1.651   5.064   6.474  0.1390  0.4885  0.6146
32000SOL    HW198317   1.585   5.019   6.528 -1.3112  0.0015 -1.4243
32000SOL    HW298318   1.617   5.153   6.464  0.0289  0.3766 -0.0403
32001SOL     OW98319   3.446   4.552   4.360  0.4742 -0.1831  0.1379
32001SOL    HW198320   3.374   4.489   4.359  0.4059 -0.1005 -0.9425
32001SOL    HW298321   3.525   4.498   4.353  0.4606 -0.1928  0.0661
32002SOL     OW98322   3.341   4.070   8.549 -0.2405 -0.6274  0.0154
32002SOL    HW198323   3.355   4.064   8.455  0.6363  1.7722 -0.0675
32002SOL    HW298324   3.252   4.107   8.558  0.3940  0.9854  0.0208
32003SOL     OW98325   4.712   5.219   0.486 -0.5824 -0.0166 -0.1985
32003SOL    HW198326   4.690   5.178   0.570  0.1425  0.8258  0.4334
32003SOL    HW298327   4.747   5.148   0.433  1.5482 -0.1074  1.1984
32004SOL     OW98328   6.692   6.470   3.028 -0.1839 -0.3539  0.5441
32004SOL    HW198329   6.681   6.399   3.090  0.6851 -1.7654 -0.8457
32004SOL    HW298330   6.724   6.544   3.080  0.5545 -1.4978  1.7561
32005SOL     OW98331   7.405   0.957   9.057 -0.1338 -0.5065 -0.1554
32005SOL    HW198332   7.427   0.874   9.100 -0.2722 -0.6696 -0.3928
32005SOL    HW298333   7.477   1.016   9.080  0.7156 -1.1121 -1.1683
32006SOL     OW98334  10.429   4.435   3.308  0.1137 -0.2437 -0.2763
32006SOL    HW198335  10.432   4.529   3.291 -0.2834  0.0082  0.9470
32006SOL    HW298336  10.508   4.417   3.360 -1.3509  0.0382  2.2049
32007SOL     OW98337   6.556   2.685   2.321  0.6331  0.5105 -0.2542
32007SOL    HW198338   6.601   2.609   2.358  0.3627  0.2718 -0.4098
32007SOL    HW298339   6.621   2.726   2.264  0.4074 -0.3038 -1.1258
32008SOL     OW98340   3.124   7.311   6.022 -0.1834 -0.0526  0.0260
32008SOL    HW198341   3.084   7.230   6.051  0.6287 -1.0116 -1.3841
32008SOL    HW298342   3.183   7.336   6.093 -0.4694 -0.6755  0.4907
32009SOL     OW98343   2.302   5.120   9.692  0.1594  0.0470  0.3982
32009SOL    HW198344   2.345   5.078   9.766 -0.2518  0.6772  1.0014
32009SOL    HW298345   2.246   5.187   9.731 -3.0328 -2.0744 -0.1951
32010SOL     OW98346   8.007   3.561   6.696  0.8490 -0.2186 -0.0196
32010SOL    HW198347   8.095   3.557   6.659  0.4176 -0.4713 -1.0596
32010SOL    HW298348   7.956   3.499   6.643 -0.4198  1.3943 -0.7721
32011SOL     OW98349   2.809   8.987   3.061  0.1883  0.4739 -0.2048
32011SOL    HW198350   2.898   9.020   3.049  0.1883  0.4777 -0.1959
32011SOL    HW298351   2.817   8.920   3.129  0.1048  0.8170  0.1498
32012SOL     OW98352   5.416   8.062   6.558 -0.3401 -0.3140  0.0104
32012SOL    HW198353   5.387   8.144   6.517  1.3282 -0.5942 -1.8851
32012SOL    HW298354   5.399   8.075   6.651 -0.3569  2.0865 -0.2530
32013SOL     OW98355   3.142   6.150   5.008 -0.3752  0.7737  0.7351
32013SOL    HW198356   3.197   6.077   5.035 -0.2113  0.9174  0.7950
32013SOL    HW298357   3.201   6.225   5.006 -0.5190  0.8833  0.5676
32014SOL     OW98358   7.825   2.260   9.319  0.1780  0.3377 -0.3382
32014SOL    HW198359   7.786   2.262   9.406  0.2508  0.2036 -0.3011
32014SOL    HW298360   7.761   2.213   9.264  0.6533 -0.6384 -0.0856
32015SOL     OW98361   9.869   4.755   0.198  0.0511  0.3502  0.2948
32015SOL    HW198362   9.854   4.738   0.105  1.2880  0.6606  0.0203
32015SOL    HW298363   9.819   4.687   0.243 -1.3224  0.7357 -0.5493
32016SOL     OW98364  10.595   8.156   8.692  0.3846 -0.2550 -0.0400
32016SOL    HW198365  10.670   8.214   8.702  0.5019  0.1181 -2.4035
32016SOL    HW298366  10.623   8.073   8.731  1.4708  0.2895  0.3765
32017SOL     OW98367   7.405   2.502   4.834 -0.5247  0.3274 -0.1519
32017SOL    HW198368   7.385   2.409   4.838 -0.5563  0.2438 -1.5645
32017SOL    HW298369   7.436   2.516   4.744  0.0513  1.5647  0.2127
32018SOL     OW98370   7.149   9.698   7.325 -0.1155  0.2894  0.9483
32018SOL    HW198371   7.174   9.789   7.342  0.5859  0.4480 -0.7909
32018SOL    HW298372   7.053   9.700   7.321 -0.1181  0.8969  1.2067
32019SOL     OW98373   2.860   9.274   9.868 -0.8358 -0.5681  0.2628
32019SOL    HW198374   2.866   9.361   9.829 -0.1266 -0.8234 -0.2149
32019SOL    HW298375   2.924   9.274   9.938 -0.2469 -0.9686 -0.2647
32020SOL     OW98376   8.006   2.385   9.652 -1.0285  0.6189 -0.2532
32020SOL    HW198377   8.000   2.447   9.725  1.3584 -1.6447  2.0900
32020SOL    HW298378   7.940   2.319   9.671 -0.4083  0.0227 -0.1623
32021SOL     OW98379   8.833   3.691   9.620  0.1855 -0.0736 -0.4475
32021SOL    HW198380   8.906   3.631   9.637  0.0533  0.2358  1.5105
32021SOL    HW298381   8.758   3.650   9.662  0.3352  1.9296  2.0769
32022SOL     OW98382   0.913   6.971   0.364 -0.3357 -0.1473 -0.2414
32022SOL    HW198383   0.856   6.970   0.287 -1.6069 -0.4578  0.6658
32022SOL    HW298384   0.939   7.062   0.374 -0.9728  0.0695 -0.4865
32023SOL     OW98385   8.485   1.351   4.428 -0.3262 -0.0641 -0.0561
32023SOL    HW198386   8.576   1.322   4.415  0.1678  0.3578  2.0370
32023SOL    HW298387   8.485   1.443   4.402 -0.0962 -0.0027  0.1601
32024SOL     OW98388   7.296   0.595   0.866 -0.0583  0.4077  0.2417
32024SOL    HW198389   7.226   0.535   0.842  0.1692  0.2445 -0.0329
32024SOL    HW298390   7.299   0.592   0.962 -0.4440  0.4432  0.2560
32025SOL     OW98391   9.988   7.915   5.284  0.5150 -0.3125 -0.3729
32025SOL    HW198392   9.928   7.874   5.346  0.6634  0.9570  0.6517
32025SOL    HW298393  10.062   7.854   5.279 -0.1669 -1.1546 -0.4894
32026SOL     OW98394   6.910   2.471   2.706 -0.0993 -0.7232 -0.3677
32026SOL    HW198395   6.880   2.425   2.784 -2.1721  1.1846  0.0746
32026SOL    HW298396   7.001   2.443   2.695 -0.1675 -2.0951  1.9086
32027SOL     OW98397   4.316   8.838   5.529  0.0956 -0.0549  0.1898
32027SOL    HW198398   4.367   8.872   5.455  0.6016 -0.9964  0.0998
32027SOL    HW298399   4.225   8.858   5.506  0.1780 -0.9542 -1.0321
32028SOL     OW98400   1.805   6.948  10.579  0.1474 -0.7466  0.3047
32028SOL    HW198401   1.851   6.958  10.496 -0.5880 -0.4115 -0.0762
32028SOL    HW298402   1.716   6.923  10.554 -0.5546  1.0018  0.9004
32029SOL     OW98403   3.155   9.196   9.790 -0.1131  0.5531  0.3403
32029SOL    HW198404   3.083   9.218   9.732  0.0989 -1.8656 -0.9933
32029SOL    HW298405   3.122   9.214   9.878 -1.5178  1.5295 -0.3468
32030SOL     OW98406   1.624   7.496   4.219  0.6504  0.7689 -0.5635
32030SOL    HW198407   1.630   7.583   4.257  0.2968  0.9671 -0.9529
32030SOL    HW298408   1.626   7.437   4.294  0.6602  1.1245 -0.2829
32031SOL     OW98409   7.860   9.839   6.392  0.0296 -0.1088  0.0824
32031SOL    HW198410   7.808   9.861   6.470  1.0324 -0.4186  0.8609
32031SOL    HW298411   7.949   9.866   6.415  0.8347 -2.5681  0.0709
32032SOL     OW98412   6.610   0.629   1.054  0.4574  0.4288  0.2994
32032SOL    HW198413   6.663   0.707   1.068  2.4797 -0.4130 -1.9748
32032SOL    HW298414   6.642   0.567   1.119 -0.8062  1.2672  1.7777
32033SOL     OW98415   0.679   8.182  10.515 -0.6290  0.1935  0.2447
32033SOL    HW198416   0.591   8.164  10.550 -0.3532 -0.5876  0.5521
32033SOL    HW298417   0.688   8.277  10.523 -0.8373  0.1156  1.6944
32034SOL     OW98418   0.314   4.793   2.960  0.1589  0.0625 -0.4950
32034SOL    HW198419   0.245   4.780   2.895  0.3400 -0.2045 -0.6326
32034SOL    HW298420   0.295   4.729   3.028 -0.8501  1.2741  0.4000
32035SOL     OW98421   5.904   6.749  10.010 -0.4700 -0.6592 -0.0962
32035SOL    HW198422   5.940   6.661  10.022  1.8799  0.1617 -0.5502
32035SOL    HW298423   5.815   6.734   9.980 -0.6246 -2.8525  1.1935
32036SOL     OW98424   4.324   9.368   2.590  0.4292  0.1943 -0.2177
32036SOL    HW198425   4.292   9.330   2.508 -0.6317 -0.8317  0.6479
32036SOL    HW298426   4.388   9.434   2.562 -1.0181  0.9603 -1.9403
32037SOL     OW98427   1.698   9.555   5.708 -0.0494  0.4053 -0.5007
32037SOL    HW198428   1.751   9.635   5.700 -1.0640  1.1963  0.3546
32037SOL    HW298429   1.609   9.587   5.721 -0.2005 -0.7954  1.9451
32038SOL     OW98430   0.262   5.563   5.658 -0.2180  0.0510  0.3773
32038SOL    HW198431   0.234   5.506   5.729  2.1986  1.3537  2.5609
32038SOL    HW298432   0.222   5.648   5.678 -0.2681  0.2096 -0.3575
32039SOL     OW98433   2.543   4.691   2.361 -0.0058 -0.0962  0.5260
32039SOL    HW198434   2.506   4.765   2.409  1.9236  1.3789 -0.1137
32039SOL    HW298435   2.489   4.684   2.283 -0.2646  0.5902  0.6318
32040SOL     OW98436   8.886  10.105   6.482 -0.4147  0.5206  0.4649
32040SOL    HW198437   8.873  10.131   6.390 -1.7593  0.7866  0.7152
32040SOL    HW298438   8.807  10.058   6.505 -0.4432  1.1561  1.7367
32041SOL     OW98439   0.388   1.037   0.087  0.2827 -0.7067 -0.2537
32041SOL    HW198440   0.346   1.085   0.015  2.3505 -0.4554 -1.3811
32041SOL    HW298441   0.420   1.106   0.146  0.5432 -0.8163 -0.2664
32042SOL     OW98442  10.589   7.800   7.190  0.2757 -0.8793 -0.4756
32042SOL    HW198443  10.555   7.727   7.242 -1.7549  1.2069  1.3344
32042SOL    HW298444  10.544   7.793   7.106  0.7921 -2.1773 -0.6685
32043SOL     OW98445   1.756   1.973   4.429  0.0833  0.1095  0.3458
32043SOL    HW198446   1.685   1.922   4.391  0.9070 -0.3252 -0.6580
32043SOL    HW298447   1.712   2.043   4.477 -1.0272 -0.4318  0.1442
32044SOL     OW98448   6.778   8.574   3.643  0.1024 -0.1455  0.7281
32044SOL    HW198449   6.807   8.521   3.569  1.3853  1.3093  0.1529
32044SOL    HW298450   6.848   8.636   3.657 -1.5791  1.7817  1.0228
32045SOL     OW98451   3.686   3.403   2.391  0.9252 -0.2737 -0.6737
32045SOL    HW198452   3.750   3.365   2.450  1.6416  0.8116 -0.7260
32045SOL    HW298453   3.616   3.435   2.448  1.0931 -0.2171 -0.5012
32046SOL     OW98454   6.807   3.380   8.708 -0.1248  0.0259  0.1562
32046SOL    HW198455   6.735   3.319   8.720 -1.0913  1.0060 -0.4786
32046SOL    HW298456   6.792   3.449   8.772 -0.3826  0.7905 -0.7033
32047SOL     OW98457   2.673   7.646   7.906 -0.0369  0.6295  0.7233
32047SOL    HW198458   2.673   7.565   7.854  1.6929  1.6731 -1.0467
32047SOL    HW298459   2.735   7.628   7.977  0.6097  0.4872  0.1367
32048SOL     OW98460   1.752   1.108   7.889  0.4715 -0.1738  0.3068
32048SOL    HW198461   1.755   1.201   7.866 -0.8830 -0.4693 -1.2674
32048SOL    HW298462   1.781   1.104   7.980 -0.0912  1.8667  0.6122
32049SOL     OW98463   4.005   9.375   3.541  0.5959  0.0653  0.4735
32049SOL    HW198464   3.915   9.353   3.565  0.7153 -1.7158 -0.4735
32049SOL    HW298465   3.998   9.456   3.491 -0.3372  0.4958  1.2683
32050SOL     OW98466   2.993   3.244   5.852 -0.2295  0.3664 -0.2106
32050SOL    HW198467   3.000   3.175   5.918  0.0308  1.3205  0.7916
32050SOL    HW298468   3.007   3.199   5.768  2.7820 -0.3653  0.5785
32051SOL     OW98469   7.803   7.245   2.862  0.2304 -0.4813 -0.2569
32051SOL    HW198470   7.879   7.187   2.857  1.8985  1.5843 -0.3818
32051SOL    HW298471   7.786   7.256   2.955  1.2196  0.3879 -0.1626
32052SOL     OW98472   9.518   3.387   1.737  0.4398 -0.0930  0.2505
32052SOL    HW198473   9.529   3.317   1.673  1.2582 -0.3129  0.6157
32052SOL    HW298474   9.428   3.378   1.768 -0.5043  0.9763 -1.9729
32053SOL     OW98475  10.422   8.136   6.995  0.4308 -0.1709  0.6571
32053SOL    HW198476  10.448   8.115   7.085  2.3829  0.5380  0.3177
32053SOL    HW298477  10.439   8.230   6.986  0.3291 -0.2455 -0.4664
32054SOL     OW98478   8.087   6.756   9.608 -0.5622 -0.3764  0.5673
32054SOL    HW198479   8.061   6.848   9.620 -0.4541 -0.1468 -0.8334
32054SOL    HW298480   8.128   6.732   9.691  0.2667  1.1484  0.6406
32055SOL     OW98481  10.255   1.587   8.722 -0.2693 -0.2226  0.4759
32055SOL    HW198482  10.221   1.640   8.650  1.2268  0.8156  0.4905
32055SOL    HW298483  10.231   1.497   8.699 -0.1271  0.1285 -1.1538
32056SOL     OW98484   6.446   3.074   3.675 -0.4632 -0.0436  0.2230
32056SOL    HW198485   6.475   3.165   3.680 -2.1786  0.7567 -2.2564
32056SOL    HW298486   6.526   3.023   3.663  0.4660  1.2062  0.8897
32057SOL     OW98487   1.385   6.462   3.736  0.2012 -0.4108  0.2703
32057SOL    HW198488   1.425   6.512   3.664  1.3329  0.3420  1.3745
32057SOL    HW298489   1.339   6.390   3.693  0.0851  0.5387 -1.2579
32058SOL     OW98490   1.305   4.967   4.379  0.1321 -0.2549  0.0593
32058SOL    HW198491   1.382   5.014   4.347  1.1763 -1.9776 -0.1307
32058SOL    HW298492   1.232   5.003   4.330  0.8339  1.2332  0.0384
32059SOL     OW98493   7.970   8.573   7.541 -0.6086 -0.2835  0.4507
32059SOL    HW198494   8.036   8.634   7.574  1.3409 -1.1913 -1.4582
32059SOL    HW298495   7.911   8.627   7.490  0.6006  0.1941 -0.5033
32060SOL     OW98496   1.240   5.567   7.364  0.6387 -0.1712 -0.1833
32060SOL    HW198497   1.229   5.549   7.270  0.7688 -0.9898 -0.0483
32060SOL    HW298498   1.274   5.657   7.368  2.2662 -0.7162 -1.0036
32061SOL     OW98499   9.824   6.769   5.483 -0.1039 -0.2606  0.4213
32061SOL    HW198500   9.762   6.704   5.450 -0.6156 -0.5321  1.8638
32061SOL    HW298501   9.871   6.724   5.553  0.0400  0.7000  0.9561
32062SOL     OW98502   3.509   8.926   2.934 -0.0934 -0.6892 -0.1079
32062SOL    HW198503   3.527   8.837   2.902 -0.7056 -1.2917  1.1804
32062SOL    HW298504   3.595   8.967   2.937  0.5797 -2.1176  1.8121
32063SOL     OW98505   6.444   6.922  10.291  0.0463  0.2109  0.1565
32063SOL    HW198506   6.485   6.875  10.364 -0.7314 -0.4902  0.1557
32063SOL    HW298507   6.388   6.858  10.249 -2.3094  1.5213  1.1310
32064SOL     OW98508   4.563   3.627   7.291 -0.3828  0.3823 -0.2350
32064SOL    HW198509   4.626   3.591   7.354 -0.9327 -1.5987 -0.7759
32064SOL    HW298510   4.545   3.715   7.324  2.2950  0.8677  0.2035
32065SOL     OW98511   1.046   9.840   2.329  0.3810  0.4400 -0.7171
32065SOL    HW198512   0.981   9.795   2.383  0.1453 -0.3143 -1.6054
32065SOL    HW298513   1.038   9.932   2.353  1.4090 -0.0399  1.7017
32066SOL     OW98514   6.051   0.136   5.916 -0.0455 -0.2594  0.4853
32066SOL    HW198515   6.113   0.104   5.850  0.1988  1.9392 -0.4334
32066SOL    HW298516   6.079   0.094   5.997  1.0327 -1.2967 -0.3726
32067SOL     OW98517   6.047   5.940   8.968 -0.3603 -0.5229 -0.4351
32067SOL    HW198518   5.975   5.997   8.940  0.3123  0.6669  0.2211
32067SOL    HW298519   6.002   5.863   9.004 -1.2710 -0.5282 -1.4848
32068SOL     OW98520   4.590   6.640   1.821  0.3909  0.5853 -0.0590
32068SOL    HW198521   4.614   6.673   1.735 -1.1174  0.1762 -0.6713
32068SOL    HW298522   4.653   6.570   1.838  0.7658  0.7345 -0.7978
32069SOL     OW98523   3.666   1.908   7.451 -0.2393  0.4189  0.5850
32069SOL    HW198524   3.587   1.876   7.493 -1.1072  1.3163 -0.3270
32069SOL    HW298525   3.700   1.833   7.402 -0.1551 -0.1479  1.4920
32070SOL     OW98526   2.636   0.057   9.685 -0.0029 -0.2469 -0.0378
32070SOL    HW198527   2.637  -0.038   9.685 -0.9363 -0.2865  1.7382
32070SOL    HW298528   2.578   0.081   9.757 -0.3811  1.6687 -0.9207
32071SOL     OW98529   7.303   0.887   0.408  0.0334  0.1409 -0.4644
32071SOL    HW198530   7.372   0.848   0.462 -1.3585 -0.4228  0.9728
32071SOL    HW298531   7.231   0.825   0.413 -1.7282  2.1317  0.6841
32072SOL     OW98532   0.957   6.704   3.039  0.2706 -0.2787 -0.4738
32072SOL    HW198533   0.885   6.658   2.996 -1.0212  0.0855  1.1861
32072SOL    HW298534   0.914   6.763   3.101  1.9629 -1.5199  2.0767
32073SOL     OW98535   4.301   0.266   7.170  0.5053 -0.0284 -0.3077
32073SOL    HW198536   4.365   0.271   7.099 -0.4034 -1.3729 -1.2531
32073SOL    HW298537   4.320   0.182   7.212  0.6745  0.5063  0.7278
32074SOL     OW98538   6.765   6.168   2.008  0.3648 -0.2623  0.2556
32074SOL    HW198539   6.682   6.150   2.051 -0.0558  1.5692  0.3015
32074SOL    HW298540   6.829   6.168   2.079 -0.3787  3.1040  1.0872
32075SOL     OW98541   2.324   6.238   7.127  0.3191  0.1585 -0.3634
32075SOL    HW198542   2.314   6.271   7.217  0.3895  1.4852 -0.8111
32075SOL    HW298543   2.393   6.172   7.133  2.6051  2.4335  0.0966
32076SOL     OW98544   1.838   1.356   0.559  0.3929  0.2299  0.0323
32076SOL    HW198545   1.858   1.283   0.501  0.1611 -0.3852  0.7049
32076SOL    HW298546   1.774   1.320   0.621 -0.4680  1.2825 -0.2227
32077SOL     OW98547   5.867   5.593   6.238 -0.0253 -0.2106 -0.2931
32077SOL    HW198548   5.896   5.592   6.147 -0.4426  2.4944 -0.5402
32077SOL    HW298549   5.784   5.545   6.237 -0.3910  0.4013 -1.5004
32078SOL     OW98550   4.576   7.185   4.239 -0.0612  0.4115 -0.4193
32078SOL    HW198551   4.559   7.101   4.283 -1.3559  0.5524 -0.6339
32078SOL    HW298552   4.665   7.175   4.204 -0.5867 -1.3011 -1.3824
32079SOL     OW98553   3.017   1.762   1.157 -0.9013 -0.0258  0.3524
32079SOL    HW198554   3.060   1.845   1.175 -0.5886 -0.0324 -0.3520
32079SOL    HW298555   2.993   1.766   1.064 -2.4395 -0.0108  0.7136
32080SOL     OW98556   8.696   5.582   8.734 -0.3888 -0.2592  0.1048
32080SOL    HW198557   8.723   5.498   8.770  2.5158  0.4654 -0.1270
32080SOL    HW298558   8.699   5.642   8.809  0.3043  0.1611 -0.2468
32081SOL     OW98559   8.602   3.700   5.450 -0.4963 -0.1995 -0.3493
32081SOL    HW198560   8.581   3.702   5.543 -0.7912 -2.3261 -0.3303
32081SOL    HW298561   8.519   3.717   5.406 -0.3523  0.8264 -0.2464
32082SOL     OW98562   3.323  10.005   7.487 -0.2480 -0.7986  0.2190
32082SOL    HW198563   3.244   9.961   7.519  1.0716 -2.2923  1.6358
32082SOL    HW298564   3.392   9.940   7.496  0.9736  0.0477 -2.1380
32083SOL     OW98565   7.192   8.615  10.135  0.3073 -0.1455 -0.7431
32083SOL    HW198566   7.184   8.594  10.042  1.0747 -1.1747 -0.5902
32083SOL    HW298567   7.263   8.679  10.139  1.0546 -0.9503 -0.7705
32084SOL     OW98568  10.000   5.447   4.294 -0.5256 -0.1798 -0.3429
32084SOL    HW198569   9.948   5.472   4.218  0.6634 -0.6511 -1.3446
32084SOL    HW298570   9.945   5.469   4.370 -2.1776 -0.7095 -1.3460
32085SOL     OW98571   1.244   6.614   2.678  0.2925  0.0611 -0.4268
32085SOL    HW198572   1.189   6.583   2.606 -2.3398  0.6968  1.1842
32085SOL    HW298573   1.223   6.707   2.685  0.2741 -0.0435  1.2971
32086SOL     OW98574   2.955   1.206   1.756  0.0220  0.4048  0.4981
32086SOL    HW198575   2.874   1.194   1.707  0.9157 -1.8273 -0.5612
32086SOL    HW298576   2.996   1.283   1.716 -0.1126 -0.3273 -1.1198
32087SOL     OW98577   7.239   3.579   4.108 -0.7118 -0.7971  0.5476
32087SOL    HW198578   7.313   3.618   4.156  0.6390 -3.9012  1.2376
32087SOL    HW298579   7.271   3.569   4.019 -1.6478  0.9935 -0.0390
32088SOL     OW98580  10.595   0.720   7.545 -0.1266 -0.6129  0.3452
32088SOL    HW198581  10.598   0.746   7.453  1.3019  0.6743  0.7184
32088SOL    HW298582  10.521   0.767   7.581 -1.2885 -1.8661 -0.3294
32089SOL     OW98583   6.855   7.764   5.339 -0.0813  0.3593 -0.0691
32089SOL    HW198584   6.914   7.757   5.415 -1.1239 -1.7590  0.6153
32089SOL    HW298585   6.822   7.675   5.326  0.0239  0.6501 -3.0330
32090SOL     OW98586   8.921   3.067   4.152  0.2213  0.1500  0.1864
32090SOL    HW198587   8.921   3.066   4.248  0.7117 -0.2577  0.1855
32090SOL    HW298588   8.895   3.157   4.130 -0.7819  0.0014  0.6865
32091SOL     OW98589   0.581   9.888   5.884  0.1495 -0.3114 -0.1990
32091SOL    HW198590   0.607   9.826   5.952 -0.7704 -0.2866  0.1836
32091SOL    HW298591   0.663   9.930   5.858  0.9538 -2.3069 -1.1110
32092SOL     OW98592   2.369  10.207   7.004 -0.0609 -0.5743 -0.2419
32092SOL    HW198593   2.393  10.222   6.913  0.6977 -0.0460  0.0352
32092SOL    HW298594   2.440  10.246   7.055 -0.9253 -0.0487  0.5976
32093SOL     OW98595   4.178   6.822   5.976  0.3380  0.4837 -0.4197
32093SOL    HW198596   4.216   6.792   5.894  0.5186 -1.0524  0.2017
32093SOL    HW298597   4.137   6.744   6.013  1.4663  0.8097  1.6236
32094SOL     OW98598   9.681   2.687  10.563  0.1060  0.1209 -0.4984
32094SOL    HW198599   9.694   2.660  10.654  1.3532  0.9482 -0.4145
32094SOL    HW298600   9.592   2.725  10.562 -0.2215 -0.6083  0.1823
32095SOL     OW98601   9.891   7.678   8.008  1.0650 -0.2867  0.7961
32095SOL    HW198602   9.895   7.729   8.089 -0.1463 -0.7750  1.1842
32095SOL    HW298603   9.850   7.595   8.033 -1.7446  0.4877 -0.6974
32096SOL     OW98604   1.613   1.197  10.178 -0.2404 -0.2455 -0.7844
32096SOL    HW198605   1.544   1.237  10.126 -0.8266 -0.1757  0.0279
32096SOL    HW298606   1.671   1.156  10.114 -0.8599 -0.0299 -1.4949
32097SOL     OW98607   5.873  10.099   1.266 -0.2292  0.1253 -0.0201
32097SOL    HW198608   5.808  10.165   1.289 -0.1002  0.0745  0.5127
32097SOL    HW298609   5.952  10.149   1.245 -0.6171  0.2225 -1.3204
32098SOL     OW98610  10.402   3.064   2.249  0.2901 -0.4736  0.0821
32098SOL    HW198611  10.423   3.117   2.172 -0.9819 -0.9405 -0.6216
32098SOL    HW298612  10.326   3.108   2.288 -0.7319 -1.6952 -0.4719
32099SOL     OW98613   4.514   2.150   4.689  0.1620 -0.3958  0.1836
32099SOL    HW198614   4.574   2.224   4.683 -0.7736  0.2948 -1.6641
32099SOL    HW298615   4.467   2.162   4.772  2.4938 -0.9635  1.6638
32100SOL     OW98616   2.280   9.407  10.536 -0.2508 -0.2227  0.3374
32100SOL    HW198617   2.360   9.410  10.484  0.3839  0.1807  1.3019
32100SOL    HW298618   2.242   9.321  10.518  0.6032 -0.5739  0.1703
32101SOL     OW98619   2.162   0.647   8.127 -0.4178 -0.5575  0.2424
32101SOL    HW198620   2.196   0.699   8.200  0.4489 -2.9943  1.6966
32101SOL    HW298621   2.075   0.683   8.111 -0.1468  0.8427  1.6302
32102SOL     OW98622   1.150   2.240   2.904 -0.2505 -0.5182 -0.8470
32102SOL    HW198623   1.073   2.269   2.855 -0.6869 -0.9828 -0.4378
32102SOL    HW298624   1.122   2.241   2.995  1.1784  2.4406 -0.3017
32103SOL     OW98625   6.562  10.479   7.433 -0.0054  0.5527  0.1199
32103SOL    HW198626   6.563  10.529   7.351 -0.4872 -0.3917 -0.4843
32103SOL    HW298627   6.469  10.457   7.445  0.3471 -1.3091 -0.3407
32104SOL     OW98628   9.721   5.685   0.992 -0.3911 -0.8413  0.1021
32104SOL    HW198629   9.698   5.675   1.084  1.0363  0.6415  0.6641
32104SOL    HW298630   9.636   5.690   0.947 -1.1362 -3.5231  1.0237
32105SOL     OW98631   1.743   0.338   2.839 -0.2162  0.0288 -0.2621
32105SOL    HW198632   1.737   0.357   2.745  0.0203 -0.0687 -0.2973
32105SOL    HW298633   1.768   0.422   2.878 -1.6397  0.4173 -0.1225
32106SOL     OW98634   7.724   2.214   5.450  0.1104  0.2627 -0.5842
32106SOL    HW198635   7.669   2.221   5.528  0.7722  1.5646 -0.2047
32106SOL    HW298636   7.701   2.129   5.412  1.1251 -1.3588  2.0830
32107SOL     OW98637   1.470   8.670   2.449  0.2135 -0.1286 -0.1072
32107SOL    HW198638   1.461   8.737   2.516 -2.7693  0.2061 -0.7133
32107SOL    HW298639   1.564   8.670   2.428  0.7050  2.0722  1.6657
32108SOL     OW98640   8.457   9.759   1.857  0.2646  0.4616 -0.1785
32108SOL    HW198641   8.375   9.784   1.816 -0.5767 -1.2779  0.3586
32108SOL    HW298642   8.523   9.770   1.788 -0.3806  1.8788 -0.6105
32109SOL     OW98643   9.917   1.480   5.121 -0.0315  0.2613 -0.0258
32109SOL    HW198644   9.834   1.461   5.079  0.0179  0.3697 -0.1721
32109SOL    HW298645   9.893   1.527   5.201 -0.0772  1.0008 -0.4630
32110SOL     OW98646   2.325   2.835   6.899 -0.5614 -0.2314 -1.0556
32110SOL    HW198647   2.280   2.882   6.829  0.1799  1.1168 -0.6695
32110SOL    HW298648   2.331   2.898   6.970 -0.7589 -1.3824  0.0145
32111SOL     OW98649   2.794   7.312   7.673  0.2022 -0.3429  0.0362
32111SOL    HW198650   2.827   7.388   7.627  0.4295  0.5597  1.6125
32111SOL    HW298651   2.762   7.346   7.757 -1.1401 -1.7505  0.1599
32112SOL     OW98652   5.379   9.104   7.418  0.2765 -0.0885 -0.7160
32112SOL    HW198653   5.408   9.195   7.416  2.1953 -0.6494 -0.3972
32112SOL    HW298654   5.445   9.057   7.367 -0.4590 -1.3654 -0.5377
32113SOL     OW98655   9.746   8.451   8.568  0.0467 -0.2144 -0.1087
32113SOL    HW198656   9.820   8.502   8.601  0.1911 -0.4850 -0.0148
32113SOL    HW298657   9.681   8.517   8.541  0.4372  0.0292 -0.4691
32114SOL     OW98658   5.571   2.620  10.041  0.6601  0.1048  0.1399
32114SOL    HW198659   5.658   2.659  10.050  0.1044  1.1312  1.4218
32114SOL    HW298660   5.531   2.669   9.969  0.3537  1.2154  1.0399
32115SOL     OW98661   4.575   1.422   7.319  0.9795  0.3203 -0.2872
32115SOL    HW198662   4.572   1.453   7.229  1.4404 -0.4173 -0.5712
32115SOL    HW298663   4.668   1.426   7.342  0.8943  0.2728  0.0728
32116SOL     OW98664   7.528   6.461   5.561 -0.2631  0.3467  0.0067
32116SOL    HW198665   7.531   6.368   5.582  1.2131  0.1806 -0.8385
32116SOL    HW298666   7.607   6.477   5.510 -1.3876  1.6927 -1.4151
32117SOL     OW98667   4.969   5.358   6.796  0.0103  0.0324 -0.4071
32117SOL    HW198668   4.952   5.269   6.768 -1.7819  0.5940 -1.2845
32117SOL    HW298669   4.912   5.371   6.871 -1.5585  1.1241 -1.7185
32118SOL     OW98670   7.519   8.357   1.743 -0.0359  0.0495 -0.2556
32118SOL    HW198671   7.447   8.389   1.798 -0.2509 -1.9827  0.7233
32118SOL    HW298672   7.593   8.350   1.803  0.4361  0.1900 -0.8140
32119SOL     OW98673   0.211   0.109   6.431 -0.2752  0.1608 -0.0906
32119SOL    HW198674   0.123   0.112   6.469 -1.1621  0.1671 -2.0180
32119SOL    HW298675   0.250   0.030   6.467 -1.7885 -0.8670 -0.5961
32120SOL     OW98676   8.321   4.835   5.031  0.2116  0.2596 -0.2285
32120SOL    HW198677   8.285   4.905   4.976 -1.3851 -0.0833  0.3242
32120SOL    HW298678   8.293   4.859   5.120  0.0901 -0.8213  0.0290
32121SOL     OW98679   0.859   2.386  10.480  0.2290 -0.0620  0.3435
32121SOL    HW198680   0.953   2.391  10.499 -0.1449  1.4369  2.0097
32121SOL    HW298681   0.817   2.428  10.554 -1.7970 -0.7258 -0.3561
32122SOL     OW98682   1.622   5.658  10.085  0.5797  0.4155 -0.0857
32122SOL    HW198683   1.627   5.751  10.065 -0.9481  0.5293 -0.0640
32122SOL    HW298684   1.534   5.646  10.122 -0.7020 -1.5850 -3.3096
32123SOL     OW98685   5.068   7.400   0.806 -0.0670  0.4062  0.3431
32123SOL    HW198686   5.057   7.388   0.712  2.3736  0.3298 -0.0028
32123SOL    HW298687   5.077   7.494   0.817  1.1071  0.3085  0.2855
32124SOL     OW98688   9.912   3.142   2.717 -0.4372  0.0416 -0.8910
32124SOL    HW198689   9.891   3.099   2.633  1.4989  0.5571 -1.6903
32124SOL    HW298690   9.935   3.070   2.775 -2.9954 -0.4395 -0.3408
32125SOL     OW98691   1.807   2.334   8.768 -0.4033 -0.8384  0.5461
32125SOL    HW198692   1.754   2.289   8.702  0.6408  0.3206 -1.1531
32125SOL    HW298693   1.749   2.402   8.802 -1.3334 -2.1593  1.7195
32126SOL     OW98694  10.322   3.881   9.832  0.0648 -0.2123 -0.4024
32126SOL    HW198695  10.382   3.871   9.906 -2.1661  0.4351  1.6267
32126SOL    HW298696  10.350   3.961   9.788  0.4047  0.3382  0.7958
32127SOL     OW98697   8.034   8.312   3.848 -0.3426  0.0988 -0.5297
32127SOL    HW198698   8.017   8.402   3.819 -1.0377  0.9945  2.3689
32127SOL    HW298699   7.960   8.290   3.905  2.5946  0.1164  3.8093
32128SOL     OW98700   2.860   0.002   2.561 -0.4891  0.6124  0.6651
32128SOL    HW198701   2.805  -0.030   2.633 -1.5814  1.0639  0.0466
32128SOL    HW298702   2.819   0.084   2.534  0.0148  0.5406 -0.3562
32129SOL     OW98703   5.349   7.169   0.820 -0.1238  0.3204  0.4086
32129SOL    HW198704   5.393   7.101   0.871 -0.7958  0.4284  1.1547
32129SOL    HW298705   5.257   7.161   0.844 -0.7490 -0.6999 -2.0278
32130SOL     OW98706   2.913   3.822   5.235 -0.1248 -0.1723 -0.3841
32130SOL    HW198707   2.987   3.883   5.228  0.2671 -0.3135  1.8613
32130SOL    HW298708   2.837   3.877   5.250 -0.0735 -0.1589 -0.1809
32131SOL     OW98709   9.151   2.161   8.256  0.1260  0.0885 -0.2813
32131SOL    HW198710   9.062   2.139   8.281  0.7053 -1.5501  0.4572
32131SOL    HW298711   9.189   2.200   8.335  0.4620 -0.4800 -0.1584
32132SOL     OW98712   9.902   6.741   3.203  0.2371 -0.2188 -0.5521
32132SOL    HW198713   9.835   6.674   3.216 -0.1856  0.3475  0.3204
32132SOL    HW298714   9.859   6.823   3.228  1.2517  0.1535  0.0474
32133SOL     OW98715   9.826  10.273   4.900 -0.2779 -0.1455  0.1388
32133SOL    HW198716   9.794  10.328   4.828 -1.1841 -0.1579  0.5215
32133SOL    HW298717   9.783  10.189   4.887 -1.0551  0.0760  1.1034
32134SOL     OW98718   9.997   7.559   1.684  0.1501  0.1529 -0.1784
32134SOL    HW198719   9.993   7.640   1.735 -0.2121 -0.0212  0.0762
32134SOL    HW298720   9.919   7.563   1.628  0.4618  0.2692 -0.6046
32135SOL     OW98721   8.825   6.891   4.438 -0.1674  0.3900 -0.6686
32135SOL    HW198722   8.818   6.955   4.509  0.0788  1.2855 -1.4290
32135SOL    HW298723   8.752   6.910   4.380  0.6490  0.8621 -1.5776
32136SOL     OW98724   9.048   1.355   0.167 -0.0927  0.2477 -0.1423
32136SOL    HW198725   9.132   1.349   0.212  0.7327  1.5848 -1.3980
32136SOL    HW298726   9.069   1.341   0.074 -1.4041 -0.3202 -0.3848
32137SOL     OW98727   0.138   8.044   6.525  0.2191  0.1009  0.6452
32137SOL    HW198728   0.118   8.101   6.451 -0.6741 -1.8862 -0.7155
32137SOL    HW298729   0.064   8.054   6.585 -0.7163 -0.7859 -0.3353
32138SOL     OW98730   3.475  10.081   7.235 -0.1458  0.0633 -0.7158
32138SOL    HW198731   3.407  10.082   7.168 -2.6461  2.4275  1.6666
32138SOL    HW298732   3.436  10.035   7.309  0.1013  2.9129  1.3167
32139SOL     OW98733   0.349   6.532   2.440  0.4013 -0.3430  0.0954
32139SOL    HW198734   0.363   6.519   2.534 -1.2939 -3.9289  0.0424
32139SOL    HW298735   0.433   6.509   2.400  0.1470 -2.4011  0.6333
32140SOL     OW98736   4.391   8.439   4.026 -0.0689  0.5506  0.0077
32140SOL    HW198737   4.320   8.423   4.088  0.5472 -1.0268  0.3584
32140SOL    HW298738   4.347   8.458   3.943 -0.8981  0.8145  0.5001
32141SOL     OW98739   9.970   1.475   8.864  0.0819  0.3661 -0.5363
32141SOL    HW198740   9.963   1.456   8.958 -2.3330 -1.0754 -0.9216
32141SOL    HW298741  10.006   1.563   8.860  1.3680  0.0172  1.7064
32142SOL     OW98742   6.958   1.899   9.651  0.0817 -0.0209 -0.1979
32142SOL    HW198743   6.923   1.980   9.613  0.1874 -0.6290 -1.6489
32142SOL    HW298744   7.014   1.863   9.582  1.0971 -0.6594  0.9240
32143SOL     OW98745   1.977   0.662  10.132 -0.9741 -0.2443 -0.3066
32143SOL    HW198746   1.939   0.705  10.056  0.1209 -1.2068 -1.4412
32143SOL    HW298747   2.071   0.680  10.125 -1.1225  3.0289  2.9976
32144SOL     OW98748   5.810   8.927   8.991 -0.3014 -0.3943 -0.1701
32144SOL    HW198749   5.738   8.961   8.938  0.9341 -0.9327 -2.3011
32144SOL    HW298750   5.888   8.966   8.953  0.6508 -0.6709  1.4033
32145SOL     OW98751   0.751   1.349   4.133  0.1606  0.2656  0.0561
32145SOL    HW198752   0.686   1.319   4.069  0.4456 -1.5416  0.5611
32145SOL    HW298753   0.728   1.303   4.214  1.6453  0.1129  0.4203
32146SOL     OW98754   7.662   8.347  10.150  0.4010 -0.5775  0.2870
32146SOL    HW198755   7.581   8.326  10.196  0.0456 -0.6771 -0.3778
32146SOL    HW298756   7.730   8.303  10.201  0.0846 -0.1897  1.0560
32147SOL     OW98757   1.378   3.558   1.435  0.6904 -0.4788  0.3656
32147SOL    HW198758   1.283   3.548   1.432  0.7546 -0.7972 -1.3138
32147SOL    HW298759   1.398   3.624   1.369  1.6346 -0.3301  0.7826
32148SOL     OW98760   9.719   9.396  10.150 -0.7734 -0.8127 -0.1953
32148SOL    HW198761   9.677   9.314  10.124  1.0421 -2.0244  0.4779
32148SOL    HW298762   9.738   9.384  10.243 -0.3295  0.3122 -0.1349
32149SOL     OW98763   8.405   8.292   5.930 -0.0176 -0.1082 -0.8297
32149SOL    HW198764   8.468   8.288   6.002 -0.5414  0.5953 -0.3054
32149SOL    HW298765   8.343   8.360   5.958 -1.2517 -1.0826 -1.1142
32150SOL     OW98766   5.993   6.798   2.065 -0.4173 -0.6036 -0.4392
32150SOL    HW198767   5.959   6.784   1.976 -1.8184  0.4123 -0.1040
32150SOL    HW298768   6.015   6.710   2.096 -3.4609 -1.4888 -0.4494
32151SOL     OW98769   8.758  10.124   0.986  0.2671  0.3801 -0.1331
32151SOL    HW198770   8.708  10.174   1.051  1.1074  1.9887 -0.6708
32151SOL    HW298771   8.822  10.075   1.038 -0.4067  0.0324  0.3851
32152SOL     OW98772   6.016   8.541   3.763 -0.5044  0.2495 -0.2770
32152SOL    HW198773   5.987   8.472   3.822  0.5595  0.8840  1.0511
32152SOL    HW298774   5.956   8.614   3.779  0.1213  0.6158  0.4635
32153SOL     OW98775   2.415   0.400   2.815  0.0901 -0.5931 -0.0914
32153SOL    HW198776   2.435   0.307   2.810 -0.3279 -0.6351 -2.0202
32153SOL    HW298777   2.344   0.406   2.878 -1.0656 -1.8411 -1.2041
32154SOL     OW98778   3.631   4.419   8.239 -0.3608 -0.1690 -0.5946
32154SOL    HW198779   3.559   4.370   8.199 -0.8353  0.8061 -0.9653
32154SOL    HW298780   3.636   4.500   8.188 -0.1071  0.5138  0.4802
32155SOL     OW98781   4.572   6.899   6.291 -0.0258 -0.2834  0.0432
32155SOL    HW198782   4.580   6.850   6.209  1.2034 -0.4023  0.2178
32155SOL    HW298783   4.655   6.884   6.336 -0.6148 -0.0674  1.2342
32156SOL     OW98784  10.207   2.392   1.989 -0.0337 -0.3873  0.3846
32156SOL    HW198785  10.296   2.360   1.998  0.7022  1.6242  0.6280
32156SOL    HW298786  10.179   2.412   2.078  0.3056  1.5581  0.0928
32157SOL     OW98787   2.070   8.340   4.815 -0.1635  0.0598  0.7229
32157SOL    HW198788   2.146   8.285   4.838  0.5639  0.8157  0.1913
32157SOL    HW298789   2.001   8.311   4.874  0.1699 -1.4875  0.4062
32158SOL     OW98790   9.635  10.237   5.116  0.1977 -0.2821 -0.4648
32158SOL    HW198791   9.691  10.266   5.043  1.0209 -0.9962 -0.1284
32158SOL    HW298792   9.588  10.161   5.081  2.2694 -2.0765  0.3863
32159SOL     OW98793   5.439   3.634   5.052  0.2088 -0.2457  0.1881
32159SOL    HW198794   5.343   3.627   5.053  0.1722  0.1665 -0.0433
32159SOL    HW298795   5.458   3.688   4.975  0.6649 -0.8225 -0.1059
32160SOL     OW98796   5.706   1.806   2.421  0.2434 -0.2810 -0.4116
32160SOL    HW198797   5.643   1.876   2.440  0.1294  0.5259 -3.2767
32160SOL    HW298798   5.696   1.744   2.493 -3.0105  0.3806 -0.1592
32161SOL     OW98799   3.439  10.413   2.220  0.5830 -0.2266  0.4166
32161SOL    HW198800   3.511  10.374   2.269  0.6357 -1.4163 -0.5445
32161SOL    HW298801   3.405  10.341   2.167  0.9836  1.1132 -1.7969
32162SOL     OW98802   8.793   2.961   2.399  0.4928 -0.2729 -0.1832
32162SOL    HW198803   8.729   3.003   2.456  1.4321  1.3809 -0.2887
32162SOL    HW298804   8.855   2.920   2.459 -0.7467 -2.1445 -0.0779
32163SOL     OW98805   4.407   2.313   8.048  0.0006  0.1123 -0.4920
32163SOL    HW198806   4.502   2.314   8.037 -0.1007 -0.2646 -1.5984
32163SOL    HW298807   4.393   2.321   8.142  1.0914  1.7077 -0.4353
32164SOL     OW98808   4.017   7.645   2.105 -0.1859 -0.3513 -0.4299
32164SOL    HW198809   3.938   7.591   2.096 -1.3022  1.1756 -0.2941
32164SOL    HW298810   4.057   7.615   2.186  0.4502 -2.4353 -1.4446
32165SOL     OW98811   5.911   1.174   0.045  0.4993 -0.6111  0.0363
32165SOL    HW198812   5.848   1.184  -0.027 -0.5544 -0.7197  0.9245
32165SOL    HW298813   5.935   1.081   0.042 -1.0770 -1.0921  1.0390
32166SOL     OW98814   5.980   0.250   4.834  0.0065  0.5129  0.2236
32166SOL    HW198815   5.923   0.212   4.902 -0.5381 -1.9262 -1.4812
32166SOL    HW298816   5.930   0.324   4.801 -1.8820 -1.0261 -0.6001
32167SOL     OW98817   6.514   1.960   7.792  0.0167 -0.7467  0.4177
32167SOL    HW198818   6.482   1.952   7.882 -0.7692  1.9683  0.4467
32167SOL    HW298819   6.500   2.052   7.769  2.3399 -0.8279 -1.6968
32168SOL     OW98820   0.923   4.189   8.798 -0.2929  0.6345  0.0373
32168SOL    HW198821   0.859   4.211   8.866  1.3470  1.7426  1.3103
32168SOL    HW298822   0.957   4.273   8.769  0.7560  0.0780 -0.4111
32169SOL     OW98823   3.926   8.627   0.496  0.4999  0.2040 -0.1345
32169SOL    HW198824   3.927   8.713   0.538  0.6550 -0.2690  0.8471
32169SOL    HW298825   3.838   8.620   0.459  0.6259  0.9552 -0.5943
32170SOL     OW98826   2.915   5.644   1.666 -0.0934 -0.0549 -0.7047
32170SOL    HW198827   2.853   5.586   1.623 -0.6860 -0.9883  1.2923
32170SOL    HW298828   2.960   5.588   1.730 -0.6216  1.6058  1.2275
32171SOL     OW98829   5.800   9.763   9.820  0.1061 -0.3584  0.3212
32171SOL    HW198830   5.742   9.791   9.750 -0.6059 -2.1440  0.1621
32171SOL    HW298831   5.752   9.695   9.866  0.5221  0.8008  2.6287
32172SOL     OW98832   3.002   7.615   3.843 -1.1502  0.0697 -0.5165
32172SOL    HW198833   3.052   7.692   3.870 -1.5355  0.7718 -1.6693
32172SOL    HW298834   2.911   7.645   3.843 -1.7076 -1.3335  2.0582
32173SOL     OW98835   7.109   8.935   4.767  0.4205 -0.6409  0.4583
32173SOL    HW198836   7.137   8.844   4.758  1.0661 -0.5197  1.1056
32173SOL    HW298837   7.185   8.980   4.804 -0.0593  0.0587  0.6233
32174SOL     OW98838   2.223   7.592   6.679  0.3990  0.2395  0.1187
32174SOL    HW198839   2.285   7.534   6.635  0.8649 -0.4847  1.6516
32174SOL    HW298840   2.152   7.604   6.616  0.9749 -0.8401 -0.7674
32175SOL     OW98841   3.710   6.046   0.425 -0.1561 -0.2274 -0.2453
32175SOL    HW198842   3.793   6.061   0.380  0.1991  0.3794  0.5924
32175SOL    HW298843   3.719   5.958   0.462 -0.9880 -1.3261 -2.4546
32176SOL     OW98844   6.896   4.339   8.751  0.3607 -0.1790 -0.2332
32176SOL    HW198845   6.820   4.396   8.741 -0.3637 -1.2588 -1.1185
32176SOL    HW298846   6.889   4.305   8.841  0.8281  1.1253  0.3163
32177SOL     OW98847   0.094   0.269   7.877  0.2973 -0.5658  0.4111
32177SOL    HW198848   0.177   0.260   7.830  0.8910  0.4730  1.2337
32177SOL    HW298849   0.064   0.357   7.854  0.3957 -0.2001  1.6491
32178SOL     OW98850   0.775   1.182   5.219  0.4050 -0.0475  0.1138
32178SOL    HW198851   0.858   1.141   5.243  0.9386  0.4302 -0.8225
32178SOL    HW298852   0.744   1.223   5.299  1.0000 -0.3499  0.5093
32179SOL     OW98853   6.937   1.779   5.952  0.3466  0.5289  0.4526
32179SOL    HW198854   6.847   1.808   5.967 -0.1899 -0.5672 -0.4672
32179SOL    HW298855   6.939   1.752   5.860  0.6499 -2.5980  1.2622
32180SOL     OW98856   0.300   2.335   9.553  0.2359  0.0397  0.4098
32180SOL    HW198857   0.292   2.266   9.488 -1.7196  1.7224 -1.2938
32180SOL    HW298858   0.369   2.392   9.520 -0.3631  0.5906  0.0877
32181SOL     OW98859  10.058   6.220   5.193 -0.2449  0.2191 -0.1705
32181SOL    HW198860   9.991   6.286   5.177 -1.5331 -1.2411 -1.0480
32181SOL    HW298861  10.064   6.172   5.111  1.0296 -0.4639  0.2942
32182SOL     OW98862   3.963   2.483   2.365 -0.1194  0.3492 -0.0447
32182SOL    HW198863   3.991   2.573   2.377 -0.8621  0.2717  2.8647
32182SOL    HW298864   3.938   2.453   2.452 -2.7692 -1.7147 -1.3480
32183SOL     OW98865   3.084   2.042   0.483  0.0080  0.0591 -0.3061
32183SOL    HW198866   3.051   2.117   0.532 -0.7054  0.8678 -1.9224
32183SOL    HW298867   3.069   2.066   0.391  0.1379 -1.8881 -0.8760
32184SOL     OW98868   8.868   3.574   9.299  1.1329  0.5946 -0.2333
32184SOL    HW198869   8.886   3.482   9.320  1.1291  0.7160  0.3193
32184SOL    HW298870   8.834   3.572   9.210 -0.0807 -0.1008  0.2074
32185SOL     OW98871   5.942   9.798   0.745  0.2503  0.3807  0.3233
32185SOL    HW198872   5.949   9.847   0.827 -0.6540  1.1159 -0.0182
32185SOL    HW298873   5.872   9.842   0.696  0.8332  0.0223 -0.8885
32186SOL     OW98874   3.696   1.417   4.966  0.0842  0.1741 -0.3430
32186SOL    HW198875   3.603   1.434   4.979  0.2885  0.4582  0.8959
32186SOL    HW298876   3.729   1.397   5.054  1.3896  1.0551 -0.6010
32187SOL     OW98877   8.627   7.580   4.294  0.0890  0.3130  0.3864
32187SOL    HW198878   8.609   7.650   4.231  0.2081  0.2042  0.2315
32187SOL    HW298879   8.547   7.528   4.296  0.6047 -0.5447 -0.7786
32188SOL     OW98880   9.220   5.471  10.431  0.8487  0.1280  0.2036
32188SOL    HW198881   9.155   5.535  10.400 -0.3566 -0.8732  0.5455
32188SOL    HW298882   9.300   5.493  10.383  0.4309  1.7680  0.1877
32189SOL     OW98883   4.199   8.270   5.451 -0.0349  0.7773 -0.4311
32189SOL    HW198884   4.120   8.271   5.398  0.9105 -0.9816 -2.0136
32189SOL    HW298885   4.238   8.357   5.440 -1.3061  1.3807 -0.2690
32190SOL     OW98886   7.020  10.350   6.617 -0.4430 -0.1296 -0.4324
32190SOL    HW198887   6.967  10.380   6.543  0.4051 -0.6794 -1.2963
32190SOL    HW298888   7.020  10.423   6.678 -0.8351  0.4990 -1.1645
32191SOL     OW98889   5.058   2.882   1.224 -0.8480  0.2977  0.3454
32191SOL    HW198890   5.042   2.973   1.250  4.1426  1.5529  0.0426
32191SOL    HW298891   5.139   2.859   1.268 -0.0420 -2.7641 -2.3775
32192SOL     OW98892   9.537   7.517   7.707 -0.3199 -0.0273 -0.0193
32192SOL    HW198893   9.556   7.570   7.629  2.0453 -0.0468  0.4929
32192SOL    HW298894   9.480   7.447   7.674  0.1511  0.2996 -1.6159
32193SOL     OW98895   2.222   1.207   3.025 -0.3639 -0.5476  0.2801
32193SOL    HW198896   2.284   1.148   3.069 -1.4403 -0.9640  1.2856
32193SOL    HW298897   2.230   1.290   3.072  1.0098  0.0942 -1.0123
32194SOL     OW98898   6.254   5.410   4.571 -0.0036 -0.1197 -0.8560
32194SOL    HW198899   6.282   5.338   4.514 -0.2769  0.1929 -1.3978
32194SOL    HW298900   6.162   5.424   4.549  0.2021  0.7845 -1.1873
32195SOL     OW98901   0.165   1.153   8.404 -0.2915 -0.3286  0.6667
32195SOL    HW198902   0.095   1.218   8.391  0.2386 -0.0416 -1.0563
32195SOL    HW298903   0.210   1.181   8.483  0.7820  2.2881 -0.7543
32196SOL     OW98904   0.764   0.981   4.203  0.2839  0.3698  0.1537
32196SOL    HW198905   0.706   0.991   4.279  0.5469 -1.4871  0.6506
32196SOL    HW298906   0.814   1.062   4.201 -1.5130  1.5622  0.3793
32197SOL     OW98907   4.101   9.257   7.716  0.4032  0.3284  0.1492
32197SOL    HW198908   4.117   9.301   7.800 -1.9321 -1.3568  1.5669
32197SOL    HW298909   4.114   9.164   7.734  1.3997  0.0159 -1.8182
32198SOL     OW98910   9.834   1.605   5.358  0.0744  0.2450 -0.0677
32198SOL    HW198911   9.747   1.617   5.320 -0.0733 -1.3274 -0.3106
32198SOL    HW298912   9.850   1.685   5.408 -1.1018  0.9629 -0.7927
32199SOL     OW98913   4.382  10.401   6.137 -0.4762 -0.0690 -0.3010
32199SOL    HW198914   4.372  10.461   6.211  1.0609 -0.0433 -0.0977
32199SOL    HW298915   4.371  10.457   6.059 -0.2180  0.2581 -0.1043
32200SOL     OW98916   2.155   8.377   7.708 -0.1060  0.7491  0.1869
32200SOL    HW198917   2.166   8.379   7.613 -0.4450 -0.1856  0.1141
32200SOL    HW298918   2.097   8.450   7.727 -0.6656  0.4777 -0.4220
32201SOL     OW98919   5.773   1.419   0.234 -0.9339  0.0977  0.3536
32201SOL    HW198920   5.765   1.333   0.276  0.3051 -1.0747 -1.6940
32201SOL    HW298921   5.825   1.471   0.296 -0.6521 -1.0069  1.0666
32202SOL     OW98922   3.737   1.794   1.083  0.3469 -0.0315 -0.1957
32202SOL    HW198923   3.741   1.708   1.041 -0.4910  0.5570 -1.5896
32202SOL    HW298924   3.643   1.812   1.091  0.4780  1.2405 -1.0741
32203SOL     OW98925   8.430   0.012   6.761 -0.3758  0.1981  0.1979
32203SOL    HW198926   8.389   0.099   6.755  1.8121  1.2535 -0.6611
32203SOL    HW298927   8.471   0.000   6.675  1.1524 -0.7452  1.0288
32204SOL     OW98928   2.150   6.587   0.062  0.1775 -0.5060 -0.0271
32204SOL    HW198929   2.163   6.500   0.024 -1.2011 -0.6021 -0.3230
32204SOL    HW298930   2.057   6.591   0.081  0.4080  0.5168  0.9898
32205SOL     OW98931   7.618   0.449   3.105 -0.3119  0.6703 -0.1095
32205SOL    HW198932   7.604   0.391   3.030  0.8360  1.1001 -0.6817
32205SOL    HW298933   7.701   0.419   3.143 -1.1194  0.1327  1.3178
32206SOL     OW98934   9.426   6.590   5.774 -0.1216 -0.2902  0.3531
32206SOL    HW198935   9.515   6.570   5.747 -0.8201 -1.6706 -1.0603
32206SOL    HW298936   9.393   6.650   5.707 -0.5347 -0.4266  0.4286
32207SOL     OW98937   6.461   2.223   4.447  0.3479 -0.4188  0.7573
32207SOL    HW198938   6.392   2.288   4.461 -0.6865 -0.4070 -3.1833
32207SOL    HW298939   6.532   2.251   4.504 -1.1863  2.3643  1.5103
32208SOL     OW98940   7.562   5.220  10.301 -0.4978  0.0767 -0.3872
32208SOL    HW198941   7.641   5.273  10.291  0.1135 -0.8106 -0.3645
32208SOL    HW298942   7.499   5.279  10.343  0.6380  0.3421  1.0218
32209SOL     OW98943   8.932   1.562   2.769 -0.7369 -0.2019  0.5568
32209SOL    HW198944   8.876   1.511   2.711 -0.7194  1.1253 -0.7042
32209SOL    HW298945   8.910   1.653   2.748 -0.2306  0.3222  2.1752
32210SOL     OW98946   8.533   2.816   1.596 -0.6427  0.2826  0.0532
32210SOL    HW198947   8.540   2.721   1.588  2.9699  0.3921  0.6294
32210SOL    HW298948   8.449   2.836   1.554 -2.0234 -3.1891  0.7536
32211SOL     OW98949   8.250   9.493   1.047 -0.3789 -0.4433 -0.2510
32211SOL    HW198950   8.172   9.518   1.097 -0.1959  0.7898 -0.5472
32211SOL    HW298951   8.269   9.404   1.076 -0.6810 -0.0231  1.3634
32212SOL     OW98952   8.192   0.267   5.645  0.1228 -0.4772  0.1415
32212SOL    HW198953   8.210   0.174   5.655  2.8023  0.1458  2.3089
32212SOL    HW298954   8.230   0.290   5.560  0.6398 -1.1236  0.1906
32213SOL     OW98955   6.595   3.658  10.268 -0.5917  0.3759 -0.2766
32213SOL    HW198956   6.518   3.658  10.212  0.4118  0.4829 -1.7163
32213SOL    HW298957   6.607   3.566  10.292 -1.6445  0.4651  0.6970
32214SOL     OW98958   2.823   7.736   9.306  0.1024 -0.0716 -0.3195
32214SOL    HW198959   2.907   7.693   9.323 -0.4270 -0.5796  1.1711
32214SOL    HW298960   2.833   7.824   9.343 -0.5528 -0.6852  1.3949
32215SOL     OW98961   3.976   7.768   3.429  0.0617  0.1132  0.1654
32215SOL    HW198962   3.889   7.797   3.401 -0.7078 -3.1099 -1.1431
32215SOL    HW298963   4.032   7.784   3.353  0.2924  0.7226  0.4540
32216SOL     OW98964   6.647   7.360   7.801  0.3653  0.1950  0.3247
32216SOL    HW198965   6.690   7.425   7.745 -0.3253  0.5228  0.1741
32216SOL    HW298966   6.590   7.411   7.859  0.2829 -0.2279  0.6220
32217SOL     OW98967   7.027   5.425   9.072  0.4146 -0.1993  0.5632
32217SOL    HW198968   6.970   5.490   9.113  0.0676 -0.8845  1.1895
32217SOL    HW298969   7.109   5.430   9.121  0.6555  0.3053  0.1095
32218SOL     OW98970   9.602  10.292   4.288  0.0905 -0.1212 -0.3105
32218SOL    HW198971   9.516  10.251   4.296  0.2391 -0.3536  0.0824
32218SOL    HW298972   9.664  10.222   4.304  0.4160 -0.5031 -2.9107
32219SOL     OW98973   2.528   0.410   3.215  0.0369 -0.0110 -0.3227
32219SOL    HW198974   2.621   0.419   3.193 -0.2050  1.0172 -1.0202
32219SOL    HW298975   2.514   0.315   3.222  1.3348 -0.1456  0.7500
32220SOL     OW98976   4.756  10.024   7.342 -0.0609 -0.3026  0.6895
32220SOL    HW198977   4.685   9.983   7.391 -1.0668  0.3264 -0.2121
32220SOL    HW298978   4.737  10.118   7.345  0.7731 -0.1144  0.4979
32221SOL     OW98979   2.616   7.523   8.416  0.1656  0.2501 -0.1260
32221SOL    HW198980   2.578   7.447   8.462 -1.4508  1.5243  0.7527
32221SOL    HW298981   2.553   7.593   8.430  2.9509  2.6538  1.6958
32222SOL     OW98982   3.824   3.002   9.544 -0.6930  0.5143  0.6893
32222SOL    HW198983   3.891   2.937   9.566 -2.1951 -1.1501  0.5486
32222SOL    HW298984   3.826   3.064   9.616  0.8038  0.3357  0.8221
32223SOL     OW98985   2.821   6.309   0.338  0.4173  0.2622 -0.3496
32223SOL    HW198986   2.840   6.399   0.312  2.1064 -0.1873 -0.7637
32223SOL    HW298987   2.847   6.305   0.430 -0.6885  0.4652 -0.0123
32224SOL     OW98988   4.337   0.196   4.403 -0.0373  0.4582  0.7464
32224SOL    HW198989   4.409   0.168   4.459  1.6450 -0.5618 -1.7243
32224SOL    HW298990   4.353   0.288   4.386  0.9140  0.1621 -0.0391
32225SOL     OW98991   9.628   7.158   8.953 -0.0556  0.1668 -0.0806
32225SOL    HW198992   9.677   7.214   8.894  0.4911  0.6948  0.8504
32225SOL    HW298993   9.690   7.135   9.022 -0.8289  0.0598  0.6070
32226SOL     OW98994   1.032   6.513   3.703  0.2733  0.3538 -0.0765
32226SOL    HW198995   0.969   6.585   3.712 -1.3561 -1.1900  2.0240
32226SOL    HW298996   1.087   6.538   3.629 -1.9338  2.4593 -1.1448
32227SOL     OW98997   6.497   3.456   1.204  0.7098 -0.1072  0.0028
32227SOL    HW198998   6.463   3.546   1.208 -0.1402 -0.4168 -0.0912
32227SOL    HW298999   6.477   3.419   1.289 -1.4244 -1.0612 -0.8547
32228SOL     OW99000   7.634   1.639  10.337 -0.0512  0.1840 -0.4666
32228SOL    HW199001   7.682   1.627  10.255 -0.0954 -1.2498 -0.3125
32228SOL    HW299002   7.666   1.722  10.372  2.3645 -0.7340 -0.3359
32229SOL     OW99003   6.753   4.759   9.327 -0.1363  0.0481  0.0979
32229SOL    HW199004   6.703   4.703   9.268 -0.4835  0.1897  0.2548
32229SOL    HW299005   6.747   4.716   9.412  0.4171 -0.1896  0.0231
32230SOL     OW99006   0.072   1.226   2.909  0.3078  0.3460 -0.0305
32230SOL    HW199007   0.035   1.200   2.824  1.7332  0.2912 -0.6618
32230SOL    HW299008   0.134   1.156   2.931 -0.7940 -0.1758  1.5888
32231SOL     OW99009   1.123   1.599   9.151 -0.3158 -0.0617  0.2841
32231SOL    HW199010   1.086   1.632   9.069  0.2751  0.5151  0.2409
32231SOL    HW299011   1.048   1.564   9.199 -0.4898 -1.8206 -1.1314
32232SOL     OW99012   2.121   8.078   9.844  0.1469 -0.7361 -0.0655
32232SOL    HW199013   2.144   7.990   9.872  0.5391 -0.6610 -0.1380
32232SOL    HW299014   2.160   8.086   9.757 -2.0737 -1.3993 -1.1966
32233SOL     OW99015   8.646   0.200   6.640 -0.0794  1.2871  0.3409
32233SOL    HW199016   8.731   0.241   6.628  0.5195 -0.1217 -0.5561
32233SOL    HW299017   8.593   0.266   6.685 -0.0831  4.1767 -3.4330
32234SOL     OW99018   4.792  10.060   0.446  0.4269 -0.5533  0.0810
32234SOL    HW199019   4.851  10.048   0.372 -0.2168 -0.9259 -0.3739
32234SOL    HW299020   4.779   9.972   0.482  1.4888 -0.2736  1.2431
32235SOL     OW99021   1.171   2.607   8.369  0.3610 -0.4993  0.3358
32235SOL    HW199022   1.260   2.642   8.364  0.7147 -1.5001 -1.5253
32235SOL    HW299023   1.114   2.684   8.368  1.1815  0.1398  1.1729
32236SOL     OW99024   9.239   9.580   9.193  0.4305  0.2839  0.4001
32236SOL    HW199025   9.146   9.591   9.214 -0.0500 -1.0628 -0.8629
32236SOL    HW299026   9.249   9.486   9.179  1.8609  0.4900 -0.0887
32237SOL     OW99027   7.966   0.883   6.860  0.0091 -0.0593  0.9877
32237SOL    HW199028   8.055   0.859   6.835 -0.1177 -0.0223  0.4934
32237SOL    HW299029   7.974   0.973   6.892  0.3031 -0.3787  1.8326
32238SOL     OW99030   1.211   2.516   9.194 -0.7404 -0.5456 -0.3496
32238SOL    HW199031   1.151   2.446   9.168 -1.8055 -0.9333  2.7566
32238SOL    HW299032   1.272   2.474   9.255 -0.1612  0.8239  0.0653
32239SOL     OW99033   5.339   3.007   1.457  0.6268  0.3547  0.4967
32239SOL    HW199034   5.318   2.914   1.458  1.1979  0.1951 -0.4180
32239SOL    HW299035   5.435   3.010   1.458  0.6179  0.9771  1.9042
32240SOL     OW99036   9.737   2.586   0.652 -0.1966  0.2162  0.1175
32240SOL    HW199037   9.764   2.673   0.680  0.2627  0.0630  0.1595
32240SOL    HW299038   9.691   2.550   0.728  0.2270  0.1570  0.3469
32241SOL     OW99039   1.413   4.816  10.403 -0.0278 -0.1669  0.1060
32241SOL    HW199040   1.474   4.877  10.443 -0.6088  1.2611 -1.1005
32241SOL    HW299041   1.327   4.840  10.438 -0.3061 -0.0614 -0.6181
32242SOL     OW99042   3.665   3.757   2.807 -0.1632  0.2945 -0.3866
32242SOL    HW199043   3.701   3.783   2.892  1.6414 -1.6367 -0.4960
32242SOL    HW299044   3.609   3.681   2.826  0.0152  0.0329 -0.8883
32243SOL     OW99045   4.191   1.385   1.551 -0.5015 -0.3416  0.5491
32243SOL    HW199046   4.102   1.373   1.583 -0.9843 -0.2493 -0.6808
32243SOL    HW299047   4.244   1.325   1.603 -1.2843 -0.4194  1.2711
32244SOL     OW99048   8.179   6.301   3.080  0.2844 -0.2077 -0.4508
32244SOL    HW199049   8.093   6.275   3.048 -1.7349  0.6209  3.6263
32244SOL    HW299050   8.191   6.250   3.161  2.6518  1.2287  0.2126
32245SOL     OW99051   0.533   0.851   4.719 -0.3695 -0.1639 -0.1163
32245SOL    HW199052   0.619   0.878   4.687  0.6337 -2.3268  0.5849
32245SOL    HW299053   0.510   0.918   4.784  1.3440 -0.2038  0.5659
32246SOL     OW99054   3.324   3.635   9.215  0.0260 -0.3808 -0.0990
32246SOL    HW199055   3.364   3.620   9.129  0.0939  1.3264 -0.4011
32246SOL    HW299056   3.380   3.700   9.257 -0.4408 -0.6280  0.9326
32247SOL     OW99057   9.417   2.455   6.165  0.1535 -0.1048  0.2761
32247SOL    HW199058   9.335   2.478   6.120  0.4648 -0.3734 -0.4417
32247SOL    HW299059   9.388   2.412   6.246 -0.4376 -1.3818 -0.5814
32248SOL     OW99060  10.143   2.812   6.637  0.1613 -0.0063  0.3288
32248SOL    HW199061  10.194   2.771   6.567  0.1264  0.7741 -0.1692
32248SOL    HW299062  10.069   2.853   6.592 -0.4252 -0.3673  0.9445
32249SOL     OW99063  10.576   5.008   2.523  0.0041  0.3117  0.2554
32249SOL    HW199064  10.631   4.929   2.524 -0.4301 -0.0584 -1.9643
32249SOL    HW299065  10.487   4.975   2.533 -0.2284  0.4386 -1.2414
32250SOL     OW99066   1.017   9.162   7.453 -0.5880 -0.4716  0.8545
32250SOL    HW199067   1.023   9.118   7.368 -1.1235 -0.0733  0.6099
32250SOL    HW299068   1.106   9.154   7.489 -0.6380 -1.6290  0.7612
32251SOL     OW99069   3.470   2.806   3.360  0.7578 -0.2254 -0.1574
32251SOL    HW199070   3.385   2.847   3.377  0.2029 -1.3991  0.0022
32251SOL    HW299071   3.480   2.809   3.265  1.5795  1.8990 -0.0432
32252SOL     OW99072   6.828   7.245   3.971  0.2523  0.3420 -0.2996
32252SOL    HW199073   6.847   7.152   3.963  0.7072  0.3127  0.8743
32252SOL    HW299074   6.852   7.282   3.886  2.2693 -0.2612 -0.0421
32253SOL     OW99075   9.722   5.992   6.280  0.2054 -0.3074 -0.3537
32253SOL    HW199076   9.642   6.027   6.318  0.2699 -0.1650 -0.3493
32253SOL    HW299077   9.789   6.008   6.345  0.1781 -0.7201 -0.2174
32254SOL     OW99078   2.120   5.093   5.734 -0.5590  0.6454  0.2888
32254SOL    HW199079   2.080   5.179   5.746 -2.7780 -0.3806  0.6236
32254SOL    HW299080   2.163   5.075   5.818  2.0339  2.3688 -0.5409
32255SOL     OW99081   7.239  10.582   2.148  0.3023 -0.2393  0.5257
32255SOL    HW199082   7.240  10.637   2.070 -0.1001 -2.4728 -1.1547
32255SOL    HW299083   7.168  10.617   2.202 -1.8910 -0.8039 -1.8233
32256SOL     OW99084   1.470  10.406   4.106 -0.1835 -0.1775  0.2779
32256SOL    HW199085   1.463  10.425   4.013  0.1777  2.9101  0.7633
32256SOL    HW299086   1.379  10.408   4.138 -0.2018  0.0683  0.2072
32257SOL     OW99087   3.426   4.257   3.386  0.6156  0.5824 -0.1762
32257SOL    HW199088   3.429   4.206   3.467 -0.2411  0.5698 -0.1460
32257SOL    HW299089   3.345   4.231   3.344  1.0048  0.6678 -0.9964
32258SOL     OW99090   4.272   2.859   4.463 -0.4658 -0.1415  0.2609
32258SOL    HW199091   4.209   2.862   4.391 -1.7388 -2.1034  1.1932
32258SOL    HW299092   4.356   2.842   4.420 -0.7924  0.9946 -0.8979
32259SOL     OW99093   5.504   4.138   5.014  0.4522  0.0249  0.4069
32259SOL    HW199094   5.542   4.075   5.074 -0.9150 -0.5440  0.7172
32259SOL    HW299095   5.548   4.220   5.034  1.2711 -0.5367  0.9513
32260SOL     OW99096   2.525   4.465   9.219 -0.3184 -0.2415 -0.2729
32260SOL    HW199097   2.617   4.445   9.233 -0.2700  0.0331 -0.2020
32260SOL    HW299098   2.525   4.537   9.156 -0.5001 -0.6204 -0.7210
32261SOL     OW99099   3.583   2.932   8.098  0.4525 -0.0456 -0.6110
32261SOL    HW199100   3.606   2.898   8.185 -2.4610 -0.5492  0.0781
32261SOL    HW299101   3.643   3.005   8.084  1.5550 -0.4801  1.4444
32262SOL     OW99102   1.700   8.652  10.364  0.1647  0.3675 -0.0994
32262SOL    HW199103   1.662   8.576  10.319  1.2484 -0.1180 -0.2281
32262SOL    HW299104   1.626   8.712  10.377 -0.9096 -1.0784  0.8089
32263SOL     OW99105  10.391   1.610   3.054 -0.5385 -0.5048  0.1997
32263SOL    HW199106  10.479   1.578   3.031 -0.8318 -0.6538 -0.7481
32263SOL    HW299107  10.361   1.548   3.121  0.2134 -0.2357  0.8145
32264SOL     OW99108  10.200   4.309   0.342 -1.1716  0.0048  0.0438
32264SOL    HW199109  10.175   4.280   0.430  1.5949 -0.7063  0.6721
32264SOL    HW299110  10.172   4.400   0.338 -1.2161  0.0983  1.7211
32265SOL     OW99111   7.090   4.743   6.619  0.2572  0.0365 -0.2313
32265SOL    HW199112   7.061   4.824   6.661 -2.5534 -1.2004  0.4561
32265SOL    HW299113   7.186   4.748   6.620  0.3247  1.4343  3.6934
32266SOL     OW99114   6.439   1.400   4.182  0.1627  0.5474  0.1290
32266SOL    HW199115   6.499   1.472   4.163  0.7188  0.3469  1.0539
32266SOL    HW299116   6.495   1.323   4.188 -0.2089  0.3244  0.8180
32267SOL     OW99117   6.448   1.003   0.012  0.0887  0.2695  0.2278
32267SOL    HW199118   6.362   1.010  -0.029 -0.2853 -0.2220  0.9222
32267SOL    HW299119   6.509   1.025  -0.059 -0.5496 -0.4918 -0.5943
32268SOL     OW99120   5.952   2.741   3.983 -0.8838 -0.2953  0.3164
32268SOL    HW199121   6.027   2.782   4.026  0.3362 -1.5833 -0.5086
32268SOL    HW299122   5.882   2.745   4.048 -0.6069  2.3241  0.5550
32269SOL     OW99123   6.480   0.458   4.652 -0.3499  0.2260 -0.2502
32269SOL    HW199124   6.391   0.429   4.632 -0.5797  2.0729 -2.4005
32269SOL    HW299125   6.471   0.514   4.728 -0.8433 -0.4551  0.1984
32270SOL     OW99126   4.873   6.034   1.471  0.2483  0.4173 -0.0591
32270SOL    HW199127   4.891   5.940   1.464  0.2332  0.4720 -0.8324
32270SOL    HW299128   4.778   6.041   1.462  0.4085  0.6644 -1.8518
32271SOL     OW99129   5.505   3.505   7.847 -0.2355  0.5967  0.3495
32271SOL    HW199130   5.430   3.509   7.788  1.7726 -1.0428 -2.5565
32271SOL    HW299131   5.492   3.423   7.896 -0.2598  0.2134 -0.2874
32272SOL     OW99132   7.153   5.495   6.705 -0.3772  0.1339 -0.7277
32272SOL    HW199133   7.059   5.499   6.688 -0.8189 -0.5864  1.2824
32272SOL    HW299134   7.160   5.490   6.801  1.6453 -0.9522 -0.8711
32273SOL     OW99135   1.539   0.193   8.632 -0.6638  0.2385 -0.3476
32273SOL    HW199136   1.632   0.198   8.611 -0.6390  0.3595 -0.2118
32273SOL    HW299137   1.506   0.121   8.579 -0.1989 -0.7867  0.6976
32274SOL     OW99138   7.499   8.697   1.704  0.2390 -0.5319 -0.3828
32274SOL    HW199139   7.569   8.657   1.756  0.3700 -0.1533 -0.2612
32274SOL    HW299140   7.545   8.757   1.646  0.1868 -1.6629 -1.6364
32275SOL     OW99141   4.478   4.781   4.808  0.4273 -0.0487 -0.3423
32275SOL    HW199142   4.490   4.729   4.729  1.6186  0.0661 -0.2602
32275SOL    HW299143   4.392   4.822   4.798 -0.2518 -1.4999 -0.7077
32276SOL     OW99144   8.210   8.757   0.155 -0.3626 -0.3995 -0.2609
32276SOL    HW199145   8.188   8.766   0.062 -0.5674  2.8010 -0.0372
32276SOL    HW299146   8.173   8.836   0.195  0.7272 -1.1222  2.3439
32277SOL     OW99147   6.683   2.753   5.038 -0.0248  0.9310  0.2429
32277SOL    HW199148   6.624   2.730   5.110  2.2759  0.6644  2.1377
32277SOL    HW299149   6.756   2.692   5.047  1.6525  2.7326 -0.6006
32278SOL     OW99150   8.811   5.630   6.312  0.1968 -0.1414  0.1697
32278SOL    HW199151   8.887   5.588   6.351 -1.0539 -1.3817  1.3952
32278SOL    HW299152   8.847   5.702   6.260  2.2321 -1.1043  0.1394
32279SOL     OW99153   6.931   8.778   8.240  0.6523 -0.1635  0.6631
32279SOL    HW199154   6.872   8.707   8.215 -1.0514  0.7176  2.0054
32279SOL    HW299155   6.921   8.843   8.171  2.2597 -1.1576 -0.6023
32280SOL     OW99156   4.121   7.092  10.141  0.0035 -0.3169 -0.1934
32280SOL    HW199157   4.138   7.038  10.064  1.5543 -0.3269  0.1145
32280SOL    HW299158   4.160   7.042  10.213 -0.3525  0.2697  0.4147
32281SOL     OW99159   0.604   7.914   6.834  0.1264 -0.3003 -0.1278
32281SOL    HW199160   0.600   7.995   6.884 -0.5327 -0.3826 -0.0495
32281SOL    HW299161   0.629   7.942   6.746  3.2131 -0.3179  0.6141
32282SOL     OW99162   6.605   3.406   9.271 -0.4939 -0.1348 -0.1608
32282SOL    HW199163   6.533   3.396   9.208 -0.3079  0.7352 -0.5241
32282SOL    HW299164   6.586   3.342   9.339 -1.3569 -0.2476 -0.4961
32283SOL     OW99165   3.506   0.196   9.844  0.5086 -0.0114  0.3600
32283SOL    HW199166   3.519   0.287   9.871 -2.6795 -0.0021  2.4045
32283SOL    HW299167   3.449   0.202   9.767  0.0017 -0.2372  0.7076
32284SOL     OW99168   0.234   0.583   8.285  0.6940 -0.1584 -0.5144
32284SOL    HW199169   0.228   0.664   8.234 -0.1632  0.3907  0.4119
32284SOL    HW299170   0.153   0.536   8.266  0.5814 -0.1658 -0.0224
32285SOL     OW99171   5.918   8.260   1.666 -0.3615  0.2790 -0.4806
32285SOL    HW199172   5.880   8.190   1.719 -0.1561  0.4740 -0.0712
32285SOL    HW299173   5.994   8.290   1.716 -0.9055  1.3300 -0.2541
32286SOL     OW99174   5.286   8.554   7.629 -0.0139  0.1700  0.7062
32286SOL    HW199175   5.190   8.556   7.630 -0.0958  1.4223 -1.9915
32286SOL    HW299176   5.313   8.632   7.678 -0.3612 -0.0323  1.2265
32287SOL     OW99177   1.440   6.022   3.553 -0.2272 -0.3006  0.3611
32287SOL    HW199178   1.436   5.954   3.485 -2.3058  1.1080 -1.0464
32287SOL    HW299179   1.526   6.063   3.540 -0.4302 -0.3105 -1.2110
32288SOL     OW99180   0.617   8.813   1.133 -0.1334  0.2180  0.0220
32288SOL    HW199181   0.708   8.812   1.102  0.0417  2.5175  0.3154
32288SOL    HW299182   0.576   8.884   1.083 -1.8434 -0.8924 -0.2242
32289SOL     OW99183   7.580   7.300   5.436 -0.1736 -0.0571  0.1337
32289SOL    HW199184   7.631   7.309   5.356 -0.0777  0.0624  0.2065
32289SOL    HW299185   7.495   7.341   5.416  0.2463  1.0209  0.4496
32290SOL     OW99186   5.285   7.569   5.198  0.2143  0.0180  0.0501
32290SOL    HW199187   5.352   7.510   5.163 -1.1655 -1.3263 -0.4429
32290SOL    HW299188   5.333   7.646   5.226  2.0399 -1.1667  0.3166
32291SOL     OW99189   3.173   4.751   7.940 -0.5121  0.0724 -0.0134
32291SOL    HW199190   3.115   4.783   7.872 -2.3640 -1.1884  0.8699
32291SOL    HW299191   3.247   4.711   7.893 -2.2155 -1.6664 -1.3788
32292SOL     OW99192   4.038   6.667   4.309 -0.1932  0.2603 -0.0868
32292SOL    HW199193   4.061   6.639   4.398 -0.3771 -2.4625 -0.7913
32292SOL    HW299194   4.120   6.661   4.260 -0.5220 -0.5111 -0.5702
32293SOL     OW99195   1.032   8.920   1.050 -0.4664 -0.0754  0.1089
32293SOL    HW199196   0.972   8.994   1.040  0.4568  0.7699  0.6907
32293SOL    HW299197   0.974   8.844   1.059 -1.4328  0.4780 -1.0599
32294SOL     OW99198   5.126   0.829   9.328 -0.1117 -0.3096  0.0131
32294SOL    HW199199   5.037   0.801   9.351 -0.5550 -0.6939 -1.9747
32294SOL    HW299200   5.143   0.903   9.385 -0.9602 -1.3739  1.7495
32295SOL     OW99201   4.234   3.112   5.898  0.2741  0.5292  0.1491
32295SOL    HW199202   4.161   3.142   5.951  0.8123 -1.4587  2.1721
32295SOL    HW299203   4.301   3.179   5.910 -0.0309  0.6815  1.0641
32296SOL     OW99204   6.304   8.384   4.008  0.1207 -0.1334 -0.2397
32296SOL    HW199205   6.312   8.300   3.961 -1.2035 -0.1621 -0.4449
32296SOL    HW299206   6.211   8.392   4.027  0.2665  1.1797  0.0108
32297SOL     OW99207   5.135   4.085   9.107 -0.3594 -0.4044 -0.6058
32297SOL    HW199208   5.215   4.035   9.122  0.5883  1.1583 -0.2287
32297SOL    HW299209   5.116   4.126   9.191 -0.6343  0.5135 -1.1009
32298SOL     OW99210   7.584   5.411   5.444 -0.1620 -0.1011  0.2699
32298SOL    HW199211   7.605   5.350   5.515 -0.2615  0.9685  1.2476
32298SOL    HW299212   7.654   5.398   5.380 -0.3273 -1.4204  0.3216
32299SOL     OW99213   1.910   7.000   0.636  0.4763  0.2766 -0.1434
32299SOL    HW199214   1.826   7.043   0.621  0.6935  0.2242 -1.6360
32299SOL    HW299215   1.966   7.068   0.671 -0.1459  0.3340  0.7895
32300SOL     OW99216   7.481   9.729   4.758 -0.2314  0.6588 -0.1649
32300SOL    HW199217   7.467   9.820   4.732  1.7002  1.7578  2.3256
32300SOL    HW299218   7.392   9.694   4.770 -1.0093  2.1713 -1.1759
32301SOL     OW99219   2.448   3.870   9.408  0.5954  0.6654  0.3855
32301SOL    HW199220   2.517   3.805   9.398 -0.8516 -1.0445  1.0876
32301SOL    HW299221   2.378   3.825   9.455 -0.4018  2.7892  1.0843
32302SOL     OW99222   8.483   0.319   4.717 -0.1656  0.8663  0.3372
32302SOL    HW199223   8.445   0.345   4.633  2.5622  2.7365 -0.4615
32302SOL    HW299224   8.516   0.231   4.703 -0.2816  0.9314 -0.3531
32303SOL     OW99225   6.412   3.086   7.046 -0.2359  0.4537  0.2599
32303SOL    HW199226   6.397   3.174   7.081  1.4883  0.8107  0.2114
32303SOL    HW299227   6.505   3.085   7.023 -0.0243 -1.6453  0.9847
32304SOL     OW99228   9.264   7.380   0.291 -0.5823  0.1403  0.1965
32304SOL    HW199229   9.346   7.332   0.293 -1.2196 -0.9716  0.4975
32304SOL    HW299230   9.224   7.355   0.207  0.2294  2.1825 -0.8710
32305SOL     OW99231   7.098   7.357   3.916  0.2957 -0.3876 -0.0022
32305SOL    HW199232   7.143   7.278   3.885 -2.5429 -1.4723 -1.7847
32305SOL    HW299233   7.054   7.330   3.996 -1.0305 -0.8396 -0.8406
32306SOL     OW99234   2.046   5.940  10.090 -0.1632  0.2861  0.6442
32306SOL    HW199235   2.067   6.011  10.152 -1.3509  0.3850  0.9609
32306SOL    HW299236   1.997   5.983  10.020 -0.6725 -0.1753  0.7118
32307SOL     OW99237   4.520   0.743   4.183 -0.4651  0.0580 -0.6676
32307SOL    HW199238   4.443   0.693   4.156 -1.0366  0.2618  0.5306
32307SOL    HW299239   4.562   0.769   4.100 -1.9637  0.3944 -1.3615
32308SOL     OW99240   7.318   2.037   3.322  0.5086 -0.9884  0.0873
32308SOL    HW199241   7.294   2.128   3.305  1.1439 -1.2276 -2.5324
32308SOL    HW299242   7.280   2.018   3.408  0.6679  1.8237  0.8760
32309SOL     OW99243   4.416   8.992   4.466 -0.1811 -0.2432  0.1310
32309SOL    HW199244   4.489   9.048   4.439 -0.2005  0.0732  0.7153
32309SOL    HW299245   4.410   9.005   4.561  0.5804 -2.1536  0.4867
32310SOL     OW99246   2.446   4.174   0.630  0.2823  0.2447 -0.5844
32310SOL    HW199247   2.523   4.192   0.576 -1.0621  0.0153 -2.6905
32310SOL    HW299248   2.393   4.115   0.577 -0.3156 -1.4751  1.7741
32311SOL     OW99249   9.277  10.012   7.485  0.2250  0.8327 -0.4170
32311SOL    HW199250   9.277  10.065   7.565  1.5189  0.6805 -0.2864
32311SOL    HW299251   9.195  10.034   7.441  0.0015  1.7408  0.4149
32312SOL     OW99252   3.200  10.466   7.283 -0.3432 -0.1063 -0.0185
32312SOL    HW199253   3.192  10.374   7.308  2.7807 -0.5580 -0.3244
32312SOL    HW299254   3.286  10.473   7.242 -1.4988  2.4834 -2.3134
32313SOL     OW99255   8.815   2.264   6.597  0.0475 -0.4949  0.4516
32313SOL    HW199256   8.808   2.219   6.513 -1.6025  1.1226 -0.3522
32313SOL    HW299257   8.907   2.290   6.603  0.2102 -0.7455 -0.7859
32314SOL     OW99258   4.954   0.378   1.612  0.3945 -0.2342  0.3578
32314SOL    HW199259   4.937   0.435   1.537  0.2453  0.3566  0.8334
32314SOL    HW299260   4.867   0.348   1.640  0.5247 -1.3514 -0.3833
32315SOL     OW99261   7.646   5.976   1.388 -0.5509 -0.8904 -0.4038
32315SOL    HW199262   7.687   6.026   1.458 -1.7382 -0.7442  0.2251
32315SOL    HW299263   7.674   6.019   1.307  0.1870 -0.5612  0.0193
32316SOL     OW99264   3.471   5.873   8.657  0.1141 -0.2404  0.4120
32316SOL    HW199265   3.555   5.900   8.620  0.8765  0.9808  2.8647
32316SOL    HW299266   3.493   5.807   8.721 -1.0302 -1.2662 -0.2156
32317SOL     OW99267   9.295   9.929   4.559 -0.0040 -0.4183 -0.1294
32317SOL    HW199268   9.200   9.919   4.572 -0.0341  1.5529  1.7662
32317SOL    HW299269   9.304  10.019   4.525  1.1648 -0.7378 -0.7004
32318SOL     OW99270  10.184   0.730   1.942  0.4574  0.4668 -0.0708
32318SOL    HW199271  10.151   0.783   1.871 -1.0909  1.7210  1.5074
32318SOL    HW299272  10.107   0.706   1.993  1.0877 -3.0653 -0.4614
32319SOL     OW99273   3.566   1.625   6.720  0.0182  0.4683 -0.2821
32319SOL    HW199274   3.657   1.594   6.720 -0.1126  0.0225  0.7493
32319SOL    HW299275   3.566   1.700   6.661  0.8451 -0.1135 -1.0459
32320SOL     OW99276   7.041   4.165   6.323  0.3219 -0.4652  0.0819
32320SOL    HW199277   7.025   4.161   6.418 -0.7938 -0.3148 -0.0872
32320SOL    HW299278   7.025   4.076   6.292  1.7486 -0.7769  0.1711
32321SOL     OW99279   2.346   8.264   6.964  0.4841 -0.3561  0.3535
32321SOL    HW199280   2.398   8.225   7.035  0.4057  1.2144  1.3087
32321SOL    HW299281   2.404   8.329   6.924  0.1171 -0.3953 -0.2558
32322SOL     OW99282   9.654   9.036   1.472  0.9239 -0.3076 -0.2540
32322SOL    HW199283   9.587   9.085   1.425 -0.4157 -0.6344  1.2017
32322SOL    HW299284   9.714   9.104   1.504  0.0820  0.2417  0.2287
32323SOL     OW99285   5.366   5.682   0.601  0.2530 -0.1427  0.1013
32323SOL    HW199286   5.369   5.761   0.547 -0.9693 -0.9665 -1.2388
32323SOL    HW299287   5.315   5.707   0.678 -0.2433  0.3400 -0.3794
32324SOL     OW99288   9.328   8.715   5.910  0.4271  0.1749  0.4257
32324SOL    HW199289   9.247   8.697   5.863  0.9898 -0.0711 -0.4758
32324SOL    HW299290   9.300   8.753   5.993 -0.5983  0.3039  0.0312
32325SOL     OW99291   1.011   7.369   0.655  0.5095  0.4023  0.0696
32325SOL    HW199292   0.979   7.459   0.653  0.9155  0.5772  0.8803
32325SOL    HW299293   0.963   7.328   0.726  0.8984  0.2093  0.2245
32326SOL     OW99294   3.616   8.809   8.228 -0.0055  0.3036  0.0674
32326SOL    HW199295   3.613   8.714   8.220  0.0965  0.2880  0.2117
32326SOL    HW299296   3.705   8.827   8.259  0.0842  0.4685 -0.2879
32327SOL     OW99297   7.918   0.002   5.520 -0.0922 -0.3449  0.0894
32327SOL    HW199298   7.989  -0.043   5.566 -0.0336 -0.9024 -0.5186
32327SOL    HW299299   7.952   0.013   5.431 -0.6879 -0.4254 -0.1469
32328SOL     OW99300   6.059   9.343   7.858 -0.2445  0.5767 -0.5135
32328SOL    HW199301   6.046   9.316   7.767 -0.6820 -0.4293 -0.1699
32328SOL    HW299302   5.971   9.351   7.894 -0.0715 -0.8010  0.3032
32329SOL     OW99303   2.359   9.162   5.410  0.6215 -0.6411  0.1048
32329SOL    HW199304   2.290   9.144   5.346  0.5215 -0.0431  0.0446
32329SOL    HW299305   2.347   9.254   5.435  1.0968 -0.6662  0.4550
32330SOL     OW99306   8.220   1.917   3.757 -0.0869  0.2406 -0.3886
32330SOL    HW199307   8.157   1.936   3.826  0.6488 -1.4981  0.8182
32330SOL    HW299308   8.179   1.850   3.704  0.2070  0.0570 -0.3855
32331SOL     OW99309   5.432   4.441   7.631  0.4213 -0.6639 -0.1636
32331SOL    HW199310   5.408   4.517   7.577 -1.2431 -0.7031  0.4430
32331SOL    HW299311   5.475   4.479   7.707  1.1469 -0.4727 -0.6580
32332SOL     OW99312   3.939   0.132   1.185 -0.3919 -0.2883  0.1045
32332SOL    HW199313   3.879   0.140   1.259  0.9500  4.2388  1.0259
32332SOL    HW299314   3.884   0.144   1.108 -1.1810 -0.1682  0.6753
32333SOL     OW99315   3.098   1.702   6.171 -0.1445 -0.7234 -0.4730
32333SOL    HW199316   3.142   1.636   6.224  1.7350  1.2945  0.6476
32333SOL    HW299317   3.054   1.759   6.234 -0.8886 -0.3201 -1.3358
32334SOL     OW99318   1.088   6.563   4.019  0.1412  0.7826 -0.0109
32334SOL    HW199319   1.126   6.553   3.931 -1.0284  1.3133 -0.5938
32334SOL    HW299320   1.022   6.631   4.009 -0.3383  0.5096  1.1831
32335SOL     OW99321   8.866   4.920   1.207 -0.1257 -0.5226  0.4725
32335SOL    HW199322   8.915   4.900   1.127  1.0932 -0.4910  1.1736
32335SOL    HW299323   8.916   4.877   1.277 -0.1216  0.9330  1.4295
32336SOL     OW99324  10.338   5.148   3.695  0.0352 -0.2271 -0.2317
32336SOL    HW199325  10.389   5.229   3.692  0.2785 -0.2398  1.8770
32336SOL    HW299326  10.298   5.141   3.609  0.4952  1.8128 -0.6523
32337SOL     OW99327   9.286   7.333   7.598  0.3838 -0.1342  0.3067
32337SOL    HW199328   9.304   7.302   7.509 -0.2296 -1.1064  0.5031
32337SOL    HW299329   9.204   7.382   7.590  0.3200 -0.2367  0.3490
32338SOL     OW99330   1.189   8.441   6.709  0.6687  0.7445 -0.6893
32338SOL    HW199331   1.273   8.412   6.675 -0.0460 -1.5471 -0.6802
32338SOL    HW299332   1.141   8.360   6.727 -2.2265  1.9012 -2.4268
32339SOL     OW99333   1.823   6.159   3.098  0.4682  0.3163 -0.1614
32339SOL    HW199334   1.803   6.236   3.046 -2.3230 -1.4382 -1.9286
32339SOL    HW299335   1.888   6.111   3.046 -0.0414  0.0603 -0.5774
32340SOL     OW99336   3.093  10.146   5.645  0.3046  0.2773  0.0693
32340SOL    HW199337   3.064  10.098   5.568 -0.4183 -0.5304  0.8184
32340SOL    HW299338   3.030  10.217   5.655 -0.3520 -0.3676  0.6225
32341SOL     OW99339   7.363  10.324   1.004  0.0532  0.0142 -0.1276
32341SOL    HW199340   7.303  10.397   0.989  1.3545  0.9643 -0.9958
32341SOL    HW299341   7.424  10.357   1.071  0.9973 -0.0135 -0.9406
32342SOL     OW99342   2.956   3.143   9.336 -0.0789  0.6008 -0.3454
32342SOL    HW199343   2.938   3.097   9.254 -0.2667  0.2777 -0.1228
32342SOL    HW299344   3.042   3.183   9.322  0.5562 -0.6544 -0.1820
32343SOL     OW99345   4.226   9.379   4.972  0.0509  0.4362  0.2732
32343SOL    HW199346   4.197   9.447   5.033 -0.7212 -0.0423  0.4528
32343SOL    HW299347   4.177   9.397   4.891 -0.3586 -0.0560  0.4064
32344SOL     OW99348  10.485   1.563   1.348 -0.0484  0.1489 -0.0881
32344SOL    HW199349  10.459   1.544   1.258 -0.2657 -0.5443  0.1167
32344SOL    HW299350  10.544   1.491   1.371  1.8733  1.5077 -0.4449
32345SOL     OW99351   2.397   1.996   9.334 -0.3382  0.6294  0.1704
32345SOL    HW199352   2.486   2.027   9.316 -0.5434  1.6545  0.8264
32345SOL    HW299353   2.368   2.050   9.408 -0.5071 -1.5348  1.7827
32346SOL     OW99354   6.456   0.883   1.142 -0.1470 -0.5457  0.1289
32346SOL    HW199355   6.549   0.893   1.121  0.8372 -0.3815  3.8376
32346SOL    HW299356   6.438   0.790   1.129  0.7634 -0.7235  0.0685
32347SOL     OW99357   4.298   4.041  10.124  0.0288 -0.0446 -0.0998
32347SOL    HW199358   4.364   4.108  10.106 -2.3960  2.5565  0.0396
32347SOL    HW299359   4.324   4.005  10.209  1.2828  0.9152 -0.0437
32348SOL     OW99360   4.847   5.473   5.518  0.2708 -0.1984  0.0261
32348SOL    HW199361   4.871   5.390   5.560 -0.7913 -0.0771  0.9361
32348SOL    HW299362   4.846   5.536   5.590 -0.0149  0.3646 -0.4676
32349SOL     OW99363   1.889   9.579   1.793  0.2549 -0.0317  0.5662
32349SOL    HW199364   1.876   9.507   1.854  0.4484 -1.3430 -0.8862
32349SOL    HW299365   1.888   9.538   1.707  1.1631  1.5957 -0.2679
32350SOL     OW99366   0.405   4.611  10.330 -0.0682 -0.5935 -0.4814
32350SOL    HW199367   0.479   4.670  10.312  1.3225 -1.8979  0.7068
32350SOL    HW299368   0.390   4.565  10.248  1.3164 -1.2140 -0.4193
32351SOL     OW99369   7.206   4.902   1.025  0.2682 -0.2421 -0.2403
32351SOL    HW199370   7.297   4.904   0.994  0.7003  1.7631  0.9685
32351SOL    HW299371   7.192   4.811   1.052  0.8097 -1.3928 -3.3376
32352SOL     OW99372   0.805   0.812   1.036  0.4699  0.1906 -0.6115
32352SOL    HW199373   0.890   0.793   0.996  1.4591 -1.5908  2.0465
32352SOL    HW299374   0.773   0.727   1.066 -0.7691  1.2325  1.1990
32353SOL     OW99375   0.389   9.648   7.334 -0.5094 -0.0932 -0.0374
32353SOL    HW199376   0.457   9.707   7.368  2.1746 -3.2566  0.5690
32353SOL    HW299377   0.418   9.625   7.246 -1.7277 -0.2149 -0.4263
32354SOL     OW99378   4.505   8.611   6.364 -0.3008 -0.0749  0.2799
32354SOL    HW199379   4.522   8.641   6.275 -0.7197  0.7191  0.4591
32354SOL    HW299380   4.536   8.520   6.365  0.2560  0.0957 -0.4991
32355SOL     OW99381   6.284   4.202   8.068 -0.0046 -0.4238  0.5616
32355SOL    HW199382   6.320   4.280   8.111  1.3104 -0.6111 -0.1424
32355SOL    HW299383   6.236   4.157   8.137 -0.4763  0.8091  1.0782
32356SOL     OW99384   9.950   1.149   8.471 -0.0575  0.4103  0.0407
32356SOL    HW199385   9.979   1.219   8.411 -1.3102  1.4380  0.5999
32356SOL    HW299386   9.855   1.150   8.464 -0.0805 -2.1297 -0.8820
32357SOL     OW99387   1.118   6.184   2.159 -0.3300  0.0460 -0.3647
32357SOL    HW199388   1.206   6.155   2.184 -0.2567  0.5198 -0.0674
32357SOL    HW299389   1.132   6.251   2.092 -0.4364  0.6094  0.1694
32358SOL     OW99390   3.145   6.482   2.180  0.0365  0.4959  0.8549
32358SOL    HW199391   3.186   6.442   2.104 -0.3671  0.4668  0.6482
32358SOL    HW299392   3.062   6.516   2.147  0.4903  1.7506  0.9717
32359SOL     OW99393   1.851   1.381   3.758 -0.0316 -0.3336 -0.5067
32359SOL    HW199394   1.784   1.346   3.700  0.3759 -2.3389  0.1605
32359SOL    HW299395   1.908   1.432   3.700 -1.5902  0.6656 -1.2221
32360SOL     OW99396   2.031   7.321   5.849  0.0240  0.0270  0.3285
32360SOL    HW199397   2.041   7.241   5.901  1.4027 -0.1186 -0.0991
32360SOL    HW299398   2.055   7.295   5.760  0.0322  0.8103  0.0916
32361SOL     OW99399   4.508   6.341   7.844  0.4438  0.2737 -0.1584
32361SOL    HW199400   4.517   6.436   7.846 -2.7633  0.6850  0.1948
32361SOL    HW299401   4.427   6.326   7.796 -1.5274 -1.9748  3.4128
32362SOL     OW99402   6.002   4.972   6.546  0.1825  0.3780  0.0588
32362SOL    HW199403   5.952   5.024   6.483  1.1220  2.2690  0.7773
32362SOL    HW299404   6.034   4.897   6.495 -1.8298  0.0602 -0.8294
32363SOL     OW99405   7.167   0.883   3.335 -0.2580 -0.0718 -1.0250
32363SOL    HW199406   7.134   0.805   3.379 -1.7536  2.3996  2.6937
32363SOL    HW299407   7.096   0.908   3.275 -1.1283  0.0019 -0.0088
32364SOL     OW99408   1.923   6.889   9.777 -1.3607  0.1439 -0.3985
32364SOL    HW199409   1.885   6.883   9.690 -1.1327  0.7247 -0.5416
32364SOL    HW299410   2.006   6.935   9.764 -1.4856  0.5372  0.1673
32365SOL     OW99411   8.396  10.091   9.220 -0.1804 -0.2379 -0.5965
32365SOL    HW199412   8.315  10.063   9.264  0.3160  1.0299  1.2508
32365SOL    HW299413   8.434  10.010   9.187 -0.7718 -1.2487  1.0628
32366SOL     OW99414   3.011   1.237   3.551  0.1835  0.4162 -0.4420
32366SOL    HW199415   3.077   1.291   3.594  0.7647  1.6963 -2.7384
32366SOL    HW299416   2.929   1.282   3.568  0.0629 -0.3483  1.1572
32367SOL     OW99417   1.227   7.199   7.767  0.2065 -0.0259 -0.2414
32367SOL    HW199418   1.214   7.210   7.672 -0.4888  2.4827  0.0494
32367SOL    HW299419   1.316   7.230   7.783  0.7818 -1.6442 -0.2008
32368SOL     OW99420   6.409   2.130   0.548 -0.5112 -0.2660  0.1122
32368SOL    HW199421   6.469   2.061   0.520  0.3193  0.4248  0.1501
32368SOL    HW299422   6.354   2.147   0.472 -0.2067 -0.4290 -0.1462
32369SOL     OW99423   9.922   5.849   4.221  0.2393 -0.4230 -0.0043
32369SOL    HW199424   9.913   5.939   4.251 -0.6027  0.0196 -1.4658
32369SOL    HW299425   9.873   5.846   4.139  0.5251 -2.1340 -0.1542
32370SOL     OW99426   1.099   8.260   4.325 -0.2352  0.2332 -0.0344
32370SOL    HW199427   1.133   8.212   4.249  2.1913  2.8396 -0.7963
32370SOL    HW299428   1.157   8.236   4.396 -1.9412 -1.4839  0.8636
32371SOL     OW99429   5.457   2.996   8.861  0.1139 -0.2868  0.1206
32371SOL    HW199430   5.420   2.976   8.947  2.8412 -1.0647  1.2307
32371SOL    HW299431   5.544   3.030   8.881  0.6074  0.0277 -2.3424
32372SOL     OW99432   2.227   7.791   2.948  0.3545  0.1503  0.1635
32372SOL    HW199433   2.242   7.765   2.857  1.9176 -0.4024  0.5370
32372SOL    HW299434   2.186   7.714   2.988  0.7466 -0.0576  0.1795
32373SOL     OW99435   1.136   6.788   1.083 -0.4780 -0.5546 -0.0174
32373SOL    HW199436   1.149   6.794   1.177  0.2869  0.1688 -0.1551
32373SOL    HW299437   1.192   6.715   1.056 -0.6834 -0.7500  0.0843
32374SOL     OW99438   9.311   2.904   1.151  0.1911 -0.5119 -0.5360
32374SOL    HW199439   9.358   2.987   1.139 -1.1542  0.4509  0.5501
32374SOL    HW299440   9.331   2.879   1.241 -1.3311 -0.0869 -0.0562
32375SOL     OW99441   5.250   1.547   4.601 -0.2608 -0.1619  0.0456
32375SOL    HW199442   5.246   1.526   4.507 -0.6757  0.3490 -0.0544
32375SOL    HW299443   5.209   1.472   4.644  0.3997 -0.6366 -0.1459
32376SOL     OW99444   8.683   3.812   2.695  0.4313 -0.4307  0.0825
32376SOL    HW199445   8.619   3.745   2.715  1.0390 -0.1569  3.4279
32376SOL    HW299446   8.683   3.870   2.771  0.8566  2.6910 -2.0792
32377SOL     OW99447   8.218   7.158   1.555 -0.1051 -0.3298  0.1180
32377SOL    HW199448   8.257   7.124   1.475  0.1078  0.2634 -0.0349
32377SOL    HW299449   8.289   7.155   1.620 -0.1777 -0.4775  0.1911
32378SOL     OW99450   8.662   2.888   1.012  0.4320 -1.2020 -0.4594
32378SOL    HW199451   8.721   2.822   0.977 -1.4810 -2.9118 -0.6154
32378SOL    HW299452   8.597   2.902   0.943 -0.2604 -0.5377  0.3046
32379SOL     OW99453   9.254   3.377   1.865 -0.5281  0.5754  0.3356
32379SOL    HW199454   9.209   3.317   1.924  1.2466  0.0114  1.1846
32379SOL    HW299455   9.234   3.464   1.899 -0.4843  0.3049  1.0600
32380SOL     OW99456   8.530   1.888   6.526  0.5045 -0.9529  0.3801
32380SOL    HW199457   8.522   1.794   6.544 -0.2810 -0.7033  1.4328
32380SOL    HW299458   8.465   1.929   6.583  1.1321  0.2694  0.2536
32381SOL     OW99459   4.346   9.252   1.616 -0.0893 -0.4793  0.4057
32381SOL    HW199460   4.288   9.257   1.692 -1.6200 -2.4999 -0.5266
32381SOL    HW299461   4.304   9.308   1.550  0.0615 -0.4304  0.3512
32382SOL     OW99462   7.992   1.601   4.055  0.2863 -0.2684 -0.2397
32382SOL    HW199463   7.914   1.596   4.111 -0.1880 -2.0440 -1.0002
32382SOL    HW299464   8.062   1.565   4.110  0.0404 -1.0301 -0.4195
32383SOL     OW99465   8.755  10.595   8.302  0.0428 -0.2011 -0.5169
32383SOL    HW199466   8.714  10.616   8.218  0.0711  1.1534 -0.2155
32383SOL    HW299467   8.683  10.602   8.365  0.4614  0.9797 -0.1484
32384SOL     OW99468   0.638   8.468  10.545  0.2357  0.3506 -0.5328
32384SOL    HW199469   0.645   8.547  10.598 -0.6248  0.7436 -0.9932
32384SOL    HW299470   0.575   8.490  10.476  1.6811  0.0241 -2.0296
32385SOL     OW99471   5.771   8.011   4.266  0.3790 -0.0097 -0.5050
32385SOL    HW199472   5.783   8.008   4.361  0.3984  0.9379 -0.4608
32385SOL    HW299473   5.683   7.977   4.251  0.3048  0.0169 -0.1294
32386SOL     OW99474   2.616   0.464   1.922  0.0971  0.2081  0.4422
32386SOL    HW199475   2.623   0.377   1.959 -1.6059  0.2392  0.9345
32386SOL    HW299476   2.526   0.469   1.888  0.4771  1.4151 -0.4865
32387SOL     OW99477   8.589   6.528   5.339 -0.1939 -0.2067 -0.1921
32387SOL    HW199478   8.647   6.603   5.351 -0.2302 -0.4147  1.4777
32387SOL    HW299479   8.569   6.498   5.428 -2.3775 -0.5168 -0.7404
32388SOL     OW99480   5.704  10.390   3.631 -0.3106  0.5387 -0.0007
32388SOL    HW199481   5.640  10.398   3.701 -1.8708 -0.8860 -1.1624
32388SOL    HW299482   5.659  10.337   3.564  1.7866  0.2239 -1.2410
32389SOL     OW99483   8.472   3.326   0.261 -0.1314  0.0463  0.2185
32389SOL    HW199484   8.488   3.395   0.197 -0.4318  0.3472  0.4655
32389SOL    HW299485   8.423   3.369   0.331  1.4573  0.0769  1.3549
32390SOL     OW99486  10.571   1.821   1.380  0.2494  0.2589  0.6737
32390SOL    HW199487  10.555   1.733   1.347 -0.1839  0.5552  0.0839
32390SOL    HW299488  10.635   1.809   1.451  2.5460 -0.2402 -1.3283
32391SOL     OW99489   0.344   3.087   2.132  0.1546 -0.0554  0.1777
32391SOL    HW199490   0.302   3.084   2.046  1.2122  1.0581 -0.4084
32391SOL    HW299491   0.393   3.006   2.138  1.0496  0.3901 -0.8005
32392SOL     OW99492   1.974   4.885   6.852  0.0150 -0.3436 -0.1006
32392SOL    HW199493   2.019   4.951   6.906 -0.2537 -1.0430  1.0045
32392SOL    HW299494   2.030   4.808   6.857 -0.9678 -1.0263  0.7847
32393SOL     OW99495   7.039   9.190   3.349 -0.1931  0.4408 -0.1756
32393SOL    HW199496   6.968   9.250   3.373 -2.2040 -2.2930  1.3310
32393SOL    HW299497   7.028   9.176   3.255 -1.0419  0.7945 -0.1383
32394SOL     OW99498   4.222   1.631   5.678  0.3798  0.1941 -0.0257
32394SOL    HW199499   4.224   1.593   5.590 -0.5542 -0.8563  0.3896
32394SOL    HW299500   4.193   1.560   5.735  2.4883  0.3769  1.3960
32395SOL     OW99501   7.822   1.723   7.097 -0.0098  0.1671 -0.6139
32395SOL    HW199502   7.846   1.677   7.016  2.0261  1.1548 -0.6351
32395SOL    HW299503   7.877   1.683   7.165 -0.9703  0.0352  0.1116
32396SOL     OW99504   8.294   7.049   7.763  0.9079 -0.0909 -0.5251
32396SOL    HW199505   8.372   7.095   7.730  1.6096 -0.9562 -0.1132
32396SOL    HW299506   8.265   7.101   7.837  1.4217 -0.0500 -0.3473
32397SOL     OW99507   3.483   0.616   2.567 -0.1066 -0.1170  0.4494
32397SOL    HW199508   3.405   0.577   2.528 -0.5173  0.4822  0.6670
32397SOL    HW299509   3.504   0.690   2.511  0.6624 -0.6179  0.0482
32398SOL     OW99510   1.655   3.827   9.318 -0.1641 -0.2064 -0.4656
32398SOL    HW199511   1.722   3.779   9.366  0.2320  0.4764 -0.3149
32398SOL    HW299512   1.698   3.909   9.292 -1.3579  0.9122  0.9129
32399SOL     OW99513   6.906   8.664   4.990 -0.3284  0.0823 -0.0344
32399SOL    HW199514   6.935   8.746   5.031 -2.1600  1.2715 -0.9628
32399SOL    HW299515   6.969   8.599   5.020  1.3344  1.8626  0.5701
32400SOL     OW99516   5.101   9.950   3.128  0.4401  0.0320  0.2937
32400SOL    HW199517   5.044   9.877   3.105 -1.0070  0.6340  1.7660
32400SOL    HW299518   5.073  10.022   3.071 -0.7056  0.4919  1.4033
32401SOL     OW99519   7.277   3.432   1.403 -0.5172  0.5100  0.3481
32401SOL    HW199520   7.359   3.473   1.377  0.1687  0.1767  1.8912
32401SOL    HW299521   7.215   3.505   1.412 -0.1108  0.8738  0.2163
32402SOL     OW99522   7.335   5.065   2.456  0.2501  0.6610  0.3314
32402SOL    HW199523   7.373   5.095   2.374  0.0386 -0.9988 -0.4133
32402SOL    HW299524   7.285   5.140   2.489  0.2640  1.3194 -1.0848
32403SOL     OW99525   5.860   4.022   6.787  0.3573  0.1335  0.5338
32403SOL    HW199526   5.835   4.106   6.750  0.3794  0.3107  0.9171
32403SOL    HW299527   5.782   3.967   6.777  0.6027 -0.0496 -0.4414
32404SOL     OW99528   4.001   1.520   9.892  0.0449 -0.5203 -0.1376
32404SOL    HW199529   3.919   1.512   9.842  0.2833 -1.7480 -0.3686
32404SOL    HW299530   3.986   1.466   9.970 -0.2186  1.1525  1.0156
32405SOL     OW99531   0.780   3.890  10.557 -0.2391  0.4276 -0.3263
32405SOL    HW199532   0.695   3.928  10.578 -0.3981 -0.0015 -0.1968
32405SOL    HW299533   0.763   3.797  10.544  0.1795  0.3687 -0.4792
32406SOL     OW99534   3.043   1.671   2.541  0.2604 -0.4440  0.0298
32406SOL    HW199535   2.986   1.595   2.557  0.2266 -0.8060 -1.6092
32406SOL    HW299536   3.008   1.739   2.597  0.1701 -1.5810  1.4072
32407SOL     OW99537   8.379   2.095   8.864 -0.1027  0.3563 -0.1137
32407SOL    HW199538   8.295   2.132   8.889 -0.0966  0.0086  0.4329
32407SOL    HW299539   8.426   2.085   8.947  0.0653 -0.4540 -0.3044
32408SOL     OW99540   4.989   7.641   6.643  0.0555 -0.1313 -0.2699
32408SOL    HW199541   4.904   7.639   6.599 -0.7878  1.0429  1.1957
32408SOL    HW299542   5.020   7.731   6.632  0.6444 -0.2914  0.0379
32409SOL     OW99543   5.193  10.442   5.673  0.2617 -0.2886  0.0766
32409SOL    HW199544   5.161  10.380   5.608  0.3551 -1.0664  0.7689
32409SOL    HW299545   5.118  10.461   5.729 -0.1707  1.3566 -0.9679
32410SOL     OW99546   3.374   3.735   0.846  0.1505  0.7357  0.2437
32410SOL    HW199547   3.356   3.767   0.757 -2.9378  1.3364  0.9493
32410SOL    HW299548   3.451   3.679   0.837  0.1932  1.1232 -2.7145
32411SOL     OW99549   4.418   6.494   0.495  0.0738 -0.3921  0.3401
32411SOL    HW199550   4.460   6.573   0.530  2.7467 -1.7308  0.3902
32411SOL    HW299551   4.490   6.439   0.466 -1.7021 -2.7615  0.0914
32412SOL     OW99552  10.053   1.455  10.260  0.1786 -0.3663  0.0260
32412SOL    HW199553   9.984   1.388  10.261 -0.1042 -0.2997 -3.1743
32412SOL    HW299554  10.053   1.491  10.348 -0.8620 -3.3496  1.3769
32413SOL     OW99555   4.734   9.263   1.256  0.0177  0.0338 -0.2688
32413SOL    HW199556   4.659   9.204   1.267  1.2466 -1.1581  2.5618
32413SOL    HW299557   4.701   9.348   1.286 -0.6345 -0.1300 -0.4986
32414SOL     OW99558   5.376   2.088   3.961  0.1922 -0.0600  0.0132
32414SOL    HW199559   5.415   2.120   4.042 -0.4355  0.8902 -0.0440
32414SOL    HW299560   5.287   2.124   3.962 -0.6654 -2.0388  0.0742
32415SOL     OW99561  10.411   6.441   1.128 -0.5216 -0.8072  0.7656
32415SOL    HW199562  10.489   6.392   1.104 -0.8685 -0.7714 -0.5097
32415SOL    HW299563  10.444   6.515   1.179  0.3909 -0.2200 -0.6278
32416SOL     OW99564   2.295   4.053   8.272 -0.1916  0.4875 -0.0464
32416SOL    HW199565   2.216   4.106   8.266  0.7523  1.9039 -0.3776
32416SOL    HW299566   2.348   4.097   8.338  1.4997  1.1904 -1.8037
32417SOL     OW99567   9.613   4.444   8.926  0.2330  0.0530  0.3119
32417SOL    HW199568   9.524   4.408   8.934  0.3348 -0.0644  0.9364
32417SOL    HW299569   9.613   4.521   8.983  0.7378 -0.3446  0.8560
32418SOL     OW99570   9.344   2.025   4.092 -0.3940 -0.1101  0.5041
32418SOL    HW199571   9.367   2.042   4.000 -1.8995  0.4490  0.1891
32418SOL    HW299572   9.420   1.981   4.129  0.2682 -0.2864 -1.0054
32419SOL     OW99573   9.682   6.501   0.808 -0.7258 -0.8114 -0.1214
32419SOL    HW199574   9.672   6.411   0.840 -1.3188 -0.7989 -0.2545
32419SOL    HW299575   9.776   6.511   0.795 -0.6943 -1.5680 -0.5506
32420SOL     OW99576   1.489   4.089   6.323  0.3785  0.3075  0.3064
32420SOL    HW199577   1.506   3.998   6.346 -1.2716 -0.3458 -0.7830
32420SOL    HW299578   1.406   4.085   6.274  0.4817  2.3436 -0.1053
32421SOL     OW99579   7.988   5.839   0.583 -0.1296  0.1908  0.2408
32421SOL    HW199580   7.901   5.857   0.620  0.9785  1.8787  2.2929
32421SOL    HW299581   8.023   5.926   0.563  1.1344 -0.4497 -0.4027
32422SOL     OW99582   9.601   9.392   0.287 -0.0097  0.2456 -0.1787
32422SOL    HW199583   9.560   9.428   0.208 -0.1937 -1.0098 -0.6714
32422SOL    HW299584   9.621   9.301   0.265 -0.5857 -0.3066  1.4012
32423SOL     OW99585   7.485   2.350   7.671 -0.3255  0.3907  0.0442
32423SOL    HW199586   7.568   2.311   7.642  0.4108  1.1434  1.0642
32423SOL    HW299587   7.508   2.398   7.751 -2.1212 -1.0682  1.5381
32424SOL     OW99588   3.991   2.942   0.372 -0.3293  0.4634 -0.1234
32424SOL    HW199589   3.961   2.861   0.414  3.8118 -1.0769  0.3420
32424SOL    HW299590   3.986   3.008   0.440  0.2800 -0.4781  0.8659
32425SOL     OW99591   0.358   0.530   3.168  0.1370  0.3472 -0.2796
32425SOL    HW199592   0.410   0.451   3.183  0.0537  0.4130  0.3798
32425SOL    HW299593   0.422   0.601   3.168  0.3766  0.1889 -2.0662
32426SOL     OW99594   7.740   3.568   0.282  0.4178  0.0817  0.3858
32426SOL    HW199595   7.683   3.538   0.211  0.2958 -0.3437  0.6594
32426SOL    HW299596   7.778   3.488   0.318  0.5448  0.2997  0.7460
32427SOL     OW99597   5.580   7.788   3.368  0.6144  0.1724 -0.6952
32427SOL    HW199598   5.558   7.728   3.296  2.2921 -0.7354 -0.5057
32427SOL    HW299599   5.666   7.758   3.399  0.7540  1.6772  0.5013
32428SOL     OW99600   9.394   9.524   9.404 -0.5394 -0.4284 -0.2540
32428SOL    HW199601   9.489   9.527   9.390 -0.5722  0.3524 -0.3163
32428SOL    HW299602   9.356   9.561   9.325 -0.9247 -1.1459 -0.4152
32429SOL     OW99603   3.662   7.822   7.445 -0.0389 -0.6917  0.1010
32429SOL    HW199604   3.638   7.904   7.402 -0.2830 -1.7559 -1.9128
32429SOL    HW299605   3.712   7.849   7.522  0.3016  1.3330 -0.7692
32430SOL     OW99606   9.941   5.173   2.648 -0.0577 -0.3273 -0.3934
32430SOL    HW199607   9.849   5.199   2.651 -0.0411 -0.1524 -1.1522
32430SOL    HW299608   9.989   5.250   2.677 -0.1933 -0.8333  1.3054
32431SOL     OW99609   6.488   5.276   9.414 -0.1745 -0.1962  0.2024
32431SOL    HW199610   6.498   5.294   9.507 -0.6794  1.6569 -0.0536
32431SOL    HW299611   6.393   5.269   9.401 -0.2440  1.3989 -0.4250
32432SOL     OW99612   1.117   1.162   0.354 -0.2048  0.4165 -0.7500
32432SOL    HW199613   1.068   1.233   0.396 -1.6239 -0.6872 -0.4326
32432SOL    HW299614   1.092   1.168   0.262  1.0088  1.3480 -1.0360
32433SOL     OW99615   8.428   5.676   4.286 -0.6292 -0.1428 -0.1911
32433SOL    HW199616   8.402   5.767   4.272 -1.9269 -0.5726 -0.7063
32433SOL    HW299617   8.359   5.625   4.245  1.4236 -1.3782 -2.3284
32434SOL     OW99618   7.928   5.009   4.801 -0.2507  0.4043 -0.1734
32434SOL    HW199619   8.015   5.048   4.790  0.2470 -0.7848 -0.6150
32434SOL    HW299620   7.943   4.915   4.797 -1.7309  0.1711 -1.7481
32435SOL     OW99621  10.274   6.381   8.418 -0.4515 -0.3329 -0.8458
32435SOL    HW199622  10.263   6.448   8.485 -0.8263  0.0595 -1.2856
32435SOL    HW299623  10.369   6.375   8.405 -0.3731 -0.4928 -0.2076
32436SOL     OW99624   2.307   7.642   8.771 -0.1971 -0.1532  0.0607
32436SOL    HW199625   2.382   7.698   8.789  0.3801 -0.7855 -0.2793
32436SOL    HW299626   2.337   7.586   8.699 -1.7154  0.9835 -1.5413
32437SOL     OW99627   5.309   3.681   6.084  0.0824 -0.1119  0.3989
32437SOL    HW199628   5.303   3.771   6.052 -0.0493 -0.3399 -0.2402
32437SOL    HW299629   5.246   3.632   6.031  0.0743 -0.5598  0.8115
32438SOL     OW99630   3.126   2.601   4.449 -0.5426 -0.6415 -0.0117
32438SOL    HW199631   3.092   2.661   4.515 -1.7108 -1.5579  0.2384
32438SOL    HW299632   3.122   2.515   4.490  0.4388 -1.0018 -0.6326
32439SOL     OW99633   5.163   6.238  10.325 -0.1259 -0.3608  0.1360
32439SOL    HW199634   5.235   6.196  10.277 -0.8304 -0.9725 -0.4083
32439SOL    HW299635   5.085   6.188  10.300 -0.6184 -0.2605  1.3992
32440SOL     OW99636   4.057   8.972   2.478  0.0427 -0.1591  0.2682
32440SOL    HW199637   4.116   9.046   2.495 -0.2319  0.0412  0.3581
32440SOL    HW299638   4.115   8.896   2.474  0.5749  0.2948 -1.6969
32441SOL     OW99639   0.401   8.096   3.483  0.4360  0.0838  0.5521
32441SOL    HW199640   0.417   8.030   3.416  0.5489  0.0681  0.5926
32441SOL    HW299641   0.389   8.178   3.435  0.8428  0.1333  0.5269
32442SOL     OW99642   9.765   5.472   7.612 -0.3947 -0.2389 -0.1047
32442SOL    HW199643   9.797   5.562   7.608  2.2066 -1.0286  0.8095
32442SOL    HW299644   9.719   5.466   7.696  0.5941 -0.0660  0.4666
32443SOL     OW99645   3.843   5.683  10.441 -0.3986  0.1423 -0.6768
32443SOL    HW199646   3.873   5.762  10.395 -3.2176  1.6132 -0.1530
32443SOL    HW299647   3.822   5.621  10.371  2.9381 -0.7498 -1.0845
32444SOL     OW99648   1.385   6.602   7.034 -0.2064 -0.0356  0.6126
32444SOL    HW199649   1.413   6.511   7.028  0.2328  0.1200  0.3141
32444SOL    HW299650   1.343   6.620   6.950 -2.5964 -0.7152  1.5560
32445SOL     OW99651   7.066   1.444   5.839  0.4659  0.3195  0.5540
32445SOL    HW199652   7.014   1.406   5.909 -1.7083  1.2827 -0.4386
32445SOL    HW299653   7.146   1.475   5.882  0.4898 -1.6584  2.0453
32446SOL     OW99654   5.303   9.652   9.142 -0.1825  0.2576 -0.0835
32446SOL    HW199655   5.213   9.647   9.174 -0.2430 -2.3359 -0.4906
32446SOL    HW299656   5.295   9.679   9.051 -0.4576  1.0291  0.1624
32447SOL     OW99657   9.553   5.381   2.529  0.6322 -0.3215  0.3422
32447SOL    HW199658   9.530   5.473   2.537 -1.4121 -0.6369 -1.0024
32447SOL    HW299659   9.593   5.358   2.613  1.1894  1.7583  0.6906
32448SOL     OW99660   2.597   6.246   7.694 -0.4058  0.2779  0.4376
32448SOL    HW199661   2.613   6.238   7.788  1.2260  0.4713  0.1990
32448SOL    HW299662   2.681   6.271   7.657 -1.1124  0.5854 -1.0450
32449SOL     OW99663   7.152   3.949   4.807  0.3024  0.4908 -0.3609
32449SOL    HW199664   7.069   3.905   4.788  0.8741 -0.8867  0.2254
32449SOL    HW299665   7.127   4.041   4.820 -1.4325 -0.1418  1.5617
32450SOL     OW99666   0.613   8.642   3.971  0.4981  0.1395 -0.4456
32450SOL    HW199667   0.628   8.635   4.065  0.1331 -1.6431 -0.4864
32450SOL    HW299668   0.561   8.722   3.960 -0.3717 -0.1984  0.9944
32451SOL     OW99669   6.635   4.558   9.172  0.1789  0.3167  0.1908
32451SOL    HW199670   6.697   4.498   9.214  2.1415  1.3035 -1.1636
32451SOL    HW299671   6.560   4.503   9.150  1.1582 -1.2478  0.5769
32452SOL     OW99672   6.934   6.069   2.219 -0.4699 -0.2386 -0.1162
32452SOL    HW199673   6.904   6.015   2.292 -0.6558  0.4685  0.3449
32452SOL    HW299674   6.949   6.008   2.148 -0.6973 -0.8900  0.3888
32453SOL     OW99675   4.302   9.065   2.547  0.0670  0.5203  0.1135
32453SOL    HW199676   4.364   9.111   2.490 -2.6853  1.7821 -2.0808
32453SOL    HW299677   4.358   9.017   2.608  3.1780  3.0703 -0.4416
32454SOL     OW99678   9.062   6.044   3.962 -0.0705 -0.4513  0.5173
32454SOL    HW199679   9.039   6.098   3.886 -0.4037 -1.7172 -0.3168
32454SOL    HW299680   8.983   5.992   3.978  0.5207 -1.2813  0.7708
32455SOL     OW99681   6.836   1.711   0.144 -0.1668 -0.1716 -0.0114
32455SOL    HW199682   6.764   1.688   0.202 -0.4005  1.5106  0.4156
32455SOL    HW299683   6.832   1.806   0.137  1.2708 -0.1469 -0.9573
32456SOL     OW99684   9.649   0.775   8.152  0.0300  0.1550  0.4800
32456SOL    HW199685   9.591   0.849   8.172  0.9620  0.5775  1.7814
32456SOL    HW299686   9.732   0.797   8.194 -0.1433 -2.3702  2.4185
32457SOL     OW99687   4.062   5.675   2.011 -0.2117  0.1190 -0.3711
32457SOL    HW199688   3.978   5.655   1.968  0.2046 -0.9715 -0.7125
32457SOL    HW299689   4.058   5.769   2.029 -1.2683  0.1915 -0.9077
32458SOL     OW99690   8.841   6.532   3.250  0.4004  0.3055  0.2275
32458SOL    HW199691   8.929   6.495   3.254  0.3442  0.1025 -0.3169
32458SOL    HW299692   8.793   6.474   3.191  0.3711  1.3839 -0.8306
32459SOL     OW99693   1.060   1.402   8.313  0.4292  0.2391  0.4373
32459SOL    HW199694   1.027   1.321   8.275 -2.7035  1.6223 -0.1177
32459SOL    HW299695   1.113   1.441   8.243  1.7963 -1.1571  0.6433
32460SOL     OW99696   8.685   5.335   9.995 -0.5310 -0.1127 -0.2985
32460SOL    HW199697   8.596   5.350  10.025 -0.4406 -0.9293  0.4376
32460SOL    HW299698   8.678   5.322   9.901 -1.0890  0.4869 -0.3484
32461SOL     OW99699   0.201   0.579   5.015 -0.5497 -0.0633 -0.0217
32461SOL    HW199700   0.282   0.625   4.993 -0.2331 -1.0708 -1.0510
32461SOL    HW299701   0.156   0.568   4.931 -1.7674  0.4801  0.5358
32462SOL     OW99702   6.997   2.056   3.178  0.0371  0.3240 -0.6919
32462SOL    HW199703   7.060   2.013   3.120 -1.2733 -2.0595 -0.5044
32462SOL    HW299704   6.935   2.098   3.118 -0.7832 -1.3331 -1.0832
32463SOL     OW99705   3.665   3.954   4.782 -0.1768 -0.2425  0.2176
32463SOL    HW199706   3.584   3.998   4.757  0.3458 -0.3508 -1.7883
32463SOL    HW299707   3.655   3.864   4.752 -0.1632 -0.8733  1.9406
32464SOL     OW99708   5.015   6.232   9.791 -0.3115 -0.0002  0.8297
32464SOL    HW199709   5.093   6.193   9.754 -0.3917 -0.7667  1.4437
32464SOL    HW299710   5.043   6.319   9.820 -0.0686  0.3205 -0.2987
32465SOL     OW99711   4.084   5.362   8.744  0.3114  0.0011  0.3006
32465SOL    HW199712   4.062   5.351   8.837  1.6988  0.5722  0.7216
32465SOL    HW299713   4.095   5.273   8.711  2.1356 -0.1748  1.2880
32466SOL     OW99714   5.778   5.559   9.624  0.1476  0.5378 -0.9760
32466SOL    HW199715   5.827   5.589   9.701  0.5872 -0.0682 -1.0136
32466SOL    HW299716   5.816   5.608   9.551  1.5138 -0.7598 -1.1747
32467SOL     OW99717   8.416   0.702   5.721 -0.1586  0.0230 -0.0844
32467SOL    HW199718   8.400   0.609   5.737 -0.8594  0.0482 -0.5921
32467SOL    HW299719   8.509   0.714   5.741 -0.6072 -0.2300  2.4638
32468SOL     OW99720   3.633   8.194   1.375 -0.1000  0.2605  0.0421
32468SOL    HW199721   3.551   8.238   1.396  1.4567  2.1218  3.0828
32468SOL    HW299722   3.659   8.152   1.457  2.4573  0.6354 -0.4858
32469SOL     OW99723   7.979   8.459   1.171  0.3427 -0.1031  0.6897
32469SOL    HW199724   7.963   8.553   1.177 -0.0501  0.0375 -1.6147
32469SOL    HW299725   8.052   8.451   1.109  0.0039 -1.3507  0.4304
32470SOL     OW99726   2.562   1.043   3.719  0.0982  0.6635 -0.4764
32470SOL    HW199727   2.526   0.966   3.763 -1.1569  2.0535  1.0835
32470SOL    HW299728   2.615   1.086   3.786 -1.3711  2.5352 -0.4393
32471SOL     OW99729   4.839   0.673   6.962 -0.4171  0.2518 -0.2391
32471SOL    HW199730   4.758   0.678   7.013  0.1198  1.3098  0.5346
32471SOL    HW299731   4.810   0.647   6.874 -1.4288 -0.8083  0.3883
32472SOL     OW99732   6.174   1.336   7.830  0.1658  0.5111  0.0158
32472SOL    HW199733   6.085   1.344   7.796 -0.1323  1.3553  0.9332
32472SOL    HW299734   6.208   1.426   7.829  0.0754  0.6178  2.0675
32473SOL     OW99735   8.849   3.998   9.991 -0.9048  0.5624 -0.2953
32473SOL    HW199736   8.862   3.923  10.050  1.4143  3.3356  3.1490
32473SOL    HW299737   8.906   3.979   9.916  0.6560 -0.6306  1.1072
32474SOL     OW99738   0.968   3.027   4.778 -0.0052  1.0426  0.4053
32474SOL    HW199739   1.022   3.032   4.857 -0.2462 -0.8759  0.7275
32474SOL    HW299740   1.031   3.037   4.706  0.4100  1.3743  0.7993
32475SOL     OW99741   5.548   1.273   3.406 -0.3226 -0.4150 -0.2011
32475SOL    HW199742   5.478   1.324   3.446  0.1740 -1.6606  2.5381
32475SOL    HW299743   5.627   1.298   3.455  0.6895 -0.8313 -1.5504
32476SOL     OW99744   2.084   7.275   3.939  0.1448 -0.1552 -0.5127
32476SOL    HW199745   2.075   7.237   4.027 -1.2243 -0.8390 -0.9220
32476SOL    HW299746   2.110   7.365   3.954 -0.5115 -0.1406  0.6166
32477SOL     OW99747   9.120   8.469   8.409  0.1234  0.3650 -0.5153
32477SOL    HW199748   9.214   8.451   8.402  0.6298  2.1354  1.0464
32477SOL    HW299749   9.096   8.507   8.325  0.9588  0.5145 -0.6892
32478SOL     OW99750   5.216   2.726  10.001 -0.6692  0.3213  0.2106
32478SOL    HW199751   5.156   2.772  10.059 -1.3290  1.0254 -0.9934
32478SOL    HW299752   5.196   2.633  10.015 -2.3125  0.5423 -0.4181
32479SOL     OW99753   4.562   5.241   2.248 -0.4997 -0.7417 -0.5273
32479SOL    HW199754   4.523   5.248   2.161  0.0883  0.7323 -0.6941
32479SOL    HW299755   4.498   5.281   2.307 -0.5271 -0.9833 -0.3904
32480SOL     OW99756   8.179   8.548   2.751  0.2842 -0.2321  0.0619
32480SOL    HW199757   8.155   8.514   2.838  0.8016 -0.1806  0.2311
32480SOL    HW299758   8.176   8.471   2.694  1.2572 -0.5426  0.4045
32481SOL     OW99759   4.589   6.426   3.923  0.6055 -0.1349  0.8437
32481SOL    HW199760   4.674   6.438   3.882  1.0108 -1.8905  1.0986
32481SOL    HW299761   4.558   6.515   3.941  1.8789  0.5644 -0.2368
32482SOL     OW99762   8.440   5.783   0.126  0.5956 -0.2739 -0.0297
32482SOL    HW199763   8.508   5.748   0.184 -0.6855 -2.5708  0.2049
32482SOL    HW299764   8.484   5.791   0.040  1.1162 -2.0128  0.0387
32483SOL     OW99765   7.768   6.133   9.447  0.1365 -0.6044 -0.7002
32483SOL    HW199766   7.828   6.132   9.372  0.8207 -0.6642 -0.1594
32483SOL    HW299767   7.813   6.186   9.513 -0.7893  0.0590 -0.5883
32484SOL     OW99768   9.508   4.269   4.401  0.3740 -0.2096  0.3494
32484SOL    HW199769   9.544   4.185   4.432  2.2286  0.5650  0.3992
32484SOL    HW299770   9.507   4.261   4.306 -0.7931 -0.7819  0.3839
32485SOL     OW99771   6.301   2.491   3.027  0.2787  0.2860  0.4028
32485SOL    HW199772   6.228   2.497   3.089  1.2786  1.4293  1.5443
32485SOL    HW299773   6.261   2.468   2.944 -1.6193  2.4352  0.6088
32486SOL     OW99774   2.915   4.968  10.348 -0.3500 -0.8314 -0.4438
32486SOL    HW199775   2.981   4.920  10.397 -0.7761 -0.1857  0.8034
32486SOL    HW299776   2.903   5.049  10.397 -2.4854 -1.1792 -0.3095
32487SOL     OW99777   8.535   8.800   2.858  0.5610  0.4046  0.0781
32487SOL    HW199778   8.456   8.766   2.814  1.0405 -0.9373  0.2024
32487SOL    HW299779   8.547   8.742   2.932  1.1279  1.2040  0.6220
32488SOL     OW99780   7.328  10.072   8.127  0.3869 -0.1608 -0.4739
32488SOL    HW199781   7.310  10.017   8.050  2.5404 -1.8824  0.1500
32488SOL    HW299782   7.423  10.065   8.139  0.2064  0.6827  1.8938
32489SOL     OW99783   4.000   9.301   0.852  0.3076 -0.0140 -0.0245
32489SOL    HW199784   3.932   9.286   0.786  1.2516 -1.1811 -0.7668
32489SOL    HW299785   3.951   9.330   0.930 -0.7172  2.9735 -1.6044
32490SOL     OW99786   6.765   1.403  10.291 -0.3876  0.1897 -0.1694
32490SOL    HW199787   6.845   1.449  10.267  0.1187 -0.8646 -0.5691
32490SOL    HW299788   6.733   1.366  10.209  0.1342 -1.5585  0.3687
32491SOL     OW99789   3.082   9.329   4.372 -0.5806 -0.0664  0.4287
32491SOL    HW199790   3.164   9.284   4.392 -0.2457 -0.7436 -2.1450
32491SOL    HW299791   3.046   9.353   4.458  1.9962 -0.2648  1.6494
32492SOL     OW99792   0.011   8.584   2.939  0.2857 -0.0905  0.2058
32492SOL    HW199793   0.035   8.669   2.903 -3.6016  2.2417  2.4578
32492SOL    HW299794   0.078   8.566   3.004  1.2266  1.1888 -0.3621
32493SOL     OW99795   0.103   3.182   9.863  0.3607  0.8934 -0.0792
32493SOL    HW199796   0.020   3.162   9.904  0.0815 -0.2614 -1.1341
32493SOL    HW299797   0.167   3.127   9.908  0.1296 -0.0273 -0.8313
32494SOL     OW99798   1.508   4.120  10.411  0.6736  0.2811  0.4112
32494SOL    HW199799   1.441   4.144  10.348  1.2232 -0.6356 -0.5438
32494SOL    HW299800   1.483   4.031  10.439  1.1637  0.1649  0.4803
32495SOL     OW99801   4.188   0.899   6.571 -0.5101  0.3039  0.1655
32495SOL    HW199802   4.244   0.921   6.496  0.3578 -2.1633  0.0033
32495SOL    HW299803   4.183   0.980   6.622 -0.7446  1.9173 -2.2873
32496SOL     OW99804   4.438   7.219   6.706 -0.2576 -0.3585 -0.2748
32496SOL    HW199805   4.351   7.218   6.746 -1.0293  0.7693 -1.8134
32496SOL    HW299806   4.424   7.256   6.619  1.9851  1.1919 -0.0632
32497SOL     OW99807  10.264   2.186   4.853  0.1090  0.0497 -0.1385
32497SOL    HW199808  10.335   2.247   4.873  0.5073 -0.7339  0.9666
32497SOL    HW299809  10.232   2.158   4.938 -0.2175 -1.1044 -0.6216
32498SOL     OW99810   1.428   5.279   7.845 -0.1671 -0.1957 -0.1533
32498SOL    HW199811   1.354   5.333   7.816 -0.9609  0.0425  2.1026
32498SOL    HW299812   1.387   5.205   7.889  0.9546 -1.0769 -0.5635
32499SOL     OW99813   4.068   5.864   6.334 -0.3675  0.0315  0.0519
32499SOL    HW199814   4.052   5.940   6.389 -1.1180 -1.3819  1.8933
32499SOL    HW299815   3.981   5.841   6.300 -0.2298 -0.2978 -0.0827
32500SOL     OW99816   8.805   5.737   3.401  0.4829  0.2911 -0.4057
32500SOL    HW199817   8.745   5.730   3.475  1.8493  0.2872  0.7627
32500SOL    HW299818   8.874   5.674   3.421  0.4793 -0.2965 -2.1127
32501SOL     OW99819   7.118  10.564   7.816  0.1342  0.1058  0.1872
32501SOL    HW199820   7.156  10.580   7.729  2.3501 -1.1510  0.8674
32501SOL    HW299821   7.082  10.648   7.842 -0.0969  0.6392 -1.7193
32502SOL     OW99822   8.672   1.820   9.702  0.3469 -0.0461  0.1258
32502SOL    HW199823   8.595   1.855   9.747  0.8979 -0.8743  1.8390
32502SOL    HW299824   8.641   1.794   9.616 -0.7939  1.5585  0.0207
32503SOL     OW99825   2.855   3.029   9.065  0.1564  0.1082 -0.1881
32503SOL    HW199826   2.765   3.006   9.091 -0.0907  1.0695 -0.1568
32503SOL    HW299827   2.876   2.968   8.995 -0.4813 -0.1958 -0.1217
32504SOL     OW99828   6.087   9.314   9.149  0.7812  0.3812  0.0818
32504SOL    HW199829   5.993   9.322   9.161  0.8447  0.6930  0.4042
32504SOL    HW299830   6.116   9.402   9.126  1.0907  0.4469  0.7043
32505SOL     OW99831   2.933   4.116   3.907  0.1748  0.1996 -0.1380
32505SOL    HW199832   2.908   4.101   3.998 -0.1216  0.9907 -0.0763
32505SOL    HW299833   3.010   4.062   3.893 -1.6345 -2.5063 -0.3868
32506SOL     OW99834   7.851   6.641   3.492  0.5915  0.2310  0.2030
32506SOL    HW199835   7.898   6.669   3.413 -0.8303  1.2717 -0.3237
32506SOL    HW299836   7.776   6.591   3.460  1.1225 -1.1212  1.0074
32507SOL     OW99837   2.126   6.387   5.933  0.3683 -0.0494  0.4413
32507SOL    HW199838   2.177   6.468   5.936  1.2430 -0.6017  0.7702
32507SOL    HW299839   2.116   6.362   6.025  1.1543 -0.9541  0.2943
32508SOL     OW99840   6.226   1.799   4.644 -0.3645  0.1759  0.1544
32508SOL    HW199841   6.175   1.878   4.629  0.1406  0.4858  0.0488
32508SOL    HW299842   6.289   1.823   4.712  1.0743  0.4558 -1.2204
32509SOL     OW99843   1.966   5.523  10.575 -0.3339 -0.6697 -0.1745
32509SOL    HW199844   1.940   5.447  10.626 -3.0105  0.6706  0.6483
32509SOL    HW299845   2.006   5.583  10.638  0.7275 -0.8919 -0.6070
32510SOL     OW99846   9.555   9.040   2.504  0.8230 -0.0993 -0.1516
32510SOL    HW199847   9.528   8.959   2.461  0.8794 -1.6891  2.5771
32510SOL    HW299848   9.502   9.108   2.463 -2.7307 -2.1771  0.6201
32511SOL     OW99849   3.281   0.522   7.559 -0.3398  0.2112 -0.7039
32511SOL    HW199850   3.220   0.495   7.628 -1.1865  1.3000 -0.9937
32511SOL    HW299851   3.313   0.608   7.589  0.6638 -0.1137 -0.8125
32512SOL     OW99852   5.571   5.635   6.007  0.2296 -0.3090  0.9171
32512SOL    HW199853   5.519   5.704   6.047 -1.1857 -0.3790 -0.6875
32512SOL    HW299854   5.587   5.573   6.078 -0.7158  0.3936  1.7718
32513SOL     OW99855   2.913   4.078   5.628  0.2293  0.4081  0.4796
32513SOL    HW199856   2.984   4.136   5.655  0.7762 -0.1789  0.3429
32513SOL    HW299857   2.835   4.112   5.672  0.7911  0.4464  1.4672
32514SOL     OW99858   8.489   3.754   9.840  0.1814  0.2634 -0.0849
32514SOL    HW199859   8.540   3.673   9.841  0.5609  0.5008  1.4512
32514SOL    HW299860   8.522   3.802   9.763  1.9386  0.1941  0.5799
32515SOL     OW99861  10.444   0.767   0.434  0.4705  0.0385 -0.1309
32515SOL    HW199862  10.414   0.858   0.442  0.7044  0.0489  0.7012
32515SOL    HW299863  10.461   0.739   0.524 -0.0774 -1.0010 -0.3374
32516SOL     OW99864   3.421   0.267   3.036 -0.0630  0.1713  0.3928
32516SOL    HW199865   3.460   0.194   3.084 -0.0831  0.0921  0.2876
32516SOL    HW299866   3.328   0.265   3.059  0.0103  0.4231  0.7258
32517SOL     OW99867   2.471   7.653   0.036 -0.1573  0.0451 -0.7885
32517SOL    HW199868   2.405   7.585   0.034 -0.7739  0.6375 -1.2431
32517SOL    HW299869   2.552   7.608   0.062 -1.1138 -0.3358  1.7483
32518SOL     OW99870   3.467   8.946   1.279 -0.1363 -0.2175 -0.1778
32518SOL    HW199871   3.377   8.956   1.309  0.4525  1.4355  1.2134
32518SOL    HW299872   3.498   9.036   1.264  1.3540 -0.7191 -0.3310
32519SOL     OW99873   7.214  10.429   0.453 -0.4705 -0.0954 -0.0654
32519SOL    HW199874   7.255  10.429   0.539  1.1383 -1.7793 -0.7457
32519SOL    HW299875   7.258  10.498   0.405 -0.9575  0.4527  0.2601
32520SOL     OW99876   8.722   5.156   7.699 -0.5092  0.7595 -0.1454
32520SOL    HW199877   8.735   5.076   7.749 -1.9669  1.0220  0.7076
32520SOL    HW299878   8.644   5.139   7.646  0.2337  0.9737 -1.3253
32521SOL     OW99879   5.186  10.094   4.112 -0.3447 -0.8626 -0.1291
32521SOL    HW199880   5.143  10.057   4.189  1.6362  0.5011  1.7735
32521SOL    HW299881   5.268  10.044   4.104 -0.6183 -1.1145 -1.4948
32522SOL     OW99882  10.299   3.074   0.103 -0.4819 -0.5570  0.0617
32522SOL    HW199883  10.272   2.983   0.108 -0.1325 -0.7297 -0.8633
32522SOL    HW299884  10.351   3.079   0.022  0.7132  0.1500  0.8416
32523SOL     OW99885   2.206   3.280   0.621  0.1625 -0.0335  0.4367
32523SOL    HW199886   2.231   3.218   0.552  1.2111  0.8161  0.0233
32523SOL    HW299887   2.283   3.337   0.630 -0.8813  1.3911  0.5888
32524SOL     OW99888   8.616   6.836   9.229  0.3927 -0.1146 -0.5030
32524SOL    HW199889   8.556   6.889   9.280 -0.5797 -1.1844 -0.4820
32524SOL    HW299890   8.669   6.789   9.293 -0.4901 -1.0812 -0.4575
32525SOL     OW99891   8.884   2.222   6.984  0.0650  0.1722  0.5871
32525SOL    HW199892   8.814   2.280   7.014 -0.1405  0.2117  0.0421
32525SOL    HW299893   8.839   2.142   6.956  0.3436 -0.2495  1.2987
32526SOL     OW99894   7.370   0.992   5.185  0.0851  0.7715 -0.1232
32526SOL    HW199895   7.381   0.982   5.090 -0.9472  1.3531 -0.3261
32526SOL    HW299896   7.438   1.054   5.211  2.0486 -1.2788 -0.0096
32527SOL     OW99897   4.425   1.971   8.112 -0.2296  0.4129  0.1206
32527SOL    HW199898   4.415   2.035   8.041 -1.2914  2.0172  1.6141
32527SOL    HW299899   4.514   1.986   8.145 -0.4679  1.1720  0.4567
32528SOL     OW99900   0.395   9.005   2.821  0.1284  0.0350 -0.4726
32528SOL    HW199901   0.438   8.920   2.823 -0.0148 -0.0498 -0.9763
32528SOL    HW299902   0.461   9.066   2.854  0.2116 -0.2775 -0.0621
32529SOL     OW99903   0.191   0.784   4.337  0.0219  0.1426 -0.4322
32529SOL    HW199904   0.165   0.875   4.353  0.0074  0.0628  0.0241
32529SOL    HW299905   0.271   0.790   4.284 -0.1108  0.4157 -0.6000
32530SOL     OW99906  10.542   5.724   0.398  0.0353 -0.0513 -0.0978
32530SOL    HW199907  10.521   5.690   0.311  0.1217 -0.2703 -0.0329
32530SOL    HW299908  10.619   5.779   0.384  0.8953 -1.1788  0.0592
32531SOL     OW99909   7.090   1.678   3.561 -0.3162  0.2055 -0.1186
32531SOL    HW199910   7.177   1.696   3.525 -0.3246 -0.2708 -0.3876
32531SOL    HW299911   7.030   1.707   3.493 -0.3178 -1.4890 -0.8926
32532SOL     OW99912   2.437   0.145   7.026  0.6168  0.0952 -0.0387
32532SOL    HW199913   2.421   0.231   7.065 -1.4162 -0.4551  0.4816
32532SOL    HW299914   2.453   0.163   6.934  0.4416  1.0479  0.1051
32533SOL     OW99915   3.412   7.851   3.354 -0.1033 -0.1837  0.5856
32533SOL    HW199916   3.379   7.849   3.265  0.1277  3.5997  0.2157
32533SOL    HW299917   3.507   7.840   3.345  0.0355  1.0987  0.1640
32534SOL     OW99918  10.569   6.692   0.436 -0.0991  0.2887  0.0130
32534SOL    HW199919  10.633   6.678   0.366  1.3511  0.4902  1.2455
32534SOL    HW299920  10.545   6.603   0.464 -0.2053  0.2108 -0.3207
32535SOL     OW99921   9.904   6.031   9.245  0.2410 -0.9825 -0.1349
32535SOL    HW199922   9.987   6.055   9.288 -0.2029 -1.9796  1.3415
32535SOL    HW299923   9.920   6.048   9.153  2.1181 -1.1766  0.1107
32536SOL     OW99924   0.977   6.315   1.576 -0.0144  0.4127 -0.2361
32536SOL    HW199925   0.998   6.235   1.527 -0.4541  0.0479  0.1659
32536SOL    HW299926   1.062   6.354   1.596  0.1848  0.3983 -1.0037
32537SOL     OW99927   8.973   2.156   2.516  0.4722 -0.7178 -0.3520
32537SOL    HW199928   8.894   2.133   2.565  1.2228 -0.3328  1.1113
32537SOL    HW299929   8.987   2.082   2.457  0.6752 -2.2410  1.5063
32538SOL     OW99930   3.844   2.887   6.807 -0.3134 -0.0334  0.2819
32538SOL    HW199931   3.909   2.864   6.741 -1.3426 -2.6115  0.0261
32538SOL    HW299932   3.861   2.826   6.879 -0.1109  1.7752  1.8444
32539SOL     OW99933   0.402   7.485   7.512 -0.2804  0.2324 -0.1006
32539SOL    HW199934   0.322   7.535   7.495 -0.9767 -0.1827  1.6905
32539SOL    HW299935   0.472   7.550   7.511 -0.9938  1.0384  0.8059
32540SOL     OW99936   8.133   4.580   0.190  0.1274  0.4977  0.2762
32540SOL    HW199937   8.199   4.512   0.203  0.6783  1.0576  0.4757
32540SOL    HW299938   8.060   4.535   0.148  0.4682 -0.2210  0.4328
32541SOL     OW99939   3.646   9.555   1.102 -0.1269 -0.1243 -0.7673
32541SOL    HW199940   3.565   9.508   1.085 -0.2832  0.3891 -1.4974
32541SOL    HW299941   3.632   9.597   1.187 -0.4063 -0.4824 -0.6318
32542SOL     OW99942   1.938   7.744   9.377 -0.0384 -0.0757  0.5259
32542SOL    HW199943   1.879   7.764   9.450 -1.9425 -0.0155 -0.9381
32542SOL    HW299944   2.001   7.816   9.377  1.1059 -0.9816  3.1164
32543SOL     OW99945   0.184   9.095   5.635 -0.3605  0.2537 -0.5696
32543SOL    HW199946   0.259   9.089   5.695 -1.1272  0.7749  0.4849
32543SOL    HW299947   0.221   9.131   5.554  0.8811 -1.3740 -0.7745
32544SOL     OW99948  10.279   6.359   0.666  0.2911  0.2401  0.1319
32544SOL    HW199949  10.259   6.431   0.725  0.2730  0.4444 -0.1224
32544SOL    HW299950  10.319   6.401   0.590 -0.2413  0.0357 -0.2601
32545SOL     OW99951   2.298   8.157   1.923 -0.4178  0.3231  0.1214
32545SOL    HW199952   2.278   8.096   1.852 -1.6521  0.7623  0.0600
32545SOL    HW299953   2.373   8.207   1.891  1.4731 -1.9723  0.7013
32546SOL     OW99954   3.189   1.210   5.604 -0.2474  0.6312  0.5806
32546SOL    HW199955   3.097   1.236   5.607  0.1820  2.5627 -0.9355
32546SOL    HW299956   3.210   1.186   5.694 -2.1405  0.4763  1.0203
32547SOL     OW99957   9.964   6.023   4.710 -0.3429 -0.0996  0.1273
32547SOL    HW199958  10.008   6.053   4.789  0.8433  1.9129 -1.2062
32547SOL    HW299959   9.999   6.078   4.640 -1.6039 -1.5491 -1.7705
32548SOL     OW99960   7.058   8.004   2.970  0.2743 -0.0710  0.0868
32548SOL    HW199961   7.060   8.078   2.909 -0.7200  0.5527  0.7944
32548SOL    HW299962   7.121   7.942   2.933 -0.9983 -0.1589 -2.1442
32549SOL     OW99963   5.764   5.448   4.591 -0.1085  0.4519 -0.5858
32549SOL    HW199964   5.684   5.461   4.642  0.3144  0.3926  0.1013
32549SOL    HW299965   5.799   5.365   4.622  0.2077  0.4675 -0.9020
32550SOL     OW99966   1.891   8.411   1.017  0.0035 -0.1097  0.8447
32550SOL    HW199967   1.953   8.375   1.080 -0.2524 -1.9841  0.0913
32550SOL    HW299968   1.945   8.444   0.945  0.2436 -2.9232 -0.4367
32551SOL     OW99969   1.062   3.451   0.454 -0.6425  1.2970  0.0507
32551SOL    HW199970   1.131   3.487   0.399 -0.7402 -1.6126 -2.2374
32551SOL    HW299971   1.104   3.380   0.503 -1.4385  1.2739  0.7333
32552SOL     OW99972   6.598   8.958   5.213 -0.3042 -0.0437  0.0151
32552SOL    HW199973   6.691   8.973   5.233 -0.7201  0.3497  1.7314
32552SOL    HW299974   6.585   9.004   5.130  1.5570 -2.0468 -1.5302
32553SOL     OW99975   4.637  10.467   7.624  0.2174 -0.1807 -0.0897
32553SOL    HW199976   4.708  10.477   7.688  0.5422 -0.8780 -0.3390
32553SOL    HW299977   4.657  10.532   7.557 -0.3371  0.8302  0.6916
32554SOL     OW99978   6.694   9.636   3.717  0.7065  0.1443  0.0982
32554SOL    HW199979   6.706   9.542   3.728  0.2632  0.2121  1.2010
32554SOL    HW299980   6.781   9.668   3.691  1.6563 -0.1730  2.6036
32555SOL     OW99981   7.441   6.069   9.023 -0.2776 -0.1800  0.2285
32555SOL    HW199982   7.384   6.021   9.084 -0.6640 -1.1405 -0.8481
32555SOL    HW299983   7.464   6.149   9.069 -1.2322 -0.5034  1.3065
32556SOL     OW99984   5.227   2.560   2.329 -0.5992 -0.1192 -0.0701
32556SOL    HW199985   5.140   2.586   2.297 -0.1472  0.3145 -0.9910
32556SOL    HW299986   5.214   2.540   2.421 -2.1064 -1.9864 -0.6181
32557SOL     OW99987   0.642   4.415   8.476 -0.6713  0.0870  0.5071
32557SOL    HW199988   0.554   4.450   8.489 -0.8451  0.3267 -1.1433
32557SOL    HW299989   0.701   4.489   8.493 -1.0201  1.2478 -2.5938
32558SOL     OW99990   2.479   0.113   3.253 -0.2590 -0.3747 -0.0910
32558SOL    HW199991   2.488   0.116   3.348 -1.8179 -1.8648  0.1454
32558SOL    HW299992   2.534   0.039   3.226 -0.4404 -0.4497 -0.2557
32559SOL     OW99993   8.920   0.659   7.600 -0.7485  0.1073 -0.1445
32559SOL    HW199994   8.984   0.649   7.530 -1.5370 -1.2737 -0.7113
32559SOL    HW299995   8.851   0.714   7.562 -0.2808  0.9696  0.2179
32560SOL     OW99996   5.286   9.184   7.062  0.5378  0.3542  0.5845
32560SOL    HW199997   5.276   9.091   7.040  1.8551  0.4450 -0.5339
32560SOL    HW299998   5.377   9.193   7.090  0.6154  1.4153  0.0594
32561SOL     OW99999   8.111   1.181   4.945  0.2996  0.2080 -0.0782
32561SOL    HW1    0   8.060   1.100   4.945  1.2023 -0.4143 -1.7645
32561SOL    HW2    1   8.193   1.158   4.990 -0.4589  0.9419  1.7707
32562SOL     OW    2   3.003   1.839   2.284 -0.3213 -0.6170 -0.1407
32562SOL    HW1    3   2.932   1.871   2.229 -0.7696  2.1996  1.8238
32562SOL    HW2    4   2.960   1.784   2.349 -0.8856  1.2772  1.1944
32563SOL     OW    5   2.841   1.563   0.517 -0.3856 -0.4524 -0.2425
32563SOL    HW1    6   2.787   1.631   0.477  2.4377  2.9043  1.1188
32563SOL    HW2    7   2.903   1.538   0.449  0.2452  0.3935 -0.0036
32564SOL     OW    8   2.565   1.259  10.361  0.6114 -0.0615  0.2006
32564SOL    HW1    9   2.495   1.239  10.423 -0.2560 -1.8292 -1.2469
32564SOL    HW2   10   2.618   1.180  10.358  1.3775  0.4530 -0.3767
32565SOL     OW   11   3.406  10.313   5.478  0.1586 -0.2334 -0.3196
32565SOL    HW1   12   3.314  10.338   5.474  0.2770  0.8177  2.1254
32565SOL    HW2   13   3.406  10.230   5.525  0.6212  1.7819  3.6160
32566SOL     OW   14   9.893   6.714   7.368  0.1260  0.4979 -0.0337
32566SOL    HW1   15   9.970   6.661   7.389 -1.8701 -2.5046  0.3502
32566SOL    HW2   16   9.899   6.789   7.427  1.8110 -0.5872  1.2839
32567SOL     OW   17   3.681   3.972   6.234 -0.0267  0.1478  0.4206
32567SOL    HW1   18   3.682   3.908   6.162 -0.9955  1.4029 -0.7557
32567SOL    HW2   19   3.658   4.055   6.192  0.1194  1.0695  2.0864
32568SOL     OW   20   2.086   1.354   1.265 -0.2148  0.1536  0.4560
32568SOL    HW1   21   2.147   1.419   1.230  0.5348  0.2028  1.8025
32568SOL    HW2   22   2.126   1.270   1.245 -1.2009  0.0450 -1.3156
32569SOL     OW   23   6.664   5.395   2.818 -0.1537 -0.0817 -0.3580
32569SOL    HW1   24   6.568   5.395   2.814 -0.1566 -0.0680 -0.2813
32569SOL    HW2   25   6.684   5.431   2.904 -0.0985 -1.0684  0.0551
32570SOL     OW   26   9.880   1.120   6.104 -0.5305 -0.2326  0.5719
32570SOL    HW1   27   9.863   1.134   6.011  0.2511  0.2165  0.4834
32570SOL    HW2   28   9.823   1.183   6.149 -0.5826 -0.1407  0.3766
32571SOL     OW   29   4.990   0.647   6.513 -0.5238  0.5959  0.4535
32571SOL    HW1   30   5.004   0.608   6.599  1.0826 -0.0664 -0.0709
32571SOL    HW2   31   5.029   0.585   6.451 -2.1689  0.7654 -0.8272
32572SOL     OW   32   7.935   4.050   2.857 -0.1534  0.1643 -0.0485
32572SOL    HW1   33   7.906   4.133   2.894 -0.0663 -0.0087  0.4259
32572SOL    HW2   34   7.930   4.061   2.762 -0.4135  0.6112  0.0193
32573SOL     OW   35   9.791   4.514   3.863 -0.5779  0.2118 -0.0622
32573SOL    HW1   36   9.819   4.606   3.863  1.0680 -0.2331 -1.4769
32573SOL    HW2   37   9.847   4.472   3.928 -0.2331 -0.0768 -0.5412
32574SOL     OW   38   1.348   8.298   9.779  0.1638  0.3466  0.3743
32574SOL    HW1   39   1.290   8.299   9.702  1.7427  2.6994 -0.9305
32574SOL    HW2   40   1.312   8.365   9.837  1.3164  1.6650 -0.3451
32575SOL     OW   41   7.469   1.665   3.911  0.0583 -0.9580  0.2168
32575SOL    HW1   42   7.384   1.642   3.873 -0.3310  0.5204  0.0938
32575SOL    HW2   43   7.514   1.713   3.841  0.6292 -0.9711  0.5705
32576SOL     OW   44   4.719   5.345   3.130  0.2579  0.0135 -0.5616
32576SOL    HW1   45   4.712   5.266   3.183  0.0519  1.7964  2.2327
32576SOL    HW2   46   4.814   5.361   3.123  0.3289 -0.7515 -1.6643
32577SOL     OW   47   5.210   6.660   8.382 -0.0212  0.4380 -0.5957
32577SOL    HW1   48   5.259   6.598   8.435  2.0626  2.9551  0.6647
32577SOL    HW2   49   5.125   6.619   8.369  1.8924 -3.6847 -1.8964
32578SOL     OW   50   6.559   9.590   1.270 -0.5880 -0.3659  0.0813
32578SOL    HW1   51   6.489   9.653   1.283  0.6375  0.9107  0.7891
32578SOL    HW2   52   6.612   9.626   1.199  0.4014 -0.3074  0.8205
32579SOL     OW   53   7.908   1.051   3.888  0.1218  0.7525 -0.0382
32579SOL    HW1   54   7.912   1.145   3.872 -2.5125  0.6714 -1.8738
32579SOL    HW2   55   7.866   1.043   3.974  0.3666  1.2218  0.1300
32580SOL     OW   56   9.676   5.092   3.784  0.5189  0.1655 -0.1631
32580SOL    HW1   57   9.688   5.153   3.857 -0.0362 -0.4935  0.4865
32580SOL    HW2   58   9.595   5.121   3.742  0.5502  0.2076 -0.1943
32581SOL     OW   59   3.235   6.087  10.369  0.2254 -0.0341 -0.1494
32581SOL    HW1   60   3.215   6.180  10.358  0.1040 -0.1811 -1.2575
32581SOL    HW2   61   3.258   6.079  10.461 -4.6460  0.1969  1.3621
32582SOL     OW   62   7.011   4.688   3.257  0.1194 -0.2524  0.1018
32582SOL    HW1   63   7.102   4.662   3.268  0.0697 -0.4974 -0.0418
32582SOL    HW2   64   6.961   4.619   3.300  0.0115  0.0356  0.4396
32583SOL     OW   65   3.747   8.555  10.455  0.2500  0.1726 -0.8940
32583SOL    HW1   66   3.711   8.474  10.418 -1.3769  0.8226 -0.7750
32583SOL    HW2   67   3.729   8.622  10.389  0.7900  0.6134 -0.5978
32584SOL     OW   68   7.254   3.978   0.651 -0.4737 -0.0180  0.5758
32584SOL    HW1   69   7.321   4.009   0.712 -1.0865  0.5130  0.9848
32584SOL    HW2   70   7.304   3.935   0.581  0.4483  2.1466 -0.1833
32585SOL     OW   71   2.659   8.714   2.722  0.3495 -0.3017  0.0111
32585SOL    HW1   72   2.746   8.698   2.684 -0.0464  0.2326 -1.1607
32585SOL    HW2   73   2.628   8.627   2.747  1.4268 -0.4484  0.9485
32586SOL     OW   74   0.787   2.143   4.135 -0.6889  0.3338 -0.1006
32586SOL    HW1   75   0.750   2.066   4.178 -0.4825  0.5632  0.4898
32586SOL    HW2   76   0.853   2.107   4.075 -0.8910  0.0247 -0.1429
32587SOL     OW   77   5.567   6.862   3.590  0.1870 -0.0836  0.2838
32587SOL    HW1   78   5.525   6.833   3.509  1.4801 -0.0267 -0.4233
32587SOL    HW2   79   5.659   6.873   3.568  0.3299  1.2931  1.4078
32588SOL     OW   80   5.186   5.323   9.816  0.5584  0.4472 -0.1802
32588SOL    HW1   81   5.222   5.316   9.904  1.0300 -1.0881 -0.4701
32588SOL    HW2   82   5.263   5.333   9.760  0.2071  3.5279 -0.3234
32589SOL     OW   83  10.134   8.581   9.516 -0.3982  0.5950  0.3765
32589SOL    HW1   84  10.184   8.658   9.490 -0.2995 -0.0694 -1.6325
32589SOL    HW2   85  10.078   8.611   9.587  1.0409  1.9968  0.9836
32590SOL     OW   86   1.441   6.683  10.024 -0.6844  0.5783 -0.5691
32590SOL    HW1   87   1.394   6.736  10.088  0.4181  0.4158  0.4047
32590SOL    HW2   88   1.514   6.738   9.995 -0.0536 -0.0476 -0.2174
32591SOL     OW   89   0.438   1.330   3.454 -0.3700 -0.3597  0.3111
32591SOL    HW1   90   0.483   1.402   3.498 -2.8684  0.0279  2.5053
32591SOL    HW2   91   0.413   1.270   3.525 -2.6764 -0.8503 -0.8142
32592SOL     OW   92   0.753   5.475   1.291 -0.2133 -0.5635 -0.0293
32592SOL    HW1   93   0.672   5.484   1.241 -0.7152 -1.0372  0.6732
32592SOL    HW2   94   0.725   5.442   1.376  0.5939  0.4421  0.6497
32593SOL     OW   95   6.608   4.974   5.285 -0.0190  0.0842 -0.1384
32593SOL    HW1   96   6.632   4.927   5.205 -2.2466 -0.1917 -0.6958
32593SOL    HW2   97   6.577   4.906   5.344 -0.4104  0.5351  0.1740
32594SOL     OW   98   1.074   3.023   6.621  0.5853  0.1885 -0.0138
32594SOL    HW1   99   1.107   2.954   6.563  1.2692 -0.3495  0.9972
32594SOL    HW2  100   1.129   3.099   6.601  0.9466 -0.0509  0.0576
32595SOL     OW  101   4.545   1.033   6.489  0.7101  0.1227 -0.0962
32595SOL    HW1  102   4.519   1.117   6.527  1.3890  0.4485 -0.3270
32595SOL    HW2  103   4.469   1.003   6.440 -0.5553 -0.7780  2.2520
32596SOL     OW  104   7.015  10.262   7.107  0.2413  0.4569 -0.2940
32596SOL    HW1  105   6.934  10.281   7.153  0.3072 -0.2146  0.1116
32596SOL    HW2  106   6.987  10.223   7.024  0.1289  1.3862 -0.6950
32597SOL     OW  107   6.166   4.178   7.049 -0.0461 -0.0022  0.0725
32597SOL    HW1  108   6.134   4.138   6.969 -1.1393  1.8159 -0.4579
32597SOL    HW2  109   6.151   4.112   7.117  2.8148 -2.4271 -1.4344
32598SOL     OW  110   8.669   4.097   2.518 -0.0700  0.0857  0.1640
32598SOL    HW1  111   8.592   4.040   2.520  0.9733 -1.3982  2.9294
32598SOL    HW2  112   8.744   4.037   2.514  1.0124  1.3231  0.8615
32599SOL     OW  113   9.543   3.134   2.364 -0.5024  0.0210 -0.6533
32599SOL    HW1  114   9.549   3.226   2.389 -1.4921  0.2845 -1.3750
32599SOL    HW2  115   9.462   3.127   2.314 -1.1883 -1.5174  0.5788
32600SOL     OW  116   5.782   5.544   2.614 -0.2948 -0.4022  0.0756
32600SOL    HW1  117   5.745   5.512   2.532 -2.5441  0.9908  0.4505
32600SOL    HW2  118   5.824   5.626   2.590  0.5359 -0.8252  0.0561
32601SOL     OW  119   6.376   6.430   1.359  0.2424  0.2045 -0.2977
32601SOL    HW1  120   6.339   6.515   1.336  2.2652  1.1595 -0.2664
32601SOL    HW2  121   6.449   6.451   1.417  0.3322 -1.6253  0.3154
32602SOL     OW  122   8.664   9.771   0.828 -0.2244 -0.2249 -0.3639
32602SOL    HW1  123   8.702   9.710   0.764 -0.5086 -1.6502  0.7592
32602SOL    HW2  124   8.690   9.857   0.798  0.3380 -0.9078 -1.9424
32603SOL     OW  125   2.660  10.565   4.846  0.5394  0.1720  0.0730
32603SOL    HW1  126   2.616  10.649   4.857  0.8655  0.4389 -0.6415
32603SOL    HW2  127   2.701  10.548   4.931 -1.7913 -0.6046  1.1209
32604SOL     OW  128   1.431   2.311   5.430 -0.5243 -0.4062  0.5501
32604SOL    HW1  129   1.414   2.373   5.502 -0.8774 -0.2364  0.3202
32604SOL    HW2  130   1.457   2.230   5.475  2.2744  0.5300  0.8520
32605SOL     OW  131   3.597   4.172   9.204 -0.0508  0.6089  0.5753
32605SOL    HW1  132   3.649   4.247   9.174 -0.9147  0.7059 -0.8188
32605SOL    HW2  133   3.507   4.194   9.177 -0.5039 -0.4042  1.2055
32606SOL     OW  134   3.280   6.053   0.051  0.4971  0.5950  0.4904
32606SOL    HW1  135   3.363   6.100   0.065 -0.0102  2.0033 -0.9399
32606SOL    HW2  136   3.249   6.033   0.139  2.5308 -0.3174  1.0601
32607SOL     OW  137   7.356   5.396   4.836 -0.4448  0.1989 -0.1966
32607SOL    HW1  138   7.387   5.484   4.858 -0.9538  0.2289  0.4436
32607SOL    HW2  139   7.402   5.374   4.755  0.9393  0.3853  0.5117
32608SOL     OW  140   1.179   6.203   9.995 -0.2843 -0.1638  0.3263
32608SOL    HW1  141   1.124   6.280  10.010  0.6179  0.4168  0.7961
32608SOL    HW2  142   1.118   6.132   9.977 -1.1069  0.9266 -1.4385
32609SOL     OW  143   9.040   1.913   6.131 -0.0148  0.0579 -0.0979
32609SOL    HW1  144   9.047   1.950   6.218  3.5928 -1.7065  0.5659
32609SOL    HW2  145   9.107   1.959   6.080 -1.1807  0.1562 -1.6032
32610SOL     OW  146   8.326   8.002   1.528  0.3599 -0.2527  0.7172
32610SOL    HW1  147   8.293   8.018   1.440 -0.0854 -0.7041  0.8035
32610SOL    HW2  148   8.280   8.066   1.582  0.8499  0.2211  0.5798
32611SOL     OW  149   1.313   4.890   4.657 -0.6234  0.6436  0.1116
32611SOL    HW1  150   1.258   4.814   4.678 -2.7789  2.7666  2.9416
32611SOL    HW2  151   1.320   4.889   4.561  0.9166 -3.9511  0.0261
32612SOL     OW  152   1.747   6.377   2.897 -0.9876 -0.0210 -0.0192
32612SOL    HW1  153   1.739   6.470   2.916 -2.4293  0.0222 -0.6999
32612SOL    HW2  154   1.778   6.374   2.806  1.0825 -0.2343  0.6369
32613SOL     OW  155   6.932   9.043   6.713  0.3115  0.4327  0.3180
32613SOL    HW1  156   6.959   8.953   6.692  0.1087  0.4586 -0.0639
32613SOL    HW2  157   6.919   9.042   6.808  0.4405  0.0928  0.3359
32614SOL     OW  158   7.245  10.331   8.999 -0.1027  0.5026 -0.1897
32614SOL    HW1  159   7.281  10.280   8.927 -1.2802  0.5485 -0.8462
32614SOL    HW2  160   7.313  10.394   9.021  0.7054 -0.2394 -0.5132
32615SOL     OW  161   4.649  10.051   2.845  0.2379  0.5192  0.4453
32615SOL    HW1  162   4.580   9.994   2.810 -0.3096  0.4799  1.5283
32615SOL    HW2  163   4.718   9.990   2.872 -0.7992  0.2091  2.6125
32616SOL     OW  164   7.876   5.353   4.095 -0.0911  0.4287  0.4291
32616SOL    HW1  165   7.960   5.308   4.106 -0.4348 -0.8211 -1.5201
32616SOL    HW2  166   7.899   5.441   4.066  0.5550  0.1589  0.0950
32617SOL     OW  167   1.617   2.969   1.743  0.3923 -0.2397 -0.0219
32617SOL    HW1  168   1.653   3.015   1.668  2.0378 -0.2741  0.7056
32617SOL    HW2  169   1.658   3.011   1.819 -0.0567 -1.2002  0.7736
32618SOL     OW  170  10.527   5.542   2.964  0.2929 -0.2417  0.6241
32618SOL    HW1  171  10.460   5.562   3.029 -0.7481 -1.8002  0.0792
32618SOL    HW2  172  10.484   5.555   2.880  0.5937 -1.4645  0.2667
32619SOL     OW  173   5.907   8.048   3.846 -0.6200 -0.1271 -0.3537
32619SOL    HW1  174   5.975   8.010   3.903  0.4303  2.7835  0.4893
32619SOL    HW2  175   5.830   8.055   3.902 -0.8786 -1.0978 -0.5672
32620SOL     OW  176   9.715   4.381   6.200 -0.1670 -1.0022 -0.0493
32620SOL    HW1  177   9.682   4.451   6.256 -0.3945 -0.8659 -0.3538
32620SOL    HW2  178   9.639   4.325   6.184  0.2746 -2.0152  1.2089
32621SOL     OW  179   6.639   5.638   6.478 -0.1830  0.0558 -0.4728
32621SOL    HW1  180   6.612   5.547   6.464 -1.5738  0.1919  0.9825
32621SOL    HW2  181   6.583   5.689   6.420 -1.2310  0.1326  0.5600
32622SOL     OW  182  10.478   0.055   0.882 -0.1417  0.0725 -0.1837
32622SOL    HW1  183  10.447   0.145   0.875  1.8290  0.6998 -1.7553
32622SOL    HW2  184  10.412   0.003   0.836 -0.3531  0.9758 -0.9182
32623SOL     OW  185   7.743   3.049   8.794  0.3647  0.0253 -0.0675
32623SOL    HW1  186   7.671   2.991   8.818  0.0413  0.0510 -0.9227
32623SOL    HW2  187   7.791   3.064   8.876 -0.7186  0.1806  0.5616
32624SOL     OW  188   6.403   0.507   0.949  0.2677  0.1089 -0.4354
32624SOL    HW1  189   6.466   0.566   0.989  1.4006 -0.8977 -0.6713
32624SOL    HW2  190   6.340   0.487   1.019  0.7281  0.4200  0.0730
32625SOL     OW  191   4.396   6.446   4.410 -0.2840  0.3422 -0.3649
32625SOL    HW1  192   4.412   6.435   4.504  2.9609  0.7895 -0.7648
32625SOL    HW2  193   4.471   6.405   4.368 -1.3378  0.7381 -2.7855
32626SOL     OW  194   6.223   7.503   4.736  0.2611 -0.6164  0.2662
32626SOL    HW1  195   6.311   7.470   4.717  0.5488 -1.0100  2.0763
32626SOL    HW2  196   6.179   7.505   4.651  1.3351 -2.4655 -0.3981
32627SOL     OW  197   4.946   4.688   1.017  0.1666 -0.2347  0.2759
32627SOL    HW1  198   5.036   4.704   0.987 -0.2531  0.7564 -0.5134
32627SOL    HW2  199   4.949   4.599   1.054  2.0190  0.6550  2.4857
32628SOL     OW  200   0.944   2.669   9.075 -0.0351  0.2931 -0.4281
32628SOL    HW1  201   0.948   2.759   9.044  0.3597  0.6563  0.6337
32628SOL    HW2  202   0.886   2.624   9.013 -1.5307  1.6539 -0.0588
32629SOL     OW  203   9.181   7.668   3.862 -0.4410 -0.6097  0.3708
32629SOL    HW1  204   9.129   7.588   3.848 -0.8346 -0.0753 -1.4091
32629SOL    HW2  205   9.232   7.679   3.782 -1.0891  1.4284  0.1808
32630SOL     OW  206   3.266   7.974   3.870  0.3926 -0.1328 -0.1761
32630SOL    HW1  207   3.175   7.956   3.896  1.0339 -2.6460  0.6002
32630SOL    HW2  208   3.279   8.067   3.893 -1.4216 -0.1912  1.4011
32631SOL     OW  209   5.009   0.598   4.812  0.2604 -0.3574  0.2033
32631SOL    HW1  210   4.977   0.538   4.745  0.6737  0.4374 -0.7358
32631SOL    HW2  211   5.068   0.545   4.866 -1.7093 -1.5656  1.2939
32632SOL     OW  212   1.794   2.525   0.615 -0.2180  0.3748 -0.4124
32632SOL    HW1  213   1.828   2.595   0.672  0.8678  0.0392 -0.6461
32632SOL    HW2  214   1.699   2.530   0.628 -0.0009  0.1802  1.5859
32633SOL     OW  215   4.693   9.750   5.877 -0.5150  0.0051 -0.8889
32633SOL    HW1  216   4.774   9.741   5.928 -0.5830 -0.1451 -0.8114
32633SOL    HW2  217   4.623   9.736   5.940 -0.6016  0.0391 -0.9783
32634SOL     OW  218   5.502   0.378   9.524  0.3417 -0.0750  0.2942
32634SOL    HW1  219   5.451   0.381   9.605 -0.1725  1.5453 -0.0562
32634SOL    HW2  220   5.438   0.395   9.454  1.2104  1.2212 -0.2183
32635SOL     OW  221   0.394   7.829   6.119 -0.3771  0.0687 -0.1138
32635SOL    HW1  222   0.414   7.819   6.212  3.8899 -1.9419 -0.9965
32635SOL    HW2  223   0.358   7.745   6.093  2.6091 -1.0855 -0.9479
32636SOL     OW  224   5.624   0.458   8.313 -0.4449  0.0889 -0.4394
32636SOL    HW1  225   5.663   0.373   8.335  0.8585  0.5378 -0.8952
32636SOL    HW2  226   5.649   0.515   8.386 -1.9992 -0.0868  0.2655
32637SOL     OW  227   9.222   4.601   9.621  0.0737  0.1789 -0.1433
32637SOL    HW1  228   9.247   4.532   9.560  1.8770  0.6736 -0.0275
32637SOL    HW2  229   9.129   4.585   9.639  0.0905 -1.3394 -1.2225
32638SOL     OW  230   9.360   6.171   5.634  0.0927  0.4763  0.2917
32638SOL    HW1  231   9.371   6.166   5.729  2.3419  1.8873  0.1990
32638SOL    HW2  232   9.272   6.207   5.622 -1.4876 -2.5573  1.6620
32639SOL     OW  233   1.596   5.312   5.987 -0.0823  0.6168 -0.2949
32639SOL    HW1  234   1.687   5.338   6.006 -0.7037  1.2968  2.0624
32639SOL    HW2  235   1.551   5.395   5.970 -0.6836  0.4879  0.6234
32640SOL     OW  236   1.062   3.676   4.935  0.4804  0.4702 -0.7642
32640SOL    HW1  237   1.066   3.581   4.929 -0.3467  0.3763 -0.0982
32640SOL    HW2  238   0.981   3.693   4.984  1.5589  1.4328  0.7906
32641SOL     OW  239   3.985   6.204   0.707  0.5884  0.3775 -0.0570
32641SOL    HW1  240   4.021   6.136   0.651  1.4256  0.1466  0.7549
32641SOL    HW2  241   3.896   6.175   0.726  0.4984  0.1672 -0.7755
32642SOL     OW  242   0.442   6.224   7.337  0.2554  0.1933 -0.0720
32642SOL    HW1  243   0.397   6.152   7.381  0.7817  0.1869  0.4692
32642SOL    HW2  244   0.496   6.263   7.405  2.6810 -1.0816 -1.1459
32643SOL     OW  245   4.268   7.375   0.425  0.0425  0.0053  0.4373
32643SOL    HW1  246   4.346   7.426   0.402  0.5715 -1.2025 -0.5665
32643SOL    HW2  247   4.219   7.368   0.343 -0.4699 -0.3383  0.7636
32644SOL     OW  248   9.374   0.952  10.120  0.1498  0.2132 -0.5703
32644SOL    HW1  249   9.449   0.973  10.064 -1.0471  1.4421 -1.7830
32644SOL    HW2  250   9.309   1.018  10.099 -0.5216  0.5017  2.0433
32645SOL     OW  251   3.696   5.970   7.960  0.4321 -0.0095  0.6235
32645SOL    HW1  252   3.681   6.029   8.034 -0.6681 -0.4422  0.7561
32645SOL    HW2  253   3.672   5.883   7.992 -2.8100  0.1318 -0.9749
32646SOL     OW  254   9.271   4.035   9.322  0.6200 -0.1454 -0.0491
32646SOL    HW1  255   9.313   4.111   9.282  0.7018 -0.5938 -0.8367
32646SOL    HW2  256   9.342   3.973   9.337  0.4555 -0.3362 -0.0491
32647SOL     OW  257   6.129   8.486   2.938  0.3930 -0.2815  0.5669
32647SOL    HW1  258   6.036   8.501   2.955  0.3220 -0.4379  0.3262
32647SOL    HW2  259   6.131   8.419   2.869  0.6720  0.2284  0.0623
32648SOL     OW  260   7.005   7.360   8.285 -0.1245  0.6765 -0.1912
32648SOL    HW1  261   6.959   7.394   8.209 -0.5569  0.2236 -0.1355
32648SOL    HW2  262   7.093   7.339   8.252 -0.7928 -1.0474 -0.9869
32649SOL     OW  263   3.893   6.019   4.029 -0.9818 -0.2139 -0.1581
32649SOL    HW1  264   3.833   5.948   4.053 -0.0764 -0.7701  0.4953
32649SOL    HW2  265   3.927   6.051   4.112 -0.6207  0.3325 -0.5092
32650SOL     OW  266   2.482   6.201   4.529  0.2032  0.7171  0.0414
32650SOL    HW1  267   2.396   6.209   4.489  0.4541  1.5903 -0.3648
32650SOL    HW2  268   2.516   6.117   4.499 -0.3025  0.5966 -0.1973
32651SOL     OW  269   4.367   3.187   4.645 -0.1413  0.2704 -0.1509
32651SOL    HW1  270   4.437   3.173   4.581 -0.0631  0.0106 -0.0087
32651SOL    HW2  271   4.296   3.128   4.616  0.1040 -0.2621  0.3173
32652SOL     OW  272   3.259   2.219   0.798  0.0877  0.5564  0.6003
32652SOL    HW1  273   3.312   2.143   0.769  1.5612  1.2619  1.3201
32652SOL    HW2  274   3.301   2.294   0.755 -1.2083  1.0070  0.0943
32653SOL     OW  275   6.678   3.555   0.560 -0.2298  0.5151 -0.2157
32653SOL    HW1  276   6.761   3.535   0.603 -0.9702  2.6191  2.4198
32653SOL    HW2  277   6.698   3.627   0.501 -0.2184  1.2049  0.6211
32654SOL     OW  278   6.772   6.038   0.268 -0.6412 -0.1391 -0.9086
32654SOL    HW1  279   6.766   6.078   0.355 -0.9196  2.1631 -1.9240
32654SOL    HW2  280   6.806   5.950   0.285  2.8404  1.3999  1.2748
32655SOL     OW  281   0.856   9.283   1.880  0.3531 -0.2873 -0.2694
32655SOL    HW1  282   0.928   9.342   1.905  0.4849 -0.1924 -0.8440
32655SOL    HW2  283   0.803   9.335   1.819  1.0023 -1.0617 -1.5443
32656SOL     OW  284   3.330   2.846   4.633 -0.2840 -0.5853  0.8577
32656SOL    HW1  285   3.286   2.892   4.561  1.0725  0.3996  0.6166
32656SOL    HW2  286   3.375   2.773   4.590  0.8416  0.2240  0.6053
32657SOL     OW  287   2.820   5.870  10.140 -1.0145  0.0308 -0.1408
32657SOL    HW1  288   2.907   5.856  10.103 -1.0927  1.0287 -0.7384
32657SOL    HW2  289   2.835   5.925  10.216 -1.0545 -0.3880  0.1717
32658SOL     OW  290   5.666   6.263   7.677  0.1758  0.0231 -0.2338
32658SOL    HW1  291   5.681   6.209   7.754 -0.1117 -1.6377 -1.2777
32658SOL    HW2  292   5.619   6.205   7.616  1.6658  0.7669 -2.2244
32659SOL     OW  293   7.739   8.214   2.916 -0.2782 -0.4976 -0.0800
32659SOL    HW1  294   7.806   8.168   2.967  0.2648 -0.5532 -0.8318
32659SOL    HW2  295   7.722   8.157   2.842 -1.0895 -0.4296  0.0498
32660SOL     OW  296   5.875   1.224   7.075  0.8192 -0.2268 -0.8365
32660SOL    HW1  297   5.853   1.132   7.058 -0.1986 -0.1012 -0.2653
32660SOL    HW2  298   5.873   1.265   6.988  0.5407 -0.5876 -1.0059
32661SOL     OW  299   8.775   5.021   1.772  0.4628  0.9118 -0.3040
32661SOL    HW1  300   8.772   4.964   1.695 -0.6493  0.2413  0.2109
32661SOL    HW2  301   8.690   5.065   1.773  0.6650  1.3095  0.2503
32662SOL     OW  302   3.288   1.026   4.802  0.2670  0.3584  0.5101
32662SOL    HW1  303   3.376   1.006   4.770  0.1045 -2.1854  1.4316
32662SOL    HW2  304   3.290   1.004   4.895 -1.7743 -1.5442  0.1883
32663SOL     OW  305   2.493   5.176   0.380 -0.2481 -0.4133  0.0521
32663SOL    HW1  306   2.564   5.152   0.439 -1.2641 -0.9447  1.1158
32663SOL    HW2  307   2.521   5.144   0.294  1.0771  0.0003  0.3075
32664SOL     OW  308   0.638   6.149   4.054 -0.2178  0.2577  1.2645
32664SOL    HW1  309   0.552   6.185   4.031 -0.0047 -0.9561 -2.0896
32664SOL    HW2  310   0.700   6.212   4.016  0.1842 -1.4969 -1.2673
32665SOL     OW  311   4.922   3.530   2.141  0.6559 -0.2775  0.8548
32665SOL    HW1  312   4.999   3.583   2.122  0.0012 -0.0597 -1.4192
32665SOL    HW2  313   4.899   3.489   2.058 -2.2203  0.3894  1.2009
32666SOL     OW  314   8.001   2.915   4.040  0.7313 -0.1296 -0.2056
32666SOL    HW1  315   8.001   2.861   3.960  0.4027 -0.7306  0.1841
32666SOL    HW2  316   7.908   2.922   4.063  0.7351  0.9461 -0.4609
32667SOL     OW  317   0.330   9.172   8.466 -0.3965 -0.2155  0.1903
32667SOL    HW1  318   0.331   9.267   8.458 -3.1531  0.0969  2.0131
32667SOL    HW2  319   0.356   9.140   8.380  0.0484  2.1775 -0.6427
32668SOL     OW  320  10.111   8.355   8.822 -0.4187 -0.2143  0.2177
32668SOL    HW1  321  10.104   8.444   8.857  0.7153  0.6449 -1.5965
32668SOL    HW2  322  10.164   8.364   8.744 -0.6333 -2.4543 -0.2573
32669SOL     OW  323   9.451   2.541   5.782 -0.1141  0.0234  0.2995
32669SOL    HW1  324   9.440   2.588   5.699 -2.7807 -0.0638  0.5130
32669SOL    HW2  325   9.379   2.572   5.836  0.5992 -1.1743  2.0008
32670SOL     OW  326  10.258   1.611  10.423  0.0506 -0.5551  0.0934
32670SOL    HW1  327  10.231   1.581  10.510 -0.2240  0.0539  0.2258
32670SOL    HW2  328  10.309   1.538  10.387  1.4066 -0.2635  1.3327
32671SOL     OW  329   1.683   6.685   0.613 -0.1962  0.1854  0.5682
32671SOL    HW1  330   1.723   6.621   0.555 -0.2761  0.1401  0.5622
32671SOL    HW2  331   1.726   6.768   0.592 -1.1070  0.4308 -0.4631
32672SOL     OW  332   9.441   8.351   3.080  0.3886  0.8221  0.3919
32672SOL    HW1  333   9.350   8.363   3.108  0.6579  1.6931  0.9298
32672SOL    HW2  334   9.445   8.260   3.050 -0.6241  0.7319  0.4882
32673SOL     OW  335   1.977   0.877   2.149 -0.4515 -0.2140 -0.6068
32673SOL    HW1  336   1.982   0.891   2.243 -1.8880  0.5264 -0.5964
32673SOL    HW2  337   2.062   0.841   2.124  0.3498  0.6378  0.7920
32674SOL     OW  338   7.743   1.564   1.466 -0.1148  0.3592  0.0867
32674SOL    HW1  339   7.726   1.470   1.474  1.5591  0.1059  0.9793
32674SOL    HW2  340   7.801   1.584   1.539  1.0945  1.7067 -1.1922
32675SOL     OW  341   9.913   8.555   6.496 -0.1351  0.1029 -0.3102
32675SOL    HW1  342   9.898   8.592   6.583  0.4881  1.4903 -0.7673
32675SOL    HW2  343   9.902   8.628   6.436 -0.0304 -0.7123 -1.3649
32676SOL     OW  344   8.999   8.852   2.883 -0.5219 -0.4439  0.2546
32676SOL    HW1  345   9.065   8.912   2.849  0.7979 -0.9552  1.7850
32676SOL    HW2  346   8.923   8.865   2.827  0.7075  0.5353 -1.2609
32677SOL     OW  347   3.377   2.252   8.067 -0.4555 -0.3127  0.5356
32677SOL    HW1  348   3.336   2.220   8.147 -0.0204  0.0268  0.9004
32677SOL    HW2  349   3.336   2.337   8.051 -1.5559 -0.9916 -0.3907
32678SOL     OW  350   6.880   3.769   0.952 -0.5367 -0.2830  0.5788
32678SOL    HW1  351   6.813   3.701   0.940  0.4998 -1.2497  0.1666
32678SOL    HW2  352   6.958   3.722   0.981  0.5234  0.5953 -0.7281
32679SOL     OW  353   5.470   5.552   4.191  0.0644  0.3231  0.4358
32679SOL    HW1  354   5.486   5.634   4.237  0.1837  0.8150 -0.4566
32679SOL    HW2  355   5.552   5.535   4.143  0.6160 -1.1262  1.7882
32680SOL     OW  356   2.411   9.465   7.841  0.1666  0.0776  0.2996
32680SOL    HW1  357   2.357   9.399   7.886  0.2379 -0.2491 -0.0867
32680SOL    HW2  358   2.377   9.467   7.752 -0.0720  0.8334  0.3979
32681SOL     OW  359   5.418   3.759  10.541 -0.3283 -0.5733 -0.3199
32681SOL    HW1  360   5.355   3.725  10.476  0.2883  2.5029 -2.7759
32681SOL    HW2  361   5.495   3.782  10.489  1.2769 -0.4385  1.9933
32682SOL     OW  362   3.271   9.973   7.087  0.1931 -0.4189 -0.2771
32682SOL    HW1  363   3.177   9.979   7.104 -0.1225  0.0125 -1.9607
32682SOL    HW2  364   3.293   9.882   7.103 -0.5053 -0.5051  0.2033
32683SOL     OW  365   3.707   7.394   4.057 -0.1721 -0.4809  0.6402
32683SOL    HW1  366   3.744   7.482   4.053  0.4512 -0.7595 -0.3330
32683SOL    HW2  367   3.633   7.400   4.118 -0.8635  0.9856 -0.3008
32684SOL     OW  368   4.255   9.781   7.252 -0.0499  0.1466 -0.4995
32684SOL    HW1  369   4.306   9.712   7.294 -1.0608 -1.0231 -1.1152
32684SOL    HW2  370   4.266   9.766   7.159 -1.0566  0.2265 -0.6402
32685SOL     OW  371   8.846   8.817   7.586  0.1296 -0.1839  0.3227
32685SOL    HW1  372   8.840   8.864   7.503 -2.0392 -3.3866 -1.5569
32685SOL    HW2  373   8.839   8.886   7.653 -1.4170  2.2671 -2.1348
32686SOL     OW  374   4.074  10.058   8.124  0.2742 -0.3797  0.4423
32686SOL    HW1  375   3.984  10.082   8.103  0.3692 -0.3894  0.0051
32686SOL    HW2  376   4.115  10.043   8.038  0.7735 -0.0613  0.6209
32687SOL     OW  377   5.425   4.494   3.984  0.2650  0.3185 -0.2900
32687SOL    HW1  378   5.521   4.489   3.985  0.3716  1.9283 -0.1703
32687SOL    HW2  379   5.400   4.486   4.076  0.0032 -3.4829 -0.5499
32688SOL     OW  380   8.488   1.607   6.270 -0.5718 -0.5362  0.8119
32688SOL    HW1  381   8.432   1.676   6.306  0.7508  0.7240  0.5631
32688SOL    HW2  382   8.512   1.639   6.183  0.0516 -1.3179  0.6858
32689SOL     OW  383   4.285   8.264   1.065  0.5413  0.3804  0.4528
32689SOL    HW1  384   4.266   8.357   1.057  1.4039  0.5419  0.1547
32689SOL    HW2  385   4.368   8.260   1.114  1.1958 -0.1577 -0.6447
32690SOL     OW  386  10.588   6.518   5.581 -0.1843  1.3330 -0.0835
32690SOL    HW1  387  10.680   6.503   5.556 -0.1952  1.1325 -0.0117
32690SOL    HW2  388  10.560   6.591   5.528  0.0741  1.5130  0.0244
32691SOL     OW  389   4.766   2.647   9.694  0.1185 -0.3178 -0.2733
32691SOL    HW1  390   4.841   2.697   9.724  1.4771 -1.7010 -1.1942
32691SOL    HW2  391   4.776   2.642   9.599 -1.5933  0.1257 -0.5169
32692SOL     OW  392   3.004   3.772   7.276  0.0450  0.0698 -0.0802
32692SOL    HW1  393   3.079   3.717   7.255  0.0185  0.1484 -0.3922
32692SOL    HW2  394   2.978   3.745   7.364 -0.4016 -0.9184 -0.4872
32693SOL     OW  395   4.168   1.697   6.739 -0.0632  0.0280 -0.3625
32693SOL    HW1  396   4.089   1.739   6.772  1.1359  0.9517  1.4475
32693SOL    HW2  397   4.215   1.767   6.693 -0.0806 -0.4137 -1.0683
32694SOL     OW  398   5.214  10.145   4.653 -0.1383  0.5527 -0.2350
32694SOL    HW1  399   5.127  10.107   4.668  0.2719 -1.3789 -2.2361
32694SOL    HW2  400   5.271  10.069   4.641  2.0025  1.7521  1.5533
32695SOL     OW  401   8.802   9.638   9.417  1.1575  0.1852 -0.5702
32695SOL    HW1  402   8.756   9.635   9.501  0.7462 -0.3253 -0.8107
32695SOL    HW2  403   8.849   9.721   9.419  1.9895 -0.2895  0.6062
32696SOL     OW  404   3.266   0.497   2.445  0.5130 -0.4368  0.5520
32696SOL    HW1  405   3.311   0.441   2.381 -0.7954  0.8459 -1.6064
32696SOL    HW2  406   3.187   0.448   2.467 -1.6366  1.1138 -2.8071
32697SOL     OW  407   8.088   2.075   5.589 -0.4677  0.7715 -0.2008
32697SOL    HW1  408   8.092   2.053   5.496 -1.2610  1.5811 -0.4452
32697SOL    HW2  409   8.082   1.991   5.633 -2.9454  0.3854 -1.0762
32698SOL     OW  410   3.776   1.820   9.137 -0.1374 -0.0781  0.2374
32698SOL    HW1  411   3.844   1.860   9.191 -0.0583 -1.4529  1.2074
32698SOL    HW2  412   3.817   1.810   9.051  0.4405  0.2908  0.4627
32699SOL     OW  413   9.889   0.765   1.280  0.2319 -0.4995 -0.1425
32699SOL    HW1  414   9.809   0.758   1.228  0.4992  1.4852 -0.9033
32699SOL    HW2  415   9.892   0.684   1.331 -2.9603 -0.0715  0.9308
32700SOL     OW  416   7.805   0.731   4.131 -0.3511 -0.1968 -0.1477
32700SOL    HW1  417   7.817   0.801   4.196 -1.5157  0.2523 -0.4039
32700SOL    HW2  418   7.886   0.732   4.081  0.1315  0.1739  0.6111
32701SOL     OW  419   4.386   0.698   2.914  0.6855 -0.7215 -0.2936
32701SOL    HW1  420   4.321   0.628   2.910  0.9715 -1.0884  1.0638
32701SOL    HW2  421   4.348   0.769   2.861 -1.2647 -0.5799  1.1663
32702SOL     OW  422   5.198   2.050  10.345  0.5941  0.2676  0.2396
32702SOL    HW1  423   5.184   1.956  10.351  0.3863  0.3475  1.1396
32702SOL    HW2  424   5.202   2.080  10.436  2.0125  0.9348 -0.0155
32703SOL     OW  425   2.915   1.453   8.131 -0.5853 -0.3233  0.2901
32703SOL    HW1  426   2.833   1.502   8.137 -0.0014  0.5195  2.0547
32703SOL    HW2  427   2.977   1.514   8.092 -0.7597 -0.9566 -1.0324
32704SOL     OW  428   0.074   3.474  10.565 -0.5713 -0.2654 -0.1783
32704SOL    HW1  429  -0.018   3.449  10.553 -0.4182 -0.5508 -0.8245
32704SOL    HW2  430   0.078   3.565  10.533 -0.7735 -0.0014  0.5361
32705SOL     OW  431   1.108   7.128   1.488 -0.8014 -0.6186 -0.8125
32705SOL    HW1  432   1.015   7.106   1.497 -0.6563 -1.2613 -0.8348
32705SOL    HW2  433   1.151   7.081   1.558 -0.2820 -1.7193 -1.8327
32706SOL     OW  434   8.514   4.135   2.825 -0.4653 -0.0306 -0.5784
32706SOL    HW1  435   8.449   4.195   2.789  0.1263 -0.0053 -1.6537
32706SOL    HW2  436   8.578   4.123   2.754  0.1517 -0.8600  0.0897
32707SOL     OW  437   5.645   2.463   2.056  0.2647  0.1429  0.0427
32707SOL    HW1  438   5.558   2.446   2.094  0.3278 -0.1138  0.0701
32707SOL    HW2  439   5.706   2.422   2.117  0.6180  2.7290  1.6039
32708SOL     OW  440   1.670   3.465   1.081  0.2558 -0.6806 -0.2188
32708SOL    HW1  441   1.734   3.523   1.123 -0.2095  0.1187 -0.5936
32708SOL    HW2  442   1.719   3.384   1.064  0.6418 -0.7659  1.2003
32709SOL     OW  443   9.303   1.629   8.498 -0.7893  0.0889 -0.1136
32709SOL    HW1  444   9.319   1.557   8.438 -0.4932  0.1304 -0.0837
32709SOL    HW2  445   9.385   1.640   8.546 -0.7614  0.5892 -0.2718
32710SOL     OW  446   8.215   7.506   2.797  0.1399 -0.4926 -0.2307
32710SOL    HW1  447   8.268   7.566   2.849  1.9989 -2.0370 -0.2078
32710SOL    HW2  448   8.279   7.459   2.743 -1.1962 -2.4357 -0.2322
32711SOL     OW  449   5.623   8.156   5.080  0.7666 -0.4362  0.2039
32711SOL    HW1  450   5.529   8.156   5.097  0.4274 -0.8716 -1.4881
32711SOL    HW2  451   5.649   8.248   5.090 -0.2654  0.0695 -1.3488
32712SOL     OW  452   4.684   3.501   9.593 -0.3266 -0.1502  0.2424
32712SOL    HW1  453   4.745   3.431   9.567 -1.7432 -0.8726 -1.2833
32712SOL    HW2  454   4.692   3.505   9.688 -1.5303 -3.7400  0.6424
32713SOL     OW  455   4.744   0.232   1.453  0.3003 -0.0002 -0.1438
32713SOL    HW1  456   4.806   0.214   1.382  0.5462  0.8418 -0.1487
32713SOL    HW2  457   4.678   0.163   1.445  1.0333 -0.6897 -0.3657
32714SOL     OW  458   4.018   0.006   1.856  0.1705 -0.0272 -0.5115
32714SOL    HW1  459   4.054  -0.038   1.932  1.4537  0.5581 -0.7499
32714SOL    HW2  460   3.924   0.015   1.875 -0.2420 -3.0657 -0.5991
32715SOL     OW  461   5.544   1.967   2.981  0.0529  0.5219  0.9671
32715SOL    HW1  462   5.509   1.936   2.898 -2.1624  2.5991  1.0282
32715SOL    HW2  463   5.638   1.947   2.976 -0.2676 -0.7951 -1.3417
32716SOL     OW  464   9.198   1.230   3.226  0.1708 -0.5766 -0.2816
32716SOL    HW1  465   9.114   1.227   3.272  0.3414 -0.8681  0.0105
32716SOL    HW2  466   9.257   1.276   3.285  0.1555 -0.1527 -0.5905
32717SOL     OW  467   8.969   0.321   2.157  0.0253  0.8392 -0.0278
32717SOL    HW1  468   8.945   0.414   2.163 -0.0022  0.7626  1.2564
32717SOL    HW2  469   8.885   0.275   2.153  0.0349  0.8367 -0.2564
32718SOL     OW  470   5.016   0.936   4.023  0.9436  0.4011  0.2236
32718SOL    HW1  471   5.090   0.900   4.071  1.0253 -0.8399 -0.7856
32718SOL    HW2  472   4.945   0.940   4.088  1.8257  1.4556  1.1525
32719SOL     OW  473   6.878  10.121   2.398  0.8422  0.4781  0.6382
32719SOL    HW1  474   6.965  10.107   2.361  0.5756  1.0347 -0.2174
32719SOL    HW2  475   6.846  10.200   2.355  0.1421  0.6107  1.3785
32720SOL     OW  476   5.942   6.162   4.523  0.4676 -0.2929  0.3340
32720SOL    HW1  477   5.959   6.144   4.430 -1.5048  2.3451 -0.6759
32720SOL    HW2  478   5.865   6.109   4.543  1.2477 -1.3233  0.6858
32721SOL     OW  479   6.716   3.895   8.815 -0.1010 -0.1514  0.7553
32721SOL    HW1  480   6.665   3.824   8.776 -1.9068  1.1194  0.6394
32721SOL    HW2  481   6.751   3.944   8.741 -0.1579 -0.0371  0.8038
32722SOL     OW  482   3.836   1.591  10.525  0.4091  0.1366  0.0417
32722SOL    HW1  483   3.758   1.640  10.552 -0.5213 -1.0569 -0.4070
32722SOL    HW2  484   3.844   1.609  10.431  1.5492  1.4013  0.3395
32723SOL     OW  485   4.014   3.035   5.170 -0.3187 -0.2894  0.8708
32723SOL    HW1  486   4.071   3.047   5.246 -1.0337  0.4508  1.3041
32723SOL    HW2  487   3.963   3.116   5.165  0.5326  0.1963 -1.1032
32724SOL     OW  488   5.016  10.129   2.952  0.3677 -0.2131  0.2857
32724SOL    HW1  489   5.012  10.086   2.866 -0.5970  0.2472  0.0917
32724SOL    HW2  490   4.971  10.213   2.939 -0.1176 -0.3025  1.3479
32725SOL     OW  491   5.623   0.965   2.502 -0.2483 -0.0336 -0.4418
32725SOL    HW1  492   5.653   0.950   2.412 -0.2577 -2.1932 -0.1458
32725SOL    HW2  493   5.576   1.048   2.498 -0.6348 -0.2960 -2.5352
32726SOL     OW  494   1.662   0.386   3.646  0.0615 -0.2896 -0.4305
32726SOL    HW1  495   1.591   0.417   3.703 -0.8940 -0.5121 -1.4442
32726SOL    HW2  496   1.639   0.421   3.559  1.2863 -0.2393 -0.7546
32727SOL     OW  497   0.860   5.206   8.251 -0.5038 -0.4377  0.4156
32727SOL    HW1  498   0.948   5.230   8.279  0.5292 -3.0298 -0.2852
32727SOL    HW2  499   0.830   5.279   8.198  1.0166  0.6961  1.0560
32728SOL     OW  500   2.430  10.166   9.514  0.2864 -0.4096 -0.5138
32728SOL    HW1  501   2.504  10.156   9.454  0.7109 -2.2275  0.2606
32728SOL    HW2  502   2.353  10.171   9.457  0.8556 -0.0137 -1.2698
32729SOL     OW  503   2.414   1.901   9.658 -0.5389 -0.7265  0.2859
32729SOL    HW1  504   2.411   1.988   9.618  0.9415 -0.2437  1.1286
32729SOL    HW2  505   2.323   1.878   9.672 -0.9582  1.2660  1.2107
32730SOL     OW  506   2.082   5.618   0.772  0.3891 -0.1205  0.0128
32730SOL    HW1  507   2.105   5.526   0.787  3.5425 -0.1404 -3.5033
32730SOL    HW2  508   2.136   5.666   0.834  0.8166 -0.5895  0.0148
32731SOL     OW  509   2.421   9.360   2.442  0.3322  0.5647  0.0854
32731SOL    HW1  510   2.329   9.335   2.453 -0.0153  1.8263  0.2342
32731SOL    HW2  511   2.444   9.403   2.525  1.0284  0.3279  0.0170
32732SOL     OW  512   2.448   0.142   2.952  0.0634  0.1118  0.2221
32732SOL    HW1  513   2.542   0.137   2.935  0.2635  1.6601  0.7113
32732SOL    HW2  514   2.441   0.156   3.046 -0.7385 -1.3349  0.4132
32733SOL     OW  515   5.594   5.729   2.010 -0.3089 -0.3103  0.5572
32733SOL    HW1  516   5.681   5.769   2.003 -0.3532  0.0525  1.9398
32733SOL    HW2  517   5.538   5.800   2.042 -1.4319 -0.1548 -1.5525
32734SOL     OW  518   5.018   0.860   7.658  0.4555  0.0762 -0.2248
32734SOL    HW1  519   5.054   0.799   7.594 -0.9936  0.6888 -1.6680
32734SOL    HW2  520   4.925   0.841   7.660  0.7294 -2.1394  4.1519
32735SOL     OW  521   1.435   6.969   9.006 -0.1256 -0.0670  0.2736
32735SOL    HW1  522   1.463   6.883   9.040 -0.4679  0.0024  0.7470
32735SOL    HW2  523   1.339   6.965   9.009 -0.1921 -0.3949 -1.5711
32736SOL     OW  524   2.488   5.166   2.317  0.5998  0.1858  0.3429
32736SOL    HW1  525   2.570   5.184   2.272 -0.4851  0.4525 -1.6569
32736SOL    HW2  526   2.427   5.232   2.283 -0.4398  0.0522  1.8259
32737SOL     OW  527   5.972   7.569   4.846  0.5303 -0.3145  0.3906
32737SOL    HW1  528   6.067   7.560   4.835  0.5178  0.0378 -0.0413
32737SOL    HW2  529   5.937   7.484   4.821  0.4949  0.4564 -2.5230
32738SOL     OW  530   6.476   4.318   7.051 -0.0027 -0.2801 -0.2074
32738SOL    HW1  531   6.498   4.293   7.141 -1.3986  1.4933  0.6982
32738SOL    HW2  532   6.418   4.249   7.020 -0.6421 -0.2064  0.7789
32739SOL     OW  533   7.504   2.394   2.440 -0.4050  0.0788  0.3944
32739SOL    HW1  534   7.489   2.440   2.358 -0.9089 -0.5757  0.1079
32739SOL    HW2  535   7.420   2.352   2.460 -0.4518  0.6867  1.5346
32740SOL     OW  536   5.927   8.097   4.892  0.1644 -0.2400  0.3450
32740SOL    HW1  537   5.880   8.045   4.958  0.7654 -2.0644 -0.5930
32740SOL    HW2  538   5.924   8.187   4.926 -2.6224 -0.5113  1.0871
32741SOL     OW  539   1.861   0.495   5.372  0.3255 -0.0184 -0.9399
32741SOL    HW1  540   1.825   0.564   5.428  1.0466  0.0773 -0.5942
32741SOL    HW2  541   1.856   0.416   5.426  0.2518 -0.0841 -1.0424
32742SOL     OW  542   8.227   8.255   0.662  0.1415 -0.0891 -0.5557
32742SOL    HW1  543   8.243   8.163   0.641  0.5149  0.4284 -2.9110
32742SOL    HW2  544   8.312   8.288   0.693 -0.0395 -0.5608  0.4584
32743SOL     OW  545   9.526   8.051   7.674  0.0086 -0.5034 -0.0370
32743SOL    HW1  546   9.597   8.005   7.720 -0.0810 -0.5288  0.0751
32743SOL    HW2  547   9.524   8.011   7.587 -1.8507 -2.6050  0.8861
32744SOL     OW  548   7.743   5.231   1.025  0.6432  0.5478  0.2056
32744SOL    HW1  549   7.696   5.154   1.056  2.7634 -0.7193  0.4884
32744SOL    HW2  550   7.802   5.254   1.097  0.6815  1.9153 -0.2292
32745SOL     OW  551   6.956   7.754   7.135 -0.1327 -0.1921 -0.1965
32745SOL    HW1  552   6.888   7.806   7.092  0.5857  1.9996  1.1457
32745SOL    HW2  553   7.036   7.804   7.121  0.6866 -1.2014  0.7386
32746SOL     OW  554   9.266   5.329   4.422 -0.5200  0.0834 -0.1804
32746SOL    HW1  555   9.359   5.341   4.445  0.0090  0.3118 -2.2072
32746SOL    HW2  556   9.220   5.395   4.473  0.7659  1.6937 -0.9941
32747SOL     OW  557   2.966   7.828   4.771  0.5664 -0.3480 -0.1453
32747SOL    HW1  558   2.954   7.830   4.676  0.0090  1.8197 -0.0962
32747SOL    HW2  559   2.981   7.736   4.792  0.5425 -0.8974 -2.3037
32748SOL     OW  560   3.105   0.376   3.288  0.2697  0.5365 -0.3555
32748SOL    HW1  561   3.092   0.304   3.225 -1.4113 -1.1891  1.7921
32748SOL    HW2  562   3.197   0.369   3.313 -0.0617 -1.5786  0.4967
32749SOL     OW  563   2.812   5.476   9.923  0.3244  0.0001  0.3216
32749SOL    HW1  564   2.891   5.494   9.974  1.7776 -0.1693 -1.7667
32749SOL    HW2  565   2.756   5.553   9.938  1.4805  0.7959  0.6970
32750SOL     OW  566   9.670  10.341   7.653  0.0712 -0.8721 -0.0928
32750SOL    HW1  567   9.594  10.399   7.662 -0.1894 -1.2702  0.3310
32750SOL    HW2  568   9.646  10.281   7.582  0.7677  0.1745 -1.2610
32751SOL     OW  569   5.635   7.572   3.765  0.0412 -0.4385  0.1623
32751SOL    HW1  570   5.726   7.598   3.778  0.2556 -0.8655 -0.4542
32751SOL    HW2  571   5.586   7.654   3.775  0.1071 -0.7025  3.8627
32752SOL     OW  572   1.371   7.781   5.641 -0.0714 -0.0384 -0.5750
32752SOL    HW1  573   1.280   7.765   5.617 -0.1536  1.2275 -1.2509
32752SOL    HW2  574   1.386   7.873   5.616  1.6208 -0.4562 -1.2640
32753SOL     OW  575   0.320   5.132   9.479  0.1715 -0.1375 -0.7586
32753SOL    HW1  576   0.293   5.146   9.388  0.3193 -0.4007 -0.8462
32753SOL    HW2  577   0.316   5.037   9.490  1.1179 -0.1989 -0.8016
32754SOL     OW  578   1.899   0.395   4.140 -0.1392 -0.0916 -0.9238
32754SOL    HW1  579   1.975   0.414   4.085  0.5784 -1.6070 -0.5190
32754SOL    HW2  580   1.876   0.479   4.179  2.7477  0.0738  0.6925
32755SOL     OW  581   3.214   3.448   2.124  0.1389 -0.2982  0.4181
32755SOL    HW1  582   3.275   3.495   2.182  2.3036 -0.9807 -1.1615
32755SOL    HW2  583   3.249   3.359   2.121 -1.1014 -0.7777 -0.3660
32756SOL     OW  584   1.877   8.284   8.363  0.1909  0.3856  0.2031
32756SOL    HW1  585   1.908   8.195   8.345 -0.3033  0.5351 -1.6216
32756SOL    HW2  586   1.785   8.274   8.385  0.2360  0.4131  0.4072
32757SOL     OW  587   7.586   5.338   0.839  0.5397  0.3010 -0.0557
32757SOL    HW1  588   7.629   5.300   0.916  0.0143 -1.6382 -0.6662
32757SOL    HW2  589   7.493   5.329   0.857  0.3972 -1.1899 -1.3361
32758SOL     OW  590   1.143   9.254   6.746 -0.2942  0.3626 -0.7171
32758SOL    HW1  591   1.073   9.318   6.760 -0.5829 -0.1181  0.0918
32758SOL    HW2  592   1.202   9.267   6.820 -0.8193 -0.8980 -0.0458
32759SOL     OW  593   8.293   9.104   5.721 -0.0808  0.2007 -0.1196
32759SOL    HW1  594   8.375   9.056   5.711 -0.0942  0.3064 -0.7626
32759SOL    HW2  595   8.319   9.191   5.750  0.0831  0.4262 -0.9190
32760SOL     OW  596   7.176   3.706   8.637  0.4299  0.1666  0.1429
32760SOL    HW1  597   7.129   3.681   8.558  0.7386 -0.5858  0.1822
32760SOL    HW2  598   7.137   3.652   8.706  1.9456 -1.1911  0.0067
32761SOL     OW  599   5.853   1.475   8.619  0.6881  0.2146  0.3568
32761SOL    HW1  600   5.898   1.499   8.700  1.3922  1.6787 -0.4244
32761SOL    HW2  601   5.847   1.557   8.570  1.9520 -0.9263 -1.8877
32762SOL     OW  602   0.097   9.597   5.863 -0.6967  0.6959 -0.5480
32762SOL    HW1  603   0.004   9.617   5.876 -1.4612 -1.3894 -2.2486
32762SOL    HW2  604   0.104   9.575   5.770  1.5867  1.0653 -0.5133
32763SOL     OW  605   8.570   0.639   1.218  0.4641 -0.2936  0.9010
32763SOL    HW1  606   8.549   0.548   1.197 -0.7562  0.5052 -1.7583
32763SOL    HW2  607   8.665   0.644   1.207  0.5546 -1.2528  1.1403
32764SOL     OW  608  10.140   7.747   8.715  0.3077  0.1998  0.2922
32764SOL    HW1  609  10.177   7.670   8.759  0.3068  1.6621  3.0612
32764SOL    HW2  610  10.064   7.771   8.767  0.8183  2.5827  0.0468
32765SOL     OW  611   1.509   9.524   7.450  0.0290  0.2628  0.4390
32765SOL    HW1  612   1.456   9.597   7.419 -0.7963 -0.5627 -0.1457
32765SOL    HW2  613   1.448   9.451   7.455  1.2888 -0.9779 -1.2029
32766SOL     OW  614   2.674   3.910   5.348 -0.8886 -0.1766  0.0900
32766SOL    HW1  615   2.703   3.827   5.386 -1.0570  0.3815  1.4615
32766SOL    HW2  616   2.599   3.936   5.401 -0.3047  1.2833  0.2326
32767SOL     OW  617   2.539   0.659   4.828 -0.4712 -0.0382 -0.1701
32767SOL    HW1  618   2.501   0.572   4.814 -2.8152  0.8446  0.2492
32767SOL    HW2  619   2.480   0.701   4.889  1.1413  1.5594  0.3606
32768SOL     OW  620   9.469  10.021   5.007  0.2287 -0.0838 -0.6492
32768SOL    HW1  621   9.475  10.030   4.912  1.0677 -2.3691 -0.8583
32768SOL    HW2  622   9.493   9.930   5.025 -1.9656 -0.3353  1.5805
32769SOL     OW  623   9.354   4.454   8.520 -0.1098  0.5476 -0.5040
32769SOL    HW1  624   9.389   4.424   8.437  1.4832 -1.3177  0.7505
32769SOL    HW2  625   9.302   4.381   8.553  0.9003  0.4553  0.9979
32770SOL     OW  626   2.077   5.679   5.043 -0.0199 -0.2581 -0.1421
32770SOL    HW1  627   2.097   5.588   5.068 -0.8410 -0.6576 -0.8934
32770SOL    HW2  628   2.001   5.702   5.096  0.9928  0.4872  1.0541
32771SOL     OW  629   5.017   0.006   5.861  0.1724 -0.5048 -0.1657
32771SOL    HW1  630   5.054   0.090   5.832  0.8102  0.0601  2.1165
32771SOL    HW2  631   5.070  -0.020   5.936 -2.2305 -1.1276  1.4373
32772SOL     OW  632   1.080   6.623   9.244  0.3557  0.1287 -0.2385
32772SOL    HW1  633   1.056   6.645   9.154  0.4326 -0.4993 -0.4188
32772SOL    HW2  634   1.144   6.690   9.269  1.6505 -0.6660 -1.2604
32773SOL     OW  635   1.380   4.256   5.065 -0.3632  0.5846 -0.0019
32773SOL    HW1  636   1.475   4.273   5.062 -0.3666  0.4704 -1.5318
32773SOL    HW2  637   1.368   4.203   5.143  0.6874  1.4539  0.7829
32774SOL     OW  638   5.772   3.050   0.343 -0.0417  0.3938 -0.0540
32774SOL    HW1  639   5.767   2.988   0.416 -1.0530  0.2008 -0.2771
32774SOL    HW2  640   5.829   3.008   0.279 -0.8033 -0.3710 -0.2482
32775SOL     OW  641   6.335   8.129   2.405 -0.2594  0.0412 -0.1186
32775SOL    HW1  642   6.317   8.076   2.482 -1.4848 -0.2145 -0.5667
32775SOL    HW2  643   6.316   8.219   2.432 -1.2364 -0.1110 -0.2767
32776SOL     OW  644   3.360   6.866   1.135  0.5303 -0.3296 -0.0510
32776SOL    HW1  645   3.288   6.928   1.150  1.0457  1.2928 -3.4124
32776SOL    HW2  646   3.317   6.785   1.110 -0.1318  0.1127 -0.3766
32777SOL     OW  647   6.796   1.450   2.968  0.0658  0.0774 -0.6405
32777SOL    HW1  648   6.862   1.459   3.036  0.1910  1.1822 -0.8927
32777SOL    HW2  649   6.802   1.530   2.917 -1.6904  0.3676 -0.4636
32778SOL     OW  650   9.362   1.180   5.681 -0.6738 -0.1476  0.2545
32778SOL    HW1  651   9.333   1.088   5.682 -1.8078  0.0922 -2.4570
32778SOL    HW2  652   9.286   1.229   5.649  0.6484  1.4269 -0.6099
32779SOL     OW  653   8.106   6.727   6.328  0.2121 -0.0916 -0.1286
32779SOL    HW1  654   8.120   6.813   6.288  2.1266 -1.2323 -2.1580
32779SOL    HW2  655   8.194   6.692   6.340 -0.5128 -1.5630  1.2345
32780SOL     OW  656   2.449   5.845   9.898  0.2793 -0.5402  0.0301
32780SOL    HW1  657   2.368   5.822   9.943  0.7731  0.3110  1.4304
32780SOL    HW2  658   2.423   5.910   9.833 -0.3058 -1.0742 -0.2842
32781SOL     OW  659   4.846   6.634   8.168  0.3245  0.0327  0.4447
32781SOL    HW1  660   4.874   6.654   8.257 -0.4962  0.7200  0.5619
32781SOL    HW2  661   4.754   6.607   8.177  0.3033 -0.1216 -0.1634
32782SOL     OW  662   2.589   3.828   8.425  0.1567 -0.0753  0.3853
32782SOL    HW1  663   2.647   3.768   8.472 -0.3811 -1.5126 -0.7207
32782SOL    HW2  664   2.505   3.784   8.423 -0.0562  0.3528 -1.1285
32783SOL     OW  665   9.118   5.098   1.293 -0.0144  0.2864 -0.9202
32783SOL    HW1  666   9.211   5.075   1.290 -0.1774 -0.3401 -2.5008
32783SOL    HW2  667   9.072   5.014   1.297 -0.5257  0.6003  0.3004
32784SOL     OW  668   3.828   7.839   8.711 -0.1003 -0.3517  0.0813
32784SOL    HW1  669   3.833   7.935   8.706  1.1949 -0.3801  0.4622
32784SOL    HW2  670   3.812   7.812   8.620 -1.7210  0.2588  0.1506
32785SOL     OW  671   5.978  10.571   8.370 -0.0062  0.1656  0.3821
32785SOL    HW1  672   6.035  10.614   8.306 -1.0741  1.0843  0.0073
32785SOL    HW2  673   5.924  10.511   8.318 -2.5286  2.6016 -0.0695
32786SOL     OW  674   7.198   0.618   3.109  0.3244 -0.4633 -0.7580
32786SOL    HW1  675   7.258   0.682   3.070 -0.2330 -0.1571 -1.1186
32786SOL    HW2  676   7.112   0.640   3.074 -0.2726  0.0367  0.8942
32787SOL     OW  677   3.928   8.125   8.183 -0.2216  0.1955 -0.1828
32787SOL    HW1  678   3.979   8.084   8.253 -1.4230 -1.2592 -0.1016
32787SOL    HW2  679   3.983   8.118   8.106 -0.0663 -0.8694  0.0144
32788SOL     OW  680   6.003   7.218   6.412 -0.0868 -0.1601  0.1996
32788SOL    HW1  681   5.957   7.299   6.388 -0.4400 -0.1588  0.8348
32788SOL    HW2  682   5.973   7.153   6.349 -0.3079  0.0541  0.0845
32789SOL     OW  683   4.650   0.404   7.018 -0.2423 -0.0787 -0.1578
32789SOL    HW1  684   4.598   0.447   6.950 -0.3687 -1.3994 -0.9385
32789SOL    HW2  685   4.618   0.440   7.100 -2.2551 -0.6970 -0.6255
32790SOL     OW  686   2.141   8.240   5.183 -0.4856 -0.1725  0.3420
32790SOL    HW1  687   2.131   8.183   5.259 -1.2512 -2.1087 -1.1444
32790SOL    HW2  688   2.078   8.207   5.119  0.5498  0.9954 -1.3793
32791SOL     OW  689   7.642   1.751   9.062  0.0074 -0.6032  0.6896
32791SOL    HW1  690   7.731   1.737   9.030  0.6199  2.2078  0.9167
32791SOL    HW2  691   7.652   1.775   9.154 -0.8102  1.1300  0.3680
32792SOL     OW  692   6.622   4.707   0.032  0.0961 -0.0805 -0.3256
32792SOL    HW1  693   6.584   4.709  -0.055  0.1238 -0.8398 -0.3640
32792SOL    HW2  694   6.695   4.645   0.025 -1.2903 -1.9478  0.7576
32793SOL     OW  695   3.970   8.547   8.188 -0.0431 -0.0853  0.5196
32793SOL    HW1  696   3.886   8.506   8.208 -0.2740  0.9402  1.8375
32793SOL    HW2  697   3.969   8.629   8.238  1.3526  0.3994 -0.1871
32794SOL     OW  698   3.955   5.407   0.833  0.1414  0.7098  0.4261
32794SOL    HW1  699   4.024   5.452   0.784 -0.0436 -0.7020 -1.2182
32794SOL    HW2  700   3.888   5.387   0.768 -0.8800  0.2023  1.5881
32795SOL     OW  701   4.849   4.863   9.607  0.4518 -0.1436 -0.1718
32795SOL    HW1  702   4.873   4.934   9.549 -0.2963  0.1869 -0.0815
32795SOL    HW2  703   4.755   4.851   9.594 -0.0951  1.0869  2.1923
32796SOL     OW  704   2.375   5.515   8.389  0.5449 -0.0004  0.5566
32796SOL    HW1  705   2.465   5.508   8.420  0.7413  0.3714  0.0860
32796SOL    HW2  706   2.348   5.604   8.413  0.9450  0.5593 -0.9390
32797SOL     OW  707   7.570   1.792   2.005 -0.1220 -0.4631  0.6941
32797SOL    HW1  708   7.506   1.806   1.936 -1.2625 -0.5892  1.6940
32797SOL    HW2  709   7.547   1.856   2.073  0.6387 -0.6955  1.1880
32798SOL     OW  710   8.072   8.663   1.524 -0.6233  0.1894 -0.0699
32798SOL    HW1  711   8.084   8.740   1.468 -2.8084  1.5591  1.1998
32798SOL    HW2  712   7.978   8.645   1.521 -0.5706 -0.6770  1.8417
32799SOL     OW  713   2.671   6.805   5.083  0.1403  0.0035 -0.5259
32799SOL    HW1  714   2.711   6.769   5.004 -0.4846  0.9756 -1.3196
32799SOL    HW2  715   2.693   6.898   5.080 -2.1698  0.5838 -1.0280
32800SOL     OW  716  10.391   7.329   7.390 -0.4181 -0.3196  0.3274
32800SOL    HW1  717  10.479   7.301   7.414  0.1715  1.1859  0.0576
32800SOL    HW2  718  10.405   7.411   7.341 -1.9947  0.2568  0.7868
32801SOL     OW  719   2.111   8.827   7.575  0.3345 -0.5073 -0.0757
32801SOL    HW1  720   2.060   8.847   7.497 -1.9174  1.1512  1.6985
32801SOL    HW2  721   2.082   8.740   7.601  0.6772 -0.8292 -0.7564
32802SOL     OW  722   5.669   4.624   3.154 -0.0583 -0.1821 -0.1081
32802SOL    HW1  723   5.701   4.556   3.095 -1.5087 -0.0868 -1.0407
32802SOL    HW2  724   5.721   4.701   3.131  0.4046 -0.5268 -0.2317
32803SOL     OW  725   7.259   5.155   5.487  0.0384  0.1097 -0.5193
32803SOL    HW1  726   7.290   5.220   5.425  1.2620  0.3023  0.2716
32803SOL    HW2  727   7.291   5.072   5.453  0.4519  0.1822 -0.3115
32804SOL     OW  728   3.030   3.377   5.051  0.0667 -0.0924 -0.2245
32804SOL    HW1  729   3.036   3.296   4.999 -0.3159 -0.1976 -0.1078
32804SOL    HW2  730   3.113   3.381   5.098 -0.3947 -1.0603  0.7008
32805SOL     OW  731   5.067   5.297   4.560 -0.1664 -1.1142  0.5441
32805SOL    HW1  732   5.023   5.242   4.496 -1.4906  0.0712  0.3924
32805SOL    HW2  733   5.152   5.255   4.573 -0.5635 -2.3604 -0.6482
32806SOL     OW  734   0.368   6.823   1.006 -0.0712  0.0658 -0.1325
32806SOL    HW1  735   0.299   6.875   1.046 -1.4851 -2.6036  1.1725
32806SOL    HW2  736   0.329   6.789   0.926 -0.1335 -1.0386  0.3468
32807SOL     OW  737   0.207   3.720   1.159 -0.2434 -0.1857 -0.8742
32807SOL    HW1  738   0.213   3.775   1.081 -0.5109 -0.8370 -1.3645
32807SOL    HW2  739   0.159   3.642   1.130 -0.0991 -0.5612 -0.1297
32808SOL     OW  740   1.145   9.707   3.101  0.2135 -0.7217  0.1873
32808SOL    HW1  741   1.128   9.748   3.016  0.0405 -0.5061  0.3221
32808SOL    HW2  742   1.235   9.676   3.096  0.1179 -0.9455 -0.1703
32809SOL     OW  743   3.278   6.349   0.600 -0.0860  0.0003 -0.1501
32809SOL    HW1  744   3.201   6.296   0.624  1.1229 -2.1677 -0.7730
32809SOL    HW2  745   3.269   6.364   0.506  0.4278 -0.6127 -0.3051
32810SOL     OW  746   9.485   9.343   1.877 -0.1354 -0.7398  0.4465
32810SOL    HW1  747   9.513   9.406   1.944  1.6635 -1.2853  0.2493
32810SOL    HW2  748   9.390   9.336   1.889 -0.2649  1.3148  1.0636
32811SOL     OW  749   6.741   2.884   6.426 -0.3169 -0.4066 -0.5563
32811SOL    HW1  750   6.749   2.966   6.378 -0.3982 -0.3803 -0.5249
32811SOL    HW2  751   6.825   2.874   6.471 -0.1541 -0.5517 -0.8917
32812SOL     OW  752   2.814   3.799   3.780 -0.0412  0.4707 -0.0206
32812SOL    HW1  753   2.744   3.865   3.775  0.6832  1.1752 -1.6787
32812SOL    HW2  754   2.860   3.807   3.696  1.0458 -1.0807  0.3907
32813SOL     OW  755   4.815   8.656   0.871  0.0792  0.6952  0.1784
32813SOL    HW1  756   4.905   8.684   0.855  0.1717 -0.2613 -1.1293
32813SOL    HW2  757   4.822   8.588   0.938  0.4750 -0.1703 -0.7183
32814SOL     OW  758   4.805   0.362   9.292  0.1983 -0.9440  1.2251
32814SOL    HW1  759   4.865   0.375   9.218  1.1085 -1.7430  1.7987
32814SOL    HW2  760   4.790   0.450   9.326 -0.8819 -0.4639 -0.3746
32815SOL     OW  761   6.743  10.378   4.497  0.5058  0.8265 -0.1358
32815SOL    HW1  762   6.804  10.428   4.443  0.6486  1.2411  0.4002
32815SOL    HW2  763   6.670  10.358   4.438  0.0410  2.4124 -0.1496
32816SOL     OW  764   7.923   7.004   3.727 -0.3480  0.4814  0.0199
32816SOL    HW1  765   7.970   6.964   3.654 -0.5071  0.9993 -0.3657
32816SOL    HW2  766   7.937   6.943   3.800 -0.0180  0.0667 -0.3834
32817SOL     OW  767   3.275   9.046   2.810 -0.4862 -0.3418 -0.2936
32817SOL    HW1  768   3.322   9.123   2.776  1.4518 -2.2223 -2.1518
32817SOL    HW2  769   3.340   9.000   2.864 -1.8259 -0.3954  1.3574
32818SOL     OW  770   5.191   8.617   4.586  0.0162 -0.4229  0.3901
32818SOL    HW1  771   5.122   8.554   4.609 -1.2650  0.5442 -0.7159
32818SOL    HW2  772   5.182   8.687   4.650 -0.6361  0.1310 -0.2910
32819SOL     OW  773   3.496   6.866   9.620  0.1900  0.1625 -0.1425
32819SOL    HW1  774   3.422   6.896   9.566  0.7587 -0.0341 -1.0417
32819SOL    HW2  775   3.573   6.881   9.566  0.6044 -1.9086 -0.2101
32820SOL     OW  776   4.636   7.815   1.694 -0.1597 -0.3066 -0.1585
32820SOL    HW1  777   4.624   7.910   1.681  0.5923  0.0909  1.6809
32820SOL    HW2  778   4.549   7.778   1.678 -0.3596  0.6000 -1.4173
32821SOL     OW  779   8.409   5.026   6.274 -0.2557 -0.3515  0.3159
32821SOL    HW1  780   8.435   5.022   6.182 -1.5586  0.5473 -0.1301
32821SOL    HW2  781   8.455   5.103   6.309  1.0073 -1.2519  0.7105
32822SOL     OW  782   0.561   4.335   4.400  0.2315  0.2403 -0.2092
32822SOL    HW1  783   0.545   4.245   4.427 -0.4542  0.3569 -0.2091
32822SOL    HW2  784   0.655   4.348   4.413  0.3939 -0.5694 -0.5082
32823SOL     OW  785  10.006   9.220   0.320 -0.6546 -0.6664  0.2955
32823SOL    HW1  786  10.068   9.265   0.377 -1.6016 -0.4861  1.2320
32823SOL    HW2  787   9.999   9.131   0.357 -0.2607 -0.9782 -0.3656
32824SOL     OW  788   5.827   0.985   7.699 -0.0417 -0.4390  0.9301
32824SOL    HW1  789   5.752   1.042   7.685  0.5934  0.5787  1.4711
32824SOL    HW2  790   5.884   1.002   7.624 -0.3766 -1.2741  0.4737
32825SOL     OW  791   4.731   6.856   5.515 -0.4059 -0.5181  0.1683
32825SOL    HW1  792   4.739   6.888   5.605  0.2729 -0.1303 -0.0170
32825SOL    HW2  793   4.638   6.863   5.495 -0.6479 -1.0848  1.0057
32826SOL     OW  794   9.650   7.176   6.755  0.2578  1.1450 -0.5760
32826SOL    HW1  795   9.688   7.091   6.776 -0.4408  0.7131 -1.0492
32826SOL    HW2  796   9.696   7.238   6.813  1.1282  0.5275 -0.5948
32827SOL     OW  797   2.258   6.459   6.296 -0.0820  0.0347  0.0135
32827SOL    HW1  798   2.308   6.397   6.349  1.4701  0.1099 -1.2909
32827SOL    HW2  799   2.313   6.475   6.219 -0.9280  2.1919 -0.2107
32828SOL     OW  800   5.637   6.363   9.295 -0.5107  0.2058 -0.4522
32828SOL    HW1  801   5.566   6.388   9.237 -1.0689  1.2657  0.6504
32828SOL    HW2  802   5.681   6.445   9.316  0.8153 -0.3882 -0.8101
32829SOL     OW  803   5.082   1.100   0.606 -0.3357  0.2137 -0.0542
32829SOL    HW1  804   5.030   1.147   0.671 -2.6264 -1.5309 -0.5365
32829SOL    HW2  805   5.110   1.020   0.651  1.2027  0.6612 -0.1243
32830SOL     OW  806   5.867   9.896   1.471  0.0880  0.2151 -0.4654
32830SOL    HW1  807   5.855   9.945   1.390 -2.1726 -0.5929 -0.6803
32830SOL    HW2  808   5.834   9.808   1.451 -1.9195  0.3879  1.7210
32831SOL     OW  809   3.982   2.558   0.797  0.6244 -0.0295  0.7992
32831SOL    HW1  810   3.928   2.490   0.756  0.5187 -0.2003  1.2225
32831SOL    HW2  811   4.009   2.521   0.881  0.5521  0.4567  1.0413
32832SOL     OW  812  10.287   4.879   2.968 -0.0563  0.5631 -0.5225
32832SOL    HW1  813  10.215   4.934   2.937 -1.2509  0.6638  2.2100
32832SOL    HW2  814  10.299   4.815   2.898 -1.4353  1.7509 -1.9309
32833SOL     OW  815   7.572   6.723   9.143  0.3020  0.1827 -0.0946
32833SOL    HW1  816   7.477   6.713   9.154 -0.2703  1.8253 -2.6949
32833SOL    HW2  817   7.591   6.681   9.059  1.9971 -0.4691  0.5674
32834SOL     OW  818   2.633   5.462   8.763 -0.0245  0.3540  0.6497
32834SOL    HW1  819   2.603   5.372   8.748 -0.2459  0.3832  0.9193
32834SOL    HW2  820   2.556   5.508   8.794 -0.4999  1.2061 -1.6354
32835SOL     OW  821   5.336   9.583   7.401  0.2778 -0.1059 -0.7031
32835SOL    HW1  822   5.373   9.499   7.375  0.8364 -0.2892  0.6007
32835SOL    HW2  823   5.242   9.571   7.392  0.2414 -1.4471  1.0310
32836SOL     OW  824   8.857   9.056   9.412 -0.5548  0.1369  0.0056
32836SOL    HW1  825   8.791   9.117   9.444  0.6419  1.4771 -0.0021
32836SOL    HW2  826   8.908   9.033   9.490 -0.5412 -0.2776 -0.1216
32837SOL     OW  827   2.501   0.937   9.583  0.6252 -0.5322 -0.1444
32837SOL    HW1  828   2.542   0.905   9.502  0.1375 -0.6570 -0.3467
32837SOL    HW2  829   2.559   1.007   9.613 -0.3374  1.0994 -1.8371
32838SOL     OW  830   3.150   2.014   1.197 -0.1694  0.0926  0.4506
32838SOL    HW1  831   3.136   2.091   1.252  0.3954 -0.2711  1.1241
32838SOL    HW2  832   3.172   1.944   1.258  1.5947 -0.0659 -0.2992
32839SOL     OW  833  10.467   4.258   8.785 -0.1552  0.1081  0.4085
32839SOL    HW1  834  10.398   4.304   8.833  0.4818  1.7120 -0.1611
32839SOL    HW2  835  10.549   4.292   8.820  0.3314  1.0644 -1.4949
32840SOL     OW  836  10.050   7.671   2.990  0.2016  0.4793  0.1154
32840SOL    HW1  837  10.012   7.752   2.954  1.0190  1.2203  0.8727
32840SOL    HW2  838  10.105   7.638   2.919  1.0349  1.4068  0.3034
32841SOL     OW  839  10.071   6.115   9.658 -0.4258 -0.0488  0.0687
32841SOL    HW1  840  10.159   6.104   9.623  0.3595  3.0864  0.7748
32841SOL    HW2  841  10.059   6.041   9.717  0.9525 -1.5623 -1.4456
32842SOL     OW  842   7.849   8.617   3.429  0.2290 -0.5338 -0.3704
32842SOL    HW1  843   7.931   8.662   3.448  0.0262  0.9744 -2.6321
32842SOL    HW2  844   7.784   8.688   3.423 -0.9771 -1.5643 -0.0171
32843SOL     OW  845   5.122   2.512   8.787 -0.4386  0.3117 -0.7971
32843SOL    HW1  846   5.058   2.552   8.845  2.0747 -0.8214  3.2204
32843SOL    HW2  847   5.106   2.418   8.796  2.2169 -0.0836  1.2540
32844SOL     OW  848   6.199   5.501   9.677  0.3938  0.2237  0.2083
32844SOL    HW1  849   6.288   5.536   9.670  1.2435 -1.7584  0.4535
32844SOL    HW2  850   6.165   5.537   9.759 -0.5484  4.0188 -1.5840
32845SOL     OW  851   4.803   8.937   7.188  0.1101  0.2064 -0.3031
32845SOL    HW1  852   4.821   9.025   7.220 -3.0315  1.3240 -1.2627
32845SOL    HW2  853   4.874   8.919   7.126  1.0843  1.8336  0.2667
32846SOL     OW  854   4.088   1.671   6.400 -0.3022  0.1492 -0.2531
32846SOL    HW1  855   4.009   1.708   6.440 -0.6799 -0.2486 -0.6194
32846SOL    HW2  856   4.088   1.705   6.311 -0.5661 -0.5910 -0.5425
32847SOL     OW  857   5.526   0.720   5.317 -0.5832 -0.0576 -0.6771
32847SOL    HW1  858   5.450   0.730   5.260 -1.2258 -1.6331 -0.1298
32847SOL    HW2  859   5.538   0.626   5.327  3.1279 -0.0197 -2.9278
32848SOL     OW  860   5.998   6.124   6.849  0.4737 -0.5020  0.4141
32848SOL    HW1  861   5.988   6.157   6.760 -2.8897 -0.9843  0.5084
32848SOL    HW2  862   6.019   6.201   6.901  1.9633 -0.1354 -0.6388
32849SOL     OW  863   5.507   3.255   9.357  0.4628 -0.1944  0.2431
32849SOL    HW1  864   5.578   3.193   9.374  1.0289  0.3672 -0.0079
32849SOL    HW2  865   5.471   3.227   9.273  1.2991  0.3310 -0.3070
32850SOL     OW  866   8.821   0.624   1.171 -0.8156 -0.0488  0.6780
32850SOL    HW1  867   8.872   0.601   1.093 -0.7286  0.2714  0.6392
32850SOL    HW2  868   8.866   0.700   1.208 -0.9324 -0.1172  0.9685
32851SOL     OW  869   1.465   8.463   5.530 -0.2217 -0.6106  0.2490
32851SOL    HW1  870   1.402   8.391   5.525  1.2343 -1.8784 -0.5760
32851SOL    HW2  871   1.508   8.451   5.614  0.3478 -0.9978 -0.0941
32852SOL     OW  872   1.024   7.634   4.098 -0.0841 -0.8820  0.3607
32852SOL    HW1  873   1.019   7.716   4.146  0.1824 -0.9766  0.5534
32852SOL    HW2  874   0.991   7.655   4.011  2.4171  0.0618 -0.4317
32853SOL     OW  875   7.834   8.742   1.232  0.4541  0.2152  0.1990
32853SOL    HW1  876   7.830   8.838   1.234  1.4486  0.3038 -0.9192
32853SOL    HW2  877   7.803   8.719   1.145 -0.7601 -0.5662  0.8093
32854SOL     OW  878   8.243   2.446   0.521 -0.3589 -0.4995 -0.1498
32854SOL    HW1  879   8.233   2.365   0.571  2.6715  0.4092  2.2028
32854SOL    HW2  880   8.307   2.424   0.453 -1.6416 -0.7244 -1.3423
32855SOL     OW  881   3.413   3.513   6.326  0.0645 -0.5813  0.4058
32855SOL    HW1  882   3.327   3.473   6.317 -0.5623  0.8834 -0.6026
32855SOL    HW2  883   3.413   3.551   6.414 -1.4908  1.8240 -0.5188
32856SOL     OW  884   5.173   4.802   7.637 -0.1287  0.1939 -0.1417
32856SOL    HW1  885   5.084   4.784   7.668 -0.3631  2.6472  0.9059
32856SOL    HW2  886   5.160   4.864   7.565  0.6938 -0.8851 -1.2519
32857SOL     OW  887   2.718   2.447   5.076  0.2441 -0.7438 -0.2150
32857SOL    HW1  888   2.767   2.460   5.157  0.6080 -1.1533 -0.3632
32857SOL    HW2  889   2.784   2.424   5.011 -0.0369 -0.3588 -0.6483
32858SOL     OW  890   9.495   1.795   8.347 -0.0870  0.4254 -0.1053
32858SOL    HW1  891   9.468   1.877   8.388  0.2432  0.8606 -0.7405
32858SOL    HW2  892   9.433   1.783   8.276 -0.6977 -0.3603  0.5462
32859SOL     OW  893   2.299   8.199   6.071  0.4613 -0.4490  0.2077
32859SOL    HW1  894   2.268   8.289   6.065  0.1857 -0.4939  0.9028
32859SOL    HW2  895   2.332   8.179   5.983  1.6056  0.7100  0.3541
32860SOL     OW  896   3.021   4.484   5.802 -0.3023 -0.9159 -0.1738
32860SOL    HW1  897   3.077   4.533   5.863  0.2103 -0.6951 -0.8114
32860SOL    HW2  898   3.067   4.401   5.788 -0.5144 -1.0444 -0.1148
32861SOL     OW  899   5.416   2.224   4.217 -0.2065  0.0814  0.2484
32861SOL    HW1  900   5.326   2.256   4.208  0.5987  3.4040  2.1832
32861SOL    HW2  901   5.414   2.168   4.295 -0.2764  2.3074  1.9753
32862SOL     OW  902   0.306   9.191   0.011 -0.9376  0.2992 -0.2814
32862SOL    HW1  903   0.273   9.123  -0.048  0.4183 -0.1445 -0.5527
32862SOL    HW2  904   0.375   9.234  -0.039  0.7746 -0.5831  1.2254
32863SOL     OW  905   5.859   0.990   6.390 -0.4905 -0.2233  0.0345
32863SOL    HW1  906   5.942   1.037   6.384  0.2783 -1.6742 -1.9348
32863SOL    HW2  907   5.862   0.945   6.474  0.7995 -0.3562 -0.0678
32864SOL     OW  908  10.259   2.417   7.868 -0.2170  0.4000 -0.2312
32864SOL    HW1  909  10.194   2.423   7.938  0.1025  0.7000  0.0428
32864SOL    HW2  910  10.227   2.347   7.812 -1.1419  0.9973 -0.4798
32865SOL     OW  911   0.355   0.424   2.153 -0.0819  0.0274  0.4964
32865SOL    HW1  912   0.386   0.343   2.194 -0.0159 -0.4514 -0.4681
32865SOL    HW2  913   0.311   0.395   2.074 -1.6287  0.8199  1.0351
32866SOL     OW  914   3.657   7.440   9.652 -0.1274  0.3501  0.1427
32866SOL    HW1  915   3.654   7.365   9.593  0.7070 -0.7242  1.3913
32866SOL    HW2  916   3.659   7.516   9.595 -0.4144 -0.6021 -1.1819
32867SOL     OW  917   8.655   3.654   4.057  0.5947  0.4769 -0.0522
32867SOL    HW1  918   8.674   3.583   3.996  1.4098  0.9944 -0.4285
32867SOL    HW2  919   8.560   3.665   4.054  0.5083 -0.3197 -0.2927
32868SOL     OW  920   5.517   9.600   3.321 -0.4335  0.6449 -0.2491
32868SOL    HW1  921   5.464   9.654   3.379 -1.3758  1.4062 -1.7413
32868SOL    HW2  922   5.472   9.516   3.319 -0.2441  0.5249  0.3141
32869SOL     OW  923   0.845   5.592   6.975  0.0202  0.1402  0.0995
32869SOL    HW1  924   0.817   5.612   7.064 -0.9821  1.6161 -0.4852
32869SOL    HW2  925   0.897   5.668   6.949 -2.1328  1.1842 -1.5169
32870SOL     OW  926   9.276   5.993   8.394  0.1350 -0.3980  0.1028
32870SOL    HW1  927   9.191   6.034   8.375 -0.0108 -0.7453  0.0079
32870SOL    HW2  928   9.329   6.014   8.317 -0.6543 -2.3595 -1.0533
32871SOL     OW  929   3.310   3.914  10.091 -0.6257  0.0832 -0.1188
32871SOL    HW1  930   3.403   3.939  10.097 -0.4370 -0.7932  0.9100
32871SOL    HW2  931   3.285   3.936  10.001  0.9200 -0.8396 -0.8096
32872SOL     OW  932   6.160  10.050   7.067  0.0421 -0.2347 -0.1825
32872SOL    HW1  933   6.114   9.980   7.022  1.2155 -0.5055 -0.9890
32872SOL    HW2  934   6.241  10.062   7.018  0.8709  0.1956  1.2239
32873SOL     OW  935   9.453   6.005   4.081  0.0668 -0.6140  0.2582
32873SOL    HW1  936   9.480   5.982   3.992  1.3668 -3.1074  1.2149
32873SOL    HW2  937   9.375   5.952   4.097 -1.0314  0.8932  0.1796
32874SOL     OW  938   9.382   3.078   4.904 -0.3296 -0.5781 -0.7429
32874SOL    HW1  939   9.316   3.087   4.974 -0.4730 -0.5378 -0.8833
32874SOL    HW2  940   9.382   2.984   4.884  2.8326 -1.4639  2.3559
32875SOL     OW  941   2.806   2.861   1.817 -0.5301 -0.0149 -0.8096
32875SOL    HW1  942   2.849   2.912   1.749 -1.8620 -0.5985 -2.1342
32875SOL    HW2  943   2.715   2.855   1.789 -1.3750  0.6240  1.5752
32876SOL     OW  944   1.771   6.153   0.966  0.0222  0.3630 -0.3166
32876SOL    HW1  945   1.832   6.200   0.909  0.0297 -2.3439 -2.7688
32876SOL    HW2  946   1.685   6.169   0.927 -0.4588  1.2610  1.0276
32877SOL     OW  947   4.079   8.614   9.234 -0.1904  0.0461  0.8097
32877SOL    HW1  948   4.117   8.636   9.318 -0.0823  0.3940  0.6686
32877SOL    HW2  949   4.082   8.695   9.183 -0.0226 -0.2229  0.3832
32878SOL     OW  950   3.860   3.379   5.965  0.1981 -0.2221  0.0411
32878SOL    HW1  951   3.795   3.339   5.907 -0.0143  1.0674 -0.6524
32878SOL    HW2  952   3.835   3.472   5.969  1.5763  0.1612  0.3374
32879SOL     OW  953   0.624  10.364   4.540  0.2493 -0.0813  0.1964
32879SOL    HW1  954   0.547  10.416   4.518  1.1191  1.3907  0.4398
32879SOL    HW2  955   0.696  10.427   4.537  1.1037 -0.8836  2.2710
32880SOL     OW  956   5.311   3.744   7.503  0.4789 -0.1642 -0.3521
32880SOL    HW1  957   5.291   3.831   7.470  4.2331  0.7389 -0.5765
32880SOL    HW2  958   5.290   3.748   7.597  0.3101  0.8369 -0.4263
32881SOL     OW  959   0.759   4.811   6.078  0.0356 -0.5541 -0.1375
32881SOL    HW1  960   0.832   4.795   6.019  0.1369  0.3169 -0.2560
32881SOL    HW2  961   0.684   4.823   6.020 -0.2021 -1.3747 -0.0197
32882SOL     OW  962   8.551   4.929   3.502  0.3003  0.2052  0.5849
32882SOL    HW1  963   8.518   5.014   3.475 -1.3303  0.0690  1.9704
32882SOL    HW2  964   8.594   4.894   3.424 -0.4860  1.5586 -0.5099
32883SOL     OW  965   9.722   0.289   0.361 -0.5591 -0.6974  0.0667
32883SOL    HW1  966   9.743   0.340   0.283  1.8915  0.5620  1.4307
32883SOL    HW2  967   9.626   0.287   0.363 -0.8458  3.2919 -0.5196
32884SOL     OW  968   5.109   4.943   7.424 -0.0412  0.6797  0.1902
32884SOL    HW1  969   5.040   4.918   7.363 -0.5621 -1.4595  1.5454
32884SOL    HW2  970   5.172   4.992   7.370  0.3064 -2.3385 -2.4782
32885SOL     OW  971   0.341   1.237   8.599  0.4575  0.2340  0.3149
32885SOL    HW1  972   0.371   1.162   8.650 -1.9589 -1.1062 -0.0828
32885SOL    HW2  973   0.299   1.294   8.664 -0.1372 -0.1177  0.2489
32886SOL     OW  974   9.227   1.818   6.537 -0.1632  0.1161  0.2921
32886SOL    HW1  975   9.224   1.827   6.633  0.5599 -1.2467  0.4655
32886SOL    HW2  976   9.158   1.755   6.517  0.4702 -0.5156  0.0562
32887SOL     OW  977   1.229   9.253   9.382 -0.4253  0.7282 -0.7216
32887SOL    HW1  978   1.245   9.215   9.295 -2.0142 -0.3895 -0.5640
32887SOL    HW2  979   1.139   9.227   9.403  0.8244 -1.6502  2.5502
32888SOL     OW  980   4.963   4.071   0.190 -0.5466 -0.3438  0.0016
32888SOL    HW1  981   5.056   4.084   0.171 -1.1076  4.4029 -0.7487
32888SOL    HW2  982   4.925   4.048   0.105 -0.2439 -1.0187  0.0442
32889SOL     OW  983   1.258   1.144  10.082 -0.3746 -0.2494  0.2309
32889SOL    HW1  984   1.172   1.120  10.118  0.4841 -1.8717  1.3301
32889SOL    HW2  985   1.287   1.217  10.136 -1.2008  0.5910 -0.4141
32890SOL     OW  986   9.375   8.245  10.358 -0.3362  0.4481  0.5572
32890SOL    HW1  987   9.299   8.294  10.390 -1.0393 -0.3396  0.1514
32890SOL    HW2  988   9.393   8.182  10.427 -1.2619 -0.6257 -0.1470
32891SOL     OW  989   9.251   1.652   0.577 -0.1112  0.3250 -0.2317
32891SOL    HW1  990   9.252   1.561   0.606 -1.5922  0.0358 -0.9824
32891SOL    HW2  991   9.195   1.652   0.499  1.4273  1.5559 -1.4233
32892SOL     OW  992   0.384   2.414   0.299  0.5818 -0.4368 -0.0720
32892SOL    HW1  993   0.342   2.496   0.273 -1.1079 -1.1515  0.2497
32892SOL    HW2  994   0.390   2.364   0.217 -1.2657 -1.1881  0.2010
32893SOL     OW  995   8.079   4.742   4.817  0.1053 -0.4769 -0.4132
32893SOL    HW1  996   8.168   4.743   4.853  0.5384 -1.5276 -1.4179
32893SOL    HW2  997   8.026   4.699   4.884  0.0262  1.4227  0.8344
32894SOL     OW  998   7.268   3.673   9.584 -0.0130 -0.1738 -0.0432
32894SOL    HW1  999   7.193   3.655   9.527 -0.3354  0.7389  0.0724
32894SOL    HW2 1000   7.298   3.760   9.557  1.4133 -0.8003 -0.5187
32895SOL     OW 1001   1.498   8.272   7.825 -0.1140  0.2311  0.1713
32895SOL    HW1 1002   1.430   8.333   7.854 -0.1033  0.9464 -1.2214
32895SOL    HW2 1003   1.559   8.327   7.775  0.8967 -0.6027  0.4665
32896SOL     OW 1004   3.181   0.571   3.730  0.4689  0.3714  0.0685
32896SOL    HW1 1005   3.157   0.503   3.793  2.1473 -0.9394 -0.6257
32896SOL    HW2 1006   3.265   0.605   3.762 -0.4315  2.3045  0.5056
32897SOL     OW 1007   4.023   5.596   5.471  0.3281 -0.3489 -0.1884
32897SOL    HW1 1008   4.059   5.537   5.405  0.3597 -1.7725  1.0524
32897SOL    HW2 1009   3.995   5.539   5.542 -2.5048  0.8719 -0.2105
32898SOL     OW 1010  10.480   6.953   9.914 -0.1187 -0.3676  0.9714
32898SOL    HW1 1011  10.432   7.027   9.953 -2.7143 -0.7355 -1.2935
32898SOL    HW2 1012  10.430   6.876   9.940 -0.4321 -0.8335 -0.9179
32899SOL     OW 1013   4.525   9.145   7.074  0.1201 -0.0620  0.0738
32899SOL    HW1 1014   4.548   9.076   7.012 -0.9353 -0.3686  0.0171
32899SOL    HW2 1015   4.584   9.217   7.052  2.1771 -1.3729  0.9981
32900SOL     OW 1016   8.212   8.934   1.758 -0.6037 -1.0755  0.0134
32900SOL    HW1 1017   8.250   8.994   1.822 -0.4494 -1.2236  0.0597
32900SOL    HW2 1018   8.191   8.855   1.807  0.4246 -1.5597 -0.3048
32901SOL     OW 1019   5.275   9.650   8.632 -0.4582 -0.3717  0.1667
32901SOL    HW1 1020   5.291   9.638   8.538  1.1256 -0.3827  0.4071
32901SOL    HW2 1021   5.314   9.572   8.673  1.0201  0.7560  0.9975
32902SOL     OW 1022   1.027   5.393   8.014 -0.7540  0.8960  0.4116
32902SOL    HW1 1023   1.023   5.301   7.988 -1.3261  1.0610 -0.1107
32902SOL    HW2 1024   0.988   5.441   7.940 -2.1529  1.4066  1.4417
32903SOL     OW 1025   0.533   0.032   9.983  0.0427  0.5618  0.1210
32903SOL    HW1 1026   0.465   0.038   9.916 -0.2289  1.2803  0.4450
32903SOL    HW2 1027   0.582   0.114   9.973 -1.6607  2.0108  2.5388
32904SOL     OW 1028   8.206   1.642   6.279  0.0684  0.1662  0.0467
32904SOL    HW1 1029   8.214   1.737   6.280  0.0073  0.2446 -2.2207
32904SOL    HW2 1030   8.123   1.624   6.322 -0.5728  1.2412 -0.7118
32905SOL     OW 1031   0.852   6.494   5.483  0.1444 -0.7429  0.3041
32905SOL    HW1 1032   0.852   6.399   5.475  0.2367 -0.6106 -2.1404
32905SOL    HW2 1033   0.887   6.525   5.399 -1.4523  1.4834  0.3657
32906SOL     OW 1034   6.550  10.377   4.269 -0.3702 -0.0830 -0.3021
32906SOL    HW1 1035   6.615  10.361   4.200 -1.4106  1.3989 -1.7035
32906SOL    HW2 1036   6.558  10.471   4.288 -1.3396 -0.1071  0.2960
32907SOL     OW 1037   2.716   1.446   0.953  0.0093  0.5167  0.7249
32907SOL    HW1 1038   2.717   1.496   0.872  3.4093 -0.0717  0.2458
32907SOL    HW2 1039   2.746   1.508   1.020 -0.0418  0.2766  0.9726
32908SOL     OW 1040   9.920   6.020   4.003 -0.1447  0.2186  0.7145
32908SOL    HW1 1041   9.946   6.070   4.080  0.6457  0.5478  0.2520
32908SOL    HW2 1042   9.911   6.085   3.934  1.2161 -0.2823  0.0217
32909SOL     OW 1043   3.819   5.084   7.036  0.1370  0.4779  0.8466
32909SOL    HW1 1044   3.784   4.995   7.037 -0.6848  0.4562 -4.4030
32909SOL    HW2 1045   3.741   5.140   7.033  0.5132  0.9716 -1.1732
32910SOL     OW 1046   2.220   0.807   9.586  0.2478 -0.0076 -0.1171
32910SOL    HW1 1047   2.310   0.839   9.595 -0.6576  2.7927  0.2372
32910SOL    HW2 1048   2.195   0.831   9.497 -0.1858 -0.6603 -0.1751
32911SOL     OW 1049   4.711   5.134   1.027  0.1890  0.8900  0.5837
32911SOL    HW1 1050   4.688   5.041   1.022  1.0204  0.4981  2.7196
32911SOL    HW2 1051   4.805   5.134   1.047  0.4645  2.2513 -0.5550
32912SOL     OW 1052  10.306   2.468   0.345 -0.0659  0.0284  0.3790
32912SOL    HW1 1053  10.346   2.487   0.260 -1.4719 -1.9800 -0.8376
32912SOL    HW2 1054  10.257   2.547   0.367  2.8344  1.7992  0.9662
32913SOL     OW 1055   9.915   4.748   5.453 -0.3105  0.1816  0.5241
32913SOL    HW1 1056   9.991   4.723   5.505 -0.2116  1.5064  1.0692
32913SOL    HW2 1057   9.905   4.678   5.389  1.2845 -0.0751  0.5201
32914SOL     OW 1058   2.855   6.595   1.490 -0.0926  0.2212 -0.2595
32914SOL    HW1 1059   2.936   6.581   1.539  0.0554  3.5623  0.7507
32914SOL    HW2 1060   2.790   6.618   1.556 -1.3369 -0.3112 -1.2402
32915SOL     OW 1061   8.240   8.720   7.064 -0.1104 -0.3625 -0.2748
32915SOL    HW1 1062   8.166   8.695   7.119 -0.1212  2.4460  1.1616
32915SOL    HW2 1063   8.310   8.659   7.089 -1.2819 -1.6900 -0.1198
32916SOL     OW 1064   3.272   1.565   1.306 -0.0585  0.7320  0.4896
32916SOL    HW1 1065   3.271   1.659   1.325  0.5252  0.7574  0.4359
32916SOL    HW2 1066   3.224   1.556   1.224  1.3329  1.2152 -0.4226
32917SOL     OW 1067   8.618   4.335   0.553  0.0298 -0.0492  0.6701
32917SOL    HW1 1068   8.680   4.264   0.539  0.2809  0.4865 -1.2883
32917SOL    HW2 1069   8.537   4.305   0.510 -0.8994 -0.4399  2.5762
32918SOL     OW 1070   5.196   6.934   8.311 -0.2564  0.3174  0.4248
32918SOL    HW1 1071   5.189   6.843   8.339 -0.6566  0.9966  2.7764
32918SOL    HW2 1072   5.287   6.945   8.286 -0.8907 -1.5540 -3.4212
32919SOL     OW 1073   8.937   2.951   3.790 -0.0852  0.1621 -0.4021
32919SOL    HW1 1074   8.845   2.974   3.800  0.0920  1.1277 -0.7680
32919SOL    HW2 1075   8.965   2.920   3.876 -1.1605 -1.7559 -0.7060
32920SOL     OW 1076   9.276   5.328   0.618 -0.3174 -0.3683 -0.2236
32920SOL    HW1 1077   9.322   5.315   0.702 -1.4534  0.9037  0.6516
32920SOL    HW2 1078   9.336   5.382   0.567 -1.5122  3.1084  1.7111
32921SOL     OW 1079   7.895   0.013  10.471 -0.2394  0.4121 -0.2847
32921SOL    HW1 1080   7.840  -0.051  10.516 -2.7221  1.6766 -1.2973
32921SOL    HW2 1081   7.884   0.093  10.522  0.0738  0.8686 -0.9287
32922SOL     OW 1082   0.728   7.677   1.649 -0.6745  0.0675  0.3039
32922SOL    HW1 1083   0.729   7.760   1.602  0.0339  0.5607  1.1557
32922SOL    HW2 1084   0.819   7.650   1.654 -0.8363 -0.4713  0.5420
32923SOL     OW 1085   0.039   0.423   2.337 -0.5416  0.3569  0.1397
32923SOL    HW1 1086   0.078   0.495   2.287 -0.4182 -0.3421 -0.8175
32923SOL    HW2 1087   0.095   0.415   2.414  0.0813  0.6108 -0.2696
32924SOL     OW 1088   6.289   9.000   7.764 -0.2618  0.2289  0.5623
32924SOL    HW1 1089   6.213   8.977   7.711  0.1966  2.8642 -1.4556
32924SOL    HW2 1090   6.329   9.074   7.718  3.5352 -0.9795  1.5691
32925SOL     OW 1091   9.243   6.756   3.229  0.5191 -0.2015 -0.0910
32925SOL    HW1 1092   9.269   6.800   3.309 -1.0540  0.8895 -0.1364
32925SOL    HW2 1093   9.176   6.692   3.256  0.4507 -0.2859 -0.4466
32926SOL     OW 1094   7.027   3.584   5.213 -0.2908  0.1519 -0.1589
32926SOL    HW1 1095   6.944   3.570   5.258  0.0548  0.9969  0.7826
32926SOL    HW2 1096   7.090   3.530   5.260 -0.3035 -0.5563 -0.9239
32927SOL     OW 1097   5.681   5.109   4.787 -0.0046  0.1477  0.6332
32927SOL    HW1 1098   5.679   5.034   4.847  0.9041 -0.3652  0.0473
32927SOL    HW2 1099   5.774   5.122   4.768 -0.3247 -0.8614 -2.0578
32928SOL     OW 1100   2.964   0.933   7.431  0.5905  0.1792  0.4535
32928SOL    HW1 1101   2.994   1.017   7.396  0.7960  0.0267  0.2606
32928SOL    HW2 1102   3.024   0.917   7.505  1.3777 -0.4151 -0.3014
32929SOL     OW 1103   8.462   1.023   2.440  0.0016  0.1059 -0.7645
32929SOL    HW1 1104   8.548   1.013   2.481  1.0536  0.3243 -2.8089
32929SOL    HW2 1105   8.444   1.117   2.444 -1.0483 -0.1102  1.2723
32930SOL     OW 1106   5.878   3.600   8.904  0.5440 -0.0803 -0.1884
32930SOL    HW1 1107   5.848   3.662   8.970 -0.8519 -1.6082  0.6727
32930SOL    HW2 1108   5.809   3.600   8.837  0.8292 -0.2687 -0.4879
32931SOL     OW 1109  10.193   9.649   3.382 -0.0053  0.6268  0.3187
32931SOL    HW1 1110  10.240   9.729   3.359 -0.3232  0.6338 -0.3267
32931SOL    HW2 1111  10.201   9.644   3.477 -0.1821  1.5530  0.3990
32932SOL     OW 1112   1.754   2.628   1.503 -0.3523  0.0714 -0.0447
32932SOL    HW1 1113   1.822   2.561   1.504  0.2042  0.6138 -0.7486
32932SOL    HW2 1114   1.679   2.586   1.462  0.1795  0.0353 -1.0141
32933SOL     OW 1115   2.519   5.764   6.112 -0.4494 -0.3183  0.0373
32933SOL    HW1 1116   2.515   5.811   6.028  0.6354  0.2689  0.2943
32933SOL    HW2 1117   2.610   5.735   6.118 -0.4514 -0.1047  1.1575
32934SOL     OW 1118   1.295   2.348   6.729 -0.1372  0.0165 -0.3131
32934SOL    HW1 1119   1.317   2.277   6.790 -1.8584 -0.5326 -0.2804
32934SOL    HW2 1120   1.212   2.382   6.762  0.2065  1.4507 -0.8716
32935SOL     OW 1121   1.388   0.506   9.668  0.2997 -0.2717 -0.1107
32935SOL    HW1 1122   1.462   0.552   9.628  1.0173 -0.3137  1.1342
32935SOL    HW2 1123   1.350   0.455   9.597  0.9967  0.3414 -0.9420
32936SOL     OW 1124   7.882   9.538  10.558 -0.1020 -0.3109 -0.5699
32936SOL    HW1 1125   7.935   9.609  10.522 -1.2600  0.1800 -1.3874
32936SOL    HW2 1126   7.801   9.581  10.585 -1.1607 -1.4244 -1.8564
32937SOL     OW 1127   5.841  10.481   6.217 -0.0485  0.0008  0.5989
32937SOL    HW1 1128   5.752  10.454   6.194  0.1477 -1.2879  1.2471
32937SOL    HW2 1129   5.891  10.399   6.221  1.5706  0.8087 -1.3201
32938SOL     OW 1130   3.574   8.107   2.507  0.1319 -0.5017  0.2567
32938SOL    HW1 1131   3.596   8.161   2.431 -1.5890 -0.9566 -0.6212
32938SOL    HW2 1132   3.498   8.151   2.546 -1.6158 -2.4436 -0.7585
32939SOL     OW 1133   8.065   7.574   1.009  0.0778 -1.1353  0.3618
32939SOL    HW1 1134   8.076   7.662   0.973 -0.4090 -0.5179  1.6389
32939SOL    HW2 1135   7.988   7.581   1.066 -0.3207 -2.5384  0.0427
32940SOL     OW 1136   7.272   7.194   3.251  0.5471 -0.6569  0.3315
32940SOL    HW1 1137   7.304   7.163   3.166  0.3180  0.0403 -0.0201
32940SOL    HW2 1138   7.310   7.281   3.260 -2.4397  0.8957 -0.8465
32941SOL     OW 1139   4.621   8.679   9.938  0.2898  0.2838 -0.6241
32941SOL    HW1 1140   4.576   8.736   9.876 -1.2395 -0.5278 -0.3147
32941SOL    HW2 1141   4.650   8.604   9.885  2.0789  1.1622 -0.9817
32942SOL     OW 1142   9.481   2.529   1.778  0.5098  0.4049 -0.5441
32942SOL    HW1 1143   9.513   2.482   1.854  0.0303 -0.9258 -1.1431
32942SOL    HW2 1144   9.553   2.588   1.755  1.7594 -1.1039 -0.6723
32943SOL     OW 1145   9.166   1.706   4.737 -0.0965  0.2893 -0.2708
32943SOL    HW1 1146   9.096   1.765   4.768  0.0669 -0.8021  2.4751
32943SOL    HW2 1147   9.247   1.753   4.757  0.0379  1.0638 -2.4127
32944SOL     OW 1148   7.112  10.138   2.279 -0.2451 -0.1285 -0.4589
32944SOL    HW1 1149   7.102  10.232   2.291 -2.8057 -0.4884  0.9148
32944SOL    HW2 1150   7.079  10.121   2.191  0.8746  0.2818 -0.9845
32945SOL     OW 1151   7.201   8.024   4.441  0.2914 -0.3581 -0.3001
32945SOL    HW1 1152   7.277   8.054   4.391  1.4867 -1.8754  0.5386
32945SOL    HW2 1153   7.147   7.979   4.376  0.0425  0.7918 -0.9168
32946SOL     OW 1154   8.753   6.599   6.129 -0.0788 -0.4211  0.0792
32946SOL    HW1 1155   8.736   6.692   6.115 -1.4490 -0.1890  2.6952
32946SOL    HW2 1156   8.681   6.554   6.086 -0.0743 -0.2083 -0.1499
32947SOL     OW 1157   9.103   6.200   7.369  0.1697 -0.1370 -0.3937
32947SOL    HW1 1158   9.033   6.223   7.308 -0.8326  0.7711  1.0412
32947SOL    HW2 1159   9.141   6.284   7.396  3.1133 -0.6215 -2.4810
32948SOL     OW 1160   1.023   7.964   9.938  0.2848  0.1789 -0.6605
32948SOL    HW1 1161   1.095   8.004   9.889 -1.2281  0.1043 -3.0935
32948SOL    HW2 1162   0.947   8.019   9.918 -1.1353 -1.9364 -1.3410
32949SOL     OW 1163   3.931   9.071   5.453 -0.0719 -0.2321 -0.4273
32949SOL    HW1 1164   3.971   9.149   5.416  2.0163 -0.8658  0.3957
32949SOL    HW2 1165   3.881   9.103   5.528 -0.5737  0.4822 -1.0474
32950SOL     OW 1166   0.500   1.382   5.623  0.2005  0.0638  0.6952
32950SOL    HW1 1167   0.425   1.411   5.676  1.2921  0.2490  2.1895
32950SOL    HW2 1168   0.572   1.374   5.685  2.0017  1.9023 -1.0028
32951SOL     OW 1169   5.347   2.498   0.133  0.2744  0.0569  0.6762
32951SOL    HW1 1170   5.295   2.444   0.073  1.3620 -0.2983  0.0157
32951SOL    HW2 1171   5.359   2.442   0.210 -1.0087  0.4606  1.1972
32952SOL     OW 1172   1.645   2.236   4.947 -0.1082 -0.7372  0.1758
32952SOL    HW1 1173   1.733   2.198   4.944  0.6097  0.8915 -1.1031
32952SOL    HW2 1174   1.653   2.318   4.897 -2.1734 -0.1787  0.6831
32953SOL     OW 1175   4.753   6.534   9.274 -0.2318 -0.3725  0.5899
32953SOL    HW1 1176   4.674   6.493   9.309 -0.3209 -3.0968 -2.4191
32953SOL    HW2 1177   4.824   6.475   9.298  0.4330  0.3344  0.4120
32954SOL     OW 1178   4.864   7.889   7.526 -0.3466  0.0149 -0.1359
32954SOL    HW1 1179   4.942   7.883   7.471 -0.3373 -0.9961 -0.0458
32954SOL    HW2 1180   4.819   7.805   7.512 -1.1394  0.3688  0.2255
32955SOL     OW 1181   4.869   0.867   9.449 -0.4381  0.2114 -0.3549
32955SOL    HW1 1182   4.808   0.884   9.521 -1.0106 -0.3366 -0.7038
32955SOL    HW2 1183   4.885   0.953   9.410 -0.0186  0.5335  0.5020
32956SOL     OW 1184   0.936   9.969   3.060  0.2432 -0.1170  0.0431
32956SOL    HW1 1185   1.026   9.976   3.092  0.5857  0.8132 -1.0658
32956SOL    HW2 1186   0.945   9.972   2.965 -1.0601  1.2776 -0.0603
32957SOL     OW 1187   0.907   8.651  10.190  0.3764  0.4080 -0.1554
32957SOL    HW1 1188   0.821   8.670  10.153  0.5198  1.2186 -0.0954
32957SOL    HW2 1189   0.916   8.556  10.184 -0.3037  0.3711 -0.6382
32958SOL     OW 1190   5.806   5.510   8.746  0.1862 -0.5574  0.1142
32958SOL    HW1 1191   5.837   5.432   8.700 -0.4084 -0.0030 -1.3013
32958SOL    HW2 1192   5.755   5.476   8.820  0.1164 -1.5034 -0.3545
32959SOL     OW 1193   4.183   9.829   8.202  0.1749  0.4267  0.3078
32959SOL    HW1 1194   4.185   9.858   8.293 -3.2575 -2.0872  1.4005
32959SOL    HW2 1195   4.147   9.904   8.154  1.0499  1.4243  1.1570
32960SOL     OW 1196   0.249   8.049   0.960  0.1033  0.0861 -0.2587
32960SOL    HW1 1197   0.329   8.022   0.914 -0.1254 -0.0718 -0.5699
32960SOL    HW2 1198   0.256   8.144   0.966  1.2931 -0.0599  1.5312
32961SOL     OW 1199   4.059   8.045   2.496  0.2795 -0.0286 -0.0598
32961SOL    HW1 1200   3.971   8.008   2.499 -0.0121  0.5325 -1.3078
32961SOL    HW2 1201   4.049   8.133   2.531  0.9778 -1.0255  2.9293
32962SOL     OW 1202   0.523   3.258   8.499 -0.1056 -0.3922  0.2059
32962SOL    HW1 1203   0.606   3.213   8.514 -0.2767 -0.3001  1.5588
32962SOL    HW2 1204   0.546   3.335   8.447  0.6890 -0.2392  0.7751
32963SOL     OW 1205   4.028   4.251   6.670 -0.2656 -0.3399  0.2100
32963SOL    HW1 1206   3.959   4.292   6.617 -0.8456 -0.4475  0.8723
32963SOL    HW2 1207   4.055   4.174   6.620 -0.6090 -0.2806 -0.0645
32964SOL     OW 1208   4.650  10.378   1.521  0.3170  0.5764  0.2088
32964SOL    HW1 1209   4.574  10.434   1.531  0.7403  1.3508 -0.8116
32964SOL    HW2 1210   4.654  10.358   1.427  0.9680 -0.0345  0.3512
32965SOL     OW 1211   2.475   8.786   1.269 -0.0394  0.1329  0.0318
32965SOL    HW1 1212   2.492   8.692   1.275 -1.9283 -0.2806 -0.2744
32965SOL    HW2 1213   2.443   8.811   1.356 -0.8425  0.1793 -0.2669
32966SOL     OW 1214   1.765   0.730   8.374 -0.3669  0.5207 -0.4302
32966SOL    HW1 1215   1.836   0.722   8.311  1.5114  1.6785  1.3829
32966SOL    HW2 1216   1.801   0.785   8.444 -2.8466  0.6184  0.9084
32967SOL     OW 1217   1.328   2.145   3.687 -0.1260 -0.4618  0.2086
32967SOL    HW1 1218   1.293   2.191   3.611 -1.2834 -1.5798  0.0420
32967SOL    HW2 1219   1.378   2.212   3.734 -1.3549  0.8398 -0.2767
32968SOL     OW 1220   3.409  10.351   8.770  0.2112 -0.2525 -0.1574
32968SOL    HW1 1221   3.473  10.390   8.829 -0.7197 -0.2113  0.8587
32968SOL    HW2 1222   3.450  10.356   8.684  1.5317 -0.1601  0.4520
32969SOL     OW 1223   2.239   6.637   0.302  0.1389  0.2114  0.1104
32969SOL    HW1 1224   2.205   6.642   0.213 -0.9879  1.1674  0.5702
32969SOL    HW2 1225   2.190   6.566   0.344 -0.6229  0.9335  0.4768
32970SOL     OW 1226   9.266   6.126   0.128  0.5990  0.3664  0.0527
32970SOL    HW1 1227   9.354   6.151   0.157 -0.1328 -0.8561  3.9816
32970SOL    HW2 1228   9.207   6.168   0.191 -1.4111 -1.2519 -0.6195
32971SOL     OW 1229   5.923   4.954   0.596  0.2491 -0.2868 -0.0531
32971SOL    HW1 1230   5.849   4.913   0.641  1.2301  0.1969  2.1502
32971SOL    HW2 1231   5.886   4.986   0.513 -1.7951 -0.7864  0.6094
32972SOL     OW 1232   4.846   8.531   9.540 -0.3161 -0.0581  0.4774
32972SOL    HW1 1233   4.785   8.463   9.513 -0.9776  1.0345 -0.9223
32972SOL    HW2 1234   4.874   8.571   9.458  0.8750  0.6689  1.2115
32973SOL     OW 1235   6.653   0.452   5.251  0.4012 -0.3824 -0.7942
32973SOL    HW1 1236   6.650   0.358   5.232  0.8152 -0.6130  0.1905
32973SOL    HW2 1237   6.688   0.456   5.340 -1.2945  0.6263 -0.1390
32974SOL     OW 1238   0.118   3.814   2.319  0.6061  0.0210 -0.6141
32974SOL    HW1 1239   0.165   3.771   2.247  1.0124 -1.1977  0.3536
32974SOL    HW2 1240   0.094   3.743   2.378 -2.2911  0.6105 -0.9387
32975SOL     OW 1241   4.966  10.015   7.531  0.5022  0.6857  0.4356
32975SOL    HW1 1242   4.901   9.996   7.463  0.2501 -0.2648  0.9273
32975SOL    HW2 1243   4.979  10.110   7.525 -0.8375  0.8825  0.2493
32976SOL     OW 1244   4.512   3.112   2.989 -0.5099 -0.1826 -0.3735
32976SOL    HW1 1245   4.489   3.122   2.896 -0.9227  1.8915 -0.1018
32976SOL    HW2 1246   4.440   3.154   3.036 -0.6848 -1.8893  0.9574
32977SOL     OW 1247   7.389   0.268  10.164 -0.2462 -0.1173 -0.4259
32977SOL    HW1 1248   7.342   0.229  10.238 -1.8410 -0.3272 -1.4951
32977SOL    HW2 1249   7.455   0.325  10.205 -0.5146 -0.8620  1.1392
32978SOL     OW 1250   4.230   5.694   8.021  0.1709 -0.4890  0.4162
32978SOL    HW1 1251   4.150   5.647   7.996 -0.6438  0.6474  0.8422
32978SOL    HW2 1252   4.297   5.657   7.963 -0.0106 -3.4614  1.8860
32979SOL     OW 1253   3.799   1.801   1.888 -0.2262  0.2844 -0.0970
32979SOL    HW1 1254   3.706   1.807   1.908 -0.1751  0.8332 -0.0339
32979SOL    HW2 1255   3.823   1.886   1.852  0.2725  0.1803 -0.0279
32980SOL     OW 1256   2.467  10.246   8.506  0.4804 -0.1981 -0.1429
32980SOL    HW1 1257   2.423  10.206   8.431  2.0597 -3.6541  0.5856
32980SOL    HW2 1258   2.398  10.293   8.552 -2.3491 -4.2293  0.2418
32981SOL     OW 1259   1.294   5.549   3.707  0.3292  0.1791  0.7872
32981SOL    HW1 1260   1.250   5.523   3.787 -0.6162  0.4648  0.3759
32981SOL    HW2 1261   1.387   5.546   3.728  0.1184 -0.5001  1.6544
32982SOL     OW 1262   3.591   2.984   2.035 -0.8895  0.2794  0.0403
32982SOL    HW1 1263   3.687   2.983   2.027 -0.7413  1.4256  1.2619
32982SOL    HW2 1264   3.561   2.923   1.969  0.7730 -1.3104  0.6618
32983SOL     OW 1265   5.070   3.381   2.826 -0.0365  0.0901  0.0282
32983SOL    HW1 1266   4.984   3.374   2.784  1.1997 -0.4169 -2.5841
32983SOL    HW2 1267   5.073   3.470   2.860 -1.4558  0.2305 -0.1539
32984SOL     OW 1268   1.478   1.515   0.657  0.4755 -0.3247  0.4486
32984SOL    HW1 1269   1.496   1.545   0.568 -1.2175  1.0228  0.5221
32984SOL    HW2 1270   1.415   1.444   0.647 -0.3965  0.4102  0.5872
32985SOL     OW 1271   2.636   4.218   1.955  0.2571  0.6265  0.3272
32985SOL    HW1 1272   2.724   4.185   1.941  0.3272  1.7226 -2.7241
32985SOL    HW2 1273   2.646   4.313   1.963 -0.5957  0.7732 -0.0987
32986SOL     OW 1274   8.779   7.794   5.923 -0.2690  0.7638 -0.6861
32986SOL    HW1 1275   8.713   7.740   5.966  0.5937 -0.0644 -0.3652
32986SOL    HW2 1276   8.772   7.880   5.965  0.0498  0.1749  0.6004
32987SOL     OW 1277   8.452   9.190   5.400 -0.0046 -0.3114  0.2551
32987SOL    HW1 1278   8.487   9.216   5.485  1.6481  1.0966 -0.7920
32987SOL    HW2 1279   8.357   9.184   5.414  0.1495  0.6510  1.9976
32988SOL     OW 1280  10.516   6.582  10.459 -0.3769 -0.1833  0.2775
32988SOL    HW1 1281  10.461   6.527  10.514 -2.1988 -1.8806 -2.9421
32988SOL    HW2 1282  10.459   6.655  10.433 -0.4352 -0.7684 -1.3293
32989SOL     OW 1283   7.700   1.860   0.631  0.3734  0.6235  0.0412
32989SOL    HW1 1284   7.691   1.921   0.557  3.0659  0.9198 -0.1329
32989SOL    HW2 1285   7.712   1.775   0.590  1.2242  0.6949  0.1186
32990SOL     OW 1286   8.572   7.748   5.642 -0.2114  1.0149  0.3459
32990SOL    HW1 1287   8.628   7.818   5.672 -1.4621  2.1876  0.0335
32990SOL    HW2 1288   8.527   7.717   5.720  0.1065  0.7483  0.4298
32991SOL     OW 1289   3.046   8.269   9.326 -0.0892 -0.3276  0.0136
32991SOL    HW1 1290   3.056   8.363   9.313  2.2702 -0.6449 -0.9569
32991SOL    HW2 1291   3.101   8.250   9.403 -1.1568 -0.8219  0.6761
32992SOL     OW 1292   8.951   8.187   5.937  0.4273  0.8666  0.0749
32992SOL    HW1 1293   9.043   8.204   5.917 -0.0624  2.2086 -1.2541
32992SOL    HW2 1294   8.921   8.268   5.979  0.3621 -0.3715  2.5636
32993SOL     OW 1295   1.983  10.492   4.233  0.2855  0.5093 -0.2665
32993SOL    HW1 1296   1.907  10.526   4.280  0.5039 -0.8360  1.1482
32993SOL    HW2 1297   1.951  10.475   4.144 -1.4260 -1.0742  0.5859
32994SOL     OW 1298   2.642   7.774   4.486 -0.0272 -0.1579 -0.4993
32994SOL    HW1 1299   2.670   7.688   4.455  1.2833  0.0335  0.0653
32994SOL    HW2 1300   2.609   7.758   4.574 -0.3069 -0.1667 -0.6060
32995SOL     OW 1301   0.942   6.032   0.219 -0.2112 -0.5214 -0.0665
32995SOL    HW1 1302   0.878   6.092   0.258 -0.4294 -1.2820  0.7888
32995SOL    HW2 1303   1.021   6.046   0.272 -0.1620 -0.7390 -0.0847
32996SOL     OW 1304   0.939   9.576   1.987 -0.4194  0.0273  0.2983
32996SOL    HW1 1305   0.870   9.642   1.991  1.5324  2.1367  1.3129
32996SOL    HW2 1306   0.952   9.549   2.078  1.2073  0.9526  0.3737
32997SOL     OW 1307   7.724   0.492   4.207 -0.0115 -0.0459 -0.2631
32997SOL    HW1 1308   7.743   0.583   4.182 -0.4710 -0.2409 -1.3613
32997SOL    HW2 1309   7.711   0.496   4.302 -0.9228  1.2126 -0.4133
32998SOL     OW 1310   8.773   8.981   7.836 -0.5650 -0.0061 -0.8235
32998SOL    HW1 1311   8.848   8.926   7.861 -1.3611 -1.1237 -0.8620
32998SOL    HW2 1312   8.729   9.001   7.919  0.8231  2.2925 -0.5413
32999SOL     OW 1313   9.623   2.845   9.649 -0.1755 -0.3384 -0.4432
32999SOL    HW1 1314   9.704   2.832   9.698  0.1651 -1.0322 -1.1585
32999SOL    HW2 1315   9.616   2.940   9.639  0.6072 -0.2742 -0.4596
33000SOL     OW 1316   4.869  10.511   7.773 -0.7780  0.1812 -0.3984
33000SOL    HW1 1317   4.834  10.546   7.854  1.5718  0.0215  0.7700
33000SOL    HW2 1318   4.920  10.583   7.736 -0.0150 -0.4299 -0.5608
33001SOL     OW 1319   1.479   2.199   6.944 -0.6608 -0.7834  0.6912
33001SOL    HW1 1320   1.409   2.211   7.008 -1.1048 -0.6587  0.1913
33001SOL    HW2 1321   1.448   2.128   6.887 -0.3647 -0.7539  0.4869
33002SOL     OW 1322   2.040  10.086   3.171  0.9369 -0.0175 -0.1313
33002SOL    HW1 1323   2.088  10.097   3.089  0.6903 -1.6827 -0.5463
33002SOL    HW2 1324   1.982  10.011   3.154 -0.2174  0.5734  1.0745
33003SOL     OW 1325   7.442   1.616   7.483 -0.3781  0.9995 -0.0899
33003SOL    HW1 1326   7.523   1.664   7.463  0.2196  0.1811  0.3450
33003SOL    HW2 1327   7.382   1.642   7.413 -0.0338  2.2842  0.0639
33004SOL     OW 1328   2.703   0.974   6.344 -0.1946  0.7602 -0.0210
33004SOL    HW1 1329   2.637   0.914   6.379  1.8892 -1.1995  0.7952
33004SOL    HW2 1330   2.730   0.933   6.262  3.4945 -1.4335  1.9894
33005SOL     OW 1331   9.059   9.941   3.026 -0.2214 -0.0422  0.3522
33005SOL    HW1 1332   9.044   9.927   2.932 -1.1868  0.3239  0.4416
33005SOL    HW2 1333   9.000   9.879   3.069  0.6897 -0.6775  0.7389
33006SOL     OW 1334   3.634   7.833   0.150 -0.5165 -0.4332 -0.7232
33006SOL    HW1 1335   3.658   7.842   0.242  0.2352 -0.8092 -0.8785
33006SOL    HW2 1336   3.643   7.921   0.114 -3.1452  0.2513  0.0849
33007SOL     OW 1337   2.832   3.201   3.132  0.1706 -0.4692  0.0071
33007SOL    HW1 1338   2.787   3.150   3.198 -0.4912 -0.0894 -0.1467
33007SOL    HW2 1339   2.792   3.287   3.136  1.7045  0.2624  0.7139
33008SOL     OW 1340   9.257   4.552   2.837 -0.3685  0.2173  0.3346
33008SOL    HW1 1341   9.170   4.513   2.823 -0.2773 -0.3198  1.2013
33008SOL    HW2 1342   9.300   4.543   2.752 -0.6925 -0.7484  0.2514
33009SOL     OW 1343  10.179   0.817   4.294  0.9057 -0.6728 -0.1045
33009SOL    HW1 1344  10.226   0.794   4.374  0.5761  0.9183  0.5813
33009SOL    HW2 1345  10.241   0.869   4.244  0.1861  0.8148  0.4755
33010SOL     OW 1346   6.376  10.385   4.538 -0.7276 -0.4188  0.1526
33010SOL    HW1 1347   6.442  10.425   4.594 -0.2111  1.0936 -1.4357
33010SOL    HW2 1348   6.342  10.312   4.589  0.5139  0.1854  1.9432
33011SOL     OW 1349   4.371   5.292   7.661  0.0397  0.1810  0.2461
33011SOL    HW1 1350   4.294   5.280   7.716 -0.5288 -0.1747 -0.6203
33011SOL    HW2 1351   4.434   5.338   7.718 -0.8471  0.5880  0.9153
33012SOL     OW 1352   1.753   7.959   5.694  0.2642  0.3982  0.1924
33012SOL    HW1 1353   1.848   7.972   5.700  0.2740  0.2556  0.3852
33012SOL    HW2 1354   1.731   7.981   5.604  0.4132  0.8736  0.2669
33013SOL     OW 1355   9.152  10.113   8.006 -0.2705 -0.0472  0.3860
33013SOL    HW1 1356   9.063  10.099   7.973  0.5862 -0.8096 -1.7089
33013SOL    HW2 1357   9.178  10.029   8.042  0.2903 -0.3957 -0.7896
33014SOL     OW 1358   6.584   5.540   9.417  0.2618  0.3972  0.5946
33014SOL    HW1 1359   6.580   5.445   9.429  0.7124  0.2464 -0.3379
33014SOL    HW2 1360   6.621   5.573   9.499 -0.9009 -0.1091  1.3487
33015SOL     OW 1361   7.311   2.314   3.340  0.1128 -0.2206 -0.1747
33015SOL    HW1 1362   7.364   2.334   3.417 -0.2034  0.9399 -0.2256
33015SOL    HW2 1363   7.222   2.341   3.365  0.0170  0.2131 -0.9419
33016SOL     OW 1364   8.247   7.754   0.780 -0.3404 -0.3401  0.0982
33016SOL    HW1 1365   8.224   7.662   0.773  0.5144 -0.4679 -1.2170
33016SOL    HW2 1366   8.168   7.795   0.816 -0.9649 -1.4694  0.0710
33017SOL     OW 1367   7.461   2.861   4.348 -0.0023  0.1413  0.2359
33017SOL    HW1 1368   7.487   2.952   4.364  0.3064  0.5756 -2.3786
33017SOL    HW2 1369   7.399   2.866   4.276 -0.3582 -1.7136  0.3656
33018SOL     OW 1370   5.380   3.130   4.096 -0.6952  0.0779 -0.3486
33018SOL    HW1 1371   5.445   3.198   4.118  1.1250 -1.6104 -0.2395
33018SOL    HW2 1372   5.315   3.135   4.166  1.0893 -0.3239  1.4353
33019SOL     OW 1373   4.402   2.650  10.209  0.3303  0.0522  0.0775
33019SOL    HW1 1374   4.340   2.593  10.253 -0.5847  0.4158 -0.7125
33019SOL    HW2 1375   4.427   2.603  10.130  1.3471 -0.2405  0.5483
33020SOL     OW 1376   3.366   8.273   4.519  0.0105 -0.5942 -0.0915
33020SOL    HW1 1377   3.447   8.317   4.547 -0.0924  0.5255 -1.4778
33020SOL    HW2 1378   3.299   8.341   4.523 -0.4974 -1.0533 -0.7081
33021SOL     OW 1379   8.823   4.150   0.586  0.2848 -0.1863 -0.6593
33021SOL    HW1 1380   8.809   4.058   0.564  0.8152 -0.0460 -1.6641
33021SOL    HW2 1381   8.917   4.157   0.600 -0.0250 -0.2984  1.9994
33022SOL     OW 1382   2.722   6.627   0.952 -0.4924  0.3567  0.3657
33022SOL    HW1 1383   2.647   6.678   0.921 -1.0771 -0.7605 -0.1077
33022SOL    HW2 1384   2.686   6.570   1.020 -0.0767 -0.2108  0.1147
33023SOL     OW 1385   8.359  10.217   1.950 -0.2106 -0.2231  0.2502
33023SOL    HW1 1386   8.333  10.303   1.916  1.1958 -0.5164 -1.7071
33023SOL    HW2 1387   8.303  10.204   2.027 -1.6106  1.6960 -0.3727
33024SOL     OW 1388   2.207   5.893   3.463 -0.3418 -0.5180  0.0969
33024SOL    HW1 1389   2.278   5.832   3.442 -0.4553 -1.2468  1.6791
33024SOL    HW2 1390   2.127   5.842   3.453 -0.5371 -0.1934 -0.0071
33025SOL     OW 1391   0.776   6.245   5.288  0.0761  0.6737  0.2909
33025SOL    HW1 1392   0.755   6.270   5.198  2.5931 -0.1650 -0.6322
33025SOL    HW2 1393   0.777   6.149   5.287 -0.0238  0.6560  1.2419
33026SOL     OW 1394   4.123   1.745   9.469  0.0974 -0.5998  0.5686
33026SOL    HW1 1395   4.029   1.735   9.485 -0.0341 -0.8840 -0.3510
33026SOL    HW2 1396   4.144   1.832   9.502 -0.7212 -0.0797 -0.2454
33027SOL     OW 1397   1.721   5.166   5.282 -0.5562 -0.0380  0.5399
33027SOL    HW1 1398   1.633   5.190   5.312 -0.3574 -0.2698  1.3323
33027SOL    HW2 1399   1.780   5.213   5.340 -0.1532  0.1387 -0.0079
33028SOL     OW 1400   3.611   3.299   5.497 -0.5766 -0.1373 -0.2139
33028SOL    HW1 1401   3.548   3.249   5.445 -1.3566  0.2967  0.2866
33028SOL    HW2 1402   3.624   3.380   5.448  1.6543 -1.2662 -1.6793
33029SOL     OW 1403   6.936   3.024   5.717  0.4050  0.3906 -0.0552
33029SOL    HW1 1404   6.974   2.969   5.649  0.9574  1.2649 -0.4762
33029SOL    HW2 1405   6.997   3.098   5.724 -0.4551  1.0787  0.3135
33030SOL     OW 1406   1.308   4.287   6.890  0.3435  0.1527 -0.7422
33030SOL    HW1 1407   1.213   4.286   6.899  0.4359  1.3760  0.8788
33030SOL    HW2 1408   1.324   4.269   6.798 -1.3882 -1.7784 -0.7349
33031SOL     OW 1409   5.779   7.248   1.793 -0.6984 -0.4508 -0.1232
33031SOL    HW1 1410   5.761   7.208   1.878 -0.2896 -0.7073 -0.1524
33031SOL    HW2 1411   5.771   7.177   1.730 -0.5667 -0.3568 -0.2481
33032SOL     OW 1412   8.857   2.262   9.419  0.0162  0.4207  0.1489
33032SOL    HW1 1413   8.929   2.317   9.387  0.1159 -0.1082 -0.5528
33032SOL    HW2 1414   8.785   2.279   9.358  0.3278 -0.8826 -0.6127
33033SOL     OW 1415   4.237   1.505   7.021  0.2789  0.4910 -0.2452
33033SOL    HW1 1416   4.308   1.554   6.981 -0.6341  1.2020 -1.0428
33033SOL    HW2 1417   4.251   1.515   7.115  1.5899  0.0576 -0.3651
33034SOL     OW 1418  10.354   0.840   7.654  0.4515  0.4280 -0.1467
33034SOL    HW1 1419  10.318   0.758   7.686  1.1130 -0.3169 -1.2209
33034SOL    HW2 1420  10.284   0.877   7.600 -0.8830  1.9771  2.4937
33035SOL     OW 1421   2.252   5.203   0.985 -0.0948  0.5084 -0.5078
33035SOL    HW1 1422   2.241   5.116   1.025  0.3487  1.0840  0.9547
33035SOL    HW2 1423   2.238   5.189   0.892 -4.4121 -0.4289  0.0493
33036SOL     OW 1424   4.671   0.328  10.582  0.1250 -0.1386  0.2884
33036SOL    HW1 1425   4.613   0.378  10.639 -0.0661 -0.0301  0.0008
33036SOL    HW2 1426   4.614   0.292  10.515  0.7467  2.7255 -1.9988
33037SOL     OW 1427   2.839   8.844   4.250  0.3426 -0.1214 -0.2427
33037SOL    HW1 1428   2.787   8.837   4.171 -0.5682  0.3623  0.2920
33037SOL    HW2 1429   2.929   8.857   4.219  0.4511 -2.6209 -1.1937
33038SOL     OW 1430   6.260   9.588   2.156 -0.5961  0.1544  1.0130
33038SOL    HW1 1431   6.212   9.529   2.097 -1.6984  0.5058  1.5313
33038SOL    HW2 1432   6.329   9.625   2.101  1.1741 -2.7840  1.0595
33039SOL     OW 1433   5.839   6.676   4.102 -0.1229  0.1833  0.4583
33039SOL    HW1 1434   5.778   6.724   4.158  0.0289 -1.1130  1.8012
33039SOL    HW2 1435   5.803   6.587   4.098  1.4609 -0.5066  0.9758
33040SOL     OW 1436  10.002   0.326   4.403 -0.0074  0.1418  0.1811
33040SOL    HW1 1437  10.054   0.324   4.483  0.0299 -0.8377  0.1417
33040SOL    HW2 1438   9.947   0.248   4.408 -1.5042  1.1590  0.2271
33041SOL     OW 1439   4.678   9.061   2.167  0.3693  0.4567 -0.1182
33041SOL    HW1 1440   4.598   9.034   2.121 -1.2835  1.4591  1.9537
33041SOL    HW2 1441   4.726   8.980   2.181 -1.3428 -0.5164  0.3927
33042SOL     OW 1442   8.243   6.157   2.712  0.1306  0.2254  0.4169
33042SOL    HW1 1443   8.203   6.132   2.795 -0.7229 -1.5316 -0.4670
33042SOL    HW2 1444   8.189   6.114   2.645  1.0392  1.2443 -1.0289
33043SOL     OW 1445   9.661   0.975   1.863 -0.3242  0.4791  0.3528
33043SOL    HW1 1446   9.724   1.018   1.920 -0.6231  1.4183 -0.0101
33043SOL    HW2 1447   9.579   1.023   1.876 -1.4922 -1.8147  2.1530
33044SOL     OW 1448   0.850   4.015   4.919 -0.2838 -0.1219 -0.5319
33044SOL    HW1 1449   0.867   3.976   5.005 -0.2952  0.2389 -0.3638
33044SOL    HW2 1450   0.765   4.059   4.929 -0.7394 -0.8830 -1.0090
33045SOL     OW 1451   2.891   7.968   7.639 -0.0419  0.7048  0.1748
33045SOL    HW1 1452   2.806   7.923   7.639  0.1971  0.2109 -0.7237
33045SOL    HW2 1453   2.869   8.060   7.624 -0.5527  0.9551  2.2513
33046SOL     OW 1454   4.200   8.637   4.659 -0.0283 -0.1623  0.7797
33046SOL    HW1 1455   4.140   8.576   4.703  0.7700 -1.8426 -0.3718
33046SOL    HW2 1456   4.252   8.582   4.600  1.8609  1.3976  0.8756
33047SOL     OW 1457   1.977   7.382   3.388 -0.5784 -0.0506  0.1329
33047SOL    HW1 1458   1.910   7.329   3.431 -0.8181  0.4623  0.3976
33047SOL    HW2 1459   1.937   7.406   3.304 -1.7420  2.2648  1.2514
33048SOL     OW 1460   0.099   4.217   5.957 -0.0815  0.2183  0.3107
33048SOL    HW1 1461   0.169   4.237   5.894  0.1067  1.0369  0.7648
33048SOL    HW2 1462   0.019   4.219   5.905  0.1279  0.3490 -0.0144
33049SOL     OW 1463   2.251   7.648   0.973  0.2902 -0.0410 -0.2888
33049SOL    HW1 1464   2.251   7.614   0.883 -2.6011 -0.0965 -0.3699
33049SOL    HW2 1465   2.324   7.709   0.976  0.7720 -0.4195 -2.5367
33050SOL     OW 1466   7.635   4.698   0.938  1.0553 -0.0464  0.7250
33050SOL    HW1 1467   7.688   4.742   0.872  0.6499  0.3504  0.6608
33050SOL    HW2 1468   7.698   4.669   1.005  1.7502 -2.1720 -0.7450
33051SOL     OW 1469   2.126   7.920   9.331  0.3009 -0.4501  0.8808
33051SOL    HW1 1470   2.210   7.915   9.378  1.9300 -0.0542 -1.7787
33051SOL    HW2 1471   2.142   7.872   9.249 -2.0307 -0.1612  0.1894
33052SOL     OW 1472   9.681   7.804   9.091 -0.0009 -0.1841  0.1690
33052SOL    HW1 1473   9.688   7.886   9.041 -0.0746  0.2526  0.8672
33052SOL    HW2 1474   9.611   7.820   9.154 -0.2704 -0.9236  0.0695
33053SOL     OW 1475   1.754  10.227   4.462 -0.1610 -0.2988  0.0252
33053SOL    HW1 1476   1.723  10.317   4.472 -0.9818 -0.4217 -1.0954
33053SOL    HW2 1477   1.846  10.235   4.440 -0.2393  0.2767 -0.1040
33054SOL     OW 1478   5.562   3.511   9.446  0.2894 -0.1928 -0.2480
33054SOL    HW1 1479   5.536   3.441   9.386 -0.7542  1.2117 -1.5141
33054SOL    HW2 1480   5.590   3.465   9.525  3.2640 -2.2285 -2.2874
33055SOL     OW 1481   0.495   7.346   6.213 -0.0801  0.0912 -0.8115
33055SOL    HW1 1482   0.567   7.407   6.228 -0.5628  0.9447 -1.9063
33055SOL    HW2 1483   0.521   7.296   6.136  0.0021 -0.6344 -0.3235
33056SOL     OW 1484   3.730   6.540   1.240  0.0622 -0.3040 -0.2488
33056SOL    HW1 1485   3.682   6.602   1.185  2.5807  2.3014  0.2648
33056SOL    HW2 1486   3.751   6.467   1.182  1.0441  1.4951 -2.3076
33057SOL     OW 1487   4.166   5.896   9.468  0.2289 -0.0863  0.4982
33057SOL    HW1 1488   4.140   5.985   9.445 -1.2060 -1.0080 -1.8006
33057SOL    HW2 1489   4.090   5.859   9.513  0.4842 -0.4168  0.6682
33058SOL     OW 1490   0.213  10.190   2.087  0.0401 -0.0422  0.3392
33058SOL    HW1 1491   0.288  10.167   2.142  0.3740 -0.2973 -0.2127
33058SOL    HW2 1492   0.172  10.106   2.065 -0.1961  0.0708  0.3404
33059SOL     OW 1493   5.195   5.836   3.987 -0.0751  0.4762 -0.2301
33059SOL    HW1 1494   5.251   5.876   3.921  3.1029 -1.2682  1.1838
33059SOL    HW2 1495   5.220   5.743   3.988 -0.1325  0.3498  3.1837
33060SOL     OW 1496   5.738   9.019   3.543 -0.1803  0.1410  0.6103
33060SOL    HW1 1497   5.793   9.034   3.620  1.7202 -1.6422 -0.2811
33060SOL    HW2 1498   5.745   9.099   3.492  2.1319 -0.1812  0.2881
33061SOL     OW 1499   0.071   6.082  10.260  0.7714  0.4755 -0.4142
33061SOL    HW1 1500   0.142   6.028  10.295  0.6377  1.0461  0.7649
33061SOL    HW2 1501   0.088   6.084  10.165 -1.0438 -4.2749 -1.1020
33062SOL     OW 1502   9.052   2.493   1.636 -0.2924 -0.5560 -0.0602
33062SOL    HW1 1503   9.060   2.525   1.726  2.9784  0.4817 -0.6108
33062SOL    HW2 1504   9.108   2.416   1.633  0.2057 -0.1636 -1.3839
33063SOL     OW 1505   8.913   9.030   9.681 -0.2965  0.0757 -0.0151
33063SOL    HW1 1506   9.004   9.008   9.701  0.1808  0.6388 -1.4493
33063SOL    HW2 1507   8.903   9.121   9.709  0.1278  0.5941 -1.4794
33064SOL     OW 1508   0.191   9.402   3.723 -0.0031 -0.2362 -0.1389
33064SOL    HW1 1509   0.214   9.342   3.794  0.1596 -1.2327 -0.9979
33064SOL    HW2 1510   0.099   9.425   3.740 -0.0579 -0.7098  0.2214
33065SOL     OW 1511   3.090   0.223   1.606  0.0716 -0.0179 -0.6605
33065SOL    HW1 1512   3.117   0.135   1.579  0.4081  0.0479 -0.5469
33065SOL    HW2 1513   3.020   0.246   1.546 -1.2632 -1.0854  0.4237
33066SOL     OW 1514   7.797   4.055   4.781 -0.2116  0.2840  0.2154
33066SOL    HW1 1515   7.807   4.073   4.875  1.5194  0.2144  0.0687
33066SOL    HW2 1516   7.774   4.139   4.743  2.1470  1.0586  0.3224
33067SOL     OW 1517   3.600   6.593   0.999 -0.3217  0.4909 -0.5912
33067SOL    HW1 1518   3.593   6.687   0.989 -1.5569  0.3911 -0.7528
33067SOL    HW2 1519   3.613   6.560   0.910  0.4201  0.5242 -0.5010
33068SOL     OW 1520   8.405   1.050   3.384  0.4011 -0.1074  0.0039
33068SOL    HW1 1521   8.361   1.104   3.318  2.4316 -1.0765 -2.3048
33068SOL    HW2 1522   8.358   0.966   3.382  1.3722 -0.6654 -1.4450
33069SOL     OW 1523   0.741   0.808   6.370 -0.1429 -0.6436 -0.0927
33069SOL    HW1 1524   0.830   0.834   6.395  1.1319 -2.4654 -2.3594
33069SOL    HW2 1525   0.699   0.890   6.343  0.8293  0.2541  1.0379
33070SOL     OW 1526   4.705   6.105   0.709  0.0920  0.2071  0.1766
33070SOL    HW1 1527   4.614   6.077   0.717  0.6343 -1.3763  1.2945
33070SOL    HW2 1528   4.728   6.087   0.618 -0.9665  1.5341 -0.3849
33071SOL     OW 1529   3.508   7.919   4.240 -0.0191  0.3363 -0.4794
33071SOL    HW1 1530   3.426   7.965   4.257 -0.9254 -1.9449  2.2118
33071SOL    HW2 1531   3.481   7.833   4.207  1.5109  0.7060 -3.0114
33072SOL     OW 1532   8.926  10.555   5.157  0.3549 -0.4659  0.4697
33072SOL    HW1 1533   8.846  10.534   5.205 -0.4439  1.4757  0.0738
33072SOL    HW2 1534   8.985  10.483   5.177 -1.6412 -2.2315  0.3673
33073SOL     OW 1535   1.082   6.574   2.459 -0.1763 -0.2108 -0.0998
33073SOL    HW1 1536   0.991   6.600   2.475 -0.4131 -1.4556  0.7358
33073SOL    HW2 1537   1.093   6.581   2.364 -1.9675 -2.4249 -0.5652
33074SOL     OW 1538   9.677   0.280   8.158 -0.2177  0.4773 -0.2679
33074SOL    HW1 1539   9.706   0.251   8.072 -1.0079  0.3992 -0.5096
33074SOL    HW2 1540   9.629   0.206   8.194 -1.6795  1.2219 -0.6207
33075SOL     OW 1541   9.105   3.152   6.576 -0.2333 -0.0823  0.3285
33075SOL    HW1 1542   9.049   3.228   6.591 -1.0706 -0.5947 -0.1207
33075SOL    HW2 1543   9.194   3.185   6.586 -0.6180  0.6074  1.7368
33076SOL     OW 1544   8.844   1.156   6.024 -0.0478  0.2088 -0.7418
33076SOL    HW1 1545   8.890   1.136   6.106 -0.3040  0.3209 -0.5687
33076SOL    HW2 1546   8.914   1.178   5.962  0.0461  2.7395  0.1527
33077SOL     OW 1547   2.026   3.364   2.109  0.4178  0.0570  0.2501
33077SOL    HW1 1548   2.019   3.449   2.153  0.6962  0.1271  0.1651
33077SOL    HW2 1549   2.109   3.328   2.139  0.5606  0.0588 -0.1324
33078SOL     OW 1550   5.997   1.237   7.309 -0.2424  0.7643 -0.6459
33078SOL    HW1 1551   5.940   1.256   7.235 -1.3270 -0.2871 -0.1091
33078SOL    HW2 1552   6.057   1.170   7.276  0.3983  1.5164 -1.0589
33079SOL     OW 1553   5.612  10.032   2.776  0.0869 -0.2861  0.8013
33079SOL    HW1 1554   5.586  10.023   2.684  0.2583 -2.1399  0.9038
33079SOL    HW2 1555   5.701  10.066   2.771 -0.0383 -0.0129  0.2885
33080SOL     OW 1556   6.076   6.092   0.607 -0.4235 -0.2706  0.3226
33080SOL    HW1 1557   6.129   6.120   0.533 -2.5521 -1.1098 -1.6685
33080SOL    HW2 1558   6.012   6.163   0.619 -0.0856 -0.1268  1.4312
33081SOL     OW 1559   3.940   5.035   0.825  0.5193 -0.1324  0.1199
33081SOL    HW1 1560   3.892   5.100   0.877  0.4862 -0.0922  0.0396
33081SOL    HW2 1561   3.952   4.961   0.884  1.3624  0.3023  0.5152
33082SOL     OW 1562   3.045   7.778   0.224 -0.2006 -0.4966  0.6378
33082SOL    HW1 1563   3.128   7.754   0.264 -0.8654 -1.2023  1.6566
33082SOL    HW2 1564   3.037   7.719   0.148  0.1566 -0.5302  0.6271
33083SOL     OW 1565   6.489   8.945   2.915 -0.3138 -0.3499  0.1872
33083SOL    HW1 1566   6.457   8.865   2.955 -0.6332 -1.1397 -1.5722
33083SOL    HW2 1567   6.420   8.972   2.854 -0.4357  1.5552  1.0839
33084SOL     OW 1568   3.502   0.886   5.584 -0.6026 -0.3699  0.0165
33084SOL    HW1 1569   3.588   0.867   5.546 -0.4601 -1.2018  0.7146
33084SOL    HW2 1570   3.515   0.968   5.632 -0.5696  0.2373 -0.9986
33085SOL     OW 1571   0.109   4.356   3.968 -0.2406  0.8849 -0.7689
33085SOL    HW1 1572   0.153   4.429   3.925  1.8211 -0.5005 -1.1741
33085SOL    HW2 1573   0.111   4.285   3.904  0.6336 -0.4564  0.6484
33086SOL     OW 1574   1.450   2.722   1.885 -0.2687  0.1614  0.6266
33086SOL    HW1 1575   1.521   2.733   1.822 -1.9088 -0.1698 -1.4028
33086SOL    HW2 1576   1.474   2.645   1.935  0.8503  0.1321  0.0847
33087SOL     OW 1577   4.508   4.279   3.736  0.4745 -0.0148 -0.0651
33087SOL    HW1 1578   4.578   4.326   3.781  0.7669  0.2720 -0.8215
33087SOL    HW2 1579   4.431   4.335   3.747  0.4793 -0.0754  0.3046
33088SOL     OW 1580   2.056   2.910   1.085 -0.4243 -0.1624 -0.6327
33088SOL    HW1 1581   2.141   2.913   1.039  0.6225 -2.8843  0.8876
33088SOL    HW2 1582   2.079   2.909   1.178 -2.3780  2.5216  0.0069
33089SOL     OW 1583   9.912   9.616   5.785  0.9830  0.2629  0.1203
33089SOL    HW1 1584   9.861   9.597   5.864  0.7371 -0.3124 -0.1708
33089SOL    HW2 1585   9.847   9.629   5.716  1.2263 -0.7248 -0.3084
33090SOL     OW 1586   5.235   4.817   6.231 -0.3128 -1.4609  0.4066
33090SOL    HW1 1587   5.179   4.762   6.175 -0.4870 -0.5572 -0.3368
33090SOL    HW2 1588   5.292   4.863   6.169 -0.9812  0.0875  0.9002
33091SOL     OW 1589   8.245   7.668   3.487  0.3627  0.5170 -0.5947
33091SOL    HW1 1590   8.228   7.592   3.542 -1.9212  1.1682 -0.2928
33091SOL    HW2 1591   8.309   7.720   3.538  3.5942 -2.0295 -1.7344
33092SOL     OW 1592   9.044   5.050   0.865 -0.2957  0.3401 -0.1169
33092SOL    HW1 1593   9.048   5.100   0.783  2.2812 -3.2800 -2.5279
33092SOL    HW2 1594   9.002   4.968   0.840  1.2429 -1.1841  1.9924
33093SOL     OW 1595   2.805   0.926   2.958  0.3334 -0.0362 -0.3721
33093SOL    HW1 1596   2.893   0.923   2.996 -0.3526 -0.3345  1.2753
33093SOL    HW2 1597   2.746   0.922   3.033 -1.1037 -0.4588 -1.4714
33094SOL     OW 1598   1.166   8.320   0.971  0.4873  0.2801 -0.4032
33094SOL    HW1 1599   1.252   8.313   1.013 -0.0091 -1.5877  0.4010
33094SOL    HW2 1600   1.186   8.349   0.882  1.9646 -0.0072 -0.2000
33095SOL     OW 1601   0.321  10.306   0.147 -0.6733 -0.1748  0.0091
33095SOL    HW1 1602   0.349  10.375   0.206  0.8580 -0.5328 -0.2461
33095SOL    HW2 1603   0.259  10.348   0.087 -0.2832  0.7953  0.2743
33096SOL     OW 1604   2.663   2.114   0.092 -0.3781 -0.5433  0.4550
33096SOL    HW1 1605   2.624   2.045   0.039  0.0132  0.0850 -0.6796
33096SOL    HW2 1606   2.685   2.070   0.175  0.2467 -1.8958 -0.3837
33097SOL     OW 1607   6.609   2.688   9.233 -0.4000 -0.0840 -0.4401
33097SOL    HW1 1608   6.702   2.706   9.242 -0.4302  0.7822 -1.5542
33097SOL    HW2 1609   6.576   2.762   9.181 -1.6149 -0.6102 -0.4431
33098SOL     OW 1610   1.691   7.588   6.454 -0.0055 -0.1923 -0.1159
33098SOL    HW1 1611   1.650   7.672   6.434 -0.6191 -0.3209  0.5601
33098SOL    HW2 1612   1.765   7.611   6.510  0.3215 -0.0389 -0.6013
33099SOL     OW 1613   4.268   7.235   5.250 -0.1538 -0.1156  0.2217
33099SOL    HW1 1614   4.182   7.262   5.283 -0.1197  2.0188 -1.1678
33099SOL    HW2 1615   4.256   7.232   5.155  1.3397  0.4059 -0.0033
33100SOL     OW 1616   5.115   8.892   1.659 -0.1089 -0.1322  0.2834
33100SOL    HW1 1617   5.093   8.885   1.751 -1.6847 -0.7843 -0.1123
33100SOL    HW2 1618   5.033   8.875   1.613  0.1874  2.0589 -1.2177
33101SOL     OW 1619  10.355   0.608   5.905  0.5701  0.6706 -0.0551
33101SOL    HW1 1620  10.301   0.534   5.931  2.0852 -0.5760 -0.3058
33101SOL    HW2 1621  10.300   0.685   5.919 -1.0799 -0.5063  0.0880
33102SOL     OW 1622   2.215   3.029   0.485 -0.3760  0.1925 -0.7795
33102SOL    HW1 1623   2.225   2.947   0.533 -1.9033  0.1193 -0.5352
33102SOL    HW2 1624   2.153   3.009   0.415 -0.0833  0.9251 -1.2617
33103SOL     OW 1625   4.263   6.260   5.366 -0.2593 -0.3946 -0.6631
33103SOL    HW1 1626   4.324   6.226   5.300  1.3204  0.7125  0.1342
33103SOL    HW2 1627   4.213   6.327   5.320  1.0274  0.5687 -0.7344
33104SOL     OW 1628   0.116   6.100   8.865  0.3116 -0.3693 -0.5792
33104SOL    HW1 1629   0.092   6.085   8.773  1.2488 -1.7852 -0.6126
33104SOL    HW2 1630   0.075   6.028   8.913 -0.8550  0.8099  0.2602
33105SOL     OW 1631   1.962   9.899   3.795  0.2278 -0.0778 -0.8647
33105SOL    HW1 1632   2.003   9.962   3.854  1.5296  0.4991 -2.3076
33105SOL    HW2 1633   1.960   9.817   3.844 -1.4371  1.0245  1.0298
33106SOL     OW 1634  10.374   9.536   5.097  0.3141  0.1047  0.5129
33106SOL    HW1 1635  10.322   9.553   5.176  1.9028 -0.0663  1.6534
33106SOL    HW2 1636  10.387   9.622   5.058  0.0387  0.2749  0.7912
33107SOL     OW 1637   3.388   4.539   1.555 -0.2404  0.1632 -0.1837
33107SOL    HW1 1638   3.317   4.542   1.620  0.9346  0.9458  1.1310
33107SOL    HW2 1639   3.351   4.491   1.481 -1.6619 -0.7060  1.0283
33108SOL     OW 1640   8.974   0.612   2.190 -0.6831  0.5225  0.1348
33108SOL    HW1 1641   8.900   0.672   2.185  0.9791  2.7042 -0.0304
33108SOL    HW2 1642   9.004   0.603   2.099 -0.2613  0.3304  0.2886
33109SOL     OW 1643   2.370   4.847   3.727 -0.4061 -1.0529  0.1855
33109SOL    HW1 1644   2.281   4.853   3.694 -0.0843  0.3778 -0.5169
33109SOL    HW2 1645   2.364   4.874   3.819 -0.2397  3.0232 -0.7939
33110SOL     OW 1646   4.462   9.430   0.536  0.2012  0.2056  1.1988
33110SOL    HW1 1647   4.391   9.468   0.588 -1.3898  1.6084 -1.7182
33110SOL    HW2 1648   4.506   9.505   0.496 -1.4938 -0.6646 -2.8403
33111SOL     OW 1649   9.048   7.014   4.875 -0.6289  0.0782  0.1861
33111SOL    HW1 1650   8.961   6.990   4.908  0.7940 -0.6996  3.8764
33111SOL    HW2 1651   9.095   7.047   4.952  2.1514  1.1218 -1.7933
33112SOL     OW 1652   9.906   3.134   8.782 -0.1719  0.1991  0.4554
33112SOL    HW1 1653   9.966   3.084   8.726  1.4782  1.3352  1.1174
33112SOL    HW2 1654   9.930   3.110   8.871 -1.4084 -0.0740  0.7293
33113SOL     OW 1655   6.902   5.391   0.172 -0.2831  0.5952  0.0519
33113SOL    HW1 1656   6.864   5.382   0.259 -0.2788  1.3770  0.1364
33113SOL    HW2 1657   6.993   5.418   0.187 -0.3064  0.8192 -0.1950
33114SOL     OW 1658   5.013   3.928   2.721  0.8423 -0.7350 -0.2086
33114SOL    HW1 1659   5.009   4.003   2.663 -0.7443 -1.4186 -1.0419
33114SOL    HW2 1660   4.996   3.964   2.808  0.4389 -0.0697 -0.5554
33115SOL     OW 1661   0.910   2.433   0.715  0.8091  0.3372 -0.0094
33115SOL    HW1 1662   0.894   2.345   0.750  0.6210  0.5132  0.3513
33115SOL    HW2 1663   0.911   2.490   0.792 -0.1064  0.7982 -0.3184
33116SOL     OW 1664   2.451  10.058   4.956  0.3671  0.3461  0.0529
33116SOL    HW1 1665   2.524  10.045   4.896 -0.0223  0.3528 -0.4303
33116SOL    HW2 1666   2.373  10.038   4.904  0.0425 -0.0276  0.6643
33117SOL     OW 1667   4.700   7.035   0.096  0.4057  0.5257 -0.1134
33117SOL    HW1 1668   4.644   7.076   0.162 -3.4010 -1.9696 -1.4672
33117SOL    HW2 1669   4.740   6.961   0.142  1.0982  1.1526  0.3347
33118SOL     OW 1670   7.651   3.266   1.294  0.1096  0.6099 -0.6275
33118SOL    HW1 1671   7.627   3.331   1.227  0.8670  1.9379  0.3421
33118SOL    HW2 1672   7.736   3.296   1.326  0.4485 -0.8531 -0.0945
33119SOL     OW 1673   8.699  10.017   9.294  0.1579  0.2091  0.2296
33119SOL    HW1 1674   8.742  10.089   9.248 -0.6942  0.5910  0.0068
33119SOL    HW2 1675   8.630   9.988   9.234 -0.1279 -0.1544  0.7251
33120SOL     OW 1676   8.116   7.795   7.023  0.4680  0.0357 -0.2955
33120SOL    HW1 1677   8.056   7.828   7.089  1.0878  0.4129  0.0964
33120SOL    HW2 1678   8.064   7.734   6.971  0.2698 -1.2308  1.2941
33121SOL     OW 1679   5.589   2.604   3.182  0.3702  0.1746  0.6177
33121SOL    HW1 1680   5.530   2.642   3.247  0.7876  1.0138  0.5205
33121SOL    HW2 1681   5.562   2.513   3.175  0.7871 -0.1361  2.5276
33122SOL     OW 1682   2.367   4.418   8.691 -0.3599 -0.2450 -0.5673
33122SOL    HW1 1683   2.368   4.370   8.774  0.0134 -1.1268 -1.0566
33122SOL    HW2 1684   2.332   4.355   8.628 -0.4195  0.3341 -1.1250
33123SOL     OW 1685   2.388   3.129   1.097  0.0226  0.6229  0.6192
33123SOL    HW1 1686   2.317   3.152   1.037  0.6722  0.5994 -0.1772
33123SOL    HW2 1687   2.346   3.121   1.182 -0.9246  0.6454  0.1662
33124SOL     OW 1688  10.187   1.834   0.792  0.2329  0.1010 -0.3485
33124SOL    HW1 1689  10.193   1.871   0.704  0.8399 -1.0770 -0.8096
33124SOL    HW2 1690  10.124   1.892   0.837 -0.5279  0.3851 -1.7073
33125SOL     OW 1691   9.571   7.366   4.268 -0.0201  0.5025  0.4891
33125SOL    HW1 1692   9.645   7.319   4.230 -1.1511 -0.0339 -1.1900
33125SOL    HW2 1693   9.498   7.305   4.261 -1.3760  2.1705 -1.0782
33126SOL     OW 1694   9.742   0.238   4.760  0.2419 -0.1082 -0.1307
33126SOL    HW1 1695   9.737   0.267   4.851 -1.1230 -1.8555  0.4153
33126SOL    HW2 1696   9.815   0.177   4.757 -0.2718 -0.7536  0.0514
33127SOL     OW 1697   9.597   5.854   1.384  0.4414 -0.4785  0.2107
33127SOL    HW1 1698   9.580   5.797   1.309 -2.2122  1.4455 -0.7857
33127SOL    HW2 1699   9.523   5.839   1.443  1.4870 -0.5214  1.5733
33128SOL     OW 1700   0.509   1.320   3.985 -0.2303  0.4588  0.1426
33128SOL    HW1 1701   0.456   1.392   4.019  0.4922  0.8504  0.4731
33128SOL    HW2 1702   0.477   1.242   4.030 -0.1921  0.7685  0.7083
33129SOL     OW 1703   5.254   7.567   3.486 -0.1005 -0.3007 -0.5883
33129SOL    HW1 1704   5.279   7.594   3.574 -2.4041  0.1246  0.0033
33129SOL    HW2 1705   5.287   7.477   3.478  1.0995  0.0395  0.2666
33130SOL     OW 1706   1.488   0.917   7.141 -0.5013  0.1859  0.0772
33130SOL    HW1 1707   1.481   0.902   7.235  1.2517  0.5238  0.2896
33130SOL    HW2 1708   1.529   1.003   7.133 -0.4156  0.0664 -0.9879
33131SOL     OW 1709   4.385   8.476   0.060 -0.2055  0.1787 -1.1733
33131SOL    HW1 1710   4.438   8.427  -0.002  1.4746 -0.4360  0.6409
33131SOL    HW2 1711   4.354   8.411   0.122  1.3033  1.1985  0.7577
33132SOL     OW 1712   7.818   6.015  10.336  0.0041  0.0132 -0.2772
33132SOL    HW1 1713   7.784   5.949  10.396  0.0123  0.6522  0.4431
33132SOL    HW2 1714   7.785   6.098  10.370  1.1368  0.5160 -0.3545
33133SOL     OW 1715   3.915   3.006   3.323  0.1527  0.3837 -0.0617
33133SOL    HW1 1716   3.821   3.000   3.306 -0.3523  0.8756  2.1723
33133SOL    HW2 1717   3.949   3.060   3.252 -1.2268  0.1209 -0.9636
33134SOL     OW 1718   5.805   0.297   1.260  0.2637 -0.6176 -0.3109
33134SOL    HW1 1719   5.819   0.232   1.191 -1.3517  0.4678 -1.7394
33134SOL    HW2 1720   5.889   0.301   1.306  1.6859 -0.8252 -2.6944
33135SOL     OW 1721   5.619   2.371   8.456  0.0558  0.0970 -0.0931
33135SOL    HW1 1722   5.613   2.454   8.409 -1.3666 -0.3489 -0.7457
33135SOL    HW2 1723   5.546   2.318   8.423  0.2535 -1.0058  1.1184
33136SOL     OW 1724  10.386   2.052  10.325 -0.1636  0.6215  0.4762
33136SOL    HW1 1725  10.296   2.021  10.319  0.3484 -0.9107  0.1401
33136SOL    HW2 1726  10.433   1.981  10.369  0.8313  1.4929  0.8540
33137SOL     OW 1727   3.489   9.085   6.134  0.1441  0.3123  0.1840
33137SOL    HW1 1728   3.402   9.071   6.173 -0.5631  1.3026 -0.9642
33137SOL    HW2 1729   3.516   8.998   6.105 -0.1013 -0.1396  1.2313
33138SOL     OW 1730   7.960   5.841   0.149  0.2962 -0.3101  0.3954
33138SOL    HW1 1731   7.944   5.930   0.180 -1.3882  0.2734 -1.8597
33138SOL    HW2 1732   8.051   5.842   0.120 -0.1488  1.2172 -1.0742
33139SOL     OW 1733   5.146   4.200  10.387  0.5381  0.2428  0.2812
33139SOL    HW1 1734   5.059   4.224  10.419  0.5603 -0.0551  0.5767
33139SOL    HW2 1735   5.138   4.107  10.366  0.4444  0.5018 -0.8698
33140SOL     OW 1736   5.495   5.413   0.532  0.0383 -0.1565 -0.3610
33140SOL    HW1 1737   5.505   5.384   0.622  2.0589  0.6231 -0.2863
33140SOL    HW2 1738   5.444   5.493   0.538 -1.5349 -1.1286 -0.1397
33141SOL     OW 1739   5.169   3.007   8.449  0.1615  0.0323  0.0988
33141SOL    HW1 1740   5.252   3.017   8.496 -0.0078  2.2009  0.0727
33141SOL    HW2 1741   5.103   3.043   8.509 -0.1505  2.2146 -1.4309
33142SOL     OW 1742   8.889   2.772   1.296 -0.4553  0.5084  0.2139
33142SOL    HW1 1743   8.816   2.833   1.291 -1.7151 -0.7471  2.0328
33142SOL    HW2 1744   8.885   2.736   1.384  0.9879 -1.2942 -0.3813
33143SOL     OW 1745   8.626   4.541   3.931 -0.8399  0.1549 -0.0747
33143SOL    HW1 1746   8.625   4.465   3.873  0.8211  0.9728 -1.2443
33143SOL    HW2 1747   8.655   4.613   3.876  1.5908  0.8194  1.8942
33144SOL     OW 1748   2.453   2.645   6.441 -0.2863 -0.4150  0.0965
33144SOL    HW1 1749   2.479   2.721   6.493  0.5483  0.5769 -1.6698
33144SOL    HW2 1750   2.384   2.679   6.383  0.3604 -0.8569 -0.9707
33145SOL     OW 1751   9.127   9.307   6.501  0.1765  0.3627  0.2641
33145SOL    HW1 1752   9.150   9.399   6.488  2.1312 -0.0366  0.6294
33145SOL    HW2 1753   9.093   9.278   6.416  0.5609  1.1424 -0.1596
33146SOL     OW 1754   9.024   3.109   8.762 -0.2091  0.1249  0.2055
33146SOL    HW1 1755   9.004   3.022   8.728  1.2374 -0.4554  0.7716
33146SOL    HW2 1756   9.118   3.120   8.748 -0.4154  1.7475 -0.1651
33147SOL     OW 1757   0.833   8.187   9.887  0.6546 -0.1333 -0.2761
33147SOL    HW1 1758   0.844   8.282   9.899  1.3124 -0.3849  1.3607
33147SOL    HW2 1759   0.752   8.167   9.934 -0.1946 -0.2149 -1.7187
33148SOL     OW 1760   5.505   5.507   7.685 -0.5572  0.6921 -0.3868
33148SOL    HW1 1761   5.463   5.476   7.605 -1.5237  0.3152  0.2478
33148SOL    HW2 1762   5.433   5.522   7.746  0.0079  2.6031 -0.1166
33149SOL     OW 1763   2.423   7.415   2.837  0.4264 -0.1565  0.1409
33149SOL    HW1 1764   2.498   7.450   2.885 -1.6554  1.4515  2.5234
33149SOL    HW2 1765   2.385   7.350   2.896  0.4209 -1.6252 -1.4171
33150SOL     OW 1766   8.365   8.060   3.118 -0.0219  0.3042 -0.2005
33150SOL    HW1 1767   8.291   8.013   3.158 -0.1157 -0.1031 -0.8362
33150SOL    HW2 1768   8.443   8.020   3.157 -0.0127 -1.7880 -2.1271
33151SOL     OW 1769   8.143   1.748   1.000  0.8175  0.7873  0.3730
33151SOL    HW1 1770   8.207   1.800   1.048 -0.1374  1.9996  0.3621
33151SOL    HW2 1771   8.084   1.714   1.068 -0.0992  1.8950  0.1516
33152SOL     OW 1772   4.630   6.728   7.254  0.2931  0.2994  0.1204
33152SOL    HW1 1773   4.609   6.669   7.182  3.0305 -0.8207  0.1020
33152SOL    HW2 1774   4.582   6.693   7.329 -0.8748  0.2007 -0.6452
33153SOL     OW 1775   5.357   5.328   4.293  0.1435  0.1250  0.0740
33153SOL    HW1 1776   5.386   5.410   4.253 -0.4540 -0.3562 -1.4150
33153SOL    HW2 1777   5.356   5.346   4.387 -1.6267  2.3728 -0.2951
33154SOL     OW 1778   6.887   1.459   1.789  0.3472  0.1208  0.4843
33154SOL    HW1 1779   6.942   1.384   1.812  0.3860  0.4623  1.6163
33154SOL    HW2 1780   6.866   1.447   1.697  0.4490 -1.2163  0.6146
33155SOL     OW 1781   5.388  10.593   0.372  0.0448 -0.9207  0.3648
33155SOL    HW1 1782   5.419  10.523   0.314 -0.4953 -1.5696  0.8352
33155SOL    HW2 1783   5.292  10.587   0.367 -0.0135  0.1301  0.0144
33156SOL     OW 1784   3.981   9.715   0.347 -0.1677  0.3464 -0.9277
33156SOL    HW1 1785   4.026   9.800   0.341  0.8253 -0.2080 -1.6117
33156SOL    HW2 1786   4.000   9.672   0.264 -0.1534 -0.7969 -0.3437
33157SOL     OW 1787   9.507   0.814   7.583  0.4946  0.3251 -0.5155
33157SOL    HW1 1788   9.493   0.908   7.572  1.5456  0.4799 -0.5556
33157SOL    HW2 1789   9.580   0.807   7.644  1.1376 -0.4552 -1.3511
33158SOL     OW 1790   9.893   8.877   7.107 -0.0619 -0.3234  0.2872
33158SOL    HW1 1791   9.817   8.896   7.162 -0.2578 -0.3409  0.0277
33158SOL    HW2 1792   9.921   8.963   7.075 -0.6266 -0.4056 -0.4653
33159SOL     OW 1793  10.108   8.341   4.479 -0.2430  0.1422  0.5044
33159SOL    HW1 1794  10.043   8.407   4.455  0.0945  0.8627  1.5024
33159SOL    HW2 1795  10.057   8.270   4.517 -0.5079  0.4015  0.6402
33160SOL     OW 1796  10.196  10.072   3.829  0.0735  0.1020  0.1925
33160SOL    HW1 1797  10.239  10.135   3.887 -0.9418 -0.4139  1.5595
33160SOL    HW2 1798  10.170  10.000   3.887 -1.3185 -0.2651 -0.8343
33161SOL     OW 1799   7.380   1.372  10.182  0.0509 -0.4059 -0.1958
33161SOL    HW1 1800   7.306   1.340  10.130 -0.2959 -0.2430  0.1890
33161SOL    HW2 1801   7.384   1.313  10.257  0.9657 -1.0441 -0.7281
33162SOL     OW 1802  10.421   8.569   8.105 -0.2966  0.1503 -0.0804
33162SOL    HW1 1803  10.348   8.601   8.052 -0.1817  0.6284  0.0420
33162SOL    HW2 1804  10.384   8.499   8.158 -0.6967  0.4785  0.0734
33163SOL     OW 1805   6.439   2.032   7.108  0.3531 -0.2888  0.3659
33163SOL    HW1 1806   6.421   2.111   7.159 -1.8385 -0.2802 -0.3285
33163SOL    HW2 1807   6.443   2.063   7.017  0.6649 -0.8272  0.1926
33164SOL     OW 1808   4.525   6.149   2.504 -0.5860 -0.4381  0.3977
33164SOL    HW1 1809   4.578   6.085   2.455 -2.9253 -1.8170 -0.5041
33164SOL    HW2 1810   4.540   6.232   2.460  0.5692 -0.8422 -0.0122
33165SOL     OW 1811   6.902   0.465   5.844 -0.6655 -0.1352  0.2732
33165SOL    HW1 1812   6.861   0.544   5.810  0.7563  0.7221  0.4835
33165SOL    HW2 1813   6.916   0.484   5.937 -0.9685 -0.9325  0.4940
33166SOL     OW 1814   5.685  10.412   5.533  0.1408  0.5695  0.3655
33166SOL    HW1 1815   5.609  10.355   5.526 -0.3182  1.0377  1.3696
33166SOL    HW2 1816   5.754  10.366   5.485 -0.5108 -0.3080  0.2514
33167SOL     OW 1817   5.882   1.717   3.050  0.2978 -0.7453  0.1070
33167SOL    HW1 1818   5.950   1.683   2.992  1.7310  0.8300  0.7802
33167SOL    HW2 1819   5.923   1.718   3.137 -1.1567 -1.2771  0.8373
33168SOL     OW 1820   1.836   8.586   2.727 -0.5271 -0.3137 -0.3584
33168SOL    HW1 1821   1.862   8.581   2.636 -0.2075  2.6141 -0.5271
33168SOL    HW2 1822   1.891   8.522   2.772 -0.3174 -1.4050 -2.1047
33169SOL     OW 1823   4.092   8.805  10.126 -0.4319  0.1523 -0.2349
33169SOL    HW1 1824   4.112   8.866  10.197  1.1466  0.3399 -0.7898
33169SOL    HW2 1825   4.073   8.861  10.051 -0.1764 -0.0337 -0.4404
33170SOL     OW 1826   8.128   8.702   9.967  0.2661 -0.0344 -0.0812
33170SOL    HW1 1827   8.184   8.632  10.001 -0.8020 -1.6923 -1.5526
33170SOL    HW2 1828   8.189   8.767   9.932  1.2911 -0.8864  0.0608
33171SOL     OW 1829   3.261   4.268   1.093  0.2186 -0.2949  0.3959
33171SOL    HW1 1830   3.210   4.303   1.020  1.3587  1.1948  0.2530
33171SOL    HW2 1831   3.258   4.173   1.082 -0.4507 -0.1280 -1.0158
33172SOL     OW 1832   1.033   0.150   6.067  0.2341  0.4079 -0.1819
33172SOL    HW1 1833   1.103   0.110   6.017  0.6387  1.7539 -0.7367
33172SOL    HW2 1834   0.993   0.213   6.007 -0.9675  0.2062  0.3620
33173SOL     OW 1835   3.695   4.436   1.175 -0.2314  0.7591 -0.2579
33173SOL    HW1 1836   3.785   4.470   1.181 -0.5122  1.3792  0.6166
33173SOL    HW2 1837   3.678   4.431   1.081  0.7234  0.6205 -0.4327
33174SOL     OW 1838   9.199   2.445   7.226  0.5955 -0.8860 -0.1586
33174SOL    HW1 1839   9.164   2.373   7.279  0.7935 -1.0109 -0.1947
33174SOL    HW2 1840   9.278   2.472   7.273  0.3429 -0.4706  0.0317
33175SOL     OW 1841   1.306   7.218   0.990  0.1304 -0.5332  0.1245
33175SOL    HW1 1842   1.327   7.231   0.898  0.6490 -0.0564  0.3006
33175SOL    HW2 1843   1.308   7.307   1.027  1.3130 -0.8456  0.8753
33176SOL     OW 1844   8.920   5.392   9.512  0.2850  0.2444  0.2041
33176SOL    HW1 1845   8.862   5.464   9.539  0.6907  1.2921 -1.5886
33176SOL    HW2 1846   8.969   5.426   9.438  1.7417 -1.3333  0.3664
33177SOL     OW 1847   7.328   7.812   5.001 -0.2622 -0.3914  0.1398
33177SOL    HW1 1848   7.322   7.800   5.096 -0.5064 -0.5678  0.1020
33177SOL    HW2 1849   7.282   7.737   4.964 -0.7620  0.0384 -0.1117
33178SOL     OW 1850   7.894   3.636   3.809  0.4442  0.0335 -0.4255
33178SOL    HW1 1851   7.840   3.597   3.877 -0.0597 -0.8426 -1.3112
33178SOL    HW2 1852   7.957   3.568   3.785  1.8171  0.9492  0.4166
33179SOL     OW 1853   5.663   0.854   8.400  0.4092  0.2293  0.1534
33179SOL    HW1 1854   5.597   0.847   8.331 -0.0529 -0.1536  0.6238
33179SOL    HW2 1855   5.694   0.765   8.413  2.2193  0.6118 -1.1852
33180SOL     OW 1856   5.784   5.807   7.272 -0.8126  0.4486 -0.2108
33180SOL    HW1 1857   5.772   5.789   7.179 -1.4716  0.0838 -0.0635
33180SOL    HW2 1858   5.727   5.744   7.316  0.7967 -0.5787  0.5052
33181SOL     OW 1859   5.997   6.765   6.634 -0.6059  0.1526 -0.4916
33181SOL    HW1 1860   5.989   6.860   6.640 -1.6095 -0.0303  1.5554
33181SOL    HW2 1861   6.059   6.742   6.703 -1.4212 -0.7873 -0.0535
33182SOL     OW 1862   7.987   0.756   1.413 -0.2710  0.2884 -0.6705
33182SOL    HW1 1863   7.960   0.791   1.328 -0.1931  0.5871 -0.5755
33182SOL    HW2 1864   8.063   0.809   1.437  0.3447 -0.4872 -0.8941
33183SOL     OW 1865  10.176   4.798   6.914 -0.3217  0.1416 -0.0728
33183SOL    HW1 1866  10.138   4.780   7.001 -1.9538  2.9399 -0.1151
33183SOL    HW2 1867  10.106   4.775   6.853  0.7261 -1.5418 -0.7117
33184SOL     OW 1868   1.520   7.545   3.583  0.7961 -0.0501 -0.6569
33184SOL    HW1 1869   1.481   7.618   3.534  0.6364 -0.7099 -1.5503
33184SOL    HW2 1870   1.473   7.544   3.666  2.6857  2.6101  0.6011
33185SOL     OW 1871   1.814   2.533   4.603 -0.1542 -0.5022 -0.0260
33185SOL    HW1 1872   1.863   2.490   4.534 -0.6282 -0.1255 -0.6018
33185SOL    HW2 1873   1.865   2.611   4.624 -1.3344  0.8303 -1.8337
33186SOL     OW 1874   5.714   0.380   2.828  0.1266  0.6449  0.3731
33186SOL    HW1 1875   5.770   0.433   2.771  1.4039  1.2615  2.1094
33186SOL    HW2 1876   5.743   0.401   2.916 -1.6579 -0.4192  1.2692
33187SOL     OW 1877   3.202   8.396   3.294 -0.3947  0.0863  0.8041
33187SOL    HW1 1878   3.219   8.455   3.368 -0.7827  0.7624  0.3665
33187SOL    HW2 1879   3.110   8.411   3.272  0.0306  0.8165 -0.5899
33188SOL     OW 1880   6.482   5.963   9.526 -0.5647  0.0729 -0.3633
33188SOL    HW1 1881   6.478   5.882   9.576  0.4113  0.0910 -0.2259
33188SOL    HW2 1882   6.558   5.952   9.469 -0.8252  0.6201 -0.8270
33189SOL     OW 1883   2.718   5.825   8.799  0.1872  0.2682  0.4046
33189SOL    HW1 1884   2.765   5.752   8.839  0.7110  0.5567  0.3354
33189SOL    HW2 1885   2.771   5.902   8.822  0.1355  0.5180 -0.2811
33190SOL     OW 1886   7.243  10.142   7.214  0.3633 -0.1293  0.2450
33190SOL    HW1 1887   7.160  10.173   7.176 -0.5457 -2.6689 -0.0216
33190SOL    HW2 1888   7.302  10.133   7.139  0.1456 -0.5058  0.1204
33191SOL     OW 1889   7.055   3.859   3.294 -0.5005 -0.6026 -0.6199
33191SOL    HW1 1890   7.025   3.784   3.345 -2.9166  0.2437 -0.6886
33191SOL    HW2 1891   7.125   3.897   3.347  0.2552 -2.4020 -0.2216
33192SOL     OW 1892   4.324   4.439   6.854 -0.0852 -0.1846 -0.4723
33192SOL    HW1 1893   4.284   4.516   6.814 -0.5268 -0.2262 -0.1207
33192SOL    HW2 1894   4.257   4.371   6.847  0.4363 -0.6485 -1.1185
33193SOL     OW 1895   2.181   1.215  10.087  0.6319  0.5139 -0.4830
33193SOL    HW1 1896   2.162   1.180  10.000 -0.7360 -1.7317  0.6142
33193SOL    HW2 1897   2.276   1.222  10.091  0.7971 -0.6527 -1.7169
33194SOL     OW 1898   0.629   8.723   1.396 -0.2367  0.1346  0.3138
33194SOL    HW1 1899   0.546   8.682   1.421 -0.9223  0.5590 -1.1778
33194SOL    HW2 1900   0.619   8.744   1.304  2.1514 -1.2720 -0.3499
33195SOL     OW 1901   8.240   4.440   1.608 -0.0549 -0.5327  0.1043
33195SOL    HW1 1902   8.201   4.459   1.694 -0.5910  1.4835 -0.5192
33195SOL    HW2 1903   8.239   4.524   1.562  1.9439 -1.1536 -1.2171
33196SOL     OW 1904   2.001   6.050   0.645  0.0189  0.2075  0.2363
33196SOL    HW1 1905   2.064   6.048   0.574 -1.1389 -2.8069 -0.8598
33196SOL    HW2 1906   2.017   5.971   0.695 -2.6747 -0.5941  0.0244
33197SOL     OW 1907  10.134   9.656   1.127 -0.2086  0.5764  0.0911
33197SOL    HW1 1908  10.136   9.747   1.100  0.0395  0.4801 -0.2219
33197SOL    HW2 1909  10.078   9.655   1.205 -1.4930  0.7425 -0.8009
33198SOL     OW 1910  10.158   1.676   1.631 -0.3155  0.1543 -0.4218
33198SOL    HW1 1911  10.173   1.681   1.726 -1.0557  1.7071 -0.3598
33198SOL    HW2 1912  10.064   1.684   1.621 -0.1023  1.8432 -1.3613
33199SOL     OW 1913   8.610   1.561   0.950  0.7861  0.2575  0.6399
33199SOL    HW1 1914   8.528   1.532   0.911  0.4981  0.0954  1.3511
33199SOL    HW2 1915   8.628   1.645   0.908  0.9683 -0.3342 -0.5148
33200SOL     OW 1916   5.673   8.498   4.419 -0.0051  0.0345  0.0217
33200SOL    HW1 1917   5.592   8.546   4.435 -1.1713 -1.8532  0.1845
33200SOL    HW2 1918   5.661   8.415   4.466  1.6911 -0.6177 -0.6188
33201SOL     OW 1919   3.214   0.654   0.477 -0.0070 -0.8533  0.0806
33201SOL    HW1 1920   3.277   0.714   0.516  0.2910 -1.1648  0.0780
33201SOL    HW2 1921   3.149   0.711   0.436  1.0134 -0.5194 -1.1350
33202SOL     OW 1922   3.364   9.290   4.396  0.1341 -0.4155  0.5108
33202SOL    HW1 1923   3.394   9.359   4.338  0.5790 -0.6975  0.3969
33202SOL    HW2 1924   3.420   9.215   4.375 -1.9439 -1.5984 -1.1127
33203SOL     OW 1925   7.368   7.081   1.678  0.0051  0.0396 -0.5177
33203SOL    HW1 1926   7.355   6.986   1.683 -0.3226  0.0572 -0.9447
33203SOL    HW2 1927   7.332   7.114   1.761  2.0966 -0.3932  0.6214
33204SOL     OW 1928   2.309   7.893   3.786  0.0864 -0.0911  0.1285
33204SOL    HW1 1929   2.219   7.864   3.780  0.3001 -0.4664 -1.8843
33204SOL    HW2 1930   2.345   7.844   3.860 -1.2051 -0.2845  0.6576
33205SOL     OW 1931  10.108   5.691   4.120 -0.5748  0.0132 -0.1693
33205SOL    HW1 1932  10.183   5.720   4.172 -0.2338  2.2912 -1.7591
33205SOL    HW2 1933  10.034   5.741   4.155 -1.1683 -1.4165  0.6795
33206SOL     OW 1934   9.018   0.532   7.832  0.1367 -0.7646  0.1555
33206SOL    HW1 1935   8.999   0.582   7.753  0.0293 -2.0693 -0.6642
33206SOL    HW2 1936   9.006   0.595   7.903 -4.1160 -0.5678 -0.4594
33207SOL     OW 1937   4.733   5.619   5.129 -0.2789 -0.3980 -0.6534
33207SOL    HW1 1938   4.815   5.624   5.079  0.2410  1.3115  0.2976
33207SOL    HW2 1939   4.667   5.653   5.068 -0.1138 -0.7688 -1.0506
33208SOL     OW 1940   6.047   0.033   6.372  0.0732  0.2676  0.2953
33208SOL    HW1 1941   6.097  -0.001   6.297 -0.1857  0.2064  0.1513
33208SOL    HW2 1942   5.957   0.007   6.355  0.0599 -0.0263  0.7879
33209SOL     OW 1943   8.371   5.115   1.451 -0.1502 -0.3910 -0.2260
33209SOL    HW1 1944   8.426   5.046   1.414 -0.5951 -0.6736 -0.3727
33209SOL    HW2 1945   8.361   5.178   1.380 -0.6849 -0.7450 -0.4812
33210SOL     OW 1946   1.793   3.609   5.807  0.1210  0.3713 -0.4740
33210SOL    HW1 1947   1.814   3.608   5.714 -0.0294 -0.9978 -0.5029
33210SOL    HW2 1948   1.700   3.585   5.811 -0.3609  2.1382 -0.0652
33211SOL     OW 1949   7.666   9.815   2.456 -0.6335  0.2683 -0.1927
33211SOL    HW1 1950   7.645   9.907   2.474 -2.6438 -0.2188  0.1374
33211SOL    HW2 1951   7.654   9.805   2.362  1.2080  0.6883 -0.5194
33212SOL     OW 1952   4.517   3.521   2.149 -0.8137  0.3945  0.4025
33212SOL    HW1 1953   4.573   3.488   2.219 -0.9992 -1.0459 -0.0952
33212SOL    HW2 1954   4.434   3.475   2.161 -1.5896  1.7626  0.5360
33213SOL     OW 1955   2.704   6.703   7.955  0.0645 -0.0984 -0.0593
33213SOL    HW1 1956   2.640   6.774   7.950  0.5835  0.4236  0.5735
33213SOL    HW2 1957   2.652   6.624   7.970 -0.4089  0.3635  0.7648
33214SOL     OW 1958   1.155   7.365   5.003 -0.4773  0.0156  0.4048
33214SOL    HW1 1959   1.170   7.445   5.054 -1.8963  0.4660  0.1625
33214SOL    HW2 1960   1.236   7.351   4.955 -0.2589  1.4160  0.3325
33215SOL     OW 1961   7.626  10.349   9.133  0.0162  0.3896 -0.2123
33215SOL    HW1 1962   7.715  10.330   9.105 -0.4857 -0.7776 -1.0957
33215SOL    HW2 1963   7.609  10.438   9.101 -0.5001 -0.8145 -3.7006
33216SOL     OW 1964   6.746   2.763   6.729  0.5705 -0.3182  0.5901
33216SOL    HW1 1965   6.797   2.710   6.790  0.2854 -0.3265  0.8190
33216SOL    HW2 1966   6.712   2.700   6.665  2.7506 -0.0776 -0.9561
33217SOL     OW 1967   9.480   3.122   1.597 -0.2499 -1.0096  0.2598
33217SOL    HW1 1968   9.437   3.108   1.682 -1.5476 -0.4309 -0.2816
33217SOL    HW2 1969   9.519   3.037   1.577  1.2112 -0.8167  2.0266
33218SOL     OW 1970   1.814   4.545   8.111 -0.2201 -0.2793  0.6226
33218SOL    HW1 1971   1.760   4.467   8.099 -1.3983  0.4276  1.0588
33218SOL    HW2 1972   1.772   4.591   8.184  2.3342 -0.8255  2.5931
33219SOL     OW 1973   2.631   9.970   5.591 -0.0199 -0.3424  0.2032
33219SOL    HW1 1974   2.561   9.909   5.565  0.0359 -0.1104 -0.5039
33219SOL    HW2 1975   2.710   9.916   5.594 -0.0482 -0.3936  0.0124
33220SOL     OW 1976   3.877   3.769   7.356  0.0817  0.7545  0.1434
33220SOL    HW1 1977   3.877   3.830   7.282  0.6120 -1.7237 -2.0335
33220SOL    HW2 1978   3.785   3.753   7.373 -0.0650  0.0062 -1.2154
33221SOL     OW 1979  10.090   8.156   5.396  0.2752  0.2951  0.0635
33221SOL    HW1 1980  10.072   8.126   5.485  0.2278 -0.2212 -0.1135
33221SOL    HW2 1981  10.039   8.097   5.340  0.2391  0.6676 -0.3010
33222SOL     OW 1982  10.202   9.302   8.621  0.1939  0.9002 -0.2084
33222SOL    HW1 1983  10.137   9.371   8.606 -1.3904 -0.4124  0.2771
33222SOL    HW2 1984  10.192   9.280   8.714  0.2376 -0.3758 -0.4875
33223SOL     OW 1985   2.616   2.791   4.089 -0.7035 -0.1445  0.1186
33223SOL    HW1 1986   2.529   2.798   4.050 -0.6275 -0.4608 -0.1071
33223SOL    HW2 1987   2.676   2.792   4.015 -0.5103  0.1454  0.2787
33224SOL     OW 1988   2.885  10.347   5.574 -0.1679  0.2210 -0.7902
33224SOL    HW1 1989   2.882  10.434   5.615  0.7932  0.2489 -0.7437
33224SOL    HW2 1990   2.795  10.316   5.576 -0.4146  0.9451 -0.2031
33225SOL     OW 1991   2.323   5.746   3.833  0.0285  0.1401  0.1882
33225SOL    HW1 1992   2.355   5.735   3.922  2.3086  0.2896 -0.5637
33225SOL    HW2 1993   2.247   5.688   3.828  0.9914 -1.3426  1.6615
33226SOL     OW 1994   5.803   6.488   2.504 -0.4096 -0.1968  0.5425
33226SOL    HW1 1995   5.799   6.439   2.586 -1.3750 -0.4308  0.3637
33226SOL    HW2 1996   5.815   6.579   2.530 -0.5759 -0.2878  0.9352
33227SOL     OW 1997   4.491   8.097   9.237  0.5306 -0.6216  0.7208
33227SOL    HW1 1998   4.471   8.160   9.168  0.2117  1.2059  2.4015
33227SOL    HW2 1999   4.472   8.012   9.198  0.9395  0.2869 -1.6175
33228SOL     OW 2000   8.481   7.081   8.032 -0.0526  0.0270 -0.1481
33228SOL    HW1 2001   8.454   7.122   7.950 -0.4460 -2.0486 -1.1329
33228SOL    HW2 2002   8.563   7.037   8.011 -0.4508 -1.0131  0.3931
33229SOL     OW 2003   5.567   0.602   0.569 -0.0440  0.5241  0.2540
33229SOL    HW1 2004   5.619   0.522   0.568 -0.4052  0.2880  0.0868
33229SOL    HW2 2005   5.545   0.618   0.478 -0.3895  0.5336  0.3341
33230SOL     OW 2006   3.479   9.808   5.126  0.4833  0.2526 -0.0364
33230SOL    HW1 2007   3.538   9.755   5.074 -0.6649  0.1377 -1.2579
33230SOL    HW2 2008   3.397   9.810   5.077 -0.8046 -0.2132  1.9482
33231SOL     OW 2009   3.450   9.125   0.205  0.1858  0.3658 -0.0770
33231SOL    HW1 2010   3.496   9.046   0.233  0.6518  0.1724 -1.3302
33231SOL    HW2 2011   3.467   9.189   0.274  0.7322 -0.2991  0.4082
33232SOL     OW 2012   4.198   9.571   1.668 -0.3245  0.0132  0.1309
33232SOL    HW1 2013   4.108   9.570   1.702  0.0088  0.5643  1.0833
33232SOL    HW2 2014   4.190   9.543   1.577 -1.4518 -0.0313  0.2298
33233SOL     OW 2015   1.801   4.314   3.524 -0.1487  0.3812  0.4125
33233SOL    HW1 2016   1.740   4.246   3.553  0.3344  1.0913  3.4744
33233SOL    HW2 2017   1.761   4.352   3.446 -0.6131 -3.1053 -1.2275
33234SOL     OW 2018   3.460   6.708   0.715  0.4704  0.7847 -0.2864
33234SOL    HW1 2019   3.381   6.660   0.737  1.8041 -1.1209  0.6809
33234SOL    HW2 2020   3.446   6.738   0.625 -1.3031  0.4438 -0.1547
33235SOL     OW 2021   7.870   3.793  10.024 -0.0681  0.4071  0.1287
33235SOL    HW1 2022   7.826   3.713  10.053 -1.2624  0.9894 -0.0227
33235SOL    HW2 2023   7.908   3.771   9.939  2.1242 -0.8448  1.3410
33236SOL     OW 2024   1.304   4.452   5.940 -0.3531 -0.0519 -0.1465
33236SOL    HW1 2025   1.357   4.380   5.908 -1.8316 -1.1444 -0.2545
33236SOL    HW2 2026   1.354   4.488   6.014  0.5143 -1.0454 -0.2247
33237SOL     OW 2027   0.061   8.671   3.485 -0.5271 -0.2612 -0.2582
33237SOL    HW1 2028   0.064   8.748   3.428 -0.0850 -0.8714 -1.0852
33237SOL    HW2 2029   0.128   8.612   3.449 -2.7873 -2.2775 -1.4309
33238SOL     OW 2030   6.715   3.573   9.820 -0.2844  0.0689  0.0172
33238SOL    HW1 2031   6.797   3.606   9.856 -0.7718  1.9256 -0.4642
33238SOL    HW2 2032   6.649   3.593   9.886 -0.3313 -1.7433  0.5635
33239SOL     OW 2033   8.409   9.270   9.795  0.2952 -0.5353 -0.3206
33239SOL    HW1 2034   8.346   9.199   9.785  0.2662 -0.3053 -1.8837
33239SOL    HW2 2035   8.416   9.309   9.709  2.2427 -0.2677 -0.0916
33240SOL     OW 2036   7.140   9.476   3.215 -0.2163 -0.0063  0.2367
33240SOL    HW1 2037   7.113   9.545   3.275  3.5964  3.1716 -1.3055
33240SOL    HW2 2038   7.116   9.509   3.128  0.1148 -1.4766 -0.4488
33241SOL     OW 2039   9.770   1.998   3.306  0.0112  0.0660 -0.7374
33241SOL    HW1 2040   9.780   1.988   3.401  1.1157 -0.6893 -0.9185
33241SOL    HW2 2041   9.680   1.968   3.288 -0.2224  0.2632  0.0660
33242SOL     OW 2042   4.345   2.147   7.198  0.5835  0.3972 -0.0576
33242SOL    HW1 2043   4.437   2.155   7.225  0.4057  1.2675  0.3300
33242SOL    HW2 2044   4.316   2.064   7.237  0.1428  1.9031  3.1773
33243SOL     OW 2045   0.202   4.743   2.200  0.1900 -0.2059  0.0076
33243SOL    HW1 2046   0.231   4.665   2.153  0.6094  0.5090 -0.9559
33243SOL    HW2 2047   0.107   4.742   2.194  0.2366 -0.2140 -0.7056
33244SOL     OW 2048   8.463   8.899   6.157 -0.0574  0.5314 -0.1788
33244SOL    HW1 2049   8.483   8.836   6.227  0.9540  0.6916 -0.3075
33244SOL    HW2 2050   8.368   8.904   6.156 -0.2117 -1.3896 -0.4879
33245SOL     OW 2051   8.537   1.415   3.946  0.5808 -0.3307 -0.3703
33245SOL    HW1 2052   8.619   1.406   3.995  0.0379 -1.9490  0.2905
33245SOL    HW2 2053   8.490   1.333   3.962 -1.5567  0.8892 -0.0544
33246SOL     OW 2054   7.697   7.698   9.621 -0.0143 -0.7017  0.1272
33246SOL    HW1 2055   7.764   7.699   9.689  1.1757 -0.2350 -1.0280
33246SOL    HW2 2056   7.677   7.605   9.609  1.4161 -0.9498 -0.4593
33247SOL     OW 2057   2.581   7.640   1.455  0.0920  0.2013  0.5162
33247SOL    HW1 2058   2.652   7.664   1.395 -0.4532 -1.3428 -0.8115
33247SOL    HW2 2059   2.623   7.595   1.527  0.4397 -1.3525 -0.6181
33248SOL     OW 2060   3.567   8.284   3.254 -0.3279  0.4290  0.1470
33248SOL    HW1 2061   3.494   8.245   3.207 -0.0914  0.7472 -0.4867
33248SOL    HW2 2062   3.627   8.211   3.270 -0.4205  0.3169 -0.0203
33249SOL     OW 2063   9.903   2.677   4.698 -0.2538 -0.6376 -0.6616
33249SOL    HW1 2064   9.986   2.646   4.664  0.8825  1.4816 -0.0309
33249SOL    HW2 2065   9.913   2.673   4.793  0.0721  1.7095 -0.5266
33250SOL     OW 2066   8.760   3.090   2.831 -0.0689 -0.1650 -0.2770
33250SOL    HW1 2067   8.781   3.156   2.898  1.3482 -0.2798 -0.5754
33250SOL    HW2 2068   8.777   3.006   2.875 -0.5900 -0.2951 -0.3181
33251SOL     OW 2069  10.421  10.274   4.898 -0.2620 -0.0911  0.0316
33251SOL    HW1 2070  10.451  10.210   4.963  2.3097  2.1027  1.1890
33251SOL    HW2 2071  10.501  10.310   4.861 -1.5613  2.5646 -0.4452
33252SOL     OW 2072   3.940   4.225   4.451 -0.4369  0.3350  0.4061
33252SOL    HW1 2073   3.899   4.199   4.369 -3.4800  0.9761  1.5937
33252SOL    HW2 2074   3.983   4.146   4.483 -1.7126 -0.7284 -0.4178
33253SOL     OW 2075   4.423   4.475   5.733 -0.0736  0.4397 -0.0093
33253SOL    HW1 2076   4.495   4.449   5.791  0.4898  0.3742 -0.7257
33253SOL    HW2 2077   4.465   4.529   5.666 -0.7282  0.5589 -0.3238
33254SOL     OW 2078   3.903   0.306   7.285 -0.0939  0.3701 -0.2833
33254SOL    HW1 2079   3.936   0.376   7.229 -0.6193  1.2855  0.5300
33254SOL    HW2 2080   3.980   0.252   7.304 -0.0340 -0.4151 -2.4902
33255SOL     OW 2081   9.899   3.973   5.003  0.3940 -0.1087 -0.6144
33255SOL    HW1 2082   9.873   4.057   5.039  1.4814  0.4459 -1.0824
33255SOL    HW2 2083   9.967   3.994   4.940 -2.1354 -0.8886 -3.8831
33256SOL     OW 2084   4.514   7.295   9.607 -0.6119  0.0847  0.2614
33256SOL    HW1 2085   4.514   7.387   9.635 -1.1686  0.3168 -0.4519
33256SOL    HW2 2086   4.423   7.277   9.584 -0.3812 -0.4344 -0.2736
33257SOL     OW 2087   0.480  10.162   8.099 -0.0418 -0.0626  0.6161
33257SOL    HW1 2088   0.548  10.219   8.134  0.8712  0.0780 -1.2832
33257SOL    HW2 2089   0.509  10.073   8.121 -0.2297  0.0824  1.4643
33258SOL     OW 2090   9.121   6.590   6.442 -0.4480  0.0035 -0.2006
33258SOL    HW1 2091   9.075   6.617   6.522  0.8227  0.2692  0.4739
33258SOL    HW2 2092   9.112   6.665   6.383  2.4046  1.8206  1.3809
33259SOL     OW 2093   9.647   5.682   6.612 -0.0272  0.3442 -0.3520
33259SOL    HW1 2094   9.641   5.681   6.517  1.3909 -0.3704 -0.4703
33259SOL    HW2 2095   9.729   5.727   6.631  0.5209 -0.9183  0.4443
33260SOL     OW 2096  10.464   1.001   1.107 -0.3300  0.5141 -0.7079
33260SOL    HW1 2097  10.468   1.028   1.015  0.1161 -1.9708 -1.4881
33260SOL    HW2 2098  10.384   0.948   1.112 -0.5028  0.8689  0.4330
33261SOL     OW 2099   3.910   0.417  10.498 -0.0277  0.3622  0.7689
33261SOL    HW1 2100   3.888   0.432  10.406 -1.2911  1.9984  1.2736
33261SOL    HW2 2101   3.904   0.323  10.510 -0.6590  0.2035 -0.6409
33262SOL     OW 2102   7.562   3.791   8.774  0.3022  0.7062  0.4962
33262SOL    HW1 2103   7.506   3.816   8.701  1.0167  0.1869 -0.2428
33262SOL    HW2 2104   7.518   3.714   8.812  0.6171  0.1669 -0.2147
33263SOL     OW 2105   7.798   9.846   6.841 -0.4096  0.3867 -0.3173
33263SOL    HW1 2106   7.746   9.879   6.769  0.1435 -0.1710 -0.9929
33263SOL    HW2 2107   7.749   9.770   6.873 -0.1402  0.0026 -0.8002
33264SOL     OW 2108   1.244  10.557   3.209  0.2093  0.2256 -0.4310
33264SOL    HW1 2109   1.174  10.614   3.243  0.0044 -0.5137  0.4150
33264SOL    HW2 2110   1.198  10.495   3.152  0.2057 -0.1032 -0.0725
33265SOL     OW 2111   2.554   1.585   4.347  0.0965 -0.1518  0.3737
33265SOL    HW1 2112   2.512   1.620   4.268  0.5234 -0.5166 -0.0138
33265SOL    HW2 2113   2.516   1.637   4.418 -1.0377 -0.4898  0.0373
33266SOL     OW 2114   8.501   1.544   2.086  0.0738  0.0016 -0.3015
33266SOL    HW1 2115   8.426   1.485   2.076 -0.6391  0.6042  1.2903
33266SOL    HW2 2116   8.548   1.537   2.002 -1.8609 -0.2417 -1.4252
33267SOL     OW 2117   3.162  10.088   8.566  0.1090  0.1109 -0.9591
33267SOL    HW1 2118   3.086  10.040   8.598  0.8704 -1.4950 -1.4593
33267SOL    HW2 2119   3.127  10.173   8.540 -1.5120 -0.5772 -1.1564
33268SOL     OW 2120  10.294   2.487   3.011 -0.0949 -0.1258  0.5198
33268SOL    HW1 2121  10.262   2.431   3.082  0.3504  0.0733  0.8807
33268SOL    HW2 2122  10.374   2.444   2.981 -0.8910 -0.8589 -0.6701
33269SOL     OW 2123   3.352   2.767   8.900 -0.7097  0.6145 -0.0095
33269SOL    HW1 2124   3.425   2.828   8.903 -0.4882  0.3961 -0.6588
33269SOL    HW2 2125   3.277   2.821   8.877 -0.7701  0.8487  0.7132
33270SOL     OW 2126  10.199   6.122   7.502 -0.3366 -0.0471 -0.1127
33270SOL    HW1 2127  10.269   6.184   7.520 -0.3289 -0.1328  0.1641
33270SOL    HW2 2128  10.126   6.176   7.472  0.1055 -0.0277 -1.1939
33271SOL     OW 2129   7.017   7.920   3.973 -0.6332 -0.0144  0.4772
33271SOL    HW1 2130   6.939   7.973   3.990 -0.6960 -0.3210  1.2117
33271SOL    HW2 2131   6.998   7.836   4.016  1.1816  0.8023  3.1868
33272SOL     OW 2132   2.507  10.442   6.180  0.3132 -0.1394  0.1549
33272SOL    HW1 2133   2.429  10.422   6.232 -0.0316 -1.2720 -0.7499
33272SOL    HW2 2134   2.505  10.379   6.108  1.9867 -0.0982  0.0208
33273SOL     OW 2135   8.816  10.298   8.985 -0.0886 -0.4409 -0.2266
33273SOL    HW1 2136   8.851  10.232   9.046 -1.4593 -1.5142 -0.5480
33273SOL    HW2 2137   8.768  10.359   9.041  1.7833  0.7704  0.1601
33274SOL     OW 2138   5.635   8.288   2.952 -0.6382 -0.1134  0.1666
33274SOL    HW1 2139   5.618   8.235   2.875 -0.1441  0.0505 -0.0580
33274SOL    HW2 2140   5.627   8.227   3.025 -1.4134 -0.2037  0.0189
33275SOL     OW 2141   2.326   3.039   5.861 -0.6704 -0.3201 -0.0192
33275SOL    HW1 2142   2.400   3.083   5.819  0.2178 -0.1569  1.6642
33275SOL    HW2 2143   2.365   2.967   5.910 -1.7680 -0.9324 -0.0008
33276SOL     OW 2144   7.238   2.422   9.152 -0.2019 -0.0874 -0.8540
33276SOL    HW1 2145   7.316   2.391   9.106 -0.1939 -1.4528  0.0125
33276SOL    HW2 2146   7.268   2.439   9.241 -0.3264  2.0079 -1.1763
33277SOL     OW 2147  10.206  10.121   6.289 -0.0422 -0.2777 -0.2547
33277SOL    HW1 2148  10.270  10.143   6.221  0.8190  2.0062  1.1968
33277SOL    HW2 2149  10.205  10.025   6.290  1.3433 -0.3761 -2.1571
33278SOL     OW 2150   8.921   4.006   1.073 -0.2977 -0.1967 -0.0898
33278SOL    HW1 2151   8.872   3.974   0.997 -0.1586  0.1239 -0.3106
33278SOL    HW2 2152   8.853   4.021   1.140 -0.6587  1.4342 -0.7910
33279SOL     OW 2153   0.965   6.862   1.739  0.2059 -0.1804  0.1197
33279SOL    HW1 2154   0.874   6.892   1.748 -0.0301 -0.0475 -2.0589
33279SOL    HW2 2155   0.964   6.772   1.772 -1.2521 -0.9084 -1.7136
33280SOL     OW 2156   9.532   6.134   9.717 -0.2609  0.5248 -0.0127
33280SOL    HW1 2157   9.500   6.197   9.782  0.4092  0.2224  0.6303
33280SOL    HW2 2158   9.608   6.094   9.759 -1.0909 -1.2212 -0.1150
33281SOL     OW 2159   2.994   4.682   7.354  0.4408 -0.3773 -0.2101
33281SOL    HW1 2160   3.084   4.714   7.365  0.2993 -0.3195  0.9178
33281SOL    HW2 2161   2.990   4.604   7.410 -0.9538  1.0957  1.8494
33282SOL     OW 2162  10.314   0.520   3.390 -0.1841 -0.0313 -0.3126
33282SOL    HW1 2163  10.294   0.509   3.483 -2.9967  1.5933 -0.6038
33282SOL    HW2 2164  10.235   0.559   3.353  0.6674 -1.0573 -3.5182
33283SOL     OW 2165   3.459   6.501   3.381 -0.2389  0.4421  0.2053
33283SOL    HW1 2166   3.455   6.445   3.304  2.7966  0.5930 -0.1824
33283SOL    HW2 2167   3.463   6.590   3.346 -0.3092  0.5988  0.5911
33284SOL     OW 2168   6.791   0.753   0.437  0.1535  0.4695 -0.1139
33284SOL    HW1 2169   6.739   0.731   0.359  0.7699 -0.5258 -0.2627
33284SOL    HW2 2170   6.842   0.829   0.411 -1.1763  1.4431  0.0200
33285SOL     OW 2171   2.133   3.365   8.968  0.2673 -0.1428  0.6047
33285SOL    HW1 2172   2.062   3.308   8.941 -0.0078 -0.6649  2.2864
33285SOL    HW2 2173   2.091   3.448   8.990  0.4403  0.1693 -0.2352
33286SOL     OW 2174   0.546   6.020   8.456  0.5860 -0.0699  0.0617
33286SOL    HW1 2175   0.517   5.930   8.438 -2.1457  0.6130  0.5250
33286SOL    HW2 2176   0.640   6.013   8.468  0.1738 -3.3729  2.8322
33287SOL     OW 2177   2.239   3.878   8.855 -0.0333  0.3985 -0.5234
33287SOL    HW1 2178   2.203   3.947   8.909  1.4857  1.8891 -1.3190
33287SOL    HW2 2179   2.259   3.807   8.916 -2.1159  0.3819  0.2279
33288SOL     OW 2180   7.923   1.869   1.812  0.0619  0.2501  0.0969
33288SOL    HW1 2181   7.843   1.905   1.852 -0.2458  0.4887 -0.7180
33288SOL    HW2 2182   7.936   1.785   1.857 -0.7932  0.0872  0.0607
33289SOL     OW 2183   6.491   2.506   3.618  0.0954  0.5058 -0.1100
33289SOL    HW1 2184   6.523   2.576   3.675  1.6112  0.6006 -1.0348
33289SOL    HW2 2185   6.421   2.546   3.567 -0.2069  0.8539  0.5679
33290SOL     OW 2186   1.116   1.959   7.177  0.3940  0.4382  0.8965
33290SOL    HW1 2187   1.152   1.872   7.192  1.0286  0.5114 -0.0932
33290SOL    HW2 2188   1.066   1.952   7.095  0.1107  0.9020  1.0228
33291SOL     OW 2189   5.680   5.507   8.169 -0.1177  0.3951 -0.2853
33291SOL    HW1 2190   5.694   5.441   8.101 -0.6324 -1.1217  0.9943
33291SOL    HW2 2191   5.727   5.584   8.139  1.4096 -0.8939 -1.3671
33292SOL     OW 2192   6.285   6.080   7.804  0.1892  0.3940 -0.5012
33292SOL    HW1 2193   6.275   6.055   7.895 -0.4005  0.5799 -0.5076
33292SOL    HW2 2194   6.375   6.057   7.782 -0.4765 -2.3509 -0.7109
33293SOL     OW 2195   8.084   8.017   3.700 -0.4600 -0.6804 -0.0972
33293SOL    HW1 2196   8.007   8.022   3.644  0.1230  0.1562 -0.8645
33293SOL    HW2 2197   8.089   8.104   3.741 -0.8947 -1.2842  1.3063
33294SOL     OW 2198   9.711   7.112   6.486  0.6215  0.1665  0.1749
33294SOL    HW1 2199   9.736   7.141   6.574  0.1805  0.7022  0.1329
33294SOL    HW2 2200   9.777   7.151   6.429 -0.2634  1.5849  0.0620
33295SOL     OW 2201   3.970   7.960   4.307  0.1945  0.3231 -0.4223
33295SOL    HW1 2202   4.007   7.947   4.220 -2.4230  0.1523 -1.5960
33295SOL    HW2 2203   3.904   7.892   4.316 -2.6638  2.8983 -0.1763
33296SOL     OW 2204   9.321   1.618   9.543 -0.6476 -0.0655 -0.2843
33296SOL    HW1 2205   9.381   1.560   9.590  0.0418  0.9945  0.1723
33296SOL    HW2 2206   9.246   1.626   9.601  0.1563  1.1538  0.6306
33297SOL     OW 2207   4.254   5.702   5.047 -0.0054  0.4271 -0.3784
33297SOL    HW1 2208   4.227   5.712   5.138  0.3238 -1.8024  0.0090
33297SOL    HW2 2209   4.342   5.739   5.045  0.3415 -0.3218  0.4351
33298SOL     OW 2210   8.752   3.447   1.176 -0.1568  0.1737 -0.5619
33298SOL    HW1 2211   8.801   3.471   1.255 -1.0246  0.5684 -0.1308
33298SOL    HW2 2212   8.815   3.398   1.123  1.3019  2.2413 -0.8701
33299SOL     OW 2213   3.708   4.806   8.910  0.1388 -0.0009 -0.3029
33299SOL    HW1 2214   3.678   4.869   8.975  1.0491  0.2061 -0.0727
33299SOL    HW2 2215   3.629   4.783   8.860 -0.5334 -0.0378  0.7532
33300SOL     OW 2216   7.141   8.896   8.705 -0.3268 -0.5491  0.2353
33300SOL    HW1 2217   7.214   8.958   8.714 -2.2411  1.6899  1.8118
33300SOL    HW2 2218   7.150   8.860   8.617  1.1536  1.6751 -0.6124
33301SOL     OW 2219   5.788   5.795   5.226 -0.3249  0.0710  0.0183
33301SOL    HW1 2220   5.873   5.754   5.209 -0.7602  0.0602 -2.4684
33301SOL    HW2 2221   5.738   5.728   5.274  0.6710 -0.3301  0.5177
33302SOL     OW 2222   2.102   5.823   7.350 -0.2314 -0.5001  0.0325
33302SOL    HW1 2223   2.018   5.845   7.391  0.6793 -1.3566  2.5680
33302SOL    HW2 2224   2.156   5.901   7.362 -0.2505 -0.4225 -0.3890
33303SOL     OW 2225   9.234   0.255   9.621 -0.1900 -0.1220 -0.4804
33303SOL    HW1 2226   9.193   0.334   9.586  0.4289  0.1971 -0.4938
33303SOL    HW2 2227   9.323   0.257   9.588  0.2972 -0.0194  0.7903
33304SOL     OW 2228   0.188   3.799   5.994  0.4152  0.3851  0.4651
33304SOL    HW1 2229   0.166   3.710   6.022  0.0156  0.5829  0.7939
33304SOL    HW2 2230   0.137   3.811   5.913  2.8028 -0.7686 -1.3381
33305SOL     OW 2231   5.109   6.738   8.700  0.4202  0.2183 -0.1624
33305SOL    HW1 2232   5.055   6.724   8.622  0.0023  0.4495  0.0790
33305SOL    HW2 2233   5.136   6.651   8.727  0.5466  0.1350 -0.5519
33306SOL     OW 2234   8.465   9.729   0.516  0.3764 -0.5091  0.2833
33306SOL    HW1 2235   8.551   9.706   0.480 -0.5800 -2.2410 -1.0675
33306SOL    HW2 2236   8.453   9.669   0.589 -1.2934 -3.2904 -2.0376
33307SOL     OW 2237   8.058   6.672   4.055  0.8197 -0.0053  0.3798
33307SOL    HW1 2238   8.050   6.679   4.150 -0.0263  0.1511  0.3034
33307SOL    HW2 2239   7.969   6.684   4.022  1.3190  1.4964 -0.5265
33308SOL     OW 2240   0.976   6.451   7.172  0.1754 -0.2264  0.2550
33308SOL    HW1 2241   1.038   6.524   7.167 -1.9845  1.7070 -0.1943
33308SOL    HW2 2242   0.908   6.473   7.109 -1.8202 -1.3735  1.8688
33309SOL     OW 2243   1.457   3.287  10.216 -0.1290  0.0567 -0.1653
33309SOL    HW1 2244   1.411   3.203  10.217  0.7276 -0.4227  0.0205
33309SOL    HW2 2245   1.433   3.328  10.299 -1.1312  0.3261 -0.5772
33310SOL     OW 2246   3.542   8.389   1.724  1.3159 -0.4743 -0.2026
33310SOL    HW1 2247   3.570   8.402   1.633  1.6398  0.8552  0.0592
33310SOL    HW2 2248   3.580   8.305   1.749  0.9782 -0.9960 -1.3885
33311SOL     OW 2249   8.147   9.814   1.765 -0.4935  0.3690 -0.1287
33311SOL    HW1 2250   8.066   9.828   1.716 -0.2897  1.4228 -0.1929
33311SOL    HW2 2251   8.216   9.845   1.706  0.0071 -0.8760 -0.2280
33312SOL     OW 2252   0.181   5.036  10.555 -0.2526 -0.5219 -0.0532
33312SOL    HW1 2253   0.147   5.120  10.525  2.8478  1.6415  1.9246
33312SOL    HW2 2254   0.271   5.033  10.522  0.7967 -1.4578  2.6264
33313SOL     OW 2255   8.459   6.457   2.002  0.2198  0.2630 -0.2060
33313SOL    HW1 2256   8.399   6.529   1.984 -1.9308 -1.1159  1.0285
33313SOL    HW2 2257   8.509   6.446   1.921 -0.1210  2.4306 -0.7635
33314SOL     OW 2258   3.176   1.460   2.714 -0.0344  0.3794  0.2839
33314SOL    HW1 2259   3.208   1.382   2.759 -1.0364  0.9888  2.1823
33314SOL    HW2 2260   3.095   1.432   2.672  1.1861 -0.3342 -1.7261
33315SOL     OW 2261  10.567   1.977   7.056 -0.2485  0.3055  0.3694
33315SOL    HW1 2262  10.623   1.966   7.133 -0.8165  1.5061  0.9808
33315SOL    HW2 2263  10.547   2.071   7.054 -0.5184  0.2351 -1.0534
33316SOL     OW 2264   9.021   5.811   6.168  0.0831  0.3794 -0.1506
33316SOL    HW1 2265   8.966   5.812   6.090 -0.2592 -0.6527  0.0648
33316SOL    HW2 2266   9.061   5.724   6.169 -0.7170 -0.0151  1.3507
33317SOL     OW 2267   5.158   7.377   3.977  0.1011  0.0360  0.1798
33317SOL    HW1 2268   5.192   7.457   3.935  2.5270 -0.3158  1.2840
33317SOL    HW2 2269   5.121   7.326   3.905  0.7857  1.0643 -0.9407
33318SOL     OW 2270   6.114   9.671   1.718 -0.0185  0.5218  0.2634
33318SOL    HW1 2271   6.030   9.682   1.761 -0.0872 -0.7340  0.4875
33318SOL    HW2 2272   6.118   9.741   1.653 -2.2829 -0.7306 -1.3676
33319SOL     OW 2273   5.617   7.523   4.039  0.0649 -0.1653  0.5637
33319SOL    HW1 2274   5.569   7.520   3.956 -1.3417 -0.3308  1.3583
33319SOL    HW2 2275   5.643   7.614   4.048 -0.0816 -0.0766  0.1181
33320SOL     OW 2276   7.288   8.422   6.599 -0.2234 -0.0149  0.2899
33320SOL    HW1 2277   7.359   8.392   6.542  0.8832  0.2047  1.5117
33320SOL    HW2 2278   7.248   8.342   6.633 -0.9923 -0.1544 -0.8499
33321SOL     OW 2279   2.228   8.718   0.316  0.1028 -0.3719 -1.0400
33321SOL    HW1 2280   2.150   8.774   0.316 -0.8703 -1.7005 -1.2958
33321SOL    HW2 2281   2.299   8.777   0.342 -1.4424  0.2092  2.3302
33322SOL     OW 2282   6.173   3.453   1.063 -0.3259  0.0882  0.6179
33322SOL    HW1 2283   6.134   3.460   0.976  1.9572  2.5738 -0.3623
33322SOL    HW2 2284   6.235   3.380   1.056 -0.6067 -0.1281  0.3730
33323SOL     OW 2285   2.247   6.867   8.706  0.6416  0.3013 -0.1673
33323SOL    HW1 2286   2.315   6.817   8.752 -0.1710 -0.0394  0.7113
33323SOL    HW2 2287   2.278   6.874   8.616  1.1592 -1.1049 -0.1207
33324SOL     OW 2288   3.232   9.272   2.014 -0.7630 -0.1032  0.6031
33324SOL    HW1 2289   3.256   9.313   1.931  0.4600  0.0137  0.9850
33324SOL    HW2 2290   3.192   9.343   2.065 -1.9618 -0.2942 -0.0416
33325SOL     OW 2291   2.887   2.495  10.501  0.6143 -0.1254 -0.8080
33325SOL    HW1 2292   2.835   2.572  10.525 -0.1761 -0.8456 -0.0942
33325SOL    HW2 2293   2.834   2.451  10.434 -0.1496 -1.3049  0.5149
33326SOL     OW 2294   1.404   1.526   6.576 -0.4144 -0.1767 -0.2105
33326SOL    HW1 2295   1.492   1.512   6.611 -0.8927 -0.2861  1.0059
33326SOL    HW2 2296   1.356   1.447   6.599 -0.6464 -0.4512 -1.5413
33327SOL     OW 2297   3.250   8.405   4.223  0.1284  0.4529  0.5403
33327SOL    HW1 2298   3.174   8.356   4.194 -0.1765  0.4003  1.3801
33327SOL    HW2 2299   3.217   8.460   4.294  1.5504 -2.3590  3.6658
33328SOL     OW 2300   3.966   0.885  10.173  0.5866  0.4041 -0.1394
33328SOL    HW1 2301   3.960   0.792  10.151  1.1656 -0.0962  1.5944
33328SOL    HW2 2302   3.894   0.926  10.126 -0.5261 -1.1612  0.1292
33329SOL     OW 2303   9.156   7.553   5.119  0.2572 -0.0020 -0.1773
33329SOL    HW1 2304   9.233   7.501   5.095  0.6104  1.1852 -1.7896
33329SOL    HW2 2305   9.189   7.620   5.179  0.0004 -0.9398  1.0465
33330SOL     OW 2306   4.256   8.798   4.105  0.0900 -0.3650 -0.0540
33330SOL    HW1 2307   4.213   8.867   4.155 -0.7984 -1.3498  0.5938
33330SOL    HW2 2308   4.307   8.750   4.170 -0.2501 -1.0264 -0.2582
33331SOL     OW 2309   5.115   8.597   3.276 -0.0798  0.5664  0.3528
33331SOL    HW1 2310   5.202   8.559   3.282 -0.4739 -0.4329 -0.0126
33331SOL    HW2 2311   5.109   8.656   3.351  0.2867 -0.6590  1.3686
33332SOL     OW 2312   0.105   5.063   0.486  0.4435 -0.5055  0.0567
33332SOL    HW1 2313   0.179   5.007   0.463  0.1553 -0.5414 -0.8373
33332SOL    HW2 2314   0.057   5.075   0.404  0.5308  1.1239  0.2082
33333SOL     OW 2315   3.801   7.115   2.129 -0.0184 -0.6216  0.1879
33333SOL    HW1 2316   3.799   7.022   2.105  2.6622 -0.5887 -0.4950
33333SOL    HW2 2317   3.726   7.126   2.187 -0.2703 -3.2730  0.5049
33334SOL     OW 2318   5.182   7.422   2.111  0.3108 -0.0321 -0.0605
33334SOL    HW1 2319   5.115   7.373   2.158 -0.2092 -0.4248 -1.1811
33334SOL    HW2 2320   5.144   7.510   2.101 -0.5490 -0.5307 -1.6212
33335SOL     OW 2321   5.601   2.663   7.052 -0.0982 -0.3356 -0.4939
33335SOL    HW1 2322   5.615   2.571   7.076 -1.2871 -0.6005 -0.7114
33335SOL    HW2 2323   5.530   2.692   7.109  0.7529  0.6788  0.0702
33336SOL     OW 2324  10.360   9.505   5.954  0.1721 -0.1007  0.3174
33336SOL    HW1 2325  10.337   9.532   5.864 -3.0427  2.3165  1.6375
33336SOL    HW2 2326  10.326   9.416   5.961  0.2992 -0.2559 -0.8017
33337SOL     OW 2327   7.008   9.689   3.829  0.2734 -0.1333  0.6516
33337SOL    HW1 2328   7.011   9.602   3.869  0.4527  0.0634  1.0716
33337SOL    HW2 2329   7.095   9.726   3.845  0.6058 -0.3388 -0.5847
33338SOL     OW 2330   4.806   7.110   2.203  0.1080  0.3603  0.2992
33338SOL    HW1 2331   4.879   7.048   2.194  2.4839  2.6529  2.1563
33338SOL    HW2 2332   4.760   7.104   2.119  1.1616 -2.6748 -0.1949
33339SOL     OW 2333   0.673   3.319   9.345  0.0454  0.0681 -0.3892
33339SOL    HW1 2334   0.621   3.399   9.337  0.3326  0.5247  1.6466
33339SOL    HW2 2335   0.763   3.349   9.352  0.1873 -0.4529  0.0982
33340SOL     OW 2336   2.727   1.335   0.650 -0.2631  0.3050 -0.7072
33340SOL    HW1 2337   2.764   1.408   0.600  0.0361  0.6271 -0.0297
33340SOL    HW2 2338   2.633   1.347   0.643 -0.2192  1.1863 -0.0093
33341SOL     OW 2339   7.887   9.846   4.041  0.3888  0.2790  0.4116
33341SOL    HW1 2340   7.956   9.782   4.058  0.1711 -0.5191 -1.4985
33341SOL    HW2 2341   7.872   9.841   3.947 -1.5649  1.1803  0.6293
33342SOL     OW 2342   5.309   9.231   2.101 -0.1889 -0.3501 -0.1463
33342SOL    HW1 2343   5.330   9.264   2.188  0.6582  0.0829 -0.5045
33342SOL    HW2 2344   5.334   9.302   2.041 -1.5739 -0.2891 -0.6908
33343SOL     OW 2345   0.542   8.843   3.493 -0.0335 -0.1770  0.3385
33343SOL    HW1 2346   0.471   8.819   3.552  0.5763 -2.1387  0.3711
33343SOL    HW2 2347   0.620   8.843   3.548  0.4092 -1.1215 -0.2482
33344SOL     OW 2348   0.261   7.649   9.712 -0.1777  0.1825 -0.6126
33344SOL    HW1 2349   0.269   7.716   9.780 -1.5534  0.4176 -0.6604
33344SOL    HW2 2350   0.300   7.571   9.752 -1.0891  0.2768  0.5321
33345SOL     OW 2351   5.995  10.167   1.777 -0.1902  0.2178 -0.1010
33345SOL    HW1 2352   6.087  10.174   1.750 -0.3415  0.1740 -0.6496
33345SOL    HW2 2353   5.947  10.213   1.708 -0.7983 -1.8613 -1.1501
33346SOL     OW 2354   0.615   7.080   9.319 -0.2912  0.1905  0.0330
33346SOL    HW1 2355   0.588   7.032   9.397  0.3241  1.2068  0.8999
33346SOL    HW2 2356   0.558   7.156   9.316  1.2674  1.4657  0.9318
33347SOL     OW 2357   7.400   8.033   8.878 -0.6423 -0.1533 -0.0127
33347SOL    HW1 2358   7.446   8.105   8.922  0.6572 -0.2236 -1.1959
33347SOL    HW2 2359   7.435   8.032   8.789 -3.1695 -0.0329 -1.1017
33348SOL     OW 2360   1.344   4.262   0.028  0.4227 -0.0617  0.3436
33348SOL    HW1 2361   1.354   4.354   0.053  1.3516 -0.9358  3.6981
33348SOL    HW2 2362   1.411   4.249  -0.040 -1.0471  2.0990 -1.6693
33349SOL     OW 2363   4.102   3.088   1.650  0.3516 -0.2674  0.5079
33349SOL    HW1 2364   4.156   3.088   1.729  0.7441 -0.5990  0.2435
33349SOL    HW2 2365   4.162   3.112   1.580  0.5577 -2.1479 -0.0290
33350SOL     OW 2366   6.392   5.641   1.180  0.5839 -0.1572 -0.7094
33350SOL    HW1 2367   6.323   5.703   1.156  0.5517 -0.3560 -1.1388
33350SOL    HW2 2368   6.367   5.611   1.267  1.6621  1.9188  0.3893
33351SOL     OW 2369   5.092   6.998   1.627 -0.0661  0.4108 -0.2076
33351SOL    HW1 2370   5.048   6.983   1.710  0.4663 -0.2107 -0.0317
33351SOL    HW2 2371   5.031   7.053   1.577 -1.2893 -0.8725 -0.1907
33352SOL     OW 2372   4.565   7.250   0.872  0.4618  0.2435  0.1693
33352SOL    HW1 2373   4.532   7.168   0.908  1.2501  0.3535  1.1696
33352SOL    HW2 2374   4.490   7.310   0.875  0.0792 -0.2226  0.0846
33353SOL     OW 2375   5.926   7.484   5.202 -0.0885 -0.0447  0.4484
33353SOL    HW1 2376   6.017   7.458   5.185 -0.3367 -0.3863 -0.4489
33353SOL    HW2 2377   5.914   7.564   5.151  0.0250  0.6269  1.4563
33354SOL     OW 2378   2.425   1.606   8.649  0.3528  0.1256  0.3414
33354SOL    HW1 2379   2.399   1.696   8.631 -0.5500 -0.6477 -2.8721
33354SOL    HW2 2380   2.347   1.566   8.687  0.3902  0.4130  0.7254
33355SOL     OW 2381  10.102   1.670   1.922  0.2093  0.1418 -0.5308
33355SOL    HW1 2382  10.122   1.592   1.974 -1.6249  0.5461  0.8944
33355SOL    HW2 2383  10.013   1.656   1.892  0.4286  0.9950 -1.6393
33356SOL     OW 2384   6.841   9.741   8.631 -0.0370  0.1172  0.0855
33356SOL    HW1 2385   6.799   9.723   8.547  0.8207 -0.2328 -0.2777
33356SOL    HW2 2386   6.918   9.793   8.608  1.1076 -1.3432  0.4704
33357SOL     OW 2387  10.084  10.368   0.331 -0.2678  0.1928  0.1375
33357SOL    HW1 2388  10.156  10.342   0.389 -0.2036 -1.2123 -0.5313
33357SOL    HW2 2389  10.006  10.327   0.369 -0.1052 -1.3707 -1.1486
33358SOL     OW 2390   7.100   2.720   2.843  0.0429 -0.3641  0.1667
33358SOL    HW1 2391   7.177   2.702   2.896  0.8960  1.7448 -0.2537
33358SOL    HW2 2392   7.129   2.706   2.753 -0.7058 -1.5960  0.0959
33359SOL     OW 2393   4.291  10.244   8.666  0.1377 -0.2189 -0.0703
33359SOL    HW1 2394   4.369  10.265   8.715 -0.5696 -1.1053  1.5195
33359SOL    HW2 2395   4.257  10.164   8.707 -1.9706  0.5144 -0.2509
33360SOL     OW 2396   5.556   7.348   0.151  0.1585 -0.3113  0.1273
33360SOL    HW1 2397   5.477   7.403   0.142 -0.4356 -1.1137  0.3704
33360SOL    HW2 2398   5.628   7.411   0.149 -0.2702  0.2689 -2.8931
33361SOL     OW 2399   3.716   9.693   4.000  0.5044  0.0005 -0.8580
33361SOL    HW1 2400   3.732   9.610   4.043  1.0553 -0.5193 -1.9948
33361SOL    HW2 2401   3.625   9.689   3.971 -0.6330  1.2895  2.1176
33362SOL     OW 2402   1.675   7.122   4.236  0.2202 -0.4259 -0.0531
33362SOL    HW1 2403   1.620   7.080   4.169  0.6624 -1.1805  0.0448
33362SOL    HW2 2404   1.763   7.092   4.216  0.6884  1.1652 -0.5013
33363SOL     OW 2405   4.839   0.666   4.117  0.1936 -0.1053  0.7790
33363SOL    HW1 2406   4.849   0.710   4.032  1.9904 -0.5811  0.6979
33363SOL    HW2 2407   4.833   0.738   4.180 -0.4791  0.2482  0.3270
33364SOL     OW 2408   3.476   1.194   7.175  0.1698 -0.1427  0.2251
33364SOL    HW1 2409   3.428   1.121   7.215  1.6550 -1.6927 -0.6502
33364SOL    HW2 2410   3.521   1.154   7.100  0.3231  1.8941 -0.8330
33365SOL     OW 2411   2.672   5.495   8.421 -0.2273 -0.5978 -0.2476
33365SOL    HW1 2412   2.716   5.411   8.436 -0.1856 -0.6274 -0.5261
33365SOL    HW2 2413   2.735   5.546   8.369 -0.0310 -0.1913  0.3794
33366SOL     OW 2414   8.081   4.607   7.884  0.4320 -0.0386  0.1748
33366SOL    HW1 2415   8.080   4.544   7.957 -3.7080 -0.5403 -0.0674
33366SOL    HW2 2416   8.124   4.684   7.920 -1.0424 -0.4266  3.1275
33367SOL     OW 2417   9.875   7.144   0.531  0.2027 -0.5511 -0.6172
33367SOL    HW1 2418   9.794   7.129   0.578  0.5515 -1.3845 -0.2684
33367SOL    HW2 2419   9.943   7.141   0.599  0.4994  0.5096 -0.8452
33368SOL     OW 2420   4.215   4.484   7.964 -1.0639  0.0858 -0.1136
33368SOL    HW1 2421   4.207   4.556   7.902  1.8692  1.7783  1.2335
33368SOL    HW2 2422   4.204   4.525   8.050 -1.6574 -1.5374  0.6255
33369SOL     OW 2423   7.001  10.411  10.450 -0.5181  0.3359 -0.2183
33369SOL    HW1 2424   6.956  10.452  10.523 -0.0507 -0.5019  0.5552
33369SOL    HW2 2425   7.092  10.403  10.479 -0.6767 -1.6655 -0.1440
33370SOL     OW 2426   1.658   3.225   7.105 -0.0786 -0.4725  0.7121
33370SOL    HW1 2427   1.613   3.177   7.035  0.5979  0.4260 -0.3744
33370SOL    HW2 2428   1.679   3.158   7.170 -1.2405 -1.2323  0.3462
33371SOL     OW 2429   0.976   2.363   9.870  0.0856 -0.3888  0.5727
33371SOL    HW1 2430   0.899   2.379   9.815  0.8194 -0.2521 -0.4554
33371SOL    HW2 2431   1.031   2.441   9.857  0.9084 -0.9852  0.3884
33372SOL     OW 2432   5.648   9.898   7.974 -0.0773  0.1493 -0.1302
33372SOL    HW1 2433   5.591   9.974   7.976  1.2791  1.3053 -1.9521
33372SOL    HW2 2434   5.736   9.934   7.968  0.7415 -1.5800  0.6732
33373SOL     OW 2435   7.153   1.207   1.144  0.3830 -0.0887 -0.4245
33373SOL    HW1 2436   7.084   1.264   1.177 -1.0527 -2.0492  0.1200
33373SOL    HW2 2437   7.123   1.118   1.164  2.8177 -1.0467 -0.6496
33374SOL     OW 2438   7.238   0.352   2.054 -0.1088 -0.1054 -0.3811
33374SOL    HW1 2439   7.325   0.322   2.028 -0.0130  0.5864 -0.8782
33374SOL    HW2 2440   7.238   0.345   2.150  0.5382 -0.0159 -0.3706
33375SOL     OW 2441   7.440   9.870   7.553 -0.7944 -0.1002 -0.2784
33375SOL    HW1 2442   7.362   9.900   7.507 -1.6813 -3.1652 -0.9905
33375SOL    HW2 2443   7.501   9.844   7.484  0.1484  0.5357  0.2861
33376SOL     OW 2444   8.634   0.148  10.322 -0.2059  0.0413 -0.1553
33376SOL    HW1 2445   8.704   0.083  10.330  0.1526  0.4664  0.2317
33376SOL    HW2 2446   8.628   0.189  10.408 -0.5374  0.4110 -0.3460
33377SOL     OW 2447   5.932   0.798   7.186  0.2198  0.5755  0.0272
33377SOL    HW1 2448   5.971   0.712   7.169  0.4223  0.6814 -0.0466
33377SOL    HW2 2449   5.877   0.784   7.263 -0.0801  0.2817 -0.2374
33378SOL     OW 2450   1.436   3.700  10.236 -0.5565 -0.4466 -0.7032
33378SOL    HW1 2451   1.522   3.665  10.261  0.3940  2.1105 -0.0619
33378SOL    HW2 2452   1.454   3.751  10.157 -1.5116  0.0019 -0.6403
33379SOL     OW 2453  10.589   1.583   4.875 -0.3336  0.2704  0.1616
33379SOL    HW1 2454  10.543   1.584   4.958 -1.9790 -0.2352 -0.6930
33379SOL    HW2 2455  10.682   1.589   4.898 -0.8075  1.4162  1.9504
33380SOL     OW 2456   5.363   7.602   6.647 -0.1985 -0.4021  0.3400
33380SOL    HW1 2457   5.443   7.553   6.628 -0.8114 -2.4058  2.3938
33380SOL    HW2 2458   5.295   7.556   6.598 -0.3350  0.3066 -0.1404
33381SOL     OW 2459   1.466   5.948   5.482  0.2732 -0.3782  0.5715
33381SOL    HW1 2460   1.508   6.033   5.471 -1.3498  0.3551 -0.3699
33381SOL    HW2 2461   1.520   5.888   5.430  0.9997  0.2152  0.6240
33382SOL     OW 2462   4.623  10.515   5.370 -0.2910  0.2097  0.1029
33382SOL    HW1 2463   4.618  10.419   5.374  0.5617  0.2129  1.6008
33382SOL    HW2 2464   4.565  10.545   5.440 -1.1325  0.8263 -0.8322
33383SOL     OW 2465   8.687  10.443   5.321 -0.4670 -0.3392  0.5009
33383SOL    HW1 2466   8.636  10.465   5.244 -1.9630  0.2142  1.5945
33383SOL    HW2 2467   8.622  10.413   5.385  0.3816  1.5112  2.3517
33384SOL     OW 2468   1.669   7.773   3.722  0.8981  0.3595 -0.1308
33384SOL    HW1 2469   1.750   7.749   3.678  1.0815  0.9391 -0.1123
33384SOL    HW2 2470   1.607   7.788   3.651  0.3395 -1.6229 -0.1269
33385SOL     OW 2471   8.785   5.195  10.205  0.1824  0.1633  0.0876
33385SOL    HW1 2472   8.758   5.237  10.123  0.0111  0.7175  0.4159
33385SOL    HW2 2473   8.733   5.115  10.210  0.5314 -0.1097 -0.5651
33386SOL     OW 2474   9.041   0.116   4.135 -0.2979  0.6545 -0.4507
33386SOL    HW1 2475   9.120   0.064   4.119  0.5139  0.7254  2.6165
33386SOL    HW2 2476   8.970   0.065   4.096  0.8377 -1.3739 -0.0088
33387SOL     OW 2477   7.479   2.363   0.896 -0.2935 -0.3985  0.5756
33387SOL    HW1 2478   7.456   2.271   0.909  1.2554 -0.9959 -0.5681
33387SOL    HW2 2479   7.572   2.361   0.873 -0.6851  1.2681 -1.4039
33388SOL     OW 2480   1.028   1.343   6.634 -0.2511 -0.0856  0.0692
33388SOL    HW1 2481   0.991   1.382   6.713  2.1910  0.2438  1.1268
33388SOL    HW2 2482   1.101   1.289   6.665 -0.1682 -1.1891 -1.8432
33389SOL     OW 2483   6.857   9.751   2.434  0.4062 -0.1130 -0.0088
33389SOL    HW1 2484   6.830   9.802   2.510  0.2351  2.0028 -1.4065
33389SOL    HW2 2485   6.778   9.705   2.405 -0.3094  1.4771 -0.6626
33390SOL     OW 2486   3.583   7.760   5.596 -0.0929 -0.0267 -0.2689
33390SOL    HW1 2487   3.609   7.699   5.665 -0.1455  1.1227  0.8064
33390SOL    HW2 2488   3.618   7.722   5.516  0.6465 -1.0075  0.4914
33391SOL     OW 2489   6.039   1.085   9.584  1.2916 -0.7880  0.1302
33391SOL    HW1 2490   6.034   1.177   9.609  0.5812 -0.7953  0.0242
33391SOL    HW2 2491   5.948   1.059   9.568  1.6874 -0.5661 -3.1827
33392SOL     OW 2492   7.173   4.717  10.126  0.2492  0.2039 -0.4101
33392SOL    HW1 2493   7.140   4.774  10.195 -0.2421  0.0350 -0.5019
33392SOL    HW2 2494   7.112   4.643  10.124  0.1193  0.3167 -1.1646
33393SOL     OW 2495   4.160   6.430   4.084  0.3577 -0.3824  0.0837
33393SOL    HW1 2496   4.176   6.339   4.060 -1.4012 -0.5758 -0.5002
33393SOL    HW2 2497   4.125   6.426   4.173 -0.5447 -0.3678 -0.2635
33394SOL     OW 2498   0.762   5.563   7.490  0.0502 -0.0983 -0.4940
33394SOL    HW1 2499   0.842   5.586   7.536 -0.0280 -0.5759 -0.1134
33394SOL    HW2 2500   0.759   5.622   7.415  1.2442 -0.7281 -1.0520
33395SOL     OW 2501   3.686   4.846   7.066  0.4992 -0.1409 -0.3858
33395SOL    HW1 2502   3.672   4.775   7.004  2.1449 -1.0249  0.2033
33395SOL    HW2 2503   3.744   4.810   7.132 -0.5931  1.0165  1.2913
33396SOL     OW 2504   3.083   6.165   3.869  0.8658  0.7593 -0.5878
33396SOL    HW1 2505   3.029   6.208   3.803 -2.7071 -2.6172 -0.2768
33396SOL    HW2 2506   3.161   6.136   3.821 -1.0364 -0.5190 -3.2146
33397SOL     OW 2507   8.949   4.391   3.689  0.1804 -0.3600  0.1260
33397SOL    HW1 2508   9.027   4.393   3.634  1.2293 -1.9284  1.4817
33397SOL    HW2 2509   8.935   4.483   3.713  1.8105 -0.0851  0.1466
33398SOL     OW 2510   0.077   3.959   0.186  0.6072 -0.1766  0.0974
33398SOL    HW1 2511  -0.009   3.988   0.157  1.1448 -1.1668 -2.8578
33398SOL    HW2 2512   0.138   4.020   0.144  1.3982 -0.8393  0.2497
33399SOL     OW 2513   0.894   2.594  10.029 -0.4287  0.6840  0.3543
33399SOL    HW1 2514   0.840   2.658  10.076 -1.6888 -1.0612  1.4132
33399SOL    HW2 2515   0.851   2.510  10.046  1.2949 -0.4847 -0.7901
33400SOL     OW 2516   5.324   9.749   5.420  0.1365  0.2208 -0.3132
33400SOL    HW1 2517   5.360   9.662   5.437  1.9095  1.2554  1.7859
33400SOL    HW2 2518   5.322   9.756   5.325  2.7357 -1.0721 -0.5475
33401SOL     OW 2519   0.982   7.900   6.171  0.0272  0.1111 -0.1812
33401SOL    HW1 2520   0.950   7.895   6.081 -0.9594 -1.5651  0.2238
33401SOL    HW2 2521   1.061   7.954   6.165  0.8039 -1.1427 -2.2923
33402SOL     OW 2522   7.316   8.052   5.183 -0.5655 -0.2677 -0.2230
33402SOL    HW1 2523   7.301   7.993   5.256  1.4663  0.5245  0.9125
33402SOL    HW2 2524   7.411   8.062   5.179 -0.5411 -0.8667 -3.4867
33403SOL     OW 2525   7.652  10.316   4.286 -1.0617  0.1536 -0.1215
33403SOL    HW1 2526   7.656  10.289   4.194  0.2773 -0.7475  0.1851
33403SOL    HW2 2527   7.726  10.272   4.327 -1.7335  0.4340  1.4284
33404SOL     OW 2528   2.030   8.907   0.335 -0.7820 -1.0782  0.5735
33404SOL    HW1 2529   1.942   8.872   0.321 -0.9013 -0.9136  0.9036
33404SOL    HW2 2530   2.027   8.995   0.296  0.5751 -2.6486 -3.6724
33405SOL     OW 2531   9.263   2.257   9.275 -0.2720  0.1085 -0.1160
33405SOL    HW1 2532   9.235   2.166   9.263 -0.0415 -0.0388  0.4234
33405SOL    HW2 2533   9.224   2.304   9.202  0.2083 -0.5553 -0.8247
33406SOL     OW 2534   6.458   6.090   5.072 -0.1651  0.1877  0.3087
33406SOL    HW1 2535   6.551   6.068   5.080 -0.5324 -1.2376  0.9869
33406SOL    HW2 2536   6.412   6.008   5.090 -1.6099  1.1958  1.5617
33407SOL     OW 2537   0.773   6.976   6.325  0.2696 -1.3784 -0.1906
33407SOL    HW1 2538   0.849   6.989   6.382  0.2386  0.3573 -0.4944
33407SOL    HW2 2539   0.770   6.881   6.311  0.9558 -1.7389  1.7427
33408SOL     OW 2540   9.244   3.478   9.946 -0.4626  0.0867 -0.1031
33408SOL    HW1 2541   9.336   3.474   9.972  0.3511  0.5907 -2.5778
33408SOL    HW2 2542   9.230   3.396   9.898 -1.5124 -0.2779  0.8012
33409SOL     OW 2543   0.628   0.458   7.145  0.0603 -0.8249 -0.5890
33409SOL    HW1 2544   0.693   0.515   7.185  1.0080 -0.5763 -2.3865
33409SOL    HW2 2545   0.643   0.372   7.185 -1.2811  0.0483  2.0304
33410SOL     OW 2546   9.345   0.538   3.978 -0.0122 -0.3912 -1.1628
33410SOL    HW1 2547   9.377   0.448   3.974  1.4653  0.0824 -0.5132
33410SOL    HW2 2548   9.267   0.538   3.922  0.2871 -1.9321 -1.6231
33411SOL     OW 2549   0.642  10.178   6.444  0.2106  0.4804  0.2248
33411SOL    HW1 2550   0.622  10.086   6.428  0.4950  0.6084 -0.9017
33411SOL    HW2 2551   0.668  10.213   6.359 -0.1313  1.6695  0.5887
33412SOL     OW 2552   1.417   6.345   7.035 -0.1100 -0.0966 -0.0147
33412SOL    HW1 2553   1.473   6.280   6.992  1.8779  1.3534  0.2291
33412SOL    HW2 2554   1.413   6.316   7.127  1.7200  0.6775  0.3475
33413SOL     OW 2555   8.460   2.167   7.949  0.1187 -0.1671 -0.2729
33413SOL    HW1 2556   8.440   2.248   7.996  0.2036  0.1791 -0.8225
33413SOL    HW2 2557   8.377   2.141   7.909  0.2455  0.0421 -0.6843
33414SOL     OW 2558   5.187   9.972   6.732  0.4678 -0.1203 -0.2520
33414SOL    HW1 2559   5.215   9.890   6.773 -1.3928 -0.3878  0.5529
33414SOL    HW2 2560   5.095   9.982   6.756  0.3946  1.7587 -1.0860
33415SOL     OW 2561   3.297   8.881   4.239 -0.4756 -0.3016 -0.4079
33415SOL    HW1 2562   3.318   8.883   4.333 -0.2714 -1.0080 -0.4307
33415SOL    HW2 2563   3.381   8.866   4.196 -0.7808 -1.6527 -0.5870
33416SOL     OW 2564   1.042   5.193   0.309 -0.2144  0.2127 -0.0072
33416SOL    HW1 2565   1.049   5.098   0.305  1.5125  0.3117 -0.3378
33416SOL    HW2 2566   1.130   5.224   0.284 -0.8162  1.8898 -0.1549
33417SOL     OW 2567   1.711   4.853   6.719  0.1416  0.2332  0.3075
33417SOL    HW1 2568   1.803   4.862   6.744 -0.0397  0.1317  1.0127
33417SOL    HW2 2569   1.670   4.936   6.744  0.0311  0.2671  0.0224
33418SOL     OW 2570   2.649   2.080   9.267  0.4213  0.2200 -0.0342
33418SOL    HW1 2571   2.696   2.091   9.349 -1.4521  1.2176  0.9692
33418SOL    HW2 2572   2.642   2.169   9.231 -1.2602  0.2033  0.2022
33419SOL     OW 2573   7.151   4.615   0.148 -0.8798  0.0262  0.0631
33419SOL    HW1 2574   7.183   4.665   0.223  1.3013 -0.2137 -0.6196
33419SOL    HW2 2575   7.221   4.552   0.130 -1.9383 -0.7991 -1.3617
33420SOL     OW 2576   3.023   5.411  10.088  1.0424  0.1555 -0.0978
33420SOL    HW1 2577   3.093   5.348  10.075  1.7595  0.6079  1.2636
33420SOL    HW2 2578   3.058   5.472  10.154 -1.2909 -0.6965  2.1012
33421SOL     OW 2579   0.142   4.739   9.691 -0.1971 -0.1132  0.0716
33421SOL    HW1 2580   0.065   4.742   9.635 -0.1386 -1.2187 -0.0962
33421SOL    HW2 2581   0.209   4.787   9.643 -0.6742  0.5471  0.0587
33422SOL     OW 2582   5.845   9.939   8.227  0.3981  0.6186  0.6839
33422SOL    HW1 2583   5.845   9.971   8.136  1.6747  0.4489  0.6168
33422SOL    HW2 2584   5.752   9.931   8.248 -0.0178  3.6993  0.4833
33423SOL     OW 2585   6.925   1.018   0.447 -0.5046  0.2438  0.1788
33423SOL    HW1 2586   7.014   1.045   0.472 -0.2247  1.5130 -1.9851
33423SOL    HW2 2587   6.890   1.093   0.398 -2.6613 -0.3785  0.6729
33424SOL     OW 2588   0.962   6.257   7.603 -0.0561  0.3791  0.0897
33424SOL    HW1 2589   0.937   6.167   7.585 -0.8230  0.2525  1.6352
33424SOL    HW2 2590   1.022   6.280   7.532 -0.6427 -0.9949 -0.8889
33425SOL     OW 2591   5.470   2.768   4.227  0.3085 -0.4030  0.0573
33425SOL    HW1 2592   5.407   2.780   4.298  2.1963 -2.4727  2.2676
33425SOL    HW2 2593   5.438   2.690   4.180 -0.1297  0.0856 -0.4763
33426SOL     OW 2594   8.356   0.626  10.551  0.3029 -0.2734  0.2279
33426SOL    HW1 2595   8.377   0.532  10.552  0.0038 -0.3398  0.9323
33426SOL    HW2 2596   8.269   0.631  10.590 -0.2748  0.1710 -1.0348
33427SOL     OW 2597   2.879   0.460   8.618  0.3947  0.2469  0.0285
33427SOL    HW1 2598   2.867   0.547   8.656  0.6932  0.1411  0.3702
33427SOL    HW2 2599   2.817   0.457   8.545 -1.0845 -0.0157  1.2578
33428SOL     OW 2600   2.067   5.282   1.801 -0.1457  0.2861 -0.0609
33428SOL    HW1 2601   2.142   5.278   1.862 -0.3852  1.6327  0.3630
33428SOL    HW2 2602   2.099   5.335   1.728  0.4065 -1.9933 -1.5640
33429SOL     OW 2603   6.086   6.418   4.461  0.4790 -0.0752 -0.1701
33429SOL    HW1 2604   6.166   6.416   4.513 -0.9245  0.1913  2.1133
33429SOL    HW2 2605   6.059   6.326   4.455  0.6050 -0.0988 -0.4031
33430SOL     OW 2606   7.048   7.879   4.888 -0.1969 -0.0359  0.2348
33430SOL    HW1 2607   7.010   7.878   4.800 -0.4081  1.3892  0.2818
33430SOL    HW2 2608   7.113   7.949   4.885 -0.5060  0.3228  1.3125
33431SOL     OW 2609   2.852   5.471   0.094 -0.0603 -0.1798 -0.0444
33431SOL    HW1 2610   2.924   5.412   0.118  1.0345  0.8277 -0.7508
33431SOL    HW2 2611   2.773   5.426   0.124  0.8531 -1.3522  0.6818
33432SOL     OW 2612   0.330   9.003   9.665 -0.2813  0.3729 -0.0217
33432SOL    HW1 2613   0.386   8.930   9.640  1.1800  0.9559  1.3497
33432SOL    HW2 2614   0.246   8.985   9.623 -0.1399 -2.3686  0.7042
33433SOL     OW 2615   6.191   7.664   8.024 -0.7672 -0.1713 -0.1119
33433SOL    HW1 2616   6.171   7.657   7.931 -0.7955 -0.3291 -0.0927
33433SOL    HW2 2617   6.285   7.683   8.027 -0.3258 -2.1852 -0.1068
33434SOL     OW 2618   2.607   3.585   2.927 -0.4007  0.4557 -0.8247
33434SOL    HW1 2619   2.649   3.646   2.988  0.1836  1.7586 -2.4632
33434SOL    HW2 2620   2.648   3.500   2.945  0.0104  0.8877  0.3351
33435SOL     OW 2621   8.347   7.558   1.105 -0.3990 -0.0541  0.1880
33435SOL    HW1 2622   8.254   7.563   1.084 -0.7486 -0.8632  1.4685
33435SOL    HW2 2623   8.359   7.622   1.175  0.1403  0.4703 -0.3711
33436SOL     OW 2624   8.068   5.867   4.159 -0.1175 -0.3159 -0.2106
33436SOL    HW1 2625   8.032   5.942   4.111 -2.1766 -0.9761  0.2046
33436SOL    HW2 2626   8.060   5.794   4.098  2.0839 -0.2351 -0.6923
33437SOL     OW 2627   1.230  10.471   8.759  0.2947  0.1259  0.2722
33437SOL    HW1 2628   1.180  10.409   8.813 -2.2447  0.3029 -1.6967
33437SOL    HW2 2629   1.208  10.557   8.794  1.2724  0.1043  0.9773
33438SOL     OW 2630   2.788  10.410   8.891 -0.0140 -0.1971  0.0907
33438SOL    HW1 2631   2.740  10.493   8.888  0.9991  0.3993 -0.4665
33438SOL    HW2 2632   2.722  10.343   8.875 -1.2919  0.2875  2.7335
33439SOL     OW 2633   6.306   3.718   1.757 -0.1836  0.2445  0.3307
33439SOL    HW1 2634   6.400   3.706   1.746 -0.3934 -0.3600 -0.9358
33439SOL    HW2 2635   6.291   3.706   1.851  1.2960  2.6622  0.9756
33440SOL     OW 2636   0.695   2.663   8.647 -0.1636 -0.4119 -0.6970
33440SOL    HW1 2637   0.625   2.712   8.690  0.0395  0.5945 -1.4782
33440SOL    HW2 2638   0.659   2.641   8.561 -0.6989 -2.6982  0.0333
33441SOL     OW 2639   6.714   1.325   5.469 -0.1977  0.3213 -0.0366
33441SOL    HW1 2640   6.756   1.356   5.549  0.2056 -0.4482  0.0588
33441SOL    HW2 2641   6.661   1.250   5.498 -0.2221  0.1778 -0.4487
33442SOL     OW 2642   6.288   3.486   4.371 -0.8891  0.5627  0.0478
33442SOL    HW1 2643   6.201   3.523   4.388 -0.8048  1.5874 -1.4964
33442SOL    HW2 2644   6.282   3.453   4.281  0.1654  0.1636  0.1182
33443SOL     OW 2645   9.111   2.572   1.901 -0.0565 -0.5910 -0.5080
33443SOL    HW1 2646   9.202   2.602   1.913 -1.1745  2.4181  1.7187
33443SOL    HW2 2647   9.077   2.564   1.990 -2.3645 -0.3099 -1.2997
33444SOL     OW 2648   3.534   0.461   9.909 -0.0329 -0.1082  0.3731
33444SOL    HW1 2649   3.496   0.534   9.861  0.2746 -0.1316  0.0890
33444SOL    HW2 2650   3.617   0.495   9.943  0.0005 -0.2512  0.4355
33445SOL     OW 2651   7.067   0.620   3.421 -0.1748 -0.0603  0.4104
33445SOL    HW1 2652   7.139   0.563   3.447  0.6745  0.2701 -1.1417
33445SOL    HW2 2653   7.068   0.620   3.326 -0.2747  2.3767  0.3313
33446SOL     OW 2654   8.589   6.444   0.607 -0.1365  0.2051 -0.1907
33446SOL    HW1 2655   8.611   6.512   0.671 -2.0723  0.6826  0.0357
33446SOL    HW2 2656   8.643   6.370   0.632  2.7072  1.8636 -0.9828
33447SOL     OW 2657   8.558   6.615   9.087  0.1931  0.0438  0.2607
33447SOL    HW1 2658   8.615   6.617   9.010  1.2572  0.3330  1.0250
33447SOL    HW2 2659   8.576   6.698   9.132 -0.1914 -0.2571  0.9824
33448SOL     OW 2660   1.868   5.137   3.361 -0.0701  0.2182  0.4539
33448SOL    HW1 2661   1.833   5.119   3.274  0.2672 -3.9580  0.9622
33448SOL    HW2 2662   1.790   5.147   3.416 -0.5040 -2.4145  0.4547
33449SOL     OW 2663   4.392   0.621   1.066  0.1859 -0.3098 -0.5452
33449SOL    HW1 2664   4.347   0.566   1.129 -1.1001  0.7149 -0.5352
33449SOL    HW2 2665   4.428   0.559   1.002 -1.0413 -1.1770 -0.4329
33450SOL     OW 2666   2.375   2.793   0.324 -0.0051  0.0218 -0.1305
33450SOL    HW1 2667   2.377   2.888   0.317  0.9549 -0.0814 -1.7493
33450SOL    HW2 2668   2.284   2.769   0.308 -0.1765  0.6469 -0.0990
33451SOL     OW 2669   0.759   4.432   2.988  0.5469  0.3756  0.4615
33451SOL    HW1 2670   0.731   4.402   3.074 -0.9092 -2.3152 -0.8428
33451SOL    HW2 2671   0.683   4.478   2.953  1.1290  1.4451  0.5475
33452SOL     OW 2672   4.599   3.494   5.868  0.2881 -0.3080  0.1995
33452SOL    HW1 2673   4.686   3.462   5.843  1.7006  2.0464  1.7633
33452SOL    HW2 2674   4.588   3.575   5.819  0.6166  1.3045  2.6034
33453SOL     OW 2675   4.388   2.417   7.051 -0.3744 -0.8404 -0.0874
33453SOL    HW1 2676   4.428   2.439   7.135 -1.5971  1.2862  0.0272
33453SOL    HW2 2677   4.414   2.489   6.993 -2.2012 -0.5324 -0.5811
33454SOL     OW 2678   1.137   5.591   6.826  0.1686  0.7336 -0.3850
33454SOL    HW1 2679   1.205   5.587   6.893 -0.8408 -1.7632  0.6047
33454SOL    HW2 2680   1.111   5.683   6.823  1.1571  1.1412  1.7160
33455SOL     OW 2681   9.238   5.927  10.191  0.6325  0.1647 -0.8181
33455SOL    HW1 2682   9.237   6.023  10.185  0.3798  0.3047  1.0475
33455SOL    HW2 2683   9.285   5.908  10.272  0.1093 -1.2786 -0.8241
33456SOL     OW 2684   9.868   0.342   2.801  0.7850  0.4385  0.4552
33456SOL    HW1 2685   9.951   0.341   2.848 -0.0501 -0.6677  1.9973
33456SOL    HW2 2686   9.880   0.277   2.731  0.7374 -0.9409  1.6668
33457SOL     OW 2687   2.154  10.087   4.078 -0.4102  0.5258  0.0155
33457SOL    HW1 2688   2.240  10.109   4.041 -0.7635  0.7249 -0.6943
33457SOL    HW2 2689   2.097  10.159   4.051 -0.3551  1.4800  2.2395
33458SOL     OW 2690   8.826   5.790   5.975 -0.2130  0.3141 -0.2303
33458SOL    HW1 2691   8.817   5.726   5.905  0.0514 -1.3048  1.1659
33458SOL    HW2 2692   8.740   5.794   6.017  0.7669 -2.4283  2.3695
33459SOL     OW 2693   0.582   5.722   5.316 -0.1016  0.2098  0.5160
33459SOL    HW1 2694   0.675   5.741   5.326 -0.0064 -0.7808  1.6844
33459SOL    HW2 2695   0.540   5.766   5.390 -0.3575 -0.6380  0.8929
33460SOL     OW 2696   3.607   1.932   7.792  0.0704 -0.4576 -0.0051
33460SOL    HW1 2697   3.517   1.952   7.818  0.2305 -1.2985  1.3114
33460SOL    HW2 2698   3.599   1.859   7.731 -0.1570 -0.2650 -0.2079
33461SOL     OW 2699   0.067   6.725   2.285 -0.9189  0.4781  0.1393
33461SOL    HW1 2700   0.128   6.751   2.354  0.7189 -0.8454 -0.7318
33461SOL    HW2 2701   0.111   6.653   2.240 -1.5724  1.7439 -2.7525
33462SOL     OW 2702   2.016  10.511   2.331  0.5204 -0.1006  0.5166
33462SOL    HW1 2703   2.109  10.495   2.311  0.8326  2.0812 -0.0340
33462SOL    HW2 2704   2.013  10.602   2.358 -1.6287  0.2187 -0.5555
33463SOL     OW 2705   4.582   1.831   1.673 -0.6341  0.1347 -0.2470
33463SOL    HW1 2706   4.513   1.764   1.671 -1.5511  1.0007  0.8702
33463SOL    HW2 2707   4.660   1.785   1.703 -1.0139 -0.6150 -0.3821
33464SOL     OW 2708   5.058   4.854   4.317  0.2088  0.0897 -0.2044
33464SOL    HW1 2709   5.003   4.795   4.265  1.8461 -0.7712 -1.0569
33464SOL    HW2 2710   5.005   4.876   4.393 -0.9122 -1.5182 -0.4670
33465SOL     OW 2711   8.189   5.442   5.502 -0.7510 -0.1947  0.7154
33465SOL    HW1 2712   8.115   5.381   5.496 -1.0249 -0.3163  3.7047
33465SOL    HW2 2713   8.151   5.522   5.540  0.1972  0.7234 -0.1998
33466SOL     OW 2714   0.536   6.366   6.895  0.1571  0.9317  0.1919
33466SOL    HW1 2715   0.542   6.366   6.990 -1.6635 -0.1630  0.3644
33466SOL    HW2 2716   0.513   6.456   6.872 -2.8291  0.5280  1.1555
33467SOL     OW 2717   4.359  10.375   7.647  0.0577 -0.1781 -0.4187
33467SOL    HW1 2718   4.295  10.434   7.686 -1.5137 -2.2716  0.3863
33467SOL    HW2 2719   4.444  10.417   7.663 -0.5757 -0.0888  3.9885
33468SOL     OW 2720   8.912   4.830   9.728  0.0007  0.0301  0.2117
33468SOL    HW1 2721   9.007   4.839   9.718 -0.0539 -1.0067 -1.5967
33468SOL    HW2 2722   8.892   4.744   9.690 -1.5180 -0.3450  1.7422
33469SOL     OW 2723   0.513   7.410   7.257 -0.1907 -0.1729  0.0411
33469SOL    HW1 2724   0.468   7.440   7.336 -1.0807  0.9915 -0.8690
33469SOL    HW2 2725   0.595   7.459   7.257  0.9435 -1.9418  1.4486
33470SOL     OW 2726   7.374   9.937   1.298 -0.3127 -0.3373  0.0709
33470SOL    HW1 2727   7.365   9.966   1.208 -1.8679 -0.8610  0.0260
33470SOL    HW2 2728   7.353   9.843   1.296  0.2517 -0.4925  0.8742
33471SOL     OW 2729   6.590   8.903   1.802 -0.1966 -0.6556 -0.2863
33471SOL    HW1 2730   6.501   8.868   1.801 -0.4906  0.0755 -0.0144
33471SOL    HW2 2731   6.580   8.995   1.780  0.6142 -0.8181 -1.4462
33472SOL     OW 2732   3.712   1.336   9.048 -0.5326  0.1350 -0.3676
33472SOL    HW1 2733   3.702   1.425   9.083  0.5652 -0.5020  1.7685
33472SOL    HW2 2734   3.798   1.308   9.079 -0.6100 -1.4624 -1.5063
33473SOL     OW 2735   1.917   3.625   3.131 -0.1398  0.5550  0.0048
33473SOL    HW1 2736   1.858   3.552   3.112  2.4763 -1.9477  0.8588
33473SOL    HW2 2737   1.976   3.628   3.056  1.0513  0.3845  0.9072
33474SOL     OW 2738   4.119   0.423   8.120 -0.0615  0.4936 -0.0241
33474SOL    HW1 2739   4.036   0.439   8.165 -0.2012 -0.3971  0.0711
33474SOL    HW2 2740   4.186   0.455   8.181 -0.3607  2.7216 -0.7923
33475SOL     OW 2741   4.370   6.156   6.467  0.0489  0.0315 -0.0822
33475SOL    HW1 2742   4.463   6.130   6.467  0.7277  1.9535 -2.7092
33475SOL    HW2 2743   4.334   6.113   6.389 -1.5395 -1.3512  1.3610
33476SOL     OW 2744   2.452   3.265   2.750 -0.5728  0.2707  0.2610
33476SOL    HW1 2745   2.536   3.270   2.704 -0.6905  2.0853  0.1769
33476SOL    HW2 2746   2.395   3.216   2.691 -0.0778  0.5994 -0.5083
33477SOL     OW 2747  10.470   0.387   9.709 -0.0191 -0.0371  0.2152
33477SOL    HW1 2748  10.525   0.439   9.651  0.0553 -1.1056 -0.7152
33477SOL    HW2 2749  10.401   0.352   9.653 -0.2523 -0.6759  0.8707
33478SOL     OW 2750   5.109   6.890   4.079  0.2041 -0.0291  0.7789
33478SOL    HW1 2751   5.190   6.892   4.029  0.1381 -1.7135  0.5575
33478SOL    HW2 2752   5.116   6.811   4.133 -1.2898 -0.2248  0.7224
33479SOL     OW 2753  10.512  10.527  10.297 -0.4859 -0.3557  0.3648
33479SOL    HW1 2754  10.487  10.602  10.242  2.3095  0.1841 -0.3081
33479SOL    HW2 2755  10.487  10.553  10.385 -4.8168 -1.1033 -0.4242
33480SOL     OW 2756   9.973   4.430   5.768 -0.2388  0.3110  0.3370
33480SOL    HW1 2757   9.918   4.404   5.842  0.3227 -0.2922  0.5609
33480SOL    HW2 2758  10.043   4.482   5.807  0.0275  0.0379  0.2311
33481SOL     OW 2759   7.610   7.397   8.027 -0.2313 -0.2535  0.4101
33481SOL    HW1 2760   7.583   7.341   7.955  0.4835  0.2652 -0.2880
33481SOL    HW2 2761   7.533   7.450   8.048 -0.5412 -0.6466  0.2576
33482SOL     OW 2762   7.774   1.846   4.698 -0.3974  0.3903 -0.2443
33482SOL    HW1 2763   7.852   1.881   4.653 -0.4915  0.6425 -0.2162
33482SOL    HW2 2764   7.705   1.851   4.632 -0.4134  0.2693 -0.2352
33483SOL     OW 2765   5.109   6.970   0.125  0.0727 -0.7883 -0.7575
33483SOL    HW1 2766   5.172   6.967   0.053  1.5966 -0.4317  0.5081
33483SOL    HW2 2767   5.112   7.061   0.156 -1.3910 -0.6543 -0.9207
33484SOL     OW 2768   8.653   1.172   3.294 -0.5340 -0.1886 -0.3504
33484SOL    HW1 2769   8.590   1.227   3.248  0.8239  2.3776  0.6647
33484SOL    HW2 2770   8.601   1.126   3.360 -2.0361 -1.8268 -2.5182
33485SOL     OW 2771   7.558   3.091   5.707  0.2315 -0.2208  0.7578
33485SOL    HW1 2772   7.503   3.166   5.731 -0.3833 -0.9475  1.6741
33485SOL    HW2 2773   7.642   3.130   5.682 -0.3983  0.8399  0.2402
33486SOL     OW 2774   7.409   3.290   5.854 -0.1596 -0.6780  0.1492
33486SOL    HW1 2775   7.360   3.333   5.924 -2.6788  0.3415 -2.0426
33486SOL    HW2 2776   7.492   3.337   5.850 -0.6943  0.4124  1.3073
33487SOL     OW 2777   9.737   0.620   2.726 -0.7367  0.3533 -0.0348
33487SOL    HW1 2778   9.802   0.678   2.766 -0.5456  0.5846 -0.6810
33487SOL    HW2 2779   9.784   0.537   2.714 -0.5878  0.4933 -0.4195
33488SOL     OW 2780   5.491   2.363   3.244  0.3330  0.3983 -0.6465
33488SOL    HW1 2781   5.473   2.354   3.337  0.2529 -0.5383 -0.7455
33488SOL    HW2 2782   5.563   2.303   3.227  0.2651  0.4693 -1.2088
33489SOL     OW 2783   7.975   5.236   2.700  0.3767 -0.3001  0.4772
33489SOL    HW1 2784   7.965   5.201   2.611 -1.0232  1.2304 -0.0161
33489SOL    HW2 2785   7.949   5.164   2.757  0.7745 -1.1341 -0.3589
33490SOL     OW 2786   4.905   4.578   0.214 -0.0622  0.1091  0.3017
33490SOL    HW1 2787   4.994   4.589   0.249  0.2233  1.6320 -0.7957
33490SOL    HW2 2788   4.893   4.483   0.210  1.2373 -0.1278  1.1411
33491SOL     OW 2789   8.530   5.191   5.634 -0.3318 -0.4084 -0.4333
33491SOL    HW1 2790   8.520   5.237   5.550 -0.5264  0.1351 -0.1158
33491SOL    HW2 2791   8.624   5.174   5.641  0.1481  2.2855  0.6531
33492SOL     OW 2792  10.530   7.002   8.904 -0.0165  0.1562 -0.3330
33492SOL    HW1 2793  10.548   6.957   8.822  0.8867 -0.0900 -0.0105
33492SOL    HW2 2794  10.595   7.072   8.908 -2.8607  3.2140 -2.0176
33493SOL     OW 2795   5.509  10.216   9.114  0.0830 -0.2812  0.6058
33493SOL    HW1 2796   5.543  10.145   9.059  0.1417  1.2282 -1.4122
33493SOL    HW2 2797   5.506  10.178   9.202 -0.2131 -2.8880 -0.4285
33494SOL     OW 2798   4.652   5.401   2.558 -0.5193 -0.1766  0.4646
33494SOL    HW1 2799   4.639   5.310   2.534  0.2323 -0.4442  1.0327
33494SOL    HW2 2800   4.566   5.431   2.587 -0.9183 -0.5067 -0.3503
33495SOL     OW 2801  10.325   9.276   4.829  0.1812  0.6782  0.6913
33495SOL    HW1 2802  10.380   9.214   4.877 -1.1806 -0.2228  1.1467
33495SOL    HW2 2803  10.250   9.224   4.801  1.1569  1.0165 -2.9638
33496SOL     OW 2804   2.342   7.239   3.041 -0.1910 -0.3045 -0.0172
33496SOL    HW1 2805   2.413   7.180   3.065 -0.5428 -0.3425  0.9809
33496SOL    HW2 2806   2.263   7.195   3.072 -0.7526 -0.6353 -1.7960
33497SOL     OW 2807   5.354   9.117   6.414 -0.4119  0.4704 -0.9436
33497SOL    HW1 2808   5.353   9.129   6.509  0.7378 -0.6512 -0.7655
33497SOL    HW2 2809   5.262   9.118   6.389 -0.6921  1.9328  0.0045
33498SOL     OW 2810   9.751   0.446   8.952  0.5600 -0.3316  0.1124
33498SOL    HW1 2811   9.774   0.538   8.964 -2.0164  0.4407 -0.2088
33498SOL    HW2 2812   9.801   0.417   8.876  3.2591  0.0200  1.6288
33499SOL     OW 2813   3.934   6.890   7.745  0.1101 -1.1965 -0.0194
33499SOL    HW1 2814   3.922   6.800   7.777  0.4084 -0.8158  1.2132
33499SOL    HW2 2815   3.975   6.936   7.818 -1.1202  0.2473 -0.2078
33500SOL     OW 2816   6.223   0.722   5.729 -0.3863 -0.0407  0.2279
33500SOL    HW1 2817   6.185   0.649   5.779  0.2044 -0.9541 -0.6148
33500SOL    HW2 2818   6.151   0.784   5.718 -0.6577 -0.0424  1.7736
33501SOL     OW 2819   8.555   7.479  10.129  0.4999 -0.1055  0.0172
33501SOL    HW1 2820   8.500   7.537  10.076 -0.5729 -0.0994  1.1076
33501SOL    HW2 2821   8.634   7.532  10.147  0.3394  0.3344 -0.5447
33502SOL     OW 2822   6.949   0.322   4.656  0.0702 -0.1905 -0.4556
33502SOL    HW1 2823   6.995   0.256   4.709 -0.6944  0.1811  0.7161
33502SOL    HW2 2824   7.000   0.402   4.669 -0.9559  0.2637  0.9856
33503SOL     OW 2825   8.204   9.895   7.129 -0.0546  0.9122 -0.3772
33503SOL    HW1 2826   8.219   9.938   7.045 -1.1274  1.3372 -0.3685
33503SOL    HW2 2827   8.110   9.905   7.145  0.0810  0.5884  0.7381
33504SOL     OW 2828   9.602   7.211   3.296  0.5916  0.0090 -0.1808
33504SOL    HW1 2829   9.531   7.273   3.311 -0.1153 -0.9624  0.6456
33504SOL    HW2 2830   9.597   7.150   3.370  0.7937 -1.4615 -1.3171
33505SOL     OW 2831   3.434   3.922   1.357 -0.1743  0.2439  0.4149
33505SOL    HW1 2832   3.500   3.972   1.308  0.3599 -0.3892  0.4733
33505SOL    HW2 2833   3.360   3.982   1.365 -0.8977 -0.1008 -2.4784
33506SOL     OW 2834   5.926   2.048   9.073 -0.1436 -0.1057  0.6620
33506SOL    HW1 2835   6.015   2.075   9.097 -0.0006  0.3084 -0.2658
33506SOL    HW2 2836   5.932   2.030   8.979 -0.5753 -2.0766  0.9730
33507SOL     OW 2837   1.286   9.004   0.881  0.2989 -0.4911 -0.0242
33507SOL    HW1 2838   1.247   9.091   0.886  0.3631 -0.3146 -1.9497
33507SOL    HW2 2839   1.226   8.948   0.931 -0.7772  0.3130 -0.3813
33508SOL     OW 2840   0.663   1.457  10.207 -0.4199 -0.3453 -0.2554
33508SOL    HW1 2841   0.680   1.548  10.181  0.4965 -0.8914 -1.7581
33508SOL    HW2 2842   0.750   1.418  10.214 -0.7631 -0.9271  1.2084
33509SOL     OW 2843   5.374   1.176   0.624  0.3708 -0.2529 -0.1091
33509SOL    HW1 2844   5.366   1.268   0.652 -0.1674 -0.0436 -0.9185
33509SOL    HW2 2845   5.294   1.159   0.574  0.9844 -0.8186 -0.9341
33510SOL     OW 2846   5.187   7.912   2.522  0.2310  0.0944 -0.1317
33510SOL    HW1 2847   5.241   7.987   2.548  0.1624  0.3549 -0.7462
33510SOL    HW2 2848   5.098   7.946   2.517  0.0006 -0.3169  0.7941
33511SOL     OW 2849   5.335   2.077   7.149  0.6887  0.0052  0.0645
33511SOL    HW1 2850   5.364   2.012   7.214  0.8155 -0.8540 -0.8278
33511SOL    HW2 2851   5.412   2.092   7.094 -0.7556 -3.6415 -3.4606
33512SOL     OW 2852   7.855   5.532   5.974 -0.3617 -0.0096 -0.0961
33512SOL    HW1 2853   7.835   5.526   5.881 -1.0670  1.0100 -0.0196
33512SOL    HW2 2854   7.875   5.442   6.000  0.2310 -0.2403 -1.3110
33513SOL     OW 2855   2.743   6.884   6.042 -0.7461  0.7634 -0.3448
33513SOL    HW1 2856   2.677   6.875   5.974 -1.1468 -1.1764  0.2228
33513SOL    HW2 2857   2.818   6.834   6.010 -0.4317  0.9722  0.0509
33514SOL     OW 2858   9.984   8.625   9.144 -0.0671  0.0440  0.1510
33514SOL    HW1 2859   9.919   8.556   9.157  0.2260 -0.7352 -2.1255
33514SOL    HW2 2860   9.960   8.692   9.207 -1.9815 -0.9952  0.6141
33515SOL     OW 2861   4.059   8.476   9.552 -0.5661 -0.2438 -0.6248
33515SOL    HW1 2862   3.984   8.469   9.493 -1.8104  0.7782  0.7278
33515SOL    HW2 2863   4.104   8.556   9.525 -0.2398 -0.5923 -1.1264
33516SOL     OW 2864   3.642   1.003   9.076  0.4552 -0.1558  1.1434
33516SOL    HW1 2865   3.695   1.074   9.042 -0.3464  0.4901  1.2274
33516SOL    HW2 2866   3.669   0.926   9.025 -1.4820  0.9706 -1.8076
33517SOL     OW 2867   4.905   1.411   6.199  0.1394  0.3789  0.3433
33517SOL    HW1 2868   4.951   1.337   6.237  2.4301  0.8681 -1.3157
33517SOL    HW2 2869   4.876   1.381   6.113 -1.6493  0.4951  0.8506
33518SOL     OW 2870   7.932   7.366   9.735  0.5538 -0.2266 -0.4393
33518SOL    HW1 2871   8.011   7.419   9.730  1.4231 -1.2942  1.0195
33518SOL    HW2 2872   7.963   7.279   9.763 -0.8549 -1.3829 -2.2351
33519SOL     OW 2873   8.056   3.014   0.052 -0.8602 -0.0663  0.0565
33519SOL    HW1 2874   8.046   3.047   0.141 -1.1230 -0.7987  0.3065
33519SOL    HW2 2875   7.966   3.006   0.019 -0.7408  1.1733 -0.6539
33520SOL     OW 2876   6.053   5.264   8.404 -0.6723 -0.5153  0.3506
33520SOL    HW1 2877   5.992   5.276   8.477 -1.3791  3.7294 -0.6644
33520SOL    HW2 2878   5.999   5.270   8.326  0.6190  0.2005 -0.5402
33521SOL     OW 2879   5.586   8.393   6.992  0.6897 -0.0644  0.4439
33521SOL    HW1 2880   5.620   8.335   6.925 -1.4305 -0.3233 -0.4881
33521SOL    HW2 2881   5.530   8.337   7.046 -1.2176  0.9964 -0.3438
33522SOL     OW 2882   1.057   1.058   5.250  0.0136 -0.9288 -0.0843
33522SOL    HW1 2883   1.015   1.006   5.318  0.0218 -2.7868 -1.4118
33522SOL    HW2 2884   1.150   1.037   5.257 -0.0604 -1.6769 -1.0468
33523SOL     OW 2885   9.943   1.178   4.043 -0.1230 -0.4931  0.6278
33523SOL    HW1 2886   9.865   1.233   4.049  0.4122  0.1972  1.4855
33523SOL    HW2 2887   9.912   1.097   4.003 -1.4978 -0.6092  1.8464
33524SOL     OW 2888   3.862   0.814   3.989  0.0857  0.4025 -0.1845
33524SOL    HW1 2889   3.906   0.742   4.036 -0.2321  0.0956 -0.3545
33524SOL    HW2 2890   3.923   0.837   3.919 -0.0182 -0.0203 -0.4179
33525SOL     OW 2891   3.685   0.593   1.433 -0.1636  0.2650  0.5884
33525SOL    HW1 2892   3.665   0.676   1.390  0.8209  0.5927  0.7249
33525SOL    HW2 2893   3.781   0.594   1.442 -0.3116  0.1506  2.6675
33526SOL     OW 2894   8.132   3.151   2.979  0.2136 -0.3232 -1.0195
33526SOL    HW1 2895   8.071   3.083   3.006  0.1335 -0.0313 -0.4385
33526SOL    HW2 2896   8.172   3.118   2.899 -0.9210 -0.3879 -1.5786
33527SOL     OW 2897   5.008   5.778   3.021  0.4507  0.4383 -0.5713
33527SOL    HW1 2898   4.970   5.851   3.069 -0.6917 -0.4647 -0.0407
33527SOL    HW2 2899   5.099   5.774   3.051 -0.2686 -0.2155  1.7653
33528SOL     OW 2900   0.558   0.993   4.417 -0.0127 -0.0292  0.3953
33528SOL    HW1 2901   0.605   0.949   4.488 -0.7225  1.1882  1.6596
33528SOL    HW2 2902   0.490   0.931   4.392  0.0404 -0.3392  0.9955
33529SOL     OW 2903   2.608   3.798   7.005  0.1897 -0.3238  0.0805
33529SOL    HW1 2904   2.699   3.814   7.030 -0.1844  0.0086  1.2967
33529SOL    HW2 2905   2.596   3.849   6.925  0.9083  0.0945  0.2291
33530SOL     OW 2906   0.476   4.795   3.585  0.2901 -0.4661  0.2713
33530SOL    HW1 2907   0.423   4.855   3.533 -0.1901  0.5466  1.8764
33530SOL    HW2 2908   0.555   4.781   3.532 -0.3132  0.2820 -0.8554
33531SOL     OW 2909   0.708   9.915   9.803 -0.3307  0.1329  0.0074
33531SOL    HW1 2910   0.674   9.896   9.890  0.8797  0.2104  0.5236
33531SOL    HW2 2911   0.668   9.998   9.779 -0.4817  0.2362  0.6039
33532SOL     OW 2912   7.672   3.395   2.032 -0.1870  0.0092  0.1883
33532SOL    HW1 2913   7.731   3.443   2.091 -0.2972  2.1586 -1.3341
33532SOL    HW2 2914   7.657   3.455   1.959 -2.8624 -1.1652 -0.3547
33533SOL     OW 2915   3.808   0.773   0.751 -0.1283 -0.2151 -0.4467
33533SOL    HW1 2916   3.840   0.753   0.838  0.8294 -0.7874 -0.9111
33533SOL    HW2 2917   3.713   0.781   0.761 -0.5450 -4.0465 -0.0245
33534SOL     OW 2918   4.666   5.242   7.290  0.2198  1.0529  0.0974
33534SOL    HW1 2919   4.660   5.326   7.337  2.7164  1.2799  0.1296
33534SOL    HW2 2920   4.631   5.178   7.352  1.5680  1.6187  1.5157
33535SOL     OW 2921   0.615   5.703   8.194  0.2042  0.5544 -0.6357
33535SOL    HW1 2922   0.614   5.797   8.172  0.5216  0.6027 -0.4513
33535SOL    HW2 2923   0.708   5.680   8.195  0.0726 -0.1225 -2.1902
33536SOL     OW 2924   5.195   0.905   1.768 -0.1584  0.4682 -0.7502
33536SOL    HW1 2925   5.194   0.926   1.861  0.0038  2.0151 -1.0649
33536SOL    HW2 2926   5.182   0.810   1.764  2.7125 -0.1315  0.9719
33537SOL     OW 2927   9.765   2.196   9.507  0.2448  0.2847  0.2162
33537SOL    HW1 2928   9.769   2.128   9.574  0.9087 -0.0870 -0.1963
33537SOL    HW2 2929   9.817   2.162   9.435 -3.6914 -1.2418 -2.2713
33538SOL     OW 2930   6.658   0.106   3.063 -0.1383  0.1993 -0.0523
33538SOL    HW1 2931   6.568   0.073   3.061 -0.2319  0.4618 -0.4013
33538SOL    HW2 2932   6.707   0.040   3.112 -0.9887  1.2376  2.3305
33539SOL     OW 2933   8.507   4.123   2.189  0.1721 -0.4416 -0.4259
33539SOL    HW1 2934   8.505   4.064   2.265 -0.0218  0.3118  0.1562
33539SOL    HW2 2935   8.597   4.158   2.189  0.2688 -0.6820 -0.7372
33540SOL     OW 2936   5.142   5.591   0.050  0.0714 -0.2339 -0.4634
33540SOL    HW1 2937   5.161   5.501   0.077  0.1502 -0.0235  0.2006
33540SOL    HW2 2938   5.053   5.588   0.015  0.5326 -0.8188 -1.6556
33541SOL     OW 2939   2.345  10.015   5.979 -0.1225 -0.1860  0.2595
33541SOL    HW1 2940   2.344   9.929   6.019  2.3305 -1.7859 -2.7072
33541SOL    HW2 2941   2.407  10.066   6.031  1.8788 -1.7327 -0.4928
33542SOL     OW 2942   7.480  10.429   8.701 -0.4563  0.0962  0.3866
33542SOL    HW1 2943   7.571  10.406   8.683 -1.0344  0.3785 -3.9612
33542SOL    HW2 2944   7.484  10.519   8.733  0.7688  0.1763  0.0556
33543SOL     OW 2945   7.705   2.972   0.656 -0.4223 -1.0220 -0.1015
33543SOL    HW1 2946   7.730   3.038   0.720 -0.6145 -1.0162 -0.0329
33543SOL    HW2 2947   7.610   2.980   0.648 -0.4685 -1.4180  0.0465
33544SOL     OW 2948   3.313   5.838   2.889  0.3542 -0.6717 -0.0465
33544SOL    HW1 2949   3.330   5.811   2.799 -2.6220  0.1142 -0.9464
33544SOL    HW2 2950   3.232   5.794   2.913  1.2079 -1.0643  2.4000
33545SOL     OW 2951   1.720   0.622   1.658 -0.4021  0.0377  0.1005
33545SOL    HW1 2952   1.688   0.653   1.574 -2.7651 -0.2467  0.8123
33545SOL    HW2 2953   1.657   0.655   1.722  1.1353 -0.0262  1.7491
33546SOL     OW 2954   2.403   6.506   1.131  0.4413  0.5491 -0.3898
33546SOL    HW1 2955   2.337   6.544   1.073 -0.2235  0.6798  0.4350
33546SOL    HW2 2956   2.353   6.468   1.203  1.0694 -1.8539 -1.1183
33547SOL     OW 2957  10.292   7.548   0.409 -0.1350 -0.0320  0.2767
33547SOL    HW1 2958  10.202   7.551   0.442 -0.4321  1.0848 -0.5670
33547SOL    HW2 2959  10.315   7.640   0.394 -0.4632 -0.3862 -3.6283
33548SOL     OW 2960   0.151   4.688   5.101  0.1634  0.5421  0.0351
33548SOL    HW1 2961   0.098   4.622   5.146  1.6422 -0.5393  0.2721
33548SOL    HW2 2962   0.161   4.654   5.012 -0.7879  1.5058 -0.4597
33549SOL     OW 2963   6.970   1.737   5.689  0.2687  0.0062 -0.6779
33549SOL    HW1 2964   6.933   1.788   5.616  0.6232 -0.0667 -0.9090
33549SOL    HW2 2965   6.961   1.646   5.661 -1.4536 -0.1453  0.2376
33550SOL     OW 2966   9.931   1.722   6.002 -0.9760 -0.0142 -0.1425
33550SOL    HW1 2967   9.849   1.768   5.985  0.1773  1.4039 -2.6114
33550SOL    HW2 2968   9.970   1.711   5.915  1.5448 -0.3865  0.9459
33551SOL     OW 2969   7.375   4.964   3.164  0.7968 -0.3477 -0.2594
33551SOL    HW1 2970   7.305   4.994   3.105  0.1500 -0.4897  0.4140
33551SOL    HW2 2971   7.423   5.044   3.186  0.8127 -0.2380 -0.6794
33552SOL     OW 2972   6.365   5.744   0.693  0.1947  0.5825  0.0136
33552SOL    HW1 2973   6.316   5.778   0.618  0.7450  0.5416 -0.3660
33552SOL    HW2 2974   6.306   5.756   0.768 -0.1697  1.0534 -0.3466
33553SOL     OW 2975   8.796   7.488   9.209  0.7420 -0.3480  0.1593
33553SOL    HW1 2976   8.872   7.430   9.207  0.3199 -0.8947 -1.6621
33553SOL    HW2 2977   8.729   7.438   9.256  0.7865 -0.8269 -0.2795
33554SOL     OW 2978   1.016   0.961   9.100  0.0439  0.0452 -0.1071
33554SOL    HW1 2979   1.027   0.889   9.038  1.1510 -0.9813  1.2060
33554SOL    HW2 2980   0.932   0.944   9.142 -1.1773  1.2720 -1.9073
33555SOL     OW 2981   6.939  10.512   8.870 -0.0295 -0.0082 -0.0315
33555SOL    HW1 2982   6.999  10.574   8.912  0.7363  0.0038 -1.0785
33555SOL    HW2 2983   6.915  10.451   8.939  0.5788  0.4475  0.6020
33556SOL     OW 2984   9.524   4.471   0.457  0.5079 -0.7324 -0.7753
33556SOL    HW1 2985   9.430   4.491   0.466  0.6028  0.0379 -1.3222
33556SOL    HW2 2986   9.547   4.429   0.539  0.2253  1.3597  0.4625
33557SOL     OW 2987   2.925   5.478   8.679  0.4877  0.0794  0.3864
33557SOL    HW1 2988   2.921   5.565   8.720 -0.6944 -0.1054  0.6830
33557SOL    HW2 2989   2.845   5.434   8.708 -1.6131  0.6761 -3.7570
33558SOL     OW 2990   1.393   9.575   3.164  0.2837  0.6107  0.3126
33558SOL    HW1 2991   1.335   9.515   3.212  0.2952  1.3358  1.2483
33558SOL    HW2 2992   1.455   9.517   3.119 -0.1911 -0.1121  0.5649
33559SOL     OW 2993   8.130   2.133   9.581  0.1532  0.0258  0.0037
33559SOL    HW1 2994   8.083   2.216   9.590  1.1785  0.4943  1.3933
33559SOL    HW2 2995   8.220   2.154   9.607  0.3935 -1.5549  0.5618
33560SOL     OW 2996   8.962   2.344   8.889  0.2827  0.1042  0.3405
33560SOL    HW1 2997   9.031   2.279   8.875 -0.3550 -0.7595  1.1162
33560SOL    HW2 2998   9.007   2.417   8.932  0.8331 -0.2154  0.3160
33561SOL     OW 2999   6.920   7.578   6.739  0.3972  0.2591 -0.0108
33561SOL    HW1 3000   6.973   7.581   6.660 -0.5992  1.4815 -0.6748
33561SOL    HW2 3001   6.863   7.654   6.732 -1.8885 -1.3239  0.3478
33562SOL     OW 3002   2.979  10.521   0.988 -0.3937 -0.0825 -0.3515
33562SOL    HW1 3003   2.889  10.491   0.974 -0.6754  0.4589  0.2672
33562SOL    HW2 3004   2.977  10.614   0.962 -0.3114  0.2579  0.8237
33563SOL     OW 3005   7.352   8.844   5.938 -0.0724  0.4041  0.5107
33563SOL    HW1 3006   7.362   8.790   6.016 -1.6225  0.1876  0.5907
33563SOL    HW2 3007   7.411   8.918   5.952  2.3596 -1.3359  0.2604
33564SOL     OW 3008   2.998   3.167   7.185  0.1121 -0.9043 -0.0094
33564SOL    HW1 3009   2.992   3.185   7.092 -2.2787 -0.6914  0.1349
33564SOL    HW2 3010   3.083   3.203   7.211  1.0197 -1.3523 -2.1457
33565SOL     OW 3011   7.348   2.952   3.196 -0.4311 -0.3514  0.2201
33565SOL    HW1 3012   7.292   2.981   3.269 -0.8364 -2.4473  0.8098
33565SOL    HW2 3013   7.437   2.963   3.229 -0.5492  0.5275  0.2760
33566SOL     OW 3014   9.767   4.401   5.929 -0.1473 -0.3569 -0.1409
33566SOL    HW1 3015   9.740   4.404   6.020  1.2875  0.0362  0.2951
33566SOL    HW2 3016   9.740   4.486   5.893 -0.3273 -0.3465  0.0175
33567SOL     OW 3017   8.860   8.438   2.775  0.4009 -0.6374  0.7555
33567SOL    HW1 3018   8.897   8.469   2.858  0.6789  0.2857  0.3050
33567SOL    HW2 3019   8.869   8.513   2.715 -1.7716 -0.4968  0.4939
33568SOL     OW 3020   3.149   8.265   1.996  0.1558  0.2599  0.2034
33568SOL    HW1 3021   3.139   8.354   2.030  0.4479  0.2845  0.2267
33568SOL    HW2 3022   3.073   8.252   1.940 -1.6835 -0.6585  2.7333
33569SOL     OW 3023   2.399   7.869   1.875  0.1551  0.3225 -0.5282
33569SOL    HW1 3024   2.387   7.794   1.817  0.3949  1.7871 -2.5789
33569SOL    HW2 3025   2.364   7.840   1.960 -0.3971 -1.8270 -1.4229
33570SOL     OW 3026   1.200   0.348   3.606  0.3120  0.0808  0.0081
33570SOL    HW1 3027   1.235   0.272   3.652  1.7058  0.6398 -0.0933
33570SOL    HW2 3028   1.212   0.328   3.513  0.1811  0.1942 -0.0337
33571SOL     OW 3029   7.046   6.196   0.459 -0.2885 -0.4316 -0.8028
33571SOL    HW1 3030   7.111   6.126   0.458 -0.4781 -0.9291  3.2515
33571SOL    HW2 3031   7.089   6.268   0.507 -1.1602  1.0976 -2.2030
33572SOL     OW 3032   2.037   6.070   6.174 -0.4837 -0.4289 -0.1155
33572SOL    HW1 3033   2.027   6.014   6.251 -1.4480 -1.3080 -0.8555
33572SOL    HW2 3034   2.096   6.022   6.116 -0.6788 -0.3125 -0.4155
33573SOL     OW 3035   0.481   1.274   0.201 -0.5457 -0.1273  0.0668
33573SOL    HW1 3036   0.572   1.281   0.176 -0.3386  0.2361  0.8795
33573SOL    HW2 3037   0.451   1.364   0.213 -1.3530 -0.1783 -1.3053
33574SOL     OW 3038   9.654   9.155   3.542 -0.4122  0.3653 -0.0492
33574SOL    HW1 3039   9.672   9.115   3.457 -1.0710  0.0561 -0.0530
33574SOL    HW2 3040   9.637   9.080   3.600 -0.5001  0.5950  0.2215
33575SOL     OW 3041   0.236   1.052   4.540  0.1712  0.4320 -0.0208
33575SOL    HW1 3042   0.222   1.073   4.448  0.3510 -0.2855 -0.2140
33575SOL    HW2 3043   0.300   1.117   4.570  0.4080  0.4279 -0.5069
33576SOL     OW 3044   6.741   8.260   2.815 -0.6513 -0.2927  0.1116
33576SOL    HW1 3045   6.717   8.267   2.722 -0.8941  1.7845  0.2848
33576SOL    HW2 3046   6.837   8.261   2.815 -0.6362 -1.1202 -0.1512
33577SOL     OW 3047   0.610   1.500   3.558 -0.1244  0.4266 -0.0658
33577SOL    HW1 3048   0.701   1.519   3.535  0.5445 -1.5855  0.6865
33577SOL    HW2 3049   0.611   1.493   3.654 -0.9229 -0.2127 -0.0918
33578SOL     OW 3050   8.595  10.394   1.232  0.6134  0.2828 -0.4522
33578SOL    HW1 3051   8.674  10.400   1.180 -0.4468  0.9125 -2.0592
33578SOL    HW2 3052   8.593  10.303   1.263  1.3807 -0.0395 -1.3158
33579SOL     OW 3053   3.419   9.520   4.242  0.0674  0.5095 -0.0086
33579SOL    HW1 3054   3.488   9.579   4.271  1.0457 -0.4944 -0.2286
33579SOL    HW2 3055   3.429   9.516   4.147  0.5173 -0.5896  0.0677
33580SOL     OW 3056   7.285   6.544   5.016  0.4921  0.4078 -0.2206
33580SOL    HW1 3057   7.190   6.538   5.030  0.8461  0.2884  2.6632
33580SOL    HW2 3058   7.310   6.455   4.988 -0.2544  0.5746 -1.5391
33581SOL     OW 3059   5.520   2.181   2.639 -0.4507  0.0407  0.4214
33581SOL    HW1 3060   5.488   2.212   2.724 -0.3642  0.7737  0.1982
33581SOL    HW2 3061   5.552   2.261   2.596  1.8836 -0.6535  0.7073
33582SOL     OW 3062   1.430   8.260   2.932 -0.3099  0.4703  0.8627
33582SOL    HW1 3063   1.455   8.195   2.997 -0.3818 -1.1667 -0.6727
33582SOL    HW2 3064   1.373   8.321   2.979 -0.7910 -0.9536  2.1862
33583SOL     OW 3065   3.895   9.232   0.089  0.8531  0.2314  0.1305
33583SOL    HW1 3066   3.899   9.175   0.165  0.2161  0.7183  0.5360
33583SOL    HW2 3067   3.807   9.220   0.053  1.7644 -1.5485 -1.7847
33584SOL     OW 3068   4.640   9.554   0.896 -0.3767 -0.1813  0.4380
33584SOL    HW1 3069   4.662   9.643   0.925 -0.4027 -0.9698  3.1988
33584SOL    HW2 3070   4.722   9.505   0.904 -0.9876 -1.0386  1.8594
33585SOL     OW 3071   2.937   7.686   8.725 -0.3302 -0.1136  0.1653
33585SOL    HW1 3072   2.961   7.609   8.776  1.8832  0.3956 -0.0222
33585SOL    HW2 3073   2.901   7.651   8.644 -2.3372 -0.9171  1.3320
33586SOL     OW 3074   2.232   7.156  10.466 -0.0431  0.4162  0.3253
33586SOL    HW1 3075   2.216   7.068  10.433 -0.4695 -0.0040  1.6122
33586SOL    HW2 3076   2.296   7.145  10.536 -2.0354  0.7429  2.3043
33587SOL     OW 3077   3.682   5.312   1.277  0.2004  0.2419  0.9068
33587SOL    HW1 3078   3.599   5.290   1.235 -0.3800  1.2995  1.4533
33587SOL    HW2 3079   3.700   5.236   1.334  0.7115 -0.9383 -0.7535
33588SOL     OW 3080   6.707   8.197   5.015  0.0278 -0.4630 -0.9733
33588SOL    HW1 3081   6.800   8.188   4.993  0.6704 -1.5847  1.8691
33588SOL    HW2 3082   6.668   8.113   4.990 -0.0172 -0.3876 -1.1615
33589SOL     OW 3083   2.065   9.971   3.555 -0.4631 -0.0405  0.3572
33589SOL    HW1 3084   2.032   9.964   3.644 -3.0251  1.0666 -0.4224
33589SOL    HW2 3085   2.008   9.916   3.503  1.8984 -1.8543 -0.4900
33590SOL     OW 3086   5.484   0.791   9.748  0.6406  0.4440 -0.2267
33590SOL    HW1 3087   5.488   0.743   9.830  0.2222 -1.4287 -1.2391
33590SOL    HW2 3088   5.400   0.768   9.710 -0.1489  2.9961 -0.2529
33591SOL     OW 3089   4.869   6.115   5.702 -0.4289 -0.2362 -0.0512
33591SOL    HW1 3090   4.914   6.186   5.747  0.6644 -1.7001  1.3001
33591SOL    HW2 3091   4.940   6.059   5.668 -1.2060 -1.6571  0.5690
33592SOL     OW 3092   1.616   9.002   9.016 -0.2021 -0.5176 -0.0810
33592SOL    HW1 3093   1.565   9.012   8.935 -1.2479  0.5122  0.6713
33592SOL    HW2 3094   1.665   9.084   9.023  1.2409 -1.3179 -0.5604
33593SOL     OW 3095   1.376   7.081   3.762  0.0672 -0.0439 -0.2055
33593SOL    HW1 3096   1.414   7.060   3.677  1.5483 -0.3593  0.4966
33593SOL    HW2 3097   1.384   7.176   3.770 -1.1926  0.1401 -0.9045
33594SOL     OW 3098   1.847   2.061   8.850 -0.4684 -0.2248 -1.1523
33594SOL    HW1 3099   1.845   2.149   8.812  1.0056 -0.1584 -1.1396
33594SOL    HW2 3100   1.925   2.020   8.812 -0.5741 -1.1669 -0.3936
33595SOL     OW 3101   1.637   0.122   7.685  0.0256 -0.1800 -0.0311
33595SOL    HW1 3102   1.577   0.063   7.731  0.2126 -2.9193 -2.9939
33595SOL    HW2 3103   1.593   0.140   7.602  1.4197  1.3575 -0.4841
33596SOL     OW 3104  10.257   4.754   8.954  0.0923 -0.9018 -0.2462
33596SOL    HW1 3105  10.241   4.740   9.047 -0.2073 -0.4301 -0.2228
33596SOL    HW2 3106  10.221   4.677   8.911 -0.3642 -0.8153 -0.0232
33597SOL     OW 3107   1.460   7.896   7.862 -0.7966 -0.0496 -0.1125
33597SOL    HW1 3108   1.486   7.894   7.954  0.1094  1.2147 -0.3178
33597SOL    HW2 3109   1.395   7.966   7.857 -0.6368  0.0716 -0.4862
33598SOL     OW 3110   6.315   1.451   9.241  0.2482  0.1812 -0.0491
33598SOL    HW1 3111   6.271   1.452   9.157  1.5961 -0.7799 -0.8148
33598SOL    HW2 3112   6.369   1.531   9.241  0.9104 -0.2504 -0.5025
33599SOL     OW 3113   1.303   3.135   6.864  0.2315 -0.4061 -0.2761
33599SOL    HW1 3114   1.221   3.171   6.898 -0.6071 -1.5432 -1.0231
33599SOL    HW2 3115   1.345   3.208   6.820 -0.3031  0.2249  0.2372
33600SOL     OW 3116   4.275   9.820   7.677  0.7782  0.1749  0.1144
33600SOL    HW1 3117   4.308   9.786   7.760 -0.9084 -0.1078  0.7197
33600SOL    HW2 3118   4.309   9.909   7.672  0.4639  0.3959  1.4150
33601SOL     OW 3119   1.091   8.249   6.832 -0.0317  0.4367  0.6891
33601SOL    HW1 3120   1.092   8.154   6.822  0.2799  0.6675 -2.0456
33601SOL    HW2 3121   1.021   8.266   6.895 -0.7796 -1.5327  0.4416
33602SOL     OW 3122   0.750   2.717   5.661  0.0124 -0.1434  0.0361
33602SOL    HW1 3123   0.762   2.784   5.593  2.8905  1.9288  2.3443
33602SOL    HW2 3124   0.796   2.640   5.626 -1.2658 -0.2284 -1.6143
33603SOL     OW 3125   4.031   7.687   7.094  0.6737 -0.1251  0.0260
33603SOL    HW1 3126   3.969   7.615   7.090 -0.0865  0.5430 -0.9851
33603SOL    HW2 3127   4.107   7.656   7.045  0.4355 -0.3257 -0.2228
33604SOL     OW 3128   2.761   2.004   9.984  0.5853 -0.1953  0.4884
33604SOL    HW1 3129   2.817   2.080   9.993 -1.8699  1.6681  1.2762
33604SOL    HW2 3130   2.753   1.991   9.890  0.8860  0.6684  0.3361
33605SOL     OW 3131   9.924   0.229  10.092  0.2892 -0.7267  0.2022
33605SOL    HW1 3132   9.937   0.172  10.169  0.7533  2.2145  2.4776
33605SOL    HW2 3133   9.830   0.248  10.092  0.4064 -0.1228  0.5397
33606SOL     OW 3134   4.794   8.608   8.756  0.1362 -0.9246 -0.7334
33606SOL    HW1 3135   4.797   8.704   8.762 -0.7742 -0.7842 -2.0877
33606SOL    HW2 3136   4.840   8.588   8.675  0.4193 -1.6533 -0.3973
33607SOL     OW 3137   5.357   8.685   1.497  0.4817 -0.1561  0.3800
33607SOL    HW1 3138   5.348   8.776   1.469 -0.0582 -0.2634  0.1907
33607SOL    HW2 3139   5.279   8.642   1.463  0.4071 -0.5487  1.0416
33608SOL     OW 3140   0.390   4.085   3.972 -0.2427  0.0693  0.3653
33608SOL    HW1 3141   0.390   4.145   4.046 -2.3320  0.8620 -0.2230
33608SOL    HW2 3142   0.413   4.139   3.896 -0.4548 -0.2307  0.0844
33609SOL     OW 3143   1.344   0.234   9.232  0.0076  0.0304  0.6227
33609SOL    HW1 3144   1.314   0.305   9.289 -0.8849 -0.9080  1.3718
33609SOL    HW2 3145   1.303   0.155   9.269 -1.3295 -0.5197 -1.8175
33610SOL     OW 3146   3.945   4.000   2.320 -0.2079  0.7074  0.1998
33610SOL    HW1 3147   3.859   3.959   2.318 -0.3994  1.1095 -0.0056
33610SOL    HW2 3148   3.973   4.002   2.229 -0.6236  1.8819  0.0714
33611SOL     OW 3149   0.946   7.701   1.882 -0.4721 -0.2776 -0.5916
33611SOL    HW1 3150   0.920   7.738   1.797 -3.8784 -2.6381 -0.7748
33611SOL    HW2 3151   0.913   7.764   1.946  0.8765  0.8318 -0.9434
33612SOL     OW 3152   9.383   5.059   7.645  0.2725 -0.3849  0.4373
33612SOL    HW1 3153   9.390   4.965   7.626  0.6878 -0.1325 -0.7136
33612SOL    HW2 3154   9.470   5.094   7.629 -0.4988  0.6707 -1.9926
33613SOL     OW 3155   7.019   7.231  10.533 -0.2884  0.5861 -0.3270
33613SOL    HW1 3156   7.085   7.297  10.554  1.7179 -1.9622  2.0616
33613SOL    HW2 3157   6.988   7.200  10.618 -3.6947  0.7234 -1.3694
33614SOL     OW 3158   7.161   7.364   9.950  0.5180 -0.1894 -0.0771
33614SOL    HW1 3159   7.249   7.397   9.933  0.2049  1.1833  0.7801
33614SOL    HW2 3160   7.164   7.273   9.923  2.3458 -0.3143  0.4176
33615SOL     OW 3161   0.774   1.093   3.099 -0.2551 -0.5389  0.0269
33615SOL    HW1 3162   0.757   1.009   3.143 -1.4801  0.4790  1.5840
33615SOL    HW2 3163   0.717   1.156   3.144  0.2363  1.0426 -1.4615
33616SOL     OW 3164   2.174   0.118   8.429  0.7086 -0.1518  0.0587
33616SOL    HW1 3165   2.142   0.043   8.378  0.2585 -0.0447  0.1854
33616SOL    HW2 3166   2.256   0.086   8.469  0.4960 -0.5906  0.1511
33617SOL     OW 3167   5.562   7.207   5.295 -0.1225 -0.0919 -0.3669
33617SOL    HW1 3168   5.552   7.124   5.247  0.2582  0.2064 -0.9843
33617SOL    HW2 3169   5.482   7.215   5.346  0.6822 -1.8228  1.2857
33618SOL     OW 3170   9.084   1.302   9.652  0.7454 -0.0673 -0.0878
33618SOL    HW1 3171   9.063   1.326   9.743 -1.3629 -0.4197 -0.4288
33618SOL    HW2 3172   9.027   1.358   9.599  1.4980 -0.3179 -1.1917
33619SOL     OW 3173   5.125   8.658   5.498  0.2979  0.2018  0.6707
33619SOL    HW1 3174   5.143   8.609   5.579  1.3907 -0.2617  0.1639
33619SOL    HW2 3175   5.172   8.740   5.509 -0.6779  0.7271  1.0706
33620SOL     OW 3176   7.844   4.513   2.796  0.5951  0.2099  0.0205
33620SOL    HW1 3177   7.818   4.582   2.735  2.2616 -0.0481 -1.0468
33620SOL    HW2 3178   7.865   4.559   2.877 -0.2293  0.7240 -0.0514
33621SOL     OW 3179   9.233   6.203   6.391 -0.1529 -0.4792 -0.3953
33621SOL    HW1 3180   9.200   6.266   6.326  1.7566 -0.1257 -1.0923
33621SOL    HW2 3181   9.187   6.225   6.472 -0.6998  0.7598 -1.0213
33622SOL     OW 3182   1.128   5.090   4.221 -0.3677 -0.7154  0.1429
33622SOL    HW1 3183   1.136   5.174   4.176  0.8085 -0.9645 -0.1599
33622SOL    HW2 3184   1.049   5.050   4.184  0.1488 -0.5773 -1.1536
33623SOL     OW 3185   2.561   0.578   4.088  0.0826 -0.4925  0.0255
33623SOL    HW1 3186   2.545   0.599   4.180  1.6314 -0.5710  0.3398
33623SOL    HW2 3187   2.656   0.569   4.082  0.1125  0.6602 -1.8341
33624SOL     OW 3188   9.116   1.773   8.082 -0.0594  0.1556 -0.7002
33624SOL    HW1 3189   9.167   1.854   8.095  1.4042 -0.8212 -0.1381
33624SOL    HW2 3190   9.038   1.786   8.137  1.7641 -0.1514  2.1797
33625SOL     OW 3191  10.386   0.516  10.133 -0.1034 -0.1264 -0.3571
33625SOL    HW1 3192  10.335   0.596  10.142 -0.7460 -0.7418  3.1582
33625SOL    HW2 3193  10.330   0.458  10.081 -0.4468  1.0778 -1.3602
33626SOL     OW 3194   9.131   2.447   3.370 -0.4263 -0.1487  0.0705
33626SOL    HW1 3195   9.124   2.380   3.438 -1.9007  0.6112  0.7209
33626SOL    HW2 3196   9.105   2.528   3.414  0.5532  0.7258 -0.9019
33627SOL     OW 3197   4.052   4.018  10.519  0.0079  0.1017 -0.7401
33627SOL    HW1 3198   4.064   4.010  10.613  2.5537  0.5361 -0.9495
33627SOL    HW2 3199   4.071   4.110  10.500 -0.9580  0.1371 -1.6466
33628SOL     OW 3200   6.123   2.054   0.938 -0.1468  0.3361  0.1843
33628SOL    HW1 3201   6.195   2.063   0.874  0.4703  0.7624  0.9114
33628SOL    HW2 3202   6.046   2.038   0.885  0.1774  1.6607 -0.7580
33629SOL     OW 3203   5.773   5.048   8.688 -0.3711 -0.4917  0.9418
33629SOL    HW1 3204   5.706   5.046   8.756 -1.4447  0.9054 -0.0120
33629SOL    HW2 3205   5.732   5.003   8.613  1.1610 -2.9254  1.4571
33630SOL     OW 3206   7.238   5.617   6.485  0.2962  0.1671  0.0858
33630SOL    HW1 3207   7.266   5.690   6.539 -0.5309  0.0374  0.7103
33630SOL    HW2 3208   7.198   5.555   6.547  1.1594 -0.9128 -0.3911
33631SOL     OW 3209   7.259   5.193   9.153  0.3685 -0.0644 -0.4175
33631SOL    HW1 3210   7.316   5.150   9.089  0.4096 -0.4445 -0.1289
33631SOL    HW2 3211   7.171   5.167   9.128  0.3053  0.5865 -0.9098
33632SOL     OW 3212   1.944   3.165   1.930 -0.1187  0.2350  0.1432
33632SOL    HW1 3213   1.857   3.166   1.968  0.0049  0.3953  0.4285
33632SOL    HW2 3214   2.001   3.195   2.001  0.0954  0.6869 -0.2105
33633SOL     OW 3215   0.452   0.173   6.365 -0.2243 -0.5434 -0.7305
33633SOL    HW1 3216   0.488   0.232   6.431 -1.3725 -0.6918  0.0545
33633SOL    HW2 3217   0.360   0.162   6.390 -0.9066 -0.0129 -2.7710
33634SOL     OW 3218   7.636   0.831   6.520 -0.0494  0.0235  0.5105
33634SOL    HW1 3219   7.732   0.837   6.513  0.1046 -0.9137  1.5133
33634SOL    HW2 3220   7.609   0.915   6.556  0.3894  0.3357  0.1129
33635SOL     OW 3221   9.430   4.757   5.233 -0.3633  0.1055  0.2994
33635SOL    HW1 3222   9.406   4.844   5.267  2.1324  0.8856  0.2398
33635SOL    HW2 3223   9.371   4.743   5.159 -0.0588  2.3156 -0.4472
33636SOL     OW 3224   4.629   6.317  10.223 -0.7687  1.1086  0.0181
33636SOL    HW1 3225   4.610   6.240  10.169  0.2676  0.8876 -0.0567
33636SOL    HW2 3226   4.653   6.384  10.160 -0.1919  1.0427  0.1633
33637SOL     OW 3227   4.564   8.106  10.206 -0.0246 -0.1341 -0.8489
33637SOL    HW1 3228   4.605   8.192  10.217  0.2426 -0.0966 -1.9752
33637SOL    HW2 3229   4.501   8.119  10.136 -4.3189  0.5898  2.7089
33638SOL     OW 3230   1.263   5.594   8.100  0.2632 -0.3921 -0.1345
33638SOL    HW1 3231   1.192   5.532   8.085 -0.7866  1.1343 -1.8705
33638SOL    HW2 3232   1.304   5.606   8.015 -0.3154  2.1218 -0.1298
33639SOL     OW 3233   6.860   1.538   8.808 -0.0626 -0.2109 -0.3949
33639SOL    HW1 3234   6.858   1.462   8.750 -0.0455 -0.4201 -0.1243
33639SOL    HW2 3235   6.772   1.542   8.845 -0.5544  0.8503 -1.6152
33640SOL     OW 3236   6.949   3.873   7.276  0.1345 -0.3524  0.1811
33640SOL    HW1 3237   6.892   3.919   7.338  0.0442  1.0052 -0.8490
33640SOL    HW2 3238   7.030   3.858   7.325  0.7662  2.3641  0.1444
33641SOL     OW 3239   2.075   3.114   4.880 -0.3653 -0.4496  0.1681
33641SOL    HW1 3240   1.980   3.124   4.874 -0.1307  1.7115 -1.1522
33641SOL    HW2 3241   2.108   3.152   4.799  1.6062 -2.2764  0.0351
33642SOL     OW 3242   3.899   6.303   6.383  0.2790  0.6201 -0.9406
33642SOL    HW1 3243   3.840   6.339   6.449  0.6476  0.4323 -0.5004
33642SOL    HW2 3244   3.951   6.238   6.431 -0.5046 -0.6409 -1.7492
33643SOL     OW 3245   3.869  10.533   5.801 -0.2725 -0.5999 -0.2146
33643SOL    HW1 3246   3.841  10.459   5.747  0.8165  0.4570 -2.3682
33643SOL    HW2 3247   3.838  10.610   5.753 -0.5262  0.3771  1.4547
33644SOL     OW 3248  10.318   7.128   7.765 -0.7906  0.3403  0.2243
33644SOL    HW1 3249  10.377   7.201   7.744  0.3783 -0.5175  0.3688
33644SOL    HW2 3250  10.237   7.169   7.792 -1.1400  1.5771 -2.3841
33645SOL     OW 3251   9.759   4.335   1.959  0.2971  0.2273 -0.7523
33645SOL    HW1 3252   9.670   4.303   1.945  0.2733  0.6165 -1.5274
33645SOL    HW2 3253   9.815   4.276   1.909  0.3663  0.6694 -1.2038
33646SOL     OW 3254   6.402   8.502   2.146 -0.4378  0.6737 -0.3330
33646SOL    HW1 3255   6.324   8.518   2.200 -0.6528  0.8171 -0.6820
33646SOL    HW2 3256   6.432   8.590   2.123  0.2917  0.6442  0.4505
33647SOL     OW 3257   5.699  10.484   5.170  0.1325 -0.0191 -0.3771
33647SOL    HW1 3258   5.655  10.553   5.219 -0.6827 -1.2952  0.7581
33647SOL    HW2 3259   5.629  10.424   5.144  0.9906 -1.2734  0.0953
33648SOL     OW 3260   1.152   3.933   0.366 -0.0070  0.6106  0.1126
33648SOL    HW1 3261   1.149   3.980   0.282  0.7406  1.5394  0.5900
33648SOL    HW2 3262   1.245   3.924   0.385 -0.1650  1.2838  1.3078
33649SOL     OW 3263   7.112   9.969   6.558  0.1512 -0.0306 -0.8731
33649SOL    HW1 3264   7.207   9.968   6.561  0.1508 -0.7636 -0.9308
33649SOL    HW2 3265   7.090   9.968   6.465  0.0925 -0.1976 -0.8590
33650SOL     OW 3266   5.505  10.028   4.778 -0.0653  0.0344  0.2595
33650SOL    HW1 3267   5.426   9.993   4.736  0.5243 -0.2034 -0.6745
33650SOL    HW2 3268   5.558   9.950   4.799 -0.6829  0.0763  2.2052
33651SOL     OW 3269   2.246   5.590   3.275 -0.5658  0.1715  0.6597
33651SOL    HW1 3270   2.321   5.649   3.277 -0.2358 -0.1923 -0.3051
33651SOL    HW2 3271   2.178   5.639   3.229 -0.4312 -0.0231  0.2415
33652SOL     OW 3272   3.971   6.234   8.322 -0.2428 -0.1654 -0.4012
33652SOL    HW1 3273   3.998   6.143   8.339  0.1780 -0.0516 -0.4348
33652SOL    HW2 3274   3.915   6.229   8.245 -1.0854 -0.5271  0.2241
33653SOL     OW 3275  10.074   5.705   4.451  0.1072 -0.2083 -0.0416
33653SOL    HW1 3276  10.054   5.721   4.543  0.4516  2.4901 -0.3478
33653SOL    HW2 3277   9.997   5.659   4.417  0.6165 -2.6617  1.8609
33654SOL     OW 3278   5.308   4.908   8.390 -0.5252 -0.0747  0.3966
33654SOL    HW1 3279   5.233   4.868   8.433 -1.3766 -2.8836 -3.1738
33654SOL    HW2 3280   5.271   4.979   8.338 -0.0837  0.8763  1.3426
33655SOL     OW 3281  10.392   3.582   4.989  0.2685 -0.1936 -0.5121
33655SOL    HW1 3282  10.312   3.531   4.971 -0.5908  0.8876  0.0924
33655SOL    HW2 3283  10.461   3.534   4.945 -0.9810 -0.2446 -2.5899
33656SOL     OW 3284   1.210   5.237   1.102 -0.0414  0.4648  0.2702
33656SOL    HW1 3285   1.130   5.286   1.081  0.6790  1.6412  0.1873
33656SOL    HW2 3286   1.242   5.207   1.017 -2.7647 -4.0683  0.5014
33657SOL     OW 3287   1.062  10.435   7.939 -0.3595  0.2011  0.2905
33657SOL    HW1 3288   0.987  10.457   7.994 -0.3160 -0.4223  0.6156
33657SOL    HW2 3289   1.037  10.464   7.851 -1.2524 -0.5675  0.2768
33658SOL     OW 3290   8.989   8.934   4.996  0.2628 -0.0172  0.0307
33658SOL    HW1 3291   8.908   8.920   4.947 -0.2869  1.0371  0.6052
33658SOL    HW2 3292   9.059   8.916   4.933 -0.4160  2.5321 -1.5676
33659SOL     OW 3293   6.144   4.222   2.286  0.3246 -0.1456  0.0924
33659SOL    HW1 3294   6.129   4.170   2.365 -0.6570  0.5871  0.4143
33659SOL    HW2 3295   6.060   4.266   2.271  0.5613 -0.1374 -1.2575
33660SOL     OW 3296   6.766   2.015   7.353 -0.1076  0.2152  0.2151
33660SOL    HW1 3297   6.673   2.030   7.367 -0.4219 -0.8764 -0.5890
33660SOL    HW2 3298   6.801   1.998   7.440 -0.8720 -0.4606  0.3991
33661SOL     OW 3299   0.554   1.231   5.965 -0.0850  0.3037 -0.4423
33661SOL    HW1 3300   0.593   1.271   5.887 -1.8182  0.1716 -1.4163
33661SOL    HW2 3301   0.564   1.297   6.033  1.0575  0.5977 -0.8673
33662SOL     OW 3302   2.287   1.361   8.484  0.1606  0.3236 -0.4304
33662SOL    HW1 3303   2.332   1.290   8.529 -0.8677  1.2757  2.3998
33662SOL    HW2 3304   2.345   1.437   8.495  0.0121  0.5117 -0.9384
33663SOL     OW 3305  10.517  10.180   8.110 -0.2512 -0.1445  0.1364
33663SOL    HW1 3306  10.468  10.261   8.121 -0.8748 -0.2504 -1.5023
33663SOL    HW2 3307  10.491  10.148   8.023  1.5276 -1.0247 -0.1270
33664SOL     OW 3308   9.579   1.158  10.135 -0.3709  0.1318  0.1777
33664SOL    HW1 3309   9.591   1.087  10.071 -1.6888 -0.6342  0.7355
33664SOL    HW2 3310   9.550   1.233  10.082  2.5739  0.8207 -0.6350
33665SOL     OW 3311   2.724   7.071   9.502 -0.1016  0.3048  0.6077
33665SOL    HW1 3312   2.651   7.034   9.552  0.8322 -0.2945  1.5817
33665SOL    HW2 3313   2.702   7.164   9.491 -1.0591  0.1037  0.7676
33666SOL     OW 3314   5.258   2.733   0.675 -0.2659  0.2739 -1.1271
33666SOL    HW1 3315   5.195   2.796   0.711  0.7274 -0.1010  1.4862
33666SOL    HW2 3316   5.205   2.672   0.624 -1.5866  1.6791 -1.5054
33667SOL     OW 3317   6.471   8.400   3.499 -0.3065 -0.2156 -0.9106
33667SOL    HW1 3318   6.474   8.388   3.594 -3.1456  1.2540 -0.5141
33667SOL    HW2 3319   6.442   8.491   3.487  1.4020  0.1167 -3.2536
33668SOL     OW 3320   7.506   3.927   9.566 -0.0992 -0.1611 -0.2416
33668SOL    HW1 3321   7.554   3.900   9.488  1.0926  3.3815 -0.9312
33668SOL    HW2 3322   7.436   3.984   9.533 -0.1898  0.6111  1.1942
33669SOL     OW 3323   1.304   7.331   6.571 -0.4890 -0.0150 -0.0441
33669SOL    HW1 3324   1.226   7.382   6.549  0.8602  2.3766  0.3067
33669SOL    HW2 3325   1.307   7.261   6.506 -1.9414  0.9434 -1.1930
33670SOL     OW 3326   0.349   2.297   6.717 -0.3418  0.4018 -0.1610
33670SOL    HW1 3327   0.278   2.337   6.767 -0.2332 -0.2156  0.5005
33670SOL    HW2 3328   0.427   2.346   6.741 -0.4201  0.6198 -0.3447
33671SOL     OW 3329   4.614   2.379   4.009  0.0521 -0.1480 -0.2024
33671SOL    HW1 3330   4.571   2.294   3.996 -0.2104 -0.0280 -0.1335
33671SOL    HW2 3331   4.569   2.417   4.085 -2.5379  1.7546 -2.4858
33672SOL     OW 3332   7.112   6.652   0.561  0.1174 -0.2183  0.0886
33672SOL    HW1 3333   7.110   6.566   0.602  0.6604 -0.9010 -1.2614
33672SOL    HW2 3334   7.203   6.681   0.569  0.6265 -1.0582 -1.9330
33673SOL     OW 3335   1.373   7.737   4.038  0.1703  0.1274 -0.6473
33673SOL    HW1 3336   1.316   7.709   4.110  0.2350  0.0229 -0.6358
33673SOL    HW2 3337   1.332   7.816   4.003 -0.8025 -0.7866 -1.6231
33674SOL     OW 3338   1.288   3.923   9.569  0.1005 -0.1304 -0.5253
33674SOL    HW1 3339   1.209   3.908   9.517 -1.0217  0.4131  0.9658
33674SOL    HW2 3340   1.326   4.003   9.532 -0.2678 -0.1674 -0.9865
33675SOL     OW 3341   0.297   5.213   7.253  0.0532  0.0786 -0.7967
33675SOL    HW1 3342   0.320   5.154   7.182  0.2053 -1.5165  0.5370
33675SOL    HW2 3343   0.214   5.180   7.286  0.7796 -0.2359  0.8156
33676SOL     OW 3344   7.903   2.476   3.431  0.0357  0.4329  0.3394
33676SOL    HW1 3345   7.996   2.466   3.414 -0.2229  1.1288 -1.6913
33676SOL    HW2 3346   7.869   2.387   3.438  1.0784  0.1492  2.8207
33677SOL     OW 3347   5.968   8.927   8.371 -0.3529  0.5968 -0.3681
33677SOL    HW1 3348   5.996   8.865   8.438  0.6670  1.8671  0.4107
33677SOL    HW2 3349   5.999   9.012   8.401 -3.0387  1.7628 -0.6573
33678SOL     OW 3350   6.665   9.211   1.489 -0.1445  0.8295 -0.4622
33678SOL    HW1 3351   6.589   9.162   1.456  0.5963 -0.3847 -0.3998
33678SOL    HW2 3352   6.679   9.280   1.423 -0.3041  0.0499 -1.3340
33679SOL     OW 3353   0.634   1.570   0.361 -0.2887  0.1262  0.3570
33679SOL    HW1 3354   0.674   1.611   0.439  1.2135  2.0572 -1.3076
33679SOL    HW2 3355   0.596   1.644   0.313 -0.5316 -0.9225 -1.1106
33680SOL     OW 3356   7.028   7.533   5.079  0.5699  0.2093  0.1968
33680SOL    HW1 3357   6.958   7.592   5.052 -0.4940 -0.3687  1.5545
33680SOL    HW2 3358   6.997   7.495   5.162  0.9077 -2.6901 -0.8928
33681SOL     OW 3359   8.406   7.301   8.888  0.8134 -0.1263 -0.7300
33681SOL    HW1 3360   8.502   7.301   8.895  0.8965  1.5081 -1.3846
33681SOL    HW2 3361   8.389   7.326   8.797 -0.2261  0.6371 -0.3393
33682SOL     OW 3362   3.797   2.450   1.667 -0.0844  0.1270 -0.4249
33682SOL    HW1 3363   3.844   2.473   1.747  1.1677 -0.4577 -0.9765
33682SOL    HW2 3364   3.864   2.446   1.600 -1.1795  1.0088 -1.6065
33683SOL     OW 3365   4.386   2.453   8.742  0.0178  0.1594 -0.0095
33683SOL    HW1 3366   4.413   2.526   8.797 -0.4046  0.2158  0.1303
33683SOL    HW2 3367   4.392   2.377   8.800  0.8479  0.0204 -0.2726
33684SOL     OW 3368   3.644   4.764   8.343  0.5398  0.2334 -0.1353
33684SOL    HW1 3369   3.624   4.689   8.400  1.6828  0.9441  1.2923
33684SOL    HW2 3370   3.588   4.834   8.376  0.6650  0.4542 -0.3925
33685SOL     OW 3371   6.555   1.932   2.621  0.1887  0.5373  0.0071
33685SOL    HW1 3372   6.473   1.901   2.660  1.6498 -1.6018  1.5336
33685SOL    HW2 3373   6.611   1.954   2.695  1.9071 -0.5324 -0.9145
33686SOL     OW 3374   4.360   5.961   6.741 -0.6307  0.3822  0.4702
33686SOL    HW1 3375   4.405   5.881   6.712  1.6144  1.1514  1.5721
33686SOL    HW2 3376   4.363   6.019   6.665 -1.8850 -0.4040 -0.1969
33687SOL     OW 3377   1.011   0.010   8.289  0.1999 -0.2375  0.8976
33687SOL    HW1 3378   0.949   0.083   8.275 -1.2070 -1.8862 -3.5035
33687SOL    HW2 3379   1.096   0.045   8.262 -0.9588 -0.6259 -4.5043
33688SOL     OW 3380   8.118   5.304   4.322 -0.0028  0.0708 -0.0643
33688SOL    HW1 3381   8.184   5.262   4.377 -1.3229 -1.1030  0.7042
33688SOL    HW2 3382   8.109   5.244   4.247 -0.9604 -0.3811  0.3897
33689SOL     OW 3383   4.720   1.628   5.744  0.5048  0.5567  0.5721
33689SOL    HW1 3384   4.638   1.674   5.763  0.4854  0.4918  0.6452
33689SOL    HW2 3385   4.786   1.697   5.742  0.1309  0.9399 -1.6532
33690SOL     OW 3386   6.670   2.606  10.344 -0.0823 -0.5516  0.3518
33690SOL    HW1 3387   6.724   2.552  10.288 -0.1241  0.1882 -0.4178
33690SOL    HW2 3388   6.616   2.657  10.284  0.5057  0.9209  1.0233
33691SOL     OW 3389   2.406   5.939   7.870 -0.3666 -1.1936 -0.2483
33691SOL    HW1 3390   2.363   5.866   7.825 -1.4850 -0.0688 -1.0823
33691SOL    HW2 3391   2.396   5.920   7.963 -0.0607 -2.4232 -0.4551
33692SOL     OW 3392   8.508   9.294   7.010  0.3405 -0.0984 -0.4969
33692SOL    HW1 3393   8.544   9.371   7.054 -0.0784 -0.1873  0.0144
33692SOL    HW2 3394   8.582   9.234   7.002  0.4495 -0.0431  0.0161
33693SOL     OW 3395   0.606   2.081   2.167  0.3097  0.0601  0.7663
33693SOL    HW1 3396   0.602   2.177   2.171 -0.5677  0.0807 -0.3273
33693SOL    HW2 3397   0.538   2.056   2.105  0.8338 -1.2556  0.6857
33694SOL     OW 3398   7.402   4.496   6.452  0.2544  0.0376 -0.0067
33694SOL    HW1 3399   7.471   4.532   6.396  0.5733  2.1399  1.5906
33694SOL    HW2 3400   7.442   4.422   6.497  0.9603  0.2509 -0.2810
33695SOL     OW 3401   9.176   4.419   7.157 -0.1209  0.1934 -0.3251
33695SOL    HW1 3402   9.091   4.443   7.194 -0.5734 -1.4670 -0.2193
33695SOL    HW2 3403   9.237   4.481   7.197 -1.0213  0.3133  0.9294
33696SOL     OW 3404  10.110   7.911   2.422  0.0660 -0.2572 -0.2577
33696SOL    HW1 3405  10.057   7.963   2.362 -1.1622  0.8418  1.6981
33696SOL    HW2 3406  10.050   7.842   2.453  0.8521 -1.1564 -0.6899
33697SOL     OW 3407   2.394   0.129   5.694 -0.7650  0.3466 -0.2961
33697SOL    HW1 3408   2.314   0.079   5.681 -0.1469 -0.4543 -1.1286
33697SOL    HW2 3409   2.364   0.220   5.700 -1.8026 -0.0101  0.2560
33698SOL     OW 3410   7.708  10.451   8.452 -0.0479 -0.1527  0.5414
33698SOL    HW1 3411   7.659  10.532   8.441 -0.7274 -0.5432  0.6111
33698SOL    HW2 3412   7.735  10.427   8.363 -2.2993 -1.3280  0.0956
33699SOL     OW 3413   7.375   7.966   4.237 -0.1656  0.1073 -0.1537
33699SOL    HW1 3414   7.341   8.025   4.169 -1.3779 -0.9491 -0.5255
33699SOL    HW2 3415   7.470   7.978   4.235 -0.3126  1.3714 -0.8160
33700SOL     OW 3416   2.443  10.429   3.420 -0.0955 -0.0811 -0.2727
33700SOL    HW1 3417   2.357  10.400   3.389  0.5248 -1.3931 -0.8285
33700SOL    HW2 3418   2.493  10.446   3.340  0.0180  1.1956  0.0446
33701SOL     OW 3419   2.560   6.857   1.931 -0.6972  0.2562 -0.4202
33701SOL    HW1 3420   2.534   6.948   1.943  1.4381  1.1969 -2.1654
33701SOL    HW2 3421   2.614   6.857   1.852  1.5267 -2.0388  0.9123
33702SOL     OW 3422   4.762   2.350   8.938  0.2787 -0.0447 -0.1399
33702SOL    HW1 3423   4.831   2.293   8.970 -0.5858 -1.6773 -1.0298
33702SOL    HW2 3424   4.693   2.345   9.005  0.5657  0.7188  0.2259
33703SOL     OW 3425   9.660   5.461   0.033 -0.0124 -0.1556 -0.7327
33703SOL    HW1 3426   9.668   5.517   0.110  0.1934  1.2990 -1.7709
33703SOL    HW2 3427   9.665   5.372   0.067  1.2361  0.4670  0.8027
33704SOL     OW 3428   1.593   3.385   8.465 -0.4251 -0.0568 -0.2442
33704SOL    HW1 3429   1.664   3.426   8.415 -0.2484  0.4759  0.4196
33704SOL    HW2 3430   1.638   3.327   8.527 -0.6366 -0.6666 -0.6570
33705SOL     OW 3431   1.674   4.239  10.579 -0.0680 -0.0316 -0.8288
33705SOL    HW1 3432   1.644   4.237  10.670  2.0246  2.7217  0.0619
33705SOL    HW2 3433   1.611   4.185  10.532 -2.5981  0.3088  1.8577
33706SOL     OW 3434   8.279   5.459   9.913 -0.0063  0.4493  0.0199
33706SOL    HW1 3435   8.280   5.555   9.920  4.1754  0.5967  0.1113
33706SOL    HW2 3436   8.336   5.430   9.984  0.8478 -1.8988 -1.5095
33707SOL     OW 3437   5.603   4.970   3.868  0.2521 -0.4933  0.7230
33707SOL    HW1 3438   5.559   5.047   3.832  0.5620 -0.8756 -0.5055
33707SOL    HW2 3439   5.537   4.901   3.865  0.1667 -0.4377  1.2408
33708SOL     OW 3440   0.885   9.139   1.295  0.5025  0.3281  0.0381
33708SOL    HW1 3441   0.920   9.208   1.239  0.4545  1.8336  1.7743
33708SOL    HW2 3442   0.890   9.175   1.384  0.8353 -2.0599  1.0699
33709SOL     OW 3443   6.905   1.608   2.599 -0.2410 -1.5845 -0.2821
33709SOL    HW1 3444   6.986   1.631   2.554 -1.9491 -1.1434 -3.4212
33709SOL    HW2 3445   6.890   1.517   2.575  0.2628 -2.3041  1.9441
33710SOL     OW 3446   2.600   6.020   4.780  0.2148  0.4398  0.4193
33710SOL    HW1 3447   2.614   6.080   4.708  0.7695 -0.5235 -0.2940
33710SOL    HW2 3448   2.626   6.069   4.858  0.4354  1.1908 -0.1222
33711SOL     OW 3449   1.734   3.586   6.599 -0.2261  0.2924 -0.3503
33711SOL    HW1 3450   1.786   3.558   6.675 -0.9214 -0.8516 -0.2725
33711SOL    HW2 3451   1.799   3.617   6.536  0.5579 -0.8354 -0.1347
33712SOL     OW 3452   5.165   5.722   4.950 -0.5530 -0.9769 -0.3226
33712SOL    HW1 3453   5.109   5.657   4.907 -0.4889 -0.2428 -1.5700
33712SOL    HW2 3454   5.104   5.789   4.980 -0.4281 -0.6011 -0.9034
33713SOL     OW 3455   9.654   1.988   2.713  0.1656  0.1032 -0.3907
33713SOL    HW1 3456   9.563   1.963   2.698  0.2160 -0.5717  0.3970
33713SOL    HW2 3457   9.694   1.988   2.626 -0.1572 -1.3216 -0.5589
33714SOL     OW 3458   3.046   6.099   4.203  0.0481 -0.5892  0.0443
33714SOL    HW1 3459   3.022   6.022   4.151 -1.2498  0.4129 -0.9166
33714SOL    HW2 3460   3.129   6.128   4.166 -1.7076  1.2138 -2.9326
33715SOL     OW 3461   4.624   8.782   6.542 -0.4570  0.3067 -0.1716
33715SOL    HW1 3462   4.593   8.749   6.458  0.0875  0.4897 -0.4540
33715SOL    HW2 3463   4.550   8.772   6.602 -0.7833 -0.0048 -0.6275
33716SOL     OW 3464   1.024   1.284   5.094 -0.0191 -0.1587  0.1826
33716SOL    HW1 3465   0.983   1.198   5.097  2.1449 -1.1995  1.1065
33716SOL    HW2 3466   1.014   1.319   5.182  0.5311 -0.1638  0.2493
33717SOL     OW 3467   1.492   9.039   8.765 -0.0394 -0.2374  0.2380
33717SOL    HW1 3468   1.399   9.044   8.742  0.2033  0.7414 -0.5926
33717SOL    HW2 3469   1.537   9.081   8.692  0.8717  1.6700  1.8013
33718SOL     OW 3470   6.648   9.152   7.966  0.6351  0.0005  0.0435
33718SOL    HW1 3471   6.632   9.156   7.871  1.9657  0.4192 -0.1866
33718SOL    HW2 3472   6.713   9.221   7.982 -0.9791  1.2404  1.5903
33719SOL     OW 3473   8.384   2.140   9.679  0.1371 -0.4212 -0.1583
33719SOL    HW1 3474   8.450   2.208   9.663  0.6037 -1.0459 -0.9782
33719SOL    HW2 3475   8.418   2.091   9.754 -1.2244  1.4846  1.8325
33720SOL     OW 3476  10.358   9.685   3.954 -0.2311  0.2428 -0.3450
33720SOL    HW1 3477  10.428   9.740   3.989  0.2005  0.0365 -0.8730
33720SOL    HW2 3478  10.360   9.606   4.008  0.6894 -0.2421 -1.0485
33721SOL     OW 3479   5.965   6.429   8.222  0.2558  0.6338  0.2853
33721SOL    HW1 3480   5.876   6.400   8.243 -0.6428  2.9344 -0.0413
33721SOL    HW2 3481   6.019   6.351   8.234 -1.7037 -0.6839  1.0906
33722SOL     OW 3482   4.079  10.350   1.548 -0.0095  0.3461  0.1409
33722SOL    HW1 3483   4.040  10.322   1.631  1.7557 -0.8990  0.5997
33722SOL    HW2 3484   4.006  10.351   1.486 -0.8591 -1.5029  1.0404
33723SOL     OW 3485   2.391   9.744   1.956  0.6062 -0.2510 -0.2185
33723SOL    HW1 3486   2.369   9.707   1.870  1.4903  0.0771 -0.5974
33723SOL    HW2 3487   2.474   9.704   1.979  1.2229  0.9294 -0.3084
33724SOL     OW 3488   8.484   5.101   7.070 -0.1028 -0.3546 -0.4010
33724SOL    HW1 3489   8.408   5.044   7.079 -0.1665 -0.2340 -0.1530
33724SOL    HW2 3490   8.518   5.083   6.983  0.3444 -1.3376 -0.0396
33725SOL     OW 3491   3.566   9.373   2.134  0.1391 -0.0399  0.2410
33725SOL    HW1 3492   3.579   9.466   2.116 -1.0901  0.2929  0.9576
33725SOL    HW2 3493   3.478   9.368   2.170  0.4938 -1.3884  0.9753
33726SOL     OW 3494   3.038   1.173   7.238  0.5962  0.3564 -0.7826
33726SOL    HW1 3495   3.116   1.222   7.213  0.3739  2.5148  2.1199
33726SOL    HW2 3496   2.965   1.231   7.214  0.0296 -0.5190 -1.2043
33727SOL     OW 3497   8.244   9.421   7.908  0.5820 -0.1554 -0.1437
33727SOL    HW1 3498   8.301   9.426   7.831  0.0978  1.8046 -0.4153
33727SOL    HW2 3499   8.155   9.429   7.872  0.2450 -1.0646  0.4699
33728SOL     OW 3500   9.924   4.929   0.937 -0.5752 -0.2375 -0.1575
33728SOL    HW1 3501   9.923   5.023   0.923  0.3614 -0.5271 -2.7910
33728SOL    HW2 3502  10.016   4.907   0.952 -0.5678 -0.8351 -0.9448
33729SOL     OW 3503   5.652   3.794   1.634  0.4744  0.2872  0.1882
33729SOL    HW1 3504   5.610   3.737   1.699  1.0781 -2.6127 -1.7747
33729SOL    HW2 3505   5.745   3.772   1.639  0.5955  0.3670 -1.2662
33730SOL     OW 3506   2.405   5.887   5.806 -1.0460  0.0823 -0.3472
33730SOL    HW1 3507   2.478   5.825   5.804 -2.5517 -1.7874  0.4077
33730SOL    HW2 3508   2.437   5.962   5.755  1.7792 -0.1908  0.8143
33731SOL     OW 3509   9.639   9.233   0.743 -0.0502  0.1869  0.0412
33731SOL    HW1 3510   9.731   9.251   0.760 -0.1561  1.8807 -0.9563
33731SOL    HW2 3511   9.639   9.175   0.666  0.1966 -1.6511  1.3532
33732SOL     OW 3512   2.935   8.720   3.261  0.4294  0.4638  0.1229
33732SOL    HW1 3513   2.923   8.625   3.257 -1.2986  0.6675 -0.1634
33732SOL    HW2 3514   2.994   8.739   3.188  0.3808 -0.3347 -0.1446
33733SOL     OW 3515   0.154   8.487   0.610  0.3507 -0.2710  0.7042
33733SOL    HW1 3516   0.183   8.473   0.520 -1.0022 -0.1138  0.2130
33733SOL    HW2 3517   0.228   8.530   0.653  0.6406  0.6427 -0.6402
33734SOL     OW 3518   5.795   7.717   5.436 -0.8420 -0.3116 -0.5641
33734SOL    HW1 3519   5.819   7.657   5.366  0.9473 -1.1009  0.6290
33734SOL    HW2 3520   5.798   7.663   5.515 -2.0795  0.7123  0.2125
33735SOL     OW 3521   4.168   4.345   3.342  0.2115 -0.1732  0.2387
33735SOL    HW1 3522   4.162   4.304   3.256  0.3138  3.8672 -1.9290
33735SOL    HW2 3523   4.254   4.387   3.343 -0.9452  2.3911  0.9726
33736SOL     OW 3524  10.162   7.595   0.704  0.1463 -0.6999  0.3908
33736SOL    HW1 3525  10.103   7.541   0.651 -0.0435 -0.2108  0.0930
33736SOL    HW2 3526  10.103   7.643   0.763  0.3823 -1.5641  1.3616
33737SOL     OW 3527   4.302   5.408   6.561  0.4316  0.6460  0.2603
33737SOL    HW1 3528   4.300   5.439   6.651 -1.2771  4.1725 -0.7869
33737SOL    HW2 3529   4.385   5.441   6.526  1.1105 -0.7496  0.5185
33738SOL     OW 3530   9.635   9.878   5.450 -0.8665  0.7864  0.0393
33738SOL    HW1 3531   9.643   9.884   5.545  0.4153  0.1724 -0.0045
33738SOL    HW2 3532   9.545   9.850   5.435 -0.9119  0.3164  1.1023
33739SOL     OW 3533   2.554   8.718  10.219 -0.1104  0.4628 -0.3649
33739SOL    HW1 3534   2.476   8.757  10.180  0.5674  0.6147 -1.6154
33739SOL    HW2 3535   2.616   8.710  10.147  1.5097  1.5116  0.8178
33740SOL     OW 3536   6.256   2.164   1.165 -0.1030  0.4028 -0.3694
33740SOL    HW1 3537   6.255   2.112   1.086  0.7848 -0.8797  0.4239
33740SOL    HW2 3538   6.172   2.209   1.166 -0.9279 -1.0671 -1.0553
33741SOL     OW 3539  10.217   0.334   6.751 -0.6261  1.1105 -0.5896
33741SOL    HW1 3540  10.229   0.260   6.691  0.2042  2.1586 -1.7827
33741SOL    HW2 3541  10.122   0.343   6.758 -0.7385  0.1850 -0.7464
33742SOL     OW 3542   5.158   9.727   1.995 -0.1797  0.5368 -0.0848
33742SOL    HW1 3543   5.227   9.783   2.031 -0.2543 -0.8066  2.3504
33742SOL    HW2 3544   5.109   9.697   2.072 -0.7567 -2.0450 -1.3622
33743SOL     OW 3545   4.413   8.092   8.076 -0.1575 -0.0019 -0.0400
33743SOL    HW1 3546   4.403   8.176   8.030 -0.6635  0.6218  1.1467
33743SOL    HW2 3547   4.379   8.027   8.015  2.1174  0.3574 -1.8233
33744SOL     OW 3548   3.376   1.557   9.146  0.5454 -0.0517  0.5520
33744SOL    HW1 3549   3.392   1.613   9.069 -0.9002  1.4815  1.3030
33744SOL    HW2 3550   3.334   1.479   9.110 -0.2877  0.7256 -0.2240
33745SOL     OW 3551   7.814   3.245   0.623 -0.1465 -0.1510  0.2321
33745SOL    HW1 3552   7.840   3.153   0.619  0.4758  0.0359 -0.0551
33745SOL    HW2 3553   7.782   3.265   0.535  0.8603  0.2362 -0.0565
33746SOL     OW 3554   9.246   4.174   1.340 -0.2645 -0.2585  0.5516
33746SOL    HW1 3555   9.212   4.208   1.423 -1.0780  1.7636 -0.5356
33746SOL    HW2 3556   9.170   4.167   1.283  0.0556 -2.9641  0.3184
33747SOL     OW 3557   7.203   4.263   0.205 -0.9129  0.1770  0.0463
33747SOL    HW1 3558   7.223   4.190   0.146  0.6914  0.9822 -0.4754
33747SOL    HW2 3559   7.282   4.318   0.202 -1.8484  1.6187  0.8803
33748SOL     OW 3560  10.444   1.143   0.887 -0.0674  0.3183  0.1588
33748SOL    HW1 3561  10.474   1.223   0.930  0.2810  0.2283  0.0897
33748SOL    HW2 3562  10.393   1.174   0.812  0.4858  0.4832 -0.1570
33749SOL     OW 3563   3.191   4.009   1.323 -0.6927  0.2475 -0.4889
33749SOL    HW1 3564   3.180   4.040   1.413  1.0662 -1.5973  0.4489
33749SOL    HW2 3565   3.102   3.989   1.293 -1.2354  0.0300  1.1770
33750SOL     OW 3566   0.428   9.293   3.846 -0.0189 -0.1338  0.0828
33750SOL    HW1 3567   0.379   9.364   3.887  0.1232  0.6469 -1.0417
33750SOL    HW2 3568   0.392   9.213   3.884 -1.2368  0.4843  0.2612
33751SOL     OW 3569   8.551   5.082   4.832  0.3234 -0.2424 -0.0604
33751SOL    HW1 3570   8.620   5.053   4.891 -0.4743 -1.6654  0.2026
33751SOL    HW2 3571   8.594   5.088   4.746  1.3124  1.1696  0.4939
33752SOL     OW 3572   1.185   6.984   5.434  0.1188  1.0228 -0.3974
33752SOL    HW1 3573   1.220   6.968   5.521  0.4811 -0.6832 -0.8238
33752SOL    HW2 3574   1.247   6.941   5.375 -0.1224  2.1417 -1.5182
33753SOL     OW 3575   2.177   1.289   0.137  0.2083  0.2061  0.1393
33753SOL    HW1 3576   2.105   1.340   0.100  0.1039 -1.2185 -1.7596
33753SOL    HW2 3577   2.248   1.352   0.148  0.4408  0.6712 -3.1353
33754SOL     OW 3578   7.151   9.980   5.612 -0.0622 -0.2265 -0.2661
33754SOL    HW1 3579   7.205   9.916   5.657  0.1321  0.2745  0.2267
33754SOL    HW2 3580   7.124   9.937   5.531 -0.5901 -1.2276  0.4178
33755SOL     OW 3581   1.688   5.938   3.762  0.4229 -0.2984 -0.0730
33755SOL    HW1 3582   1.771   5.892   3.773 -0.2148 -1.2997  0.7668
33755SOL    HW2 3583   1.708   6.010   3.702  1.7350 -0.9136 -0.4092
33756SOL     OW 3584   8.631   5.756   6.474 -0.1191  0.2157 -0.0606
33756SOL    HW1 3585   8.546   5.712   6.476  0.3469 -0.7232 -0.6276
33756SOL    HW2 3586   8.680   5.712   6.405  1.2593 -0.0278  1.0287
33757SOL     OW 3587   9.265   0.056   8.456 -0.1806  0.1602  1.0616
33757SOL    HW1 3588   9.348   0.103   8.454  1.3884 -2.3801 -1.8037
33757SOL    HW2 3589   9.216   0.090   8.381 -0.4344 -0.4104  0.9634
33758SOL     OW 3590   9.677   0.389   1.544 -0.0806 -0.0338  0.2761
33758SOL    HW1 3591   9.673   0.315   1.484 -2.5282 -1.6082  2.1912
33758SOL    HW2 3592   9.588   0.398   1.577  1.2518  0.1640  4.2799
33759SOL     OW 3593   5.971   2.365   5.798 -0.1082  0.5751 -0.6685
33759SOL    HW1 3594   5.998   2.308   5.870 -0.3087 -2.2428 -2.6453
33759SOL    HW2 3595   5.890   2.405   5.828 -0.2492 -0.6083  0.6390
33760SOL     OW 3596   0.107   4.665   6.858 -0.4063  0.3226  0.3890
33760SOL    HW1 3597   0.162   4.589   6.841 -0.2087  0.8373 -1.5139
33760SOL    HW2 3598   0.166   4.730   6.895  0.2389  0.7347 -1.2684
33761SOL     OW 3599   5.195   6.831   3.255 -0.2811 -0.2721 -0.3670
33761SOL    HW1 3600   5.175   6.737   3.246 -0.1361 -0.3416  0.0111
33761SOL    HW2 3601   5.183   6.867   3.167  1.6471 -1.0087 -0.9755
33762SOL     OW 3602   5.508   1.976   2.476 -0.0912 -0.4568 -0.2053
33762SOL    HW1 3603   5.438   1.996   2.414 -0.7689  1.7312  1.1503
33762SOL    HW2 3604   5.506   2.049   2.538  1.5596 -1.7785  1.5014
33763SOL     OW 3605  10.351   2.989   8.604 -0.4575  0.3276 -0.1999
33763SOL    HW1 3606  10.377   2.962   8.516 -0.5477 -0.7182  0.0777
33763SOL    HW2 3607  10.338   2.907   8.651  0.7343  0.8554  1.1378
33764SOL     OW 3608   0.377   9.618   9.555  0.2229 -0.1988  0.1506
33764SOL    HW1 3609   0.292   9.662   9.553 -0.0400 -0.6973 -1.9369
33764SOL    HW2 3610   0.425   9.654   9.481  1.3719 -0.8264  0.5596
33765SOL     OW 3611   8.850  10.269   2.491 -0.1917 -0.1226 -0.3963
33765SOL    HW1 3612   8.840  10.347   2.438 -1.9580 -0.3726 -0.4730
33765SOL    HW2 3613   8.904  10.210   2.438 -0.0346  0.4985 -0.9340
33766SOL     OW 3614   2.265   5.304   1.994  0.5126 -0.0791 -0.3911
33766SOL    HW1 3615   2.360   5.312   2.001  0.6414 -1.9411  0.6535
33766SOL    HW2 3616   2.242   5.240   2.061 -1.7015  1.5828  0.5706
33767SOL     OW 3617   2.809  10.523   6.709  0.5404 -0.3131  0.7056
33767SOL    HW1 3618   2.899  10.550   6.727  0.1810  0.0777  1.9837
33767SOL    HW2 3619   2.760  10.546   6.788 -0.5935 -0.9722  0.2247
33768SOL     OW 3620   5.905   0.093  10.226 -0.1754  0.1122 -0.3544
33768SOL    HW1 3621   5.980   0.103  10.169 -1.7123  0.5973 -2.3977
33768SOL    HW2 3622   5.892  -0.002  10.233  0.4206  0.0389 -0.2389
33769SOL     OW 3623   3.511   6.695   7.285 -0.4577  0.1072 -0.1418
33769SOL    HW1 3624   3.542   6.610   7.316  0.8590  0.2068 -1.0955
33769SOL    HW2 3625   3.481   6.740   7.363 -1.4855 -1.3479  0.3461
33770SOL     OW 3626   8.963   0.220   9.537  0.1651  0.1659  0.1800
33770SOL    HW1 3627   8.909   0.289   9.576 -0.1058  0.3812 -0.5606
33770SOL    HW2 3628   9.034   0.206   9.600 -0.5594  0.1218  0.9998
33771SOL     OW 3629   1.323   4.094   7.174  0.1950  0.2739  0.7369
33771SOL    HW1 3630   1.307   4.008   7.212 -1.1314 -0.5484 -1.5019
33771SOL    HW2 3631   1.251   4.108   7.112  0.9208  2.5480  0.2774
33772SOL     OW 3632   1.658   8.109   8.744  0.6786 -0.3032  0.3815
33772SOL    HW1 3633   1.689   8.193   8.777  1.8367 -0.1270 -1.1007
33772SOL    HW2 3634   1.721   8.045   8.777 -0.0971 -0.6061  1.3501
33773SOL     OW 3635   8.288   4.884   9.753 -0.0567 -0.3644  0.0797
33773SOL    HW1 3636   8.336   4.966   9.761  0.1564 -0.4915  0.1336
33773SOL    HW2 3637   8.344   4.830   9.696 -0.9607  0.0994 -1.3073
33774SOL     OW 3638   8.834   8.249   3.904  0.3479  0.0392 -0.3572
33774SOL    HW1 3639   8.840   8.278   3.813  0.7113 -0.2607 -0.4288
33774SOL    HW2 3640   8.881   8.316   3.954 -0.6965  0.7388 -0.2644
33775SOL     OW 3641   6.183   5.353   5.513  0.1360  0.4563  0.4494
33775SOL    HW1 3642   6.205   5.404   5.434  0.3319  1.5997  1.2165
33775SOL    HW2 3643   6.267   5.326   5.549  0.1325  1.2251  1.0713
33776SOL     OW 3644   1.459   5.346   0.901 -0.8540 -0.3538  0.0730
33776SOL    HW1 3645   1.441   5.440   0.896 -0.0127 -0.1409  0.8517
33776SOL    HW2 3646   1.540   5.340   0.951 -0.3980 -1.4480 -0.7663
33777SOL     OW 3647   4.659   1.717   7.984 -0.1503 -0.1611  0.3459
33777SOL    HW1 3648   4.663   1.742   8.076 -2.9191  0.5355  0.3725
33777SOL    HW2 3649   4.614   1.790   7.941 -1.1575 -1.5424 -1.0629
33778SOL     OW 3650   3.620   6.415   7.373  0.1594  0.7661  0.4690
33778SOL    HW1 3651   3.680   6.388   7.303  0.4678  2.7377 -0.0777
33778SOL    HW2 3652   3.556   6.344   7.377  1.1075 -0.2122 -0.6272
33779SOL     OW 3653   8.933   6.753   2.479  0.0736 -0.6621  0.4519
33779SOL    HW1 3654   8.954   6.663   2.454  0.0310  0.0211 -2.4113
33779SOL    HW2 3655   8.838   6.754   2.484  0.0026 -0.5479 -0.6686
33780SOL     OW 3656   1.263   0.704   5.451 -0.1758 -0.0681  0.3939
33780SOL    HW1 3657   1.247   0.629   5.393 -1.0155  0.6269 -0.2976
33780SOL    HW2 3658   1.341   0.746   5.415  0.6216 -0.8979  1.1031
33781SOL     OW 3659   6.594   0.156   3.599 -0.2577 -0.3865  0.3678
33781SOL    HW1 3660   6.556   0.068   3.598  0.6684 -0.8474 -2.1169
33781SOL    HW2 3661   6.528   0.212   3.558  0.9665 -0.9175 -2.5806
33782SOL     OW 3662   1.295   2.507   6.370 -0.3299 -0.2238  0.8441
33782SOL    HW1 3663   1.221   2.515   6.311 -1.3655  0.0195  2.1240
33782SOL    HW2 3664   1.258   2.520   6.457  1.3759  0.9508  1.4555
33783SOL     OW 3665   4.212   4.360   0.901 -0.0570  0.0201  0.1016
33783SOL    HW1 3666   4.300   4.328   0.921 -0.3551 -1.1232 -0.3773
33783SOL    HW2 3667   4.153   4.296   0.939 -0.6795  0.3087 -0.3509
33784SOL     OW 3668   3.894   2.874   2.019 -0.7749 -0.2225  0.0670
33784SOL    HW1 3669   3.960   2.865   1.950 -0.8500  1.4356 -0.2700
33784SOL    HW2 3670   3.941   2.854   2.100  0.0010  0.4012 -0.2171
33785SOL     OW 3671   4.464   3.698   9.781  0.3000  0.2346  0.1779
33785SOL    HW1 3672   4.430   3.665   9.698  1.5250 -1.2407  0.2084
33785SOL    HW2 3673   4.506   3.622   9.821 -0.3727  0.8663  2.2236
33786SOL     OW 3674   7.990   6.221   3.560 -0.2726 -0.0582  0.6127
33786SOL    HW1 3675   8.007   6.255   3.472 -0.1729 -1.3891  0.0920
33786SOL    HW2 3676   7.970   6.128   3.546  0.1364 -0.3831  2.0321
33787SOL     OW 3677   2.586   3.685   9.117 -0.2188 -0.1388 -0.0904
33787SOL    HW1 3678   2.549   3.662   9.202  3.7463 -2.6459  1.2099
33787SOL    HW2 3679   2.656   3.747   9.136  0.7645 -0.7531 -1.4918
33788SOL     OW 3680   7.463   2.439   1.372  0.6232 -0.4953  0.0375
33788SOL    HW1 3681   7.540   2.384   1.360  1.0691  0.0534  0.3455
33788SOL    HW2 3682   7.464   2.498   1.296  0.7961 -0.1434  0.3143
33789SOL     OW 3683   0.464   6.523   6.489 -0.0359 -0.2971  0.2171
33789SOL    HW1 3684   0.472   6.483   6.402 -0.5646  0.3337 -0.1299
33789SOL    HW2 3685   0.503   6.609   6.479 -0.3907 -0.0995  0.5192
33790SOL     OW 3686   2.965   8.548   9.305 -0.4125 -0.3351 -0.0224
33790SOL    HW1 3687   2.879   8.555   9.264 -0.1952  0.1001 -0.4054
33790SOL    HW2 3688   2.970   8.622   9.366  0.5390  0.9453 -1.5891
33791SOL     OW 3689   0.083   9.886   8.303 -0.0476 -0.9301 -0.4569
33791SOL    HW1 3690   0.127   9.955   8.254  0.4032 -1.7148 -1.1773
33791SOL    HW2 3691  -0.010   9.902   8.287  0.0337 -0.3511 -0.4046
33792SOL     OW 3692   5.802   2.315  10.006 -0.2941  0.0019  0.4741
33792SOL    HW1 3693   5.774   2.373   9.935  0.4587  0.4643  0.5487
33792SOL    HW2 3694   5.789   2.368  10.085  0.8408  0.2518  0.5045
33793SOL     OW 3695   5.089   9.100  10.289 -0.1982 -0.0807  0.0674
33793SOL    HW1 3696   5.007   9.145  10.308 -0.1846  0.0046 -0.0723
33793SOL    HW2 3697   5.092   9.094  10.193 -0.5003 -0.9409  0.1069
33794SOL     OW 3698  10.440   6.325   7.554 -0.2132 -0.3579  0.2966
33794SOL    HW1 3699  10.506   6.388   7.524  1.0622 -2.4022 -1.4775
33794SOL    HW2 3700  10.489   6.261   7.605 -0.8115 -1.8229 -0.9065
33795SOL     OW 3701   1.170   8.656   1.736 -0.0597  0.0406 -0.0023
33795SOL    HW1 3702   1.253   8.660   1.783 -0.0666 -2.3369  0.3462
33795SOL    HW2 3703   1.178   8.580   1.678 -2.4943 -1.2724  1.1905
33796SOL     OW 3704   7.781   1.333   0.892 -0.1302 -0.7590  0.4845
33796SOL    HW1 3705   7.854   1.319   0.953 -1.3629 -1.0720  1.9468
33796SOL    HW2 3706   7.703   1.307   0.942 -1.3194  0.2394 -0.7904
33797SOL     OW 3707   2.669   2.487   2.266  0.1615  0.7603  0.0692
33797SOL    HW1 3708   2.712   2.559   2.313 -1.0100  1.8207 -0.4136
33797SOL    HW2 3709   2.595   2.463   2.322 -1.4649  2.2802 -1.3256
33798SOL     OW 3710   3.517   5.591   6.031 -0.0318  0.0072  0.5715
33798SOL    HW1 3711   3.573   5.517   6.054  0.2485  0.6919  2.2626
33798SOL    HW2 3712   3.437   5.552   5.996  1.2668 -1.0074 -1.5128
33799SOL     OW 3713   9.938   2.473  10.308 -0.2911  0.2983 -0.3040
33799SOL    HW1 3714  10.033   2.475  10.298 -0.1726  0.8766  0.8116
33799SOL    HW2 3715   9.920   2.528  10.384 -1.5600  0.5497 -0.7537
33800SOL     OW 3716   5.802   5.729   0.691 -0.7307 -0.0014 -0.4909
33800SOL    HW1 3717   5.833   5.815   0.718  0.8051 -0.7959  0.4383
33800SOL    HW2 3718   5.870   5.668   0.721  0.0051 -1.2408 -4.1140
33801SOL     OW 3719   2.905   0.387   9.235 -0.1854 -0.6357 -0.3688
33801SOL    HW1 3720   2.985   0.394   9.288 -0.0090  1.0767 -0.7953
33801SOL    HW2 3721   2.904   0.468   9.183 -3.2401  0.4202  1.1073
33802SOL     OW 3722   1.001   5.466   1.713  0.5523 -0.3980  0.5481
33802SOL    HW1 3723   0.987   5.517   1.793  1.1990  0.2098  0.2841
33802SOL    HW2 3724   1.054   5.391   1.741  2.6796  0.9443  0.3477
33803SOL     OW 3725   6.255   9.513   6.088 -0.1039  0.4283 -0.0088
33803SOL    HW1 3726   6.210   9.554   6.162 -0.8682  0.7829 -0.6524
33803SOL    HW2 3727   6.225   9.562   6.011  2.2107  1.4064 -0.3791
33804SOL     OW 3728   3.885   9.921   2.776  0.1557 -0.5832 -0.5051
33804SOL    HW1 3729   3.808   9.974   2.795  1.1658  1.3493 -1.4820
33804SOL    HW2 3730   3.871   9.890   2.686  1.9164  2.6184 -2.0427
33805SOL     OW 3731   8.890   2.743   1.624  0.2007 -0.7653  0.6422
33805SOL    HW1 3732   8.947   2.791   1.683  0.8250 -0.5523 -0.1136
33805SOL    HW2 3733   8.914   2.651   1.636  1.7500 -0.5843 -0.6927
33806SOL     OW 3734   3.121   7.032   2.053  0.2040  0.2717 -0.2895
33806SOL    HW1 3735   3.197   6.976   2.061  0.3828  0.6506  0.8236
33806SOL    HW2 3736   3.142   7.109   2.106 -0.7538  0.5874 -0.3493
33807SOL     OW 3737  10.083   8.472   6.143 -0.6829  0.6091 -0.8595
33807SOL    HW1 3738  10.048   8.488   6.055 -1.4499  2.1250 -0.3178
33807SOL    HW2 3739  10.092   8.559   6.181  0.4697  0.0294  0.2644
33808SOL     OW 3740   2.604  10.032   3.266 -0.4782  0.5859 -0.3480
33808SOL    HW1 3741   2.635  10.098   3.204 -0.6492  1.0050 -0.0018
33808SOL    HW2 3742   2.509  10.041   3.264 -0.5603 -0.3723 -1.0680
33809SOL     OW 3743   5.243   5.346   5.505 -0.9419  0.2203  0.0391
33809SOL    HW1 3744   5.191   5.356   5.585 -1.1762  1.4509 -0.2398
33809SOL    HW2 3745   5.331   5.325   5.537 -1.2076 -0.0927  0.5894
33810SOL     OW 3746   6.645   2.236   8.105 -0.0964  0.1212 -0.8025
33810SOL    HW1 3747   6.606   2.297   8.042 -1.6471 -0.8002 -0.7808
33810SOL    HW2 3748   6.732   2.219   8.071 -0.0401  1.4870 -1.4044
33811SOL     OW 3749   1.236   6.455   6.822 -0.3291  0.2428  0.4385
33811SOL    HW1 3750   1.177   6.392   6.781  1.6926  0.6881 -3.6854
33811SOL    HW2 3751   1.285   6.403   6.886 -2.1388 -1.1019  0.8300
33812SOL     OW 3752   0.637   9.585   3.933  0.1098 -0.2848  0.1962
33812SOL    HW1 3753   0.592   9.658   3.890  0.3532 -0.2586 -0.0187
33812SOL    HW2 3754   0.638   9.516   3.866  0.8710 -0.0980  0.0027
33813SOL     OW 3755   8.868   7.731   1.356  0.0931  0.7667 -0.4366
33813SOL    HW1 3756   8.857   7.703   1.447  0.7150  1.2442 -0.2106
33813SOL    HW2 3757   8.914   7.658   1.315  0.8015  1.0202 -0.0979
33814SOL     OW 3758   3.054   8.722   6.330 -0.8173  0.1523 -0.1003
33814SOL    HW1 3759   3.069   8.653   6.395 -3.1409 -0.3599 -0.0075
33814SOL    HW2 3760   3.015   8.794   6.380 -0.5429  0.6308 -0.5645
33815SOL     OW 3761  10.328  10.592   0.450  0.1375  0.4688 -0.0102
33815SOL    HW1 3762  10.385  10.623   0.520 -0.9434 -1.6351  1.9393
33815SOL    HW2 3763  10.333  10.497   0.455 -2.4298  0.2261 -0.6670
33816SOL     OW 3764   7.608   9.877   1.755 -0.3568  0.2934  0.3148
33816SOL    HW1 3765   7.535   9.926   1.718 -1.1710 -0.7454  0.4719
33816SOL    HW2 3766   7.669   9.943   1.788 -1.7423  1.1990  1.1470
33817SOL     OW 3767   8.012   4.419   7.530  0.1416  0.1867  0.5172
33817SOL    HW1 3768   8.004   4.382   7.619  0.5155  0.3663  0.6263
33817SOL    HW2 3769   8.019   4.342   7.473  1.8612  0.0744  0.8342
33818SOL     OW 3770   6.747   9.608   5.580 -0.4964 -0.1500 -0.1867
33818SOL    HW1 3771   6.783   9.520   5.590  1.5179  0.7422  0.9732
33818SOL    HW2 3772   6.766   9.632   5.490 -0.3503 -0.6187 -0.2820
33819SOL     OW 3773   6.740   4.091   1.198 -0.2231  0.3641 -0.2144
33819SOL    HW1 3774   6.712   4.000   1.184 -0.6530  0.0922  2.0079
33819SOL    HW2 3775   6.738   4.130   1.110 -1.2027 -1.4415 -1.0673
33820SOL     OW 3776   8.826   9.354   6.468 -0.0748  0.0379 -0.0839
33820SOL    HW1 3777   8.878   9.373   6.547 -0.2585  3.3256 -0.5864
33820SOL    HW2 3778   8.740   9.392   6.487 -1.2425 -2.2112 -0.6143
33821SOL     OW 3779   2.800   4.551   1.658 -0.5810  0.0739 -0.5951
33821SOL    HW1 3780   2.780   4.531   1.567 -2.3565  1.0331 -0.4585
33821SOL    HW2 3781   2.827   4.467   1.695  1.2345 -0.1321 -2.2194
33822SOL     OW 3782   9.526   2.142   8.921 -0.0907 -0.2244 -0.5745
33822SOL    HW1 3783   9.542   2.169   9.011 -1.5304  2.5715 -1.0349
33822SOL    HW2 3784   9.447   2.089   8.926 -1.2220  1.3991 -0.2950
33823SOL     OW 3785   6.124   0.601   4.649  0.2189  0.1556 -0.0771
33823SOL    HW1 3786   6.161   0.529   4.700  1.4587 -0.1441 -1.3203
33823SOL    HW2 3787   6.191   0.669   4.652 -0.5796  0.9414  0.3781
33824SOL     OW 3788   9.202   3.603   7.433 -0.3982  0.2181 -0.2027
33824SOL    HW1 3789   9.176   3.522   7.389 -0.1895 -0.8348  1.5065
33824SOL    HW2 3790   9.120   3.650   7.448 -0.6844 -0.3551  0.0575
33825SOL     OW 3791   2.349   7.456   5.213  0.5019 -0.2054 -0.3409
33825SOL    HW1 3792   2.414   7.441   5.144  0.2300 -0.6603 -0.5023
33825SOL    HW2 3793   2.280   7.507   5.170  0.1733 -0.7780 -0.4979
33826SOL     OW 3794   8.692   6.916   7.393  0.0192 -0.3539  0.6575
33826SOL    HW1 3795   8.729   6.829   7.380 -1.2607 -0.6300 -1.7461
33826SOL    HW2 3796   8.620   6.903   7.455  0.0792 -0.9455  0.6076
33827SOL     OW 3797   6.808   2.157   4.945  0.5107  0.4128 -0.3499
33827SOL    HW1 3798   6.860   2.228   4.908  2.6574 -0.3671  0.9606
33827SOL    HW2 3799   6.862   2.122   5.017 -0.7823 -2.0366 -0.4362
33828SOL     OW 3800   0.958   2.243   2.471  0.1922  0.5534  0.4924
33828SOL    HW1 3801   0.920   2.258   2.385 -0.0305  0.0826  0.5007
33828SOL    HW2 3802   1.049   2.220   2.454 -0.0178 -0.2010  0.3225
33829SOL     OW 3803   2.510   5.858   3.666 -1.1312 -0.6954 -0.3770
33829SOL    HW1 3804   2.598   5.828   3.687 -0.6218  0.3188 -0.9748
33829SOL    HW2 3805   2.456   5.827   3.739  0.0910  0.4138  1.0652
33830SOL     OW 3806   7.398   6.411   6.881  0.7990  0.1461  0.0624
33830SOL    HW1 3807   7.492   6.392   6.888  0.9003  0.8887  0.7523
33830SOL    HW2 3808   7.355   6.335   6.920  1.0940 -0.3209 -0.4987
33831SOL     OW 3809   2.015   1.265   4.858 -0.2558 -0.1724  0.5680
33831SOL    HW1 3810   2.049   1.265   4.769  1.2937 -1.3053  1.1121
33831SOL    HW2 3811   1.940   1.324   4.856 -0.6794 -0.7064 -1.6434
33832SOL     OW 3812   6.848   2.601   6.924  0.0959 -0.3601  0.2080
33832SOL    HW1 3813   6.792   2.535   6.963  0.5276 -1.1797 -0.5239
33832SOL    HW2 3814   6.937   2.574   6.945  0.2604  0.4296  0.5810
33833SOL     OW 3815   5.543   5.770   9.806  0.1332  0.2935 -0.0006
33833SOL    HW1 3816   5.551   5.703   9.873  0.1518  0.8174  0.5253
33833SOL    HW2 3817   5.631   5.781   9.771  0.4679  1.1928  1.0492
33834SOL     OW 3818   6.938   7.118   8.083 -0.2279  0.0124 -0.2654
33834SOL    HW1 3819   6.980   7.120   7.998  1.8920 -0.0640  0.7279
33834SOL    HW2 3820   6.926   7.210   8.107  1.4892  0.0924  0.4006
33835SOL     OW 3821   4.017   5.920   0.245  0.4300 -0.0954 -0.2963
33835SOL    HW1 3822   4.073   5.865   0.300 -0.3346 -0.5207  0.0599
33835SOL    HW2 3823   3.972   5.858   0.187  1.8955  0.3928 -2.0741
33836SOL     OW 3824   3.716   8.817   1.522  0.5926 -0.1422 -0.1739
33836SOL    HW1 3825   3.721   8.807   1.617 -0.1002 -0.2522 -0.1485
33836SOL    HW2 3826   3.798   8.860   1.498  0.8777 -0.3383  0.4449
33837SOL     OW 3827  10.133   0.791   3.024 -0.1648  0.2471 -0.0149
33837SOL    HW1 3828  10.147   0.792   3.118  1.3516 -0.6596 -0.1914
33837SOL    HW2 3829  10.200   0.731   2.990  0.0303  1.3628 -1.7678
33838SOL     OW 3830   3.464   7.576   3.183 -0.0040 -0.3918  0.5864
33838SOL    HW1 3831   3.506   7.527   3.253 -2.5016 -1.3722  1.5117
33838SOL    HW2 3832   3.406   7.513   3.140  0.4566  0.5305 -1.5217
33839SOL     OW 3833   1.178   8.967   1.869 -0.2721  0.2865 -0.2064
33839SOL    HW1 3834   1.129   8.885   1.864 -1.7328  1.1131  0.0954
33839SOL    HW2 3835   1.180   9.000   1.780 -0.6270  0.4568 -0.1515
33840SOL     OW 3836   8.016   4.425   4.499 -0.2220  0.0477 -0.3371
33840SOL    HW1 3837   7.981   4.349   4.452  1.0895 -0.7394 -0.1052
33840SOL    HW2 3838   7.940   4.463   4.543 -0.6831 -2.1062  0.8885
33841SOL     OW 3839   7.960   6.727   6.845 -0.1743 -0.2774 -0.3835
33841SOL    HW1 3840   7.983   6.741   6.753  0.2604  0.7104 -0.1485
33841SOL    HW2 3841   7.937   6.815   6.877 -1.7310 -0.8266  0.0882
33842SOL     OW 3842   2.552   6.943   5.503 -0.2384  0.0772 -1.1521
33842SOL    HW1 3843   2.556   6.869   5.442 -0.1866 -0.4491 -0.5252
33842SOL    HW2 3844   2.494   7.006   5.460  3.0736  1.6397 -3.7627
33843SOL     OW 3845   4.478   1.182   7.468 -0.1285  0.1891  0.4558
33843SOL    HW1 3846   4.513   1.246   7.406 -1.0507  0.0588 -0.2189
33843SOL    HW2 3847   4.556   1.142   7.508  0.4781  0.5671 -0.3190
33844SOL     OW 3848   4.703   8.135   3.664 -0.8947  0.1741 -0.0219
33844SOL    HW1 3849   4.784   8.171   3.628  0.2572 -2.5871 -0.4366
33844SOL    HW2 3850   4.686   8.186   3.743  1.2966  0.7959  0.0987
33845SOL     OW 3851   9.102   3.130   4.825 -0.0094 -0.0945  0.0569
33845SOL    HW1 3852   9.034   3.069   4.853 -0.6451  1.1592  1.4051
33845SOL    HW2 3853   9.183   3.080   4.829 -0.4536 -0.7464  1.4962
33846SOL     OW 3854  10.163   9.359   3.703  0.2171 -0.1077 -0.0520
33846SOL    HW1 3855  10.079   9.333   3.663  1.4201 -3.4120 -0.7016
33846SOL    HW2 3856  10.185   9.441   3.659 -2.5878  0.8214  0.0750
33847SOL     OW 3857   0.220   9.028   1.121  0.3212  0.2983 -0.0436
33847SOL    HW1 3858   0.183   9.108   1.157  1.5311  0.3376  1.2047
33847SOL    HW2 3859   0.272   8.991   1.192 -0.2282 -1.6361 -0.5804
33848SOL     OW 3860   3.789   9.490   8.834 -0.2499 -0.8644  0.1845
33848SOL    HW1 3861   3.815   9.411   8.786 -1.8967 -1.2766 -0.0737
33848SOL    HW2 3862   3.741   9.542   8.769  0.7447  0.3268  0.3748
33849SOL     OW 3863   8.057   6.651   6.006 -0.2158 -0.1312 -0.2379
33849SOL    HW1 3864   8.036   6.599   6.084  0.1974 -1.0489 -0.7309
33849SOL    HW2 3865   8.005   6.611   5.936  2.0729 -1.6171 -1.1998
33850SOL     OW 3866   1.883   6.614   0.066 -0.3269  0.1517 -0.6113
33850SOL    HW1 3867   1.804   6.652   0.104  0.4161 -0.0107  1.2185
33850SOL    HW2 3868   1.862   6.600  -0.026 -2.0659  1.0410 -0.3784
33851SOL     OW 3869   2.738   2.058   2.376 -0.3821 -0.7368  0.1055
33851SOL    HW1 3870   2.776   2.010   2.450 -0.5958  0.2379  0.8606
33851SOL    HW2 3871   2.673   1.997   2.340  1.2936 -2.1205 -0.7282
33852SOL     OW 3872   6.289   2.333   0.035 -0.3189 -0.2836 -0.3750
33852SOL    HW1 3873   6.245   2.331  -0.050  0.7127  1.2832 -1.0057
33852SOL    HW2 3874   6.371   2.285   0.021 -1.3262 -2.4247  0.5497
33853SOL     OW 3875   6.258   9.783   5.876  0.7128 -0.5131 -0.7956
33853SOL    HW1 3876   6.235   9.704   5.828  0.9769 -0.6759 -0.6609
33853SOL    HW2 3877   6.337   9.816   5.833  1.2411 -0.9390 -0.1735
33854SOL     OW 3878   2.010   6.046   2.936  0.7000  0.3460  0.4237
33854SOL    HW1 3879   2.022   6.110   2.866  0.8840 -1.2585 -1.1105
33854SOL    HW2 3880   2.052   5.966   2.902  0.4734 -0.5924  2.2275
33855SOL     OW 3881   3.406  10.032   8.448 -0.1067  0.1220  0.7060
33855SOL    HW1 3882   3.385  10.041   8.355 -1.5394 -3.3868  0.5362
33855SOL    HW2 3883   3.323  10.047   8.493  0.2202  0.2217  1.2803
33856SOL     OW 3884   8.564   3.403   9.245  0.3469  0.0043  0.5573
33856SOL    HW1 3885   8.537   3.420   9.155  0.5677  1.3808  0.7262
33856SOL    HW2 3886   8.652   3.368   9.238  0.7536  1.0563  0.2638
33857SOL     OW 3887   3.981   0.343   1.519 -0.1354  0.1968  0.1360
33857SOL    HW1 3888   3.988   0.424   1.569  0.4827  2.0173 -2.6719
33857SOL    HW2 3889   4.033   0.280   1.569 -0.5735  1.4993  2.3642
33858SOL     OW 3890   9.600   0.866   2.534 -0.3735  0.7417 -0.8024
33858SOL    HW1 3891   9.512   0.889   2.504 -0.0139  3.9386  0.1928
33858SOL    HW2 3892   9.596   0.877   2.629  0.2682 -2.5129 -0.2876
33859SOL     OW 3893   7.370   4.989   1.498  0.2671 -0.4280 -0.6277
33859SOL    HW1 3894   7.326   4.924   1.444 -0.9494 -1.1102  1.1012
33859SOL    HW2 3895   7.310   5.064   1.499  0.7425 -0.0347 -0.9984
33860SOL     OW 3896   8.446   4.284   1.070  0.4760  0.0366  0.2230
33860SOL    HW1 3897   8.440   4.219   1.000 -0.3389 -0.4441  0.7226
33860SOL    HW2 3898   8.358   4.320   1.077 -0.0122 -1.3891  2.3461
33861SOL     OW 3899   0.855   4.622   5.325  0.3859 -0.9771 -0.0548
33861SOL    HW1 3900   0.870   4.571   5.245  0.0322 -0.0911 -0.7037
33861SOL    HW2 3901   0.939   4.664   5.343  0.6959 -1.8166  0.5169
33862SOL     OW 3902   8.014   3.916   8.668 -0.5701  0.2752 -0.3570
33862SOL    HW1 3903   7.941   3.857   8.688 -0.1557 -0.1138  0.0212
33862SOL    HW2 3904   8.063   3.924   8.750  1.2961 -1.5540 -1.1809
33863SOL     OW 3905   3.220   6.733   5.132 -0.0470  0.0615 -0.1144
33863SOL    HW1 3906   3.214   6.695   5.220 -2.1667  1.0034  0.2142
33863SOL    HW2 3907   3.129   6.739   5.103  0.5105  1.2580 -1.7299
33864SOL     OW 3908   2.058   2.046   0.905  0.6522 -0.1259 -0.2311
33864SOL    HW1 3909   2.039   1.973   0.964  2.1910  0.7076  1.4012
33864SOL    HW2 3910   1.972   2.077   0.876 -0.1498 -0.6118  1.5213
33865SOL     OW 3911   6.670   5.209   1.494 -0.2627 -0.2451  0.3652
33865SOL    HW1 3912   6.703   5.294   1.525 -1.9055  0.2810  0.7551
33865SOL    HW2 3913   6.576   5.211   1.512 -0.6561 -1.4344 -1.2826
33866SOL     OW 3914   1.472   8.311   1.338  0.1369  0.5912 -0.2150
33866SOL    HW1 3915   1.406   8.374   1.309 -1.8010 -0.5209  1.4947
33866SOL    HW2 3916   1.555   8.357   1.327 -1.1285  3.1858  0.2570
33867SOL     OW 3917   0.634   7.084   6.138  0.1481 -0.0552 -0.2255
33867SOL    HW1 3918   0.679   7.027   6.201  0.9416 -0.1261 -0.8322
33867SOL    HW2 3919   0.691   7.083   6.060 -1.1167 -0.4600 -1.1737
33868SOL     OW 3920  10.394   7.598   4.607 -0.0979 -0.1355  0.0562
33868SOL    HW1 3921  10.387   7.674   4.664 -2.9829  0.4490 -0.9339
33868SOL    HW2 3922  10.394   7.634   4.519 -0.6312 -1.2204 -0.4075
33869SOL     OW 3923   5.734   4.370   3.963 -0.3489 -0.3583  0.0066
33869SOL    HW1 3924   5.685   4.304   3.914  0.0910 -0.2301 -0.6159
33869SOL    HW2 3925   5.825   4.358   3.936 -0.2926  0.6437 -0.2921
33870SOL     OW 3926   4.027   3.526   5.151 -0.3386 -0.0441  0.0765
33870SOL    HW1 3927   4.038   3.610   5.196  0.2472 -0.3189  0.4608
33870SOL    HW2 3928   4.097   3.524   5.086  0.1884 -0.5917  0.6411
33871SOL     OW 3929   8.572   4.136   6.189  0.0542  0.0521  0.1083
33871SOL    HW1 3930   8.645   4.079   6.211 -1.5305 -2.2583 -0.2848
33871SOL    HW2 3931   8.594   4.171   6.103  0.5003 -0.9730 -0.2080
33872SOL     OW 3932   2.701   3.407   3.165 -0.3618  0.2961 -0.0902
33872SOL    HW1 3933   2.693   3.468   3.238 -1.9365  0.4039 -0.3156
33872SOL    HW2 3934   2.612   3.374   3.151 -0.1222  0.3155 -1.9781
33873SOL     OW 3935   2.571   6.402   9.836  0.4375 -0.7321  0.8830
33873SOL    HW1 3936   2.548   6.361   9.752 -0.4364  0.3959  0.5547
33873SOL    HW2 3937   2.643   6.348   9.870  1.0393 -1.0194 -0.7492
33874SOL     OW 3938   6.160   5.055   1.422 -0.1214  0.1611  0.6387
33874SOL    HW1 3939   6.129   4.965   1.434  0.1214  0.0510  0.4554
33874SOL    HW2 3940   6.097   5.109   1.471  0.6988 -0.2343  2.1858
33875SOL     OW 3941   5.725   7.028   6.382 -0.2963 -0.1190 -0.0523
33875SOL    HW1 3942   5.656   7.020   6.317  0.0440  1.7636 -0.7088
33875SOL    HW2 3943   5.805   7.040   6.331  0.2985 -0.7261  0.7089
33876SOL     OW 3944   6.554   0.677   2.507  0.0922 -0.1008  0.0953
33876SOL    HW1 3945   6.530   0.733   2.581 -3.2844 -0.2222 -0.7243
33876SOL    HW2 3946   6.642   0.704   2.484 -0.2035  2.6522  1.7349
33877SOL     OW 3947  10.387   2.740   6.955  0.8808  0.5134  0.5839
33877SOL    HW1 3948  10.472   2.712   6.920  0.3067 -0.5207 -0.0280
33877SOL    HW2 3949  10.378   2.692   7.037 -0.6441 -2.2117 -1.0454
33878SOL     OW 3950   4.638   9.202   9.259 -0.8570  0.0424  0.2795
33878SOL    HW1 3951   4.637   9.280   9.313  1.5881  0.7063 -0.5044
33878SOL    HW2 3952   4.569   9.217   9.194 -3.4402 -0.5283  2.7358
33879SOL     OW 3953   4.702   7.068   8.846 -0.0249 -0.9821 -0.5819
33879SOL    HW1 3954   4.624   7.069   8.902  0.4559 -2.4825  0.1634
33879SOL    HW2 3955   4.771   7.106   8.901 -0.5129  2.0785 -1.8367
33880SOL     OW 3956   8.219   6.085   7.235 -0.1273  0.0766  0.1182
33880SOL    HW1 3957   8.204   6.025   7.308  0.6466  0.9352  1.0127
33880SOL    HW2 3958   8.296   6.136   7.261 -0.3417  0.9802 -0.9293
33881SOL     OW 3959   8.267   0.140   7.370  0.3327 -0.3868 -0.3362
33881SOL    HW1 3960   8.188   0.190   7.349  0.0790 -0.9582 -0.7524
33881SOL    HW2 3961   8.234   0.055   7.400  0.8013 -0.9815 -1.4523
33882SOL     OW 3962   1.910   4.136   0.638 -0.1929 -0.2432 -0.6170
33882SOL    HW1 3963   1.886   4.058   0.687 -0.4234  0.3799  0.2782
33882SOL    HW2 3964   1.868   4.208   0.685  1.7923  0.6744 -0.1277
33883SOL     OW 3965   1.920   3.509   5.359 -0.5012  0.4440 -0.2328
33883SOL    HW1 3966   1.937   3.497   5.452  0.0635  0.7077 -0.3009
33883SOL    HW2 3967   1.856   3.580   5.354 -0.4586  0.4936 -0.0535
33884SOL     OW 3968   9.098   9.607   3.059 -0.3912 -0.3033  0.0038
33884SOL    HW1 3969   9.049   9.664   3.118 -1.7353 -0.3733 -0.9963
33884SOL    HW2 3970   9.037   9.588   2.987  1.4227  0.4787 -1.8623
33885SOL     OW 3971   7.058   7.531   7.886 -0.1257  0.0226 -0.5177
33885SOL    HW1 3972   7.144   7.533   7.844  0.0392  2.0377 -0.1830
33885SOL    HW2 3973   7.009   7.600   7.843 -0.4651  1.1091  1.5138
33886SOL     OW 3974   5.055   3.496   6.152 -0.2670  0.1247 -0.7387
33886SOL    HW1 3975   5.075   3.520   6.062  0.5669 -0.5690 -0.7517
33886SOL    HW2 3976   5.049   3.580   6.199  0.9788  0.4406 -1.1040
33887SOL     OW 3977   1.083   9.913   5.864 -0.6254  0.5168  1.1349
33887SOL    HW1 3978   1.130   9.953   5.790  0.2942 -3.1277 -0.4926
33887SOL    HW2 3979   1.126   9.949   5.942  3.3541 -0.6670 -0.2538
33888SOL     OW 3980   8.241   7.717   2.473 -0.2986  0.2268  0.6683
33888SOL    HW1 3981   8.255   7.809   2.452  2.2721 -0.4671 -1.2576
33888SOL    HW2 3982   8.146   7.706   2.476 -0.6829  3.0314  1.7280
33889SOL     OW 3983   0.476  10.327   7.594  0.2287  0.2231 -0.4940
33889SOL    HW1 3984   0.452  10.375   7.673 -0.5596 -0.4661 -0.3054
33889SOL    HW2 3985   0.541  10.383   7.550 -1.8343  2.2565 -1.1205
33890SOL     OW 3986  10.326   8.017   1.893  0.1260 -0.2725 -0.1785
33890SOL    HW1 3987  10.363   8.105   1.888  0.6006 -0.3360  1.5987
33890SOL    HW2 3988  10.234   8.031   1.917 -0.5951 -0.2045 -2.6316
33891SOL     OW 3989   9.809   1.361   6.747  0.0023  0.4305 -0.1755
33891SOL    HW1 3990   9.787   1.301   6.676  2.4545 -1.8722  0.8689
33891SOL    HW2 3991   9.855   1.433   6.704  1.0219 -0.6871 -1.0044
33892SOL     OW 3992   8.536   7.901   2.585 -0.3756 -0.6303  0.1016
33892SOL    HW1 3993   8.613   7.933   2.632 -0.8967 -1.2429  1.4191
33892SOL    HW2 3994   8.570   7.872   2.500  0.8717 -0.9872  0.6959
33893SOL     OW 3995   9.132   4.401   6.698 -0.6410  0.4123  0.7562
33893SOL    HW1 3996   9.221   4.366   6.707 -1.3902 -1.6529  0.5517
33893SOL    HW2 3997   9.143   4.481   6.646  1.2561  1.0703  2.0544
33894SOL     OW 3998   8.276   3.267   8.685  0.3731 -0.7084  0.1283
33894SOL    HW1 3999   8.333   3.216   8.742  0.7220 -0.3355  0.1225
33894SOL    HW2 4000   8.255   3.209   8.612 -1.9903 -2.0404  1.7332
33895SOL     OW 4001   7.312   6.997   2.392 -0.1632 -0.2951  0.0098
33895SOL    HW1 4002   7.239   7.054   2.416 -1.1223 -0.4668 -2.2627
33895SOL    HW2 4003   7.385   7.056   2.378 -0.3388  0.0579  0.5364
33896SOL     OW 4004   9.252   6.415   8.930 -0.5051 -0.3242 -0.3250
33896SOL    HW1 4005   9.240   6.322   8.912 -1.8825 -0.1406 -0.4828
33896SOL    HW2 4006   9.210   6.428   9.015 -0.1803  0.1263 -0.2293
33897SOL     OW 4007   9.997   6.100   8.325  0.1514  0.0191  0.2589
33897SOL    HW1 4008   9.959   6.185   8.350  1.5546  0.5409  0.7236
33897SOL    HW2 4009   9.966   6.086   8.235  1.1681  1.8286 -0.4287
33898SOL     OW 4010   8.033   8.100   4.899 -0.2317 -0.4348 -0.4205
33898SOL    HW1 4011   8.110   8.044   4.894 -0.1815 -1.0115  3.5325
33898SOL    HW2 4012   8.065   8.182   4.936 -1.3722 -0.3711  0.4899
33899SOL     OW 4013   1.396   8.802   4.892  0.0137  0.9528 -0.0986
33899SOL    HW1 4014   1.451   8.869   4.933 -1.4687  2.4466 -0.4222
33899SOL    HW2 4015   1.343   8.767   4.965 -0.7930  1.7661 -0.2747
33900SOL     OW 4016   1.430  10.028   3.267 -1.0439 -0.0836 -0.5485
33900SOL    HW1 4017   1.421  10.050   3.359 -2.6547 -0.9461 -0.4642
33900SOL    HW2 4018   1.485   9.950   3.266 -0.3699  0.3796 -0.3989
33901SOL     OW 4019   1.054   0.829   3.048 -0.0445  0.9136 -0.3631
33901SOL    HW1 4020   1.085   0.891   2.982  0.8125  1.4062  0.4843
33901SOL    HW2 4021   1.067   0.874   3.131 -2.1015  0.7260  0.1136
33902SOL     OW 4022   6.824   1.145   3.124 -0.7685  0.3261  0.5124
33902SOL    HW1 4023   6.732   1.163   3.106 -0.9161  1.9376  2.5412
33902SOL    HW2 4024   6.824   1.101   3.209  0.1966 -2.5440 -0.8410
33903SOL     OW 4025   4.606   7.438   4.626 -0.0968  0.0534 -0.1668
33903SOL    HW1 4026   4.557   7.370   4.579  1.4576 -0.9848 -0.3491
33903SOL    HW2 4027   4.573   7.433   4.715 -1.1207  0.1610 -0.5160
33904SOL     OW 4028   7.811   2.004   2.337  0.0930 -0.8644 -0.6029
33904SOL    HW1 4029   7.799   2.094   2.308  4.9292  0.5141  0.7130
33904SOL    HW2 4030   7.815   2.009   2.432  2.6256 -1.9380 -0.5632
33905SOL     OW 4031   6.669   9.944   1.054 -0.0697  0.2089  0.1367
33905SOL    HW1 4032   6.727  10.011   1.091  0.5969  0.5132 -1.3699
33905SOL    HW2 4033   6.628   9.986   0.979 -1.8071 -0.2103  0.8029
33906SOL     OW 4034   5.297   1.321   3.239  0.5259  0.4705 -0.2473
33906SOL    HW1 4035   5.277   1.405   3.281 -0.9255 -0.2104  0.5361
33906SOL    HW2 4036   5.391   1.311   3.247  0.3511  0.3855  2.9787
33907SOL     OW 4037   8.573   4.686   4.315 -0.1455 -0.3772 -0.6949
33907SOL    HW1 4038   8.599   4.602   4.353 -1.3226 -1.6559 -2.5137
33907SOL    HW2 4039   8.651   4.716   4.268  0.6565  0.1990  0.9151
33908SOL     OW 4040   8.877  10.389   1.756  0.1073  0.2613  0.3821
33908SOL    HW1 4041   8.901  10.336   1.679  0.7632  0.3357  0.5290
33908SOL    HW2 4042   8.781  10.394   1.753  0.1750  3.2191 -2.4704
33909SOL     OW 4043   0.688   1.986   5.270  0.3380 -0.1435 -0.8051
33909SOL    HW1 4044   0.745   1.926   5.317 -0.6700 -0.8596 -0.4630
33909SOL    HW2 4045   0.690   1.955   5.180 -0.7713 -1.2036 -0.4978
33910SOL     OW 4046   5.605   2.091   1.765 -0.1319 -0.0719  0.0094
33910SOL    HW1 4047   5.692   2.085   1.726 -0.3317  2.3360 -0.9496
33910SOL    HW2 4048   5.621   2.104   1.858  0.4448 -1.5297  0.1433
33911SOL     OW 4049   5.844   9.230   6.521  0.2735 -0.3466 -0.0627
33911SOL    HW1 4050   5.754   9.258   6.507  0.2584 -0.1214  0.4586
33911SOL    HW2 4051   5.864   9.175   6.445 -0.1291  0.0125 -0.4376
33912SOL     OW 4052   3.004   8.188  10.536 -0.5604  0.1649  0.4395
33912SOL    HW1 4053   3.082   8.240  10.515 -0.7995 -0.2318 -1.6622
33912SOL    HW2 4054   3.034   8.097  10.529 -1.1129  0.0134 -0.0617
33913SOL     OW 4055   8.267   5.625   1.994 -0.0775 -0.2470  0.1287
33913SOL    HW1 4056   8.289   5.705   2.042  1.3139 -0.3706 -0.2785
33913SOL    HW2 4057   8.259   5.652   1.903  0.9889 -0.6686 -0.0965
33914SOL     OW 4058   3.103   6.029   5.834  0.1316 -0.0303  0.8800
33914SOL    HW1 4059   3.136   6.085   5.904  2.5010  0.2602 -0.3705
33914SOL    HW2 4060   3.090   6.088   5.760 -1.6581 -0.4488  0.8196
33915SOL     OW 4061   4.186   5.977  10.062  0.0911  0.2914 -0.0905
33915SOL    HW1 4062   4.147   5.961   9.976  2.2388 -0.2082 -1.0386
33915SOL    HW2 4063   4.254   6.043  10.046  0.5945  0.1208  1.2119
33916SOL     OW 4064  10.475   4.906   4.214  0.3143  0.1166 -0.5846
33916SOL    HW1 4065  10.513   4.920   4.300 -2.5168 -0.8001  0.9247
33916SOL    HW2 4066  10.459   4.994   4.180  0.5710  0.4906  0.2511
33917SOL     OW 4067   3.622   9.632   2.119  0.1361 -0.3537 -0.6250
33917SOL    HW1 4068   3.713   9.657   2.135  0.1420 -0.2647 -0.8008
33917SOL    HW2 4069   3.572   9.681   2.184  0.1803 -0.1357 -0.7532
33918SOL     OW 4070   7.844   0.581   2.323 -0.3151  0.0880 -0.3728
33918SOL    HW1 4071   7.877   0.596   2.412 -1.0881  1.6113 -0.3097
33918SOL    HW2 4072   7.750   0.566   2.334 -0.0277 -2.2978 -0.7304
33919SOL     OW 4073   8.972   0.016   1.149  0.5633 -0.8979  0.8152
33919SOL    HW1 4074   8.971   0.038   1.056 -0.3772 -1.3004  0.7134
33919SOL    HW2 4075   9.065   0.006   1.170  0.7838 -1.0222 -0.1385
33920SOL     OW 4076   9.364   8.286   4.867 -0.1823  0.2174 -0.6596
33920SOL    HW1 4077   9.350   8.193   4.882 -0.7859  0.6663  2.0755
33920SOL    HW2 4078   9.388   8.292   4.775  0.8949 -2.7306 -0.6735
33921SOL     OW 4079   7.024   2.630   3.969  0.3631  0.5411  0.4382
33921SOL    HW1 4080   7.066   2.544   3.978  0.2679  0.5539  1.0418
33921SOL    HW2 4081   7.093   2.686   3.933  0.2115  0.0430 -0.6705
33922SOL     OW 4082  10.442   6.096   8.692 -0.4078 -0.3118 -0.0021
33922SOL    HW1 4083  10.515   6.135   8.645  0.7241 -1.2680  0.9111
33922SOL    HW2 4084  10.376   6.079   8.625  0.8801 -0.9843 -1.1315
33923SOL     OW 4085   6.938   0.890   9.101  0.0721 -0.1452  0.0223
33923SOL    HW1 4086   7.014   0.931   9.144 -0.7904  1.4659  0.0949
33923SOL    HW2 4087   6.869   0.891   9.167 -1.0507  1.6739 -1.0839
33924SOL     OW 4088   4.177   5.861   3.451 -0.5561 -0.6674  0.5790
33924SOL    HW1 4089   4.121   5.892   3.379  1.9237 -0.3994 -1.3584
33924SOL    HW2 4090   4.161   5.767   3.455 -1.8977 -0.4568  0.8112
33925SOL     OW 4091   1.494   8.212   6.109 -0.1685  0.3283  0.5204
33925SOL    HW1 4092   1.576   8.248   6.141 -0.0349  1.0655 -0.5858
33925SOL    HW2 4093   1.517   8.128   6.071  0.3746  1.1868 -1.1461
33926SOL     OW 4094   8.944   2.843   6.787 -0.7236  0.6665  0.2925
33926SOL    HW1 4095   9.011   2.885   6.841  1.0020 -0.6436 -0.7087
33926SOL    HW2 4096   8.929   2.759   6.830  2.2768 -1.3926 -2.1455
33927SOL     OW 4097   2.343   5.420   2.281  0.1487  0.3045 -0.4046
33927SOL    HW1 4098   2.265   5.462   2.319 -1.5545  0.8392 -4.0400
33927SOL    HW2 4099   2.393   5.493   2.244  0.9554 -0.2946 -0.5184
33928SOL     OW 4100   3.581   2.986   6.797  0.0569  0.0988 -0.4007
33928SOL    HW1 4101   3.666   2.943   6.799  0.1676  0.2787 -0.9958
33928SOL    HW2 4102   3.556   2.996   6.889  0.0497 -1.1934 -0.2435
33929SOL     OW 4103   3.699   6.976   3.123  0.2869  0.0412 -0.7199
33929SOL    HW1 4104   3.775   7.032   3.108  0.6924 -0.7404 -1.7529
33929SOL    HW2 4105   3.737   6.894   3.156 -0.0921 -0.3320 -1.1925
33930SOL     OW 4106   1.085   9.664   7.340 -0.1437 -0.1024  0.0756
33930SOL    HW1 4107   1.042   9.675   7.256  0.0939 -1.4382 -0.2391
33930SOL    HW2 4108   1.066   9.574   7.366 -0.9894  0.5388  1.9058
33931SOL     OW 4109   7.169   4.472   8.680  0.3262 -0.1346  0.3776
33931SOL    HW1 4110   7.116   4.532   8.733 -0.7657 -1.7980  1.2459
33931SOL    HW2 4111   7.209   4.413   8.743  0.0287 -1.3773 -0.5695
33932SOL     OW 4112   5.211   5.856   0.085 -0.2008 -0.3826  0.3115
33932SOL    HW1 4113   5.191   5.764   0.102  0.5614 -0.4281  0.9945
33932SOL    HW2 4114   5.180   5.870  -0.004  2.4428 -2.1353 -1.0070
33933SOL     OW 4115   9.049   6.481   9.974 -0.1313 -0.4578  0.2742
33933SOL    HW1 4116   9.136   6.444   9.985 -0.4201 -0.8934  1.2611
33933SOL    HW2 4117   9.051   6.564  10.023 -0.0249 -0.0439 -0.4167
33934SOL     OW 4118   5.615   0.174   5.184  0.1849  0.3531  0.1025
33934SOL    HW1 4119   5.614   0.147   5.276 -1.5508  0.2738  0.0786
33934SOL    HW2 4120   5.573   0.260   5.184 -2.1425 -0.6975 -0.8849
33935SOL     OW 4121   4.109   4.258   3.039  0.1296  0.2127 -0.6410
33935SOL    HW1 4122   4.095   4.302   2.956 -0.6555 -1.6598 -1.5534
33935SOL    HW2 4123   4.130   4.167   3.016 -1.1727 -0.6278  1.2051
33936SOL     OW 4124   4.166   1.065   8.959 -0.6028 -0.3332  0.1198
33936SOL    HW1 4125   4.086   1.048   8.909  0.1029 -2.1632 -0.4619
33936SOL    HW2 4126   4.230   1.092   8.894 -0.1882 -0.8921  0.2910
33937SOL     OW 4127   7.069   2.340   4.537 -0.3344 -0.6635  0.4281
33937SOL    HW1 4128   7.043   2.308   4.623  1.0895 -0.3055  1.0197
33937SOL    HW2 4129   7.159   2.308   4.525 -0.9917 -1.9590 -1.5662
33938SOL     OW 4130   6.023  10.192   5.804 -0.3328 -0.4503  0.0713
33938SOL    HW1 4131   6.018  10.203   5.709 -0.2746 -1.6180 -0.0881
33938SOL    HW2 4132   5.985  10.105   5.820 -0.6737 -0.1230  1.1590
33939SOL     OW 4133   3.419   7.284   6.632  0.7287 -0.0185  0.0654
33939SOL    HW1 4134   3.466   7.367   6.636  0.4991  0.0788  1.1302
33939SOL    HW2 4135   3.487   7.218   6.636  1.3862 -0.0830 -5.1608
33940SOL     OW 4136   7.401   6.924   6.141  0.0842 -0.9669 -0.1677
33940SOL    HW1 4137   7.362   6.854   6.088  0.7616 -0.6754 -1.0808
33940SOL    HW2 4138   7.415   6.996   6.079 -0.9955  0.1557  0.8394
33941SOL     OW 4139   6.057   2.734   6.262  0.3941  0.7013  0.0395
33941SOL    HW1 4140   6.146   2.768   6.265  0.8530 -0.4737  0.1923
33941SOL    HW2 4141   6.066   2.644   6.231 -0.5892  0.1010  1.3801
33942SOL     OW 4142   0.996   4.880   8.284  0.0567  0.7368  0.4431
33942SOL    HW1 4143   0.921   4.822   8.274  0.5788 -0.0996  1.1909
33942SOL    HW2 4144   0.997   4.902   8.377 -0.2779  2.1720  0.1271
33943SOL     OW 4145  10.401   7.411   2.796  0.5628 -0.8602 -0.2109
33943SOL    HW1 4146  10.486   7.455   2.803  0.3780 -0.5657  0.2321
33943SOL    HW2 4147  10.399   7.377   2.706  0.5390  0.3974 -0.7106
33944SOL     OW 4148   8.383   6.302   0.496  0.3610 -0.8815 -0.1263
33944SOL    HW1 4149   8.316   6.370   0.488  2.3307  1.0412 -1.4841
33944SOL    HW2 4150   8.455   6.345   0.543  1.8746 -1.8173 -1.4702
33945SOL     OW 4151   4.921   8.211   5.152  0.8260 -0.4646  0.1154
33945SOL    HW1 4152   4.927   8.269   5.228  0.4105  1.8154 -1.4879
33945SOL    HW2 4153   4.945   8.125   5.186 -0.3792  0.2191  3.0479
33946SOL     OW 4154   3.131   6.517   9.218 -0.3385  0.1994 -0.0983
33946SOL    HW1 4155   3.063   6.484   9.277  0.5944  0.5056  1.1628
33946SOL    HW2 4156   3.148   6.606   9.247 -1.0061  0.9661 -1.8807
33947SOL     OW 4157  10.310   7.105  10.125 -0.2155 -0.0328 -0.0737
33947SOL    HW1 4158  10.288   7.013  10.140 -0.6560  0.2401  0.9891
33947SOL    HW2 4159  10.231   7.143  10.087 -0.1050 -0.0281 -0.3059
33948SOL     OW 4160   0.268   8.820   3.019  0.0358  0.4845 -0.3595
33948SOL    HW1 4161   0.324   8.794   2.946 -0.2314  0.3155 -0.5050
33948SOL    HW2 4162   0.201   8.876   2.980  0.3139  0.9913 -0.1283
33949SOL     OW 4163   9.695   3.921   1.790 -0.1553  0.0239 -0.1818
33949SOL    HW1 4164   9.767   3.983   1.796  0.0177 -0.2660  0.9739
33949SOL    HW2 4165   9.648   3.930   1.873 -0.0012 -1.5188  0.1078
33950SOL     OW 4166   0.530   5.871   5.843  0.2473  0.4653  0.0730
33950SOL    HW1 4167   0.472   5.875   5.920  0.0023  0.2834 -0.0995
33950SOL    HW2 4168   0.562   5.781   5.843  1.2140  0.7972  0.6615
33951SOL     OW 4169   2.461   5.593   1.312  0.2016  0.7726  0.3300
33951SOL    HW1 4170   2.390   5.552   1.263  0.9628 -0.8893  0.5457
33951SOL    HW2 4171   2.531   5.605   1.247  0.1195  1.3898  0.3526
33952SOL     OW 4172   5.278   5.748   0.833  0.0100 -0.0291  0.5203
33952SOL    HW1 4173   5.265   5.715   0.922  0.1960  0.5731  0.7803
33952SOL    HW2 4174   5.219   5.824   0.828 -0.3996 -0.3825 -0.0533
33953SOL     OW 4175   9.953   8.489   2.413  0.2350  0.7800  0.3219
33953SOL    HW1 4176  10.002   8.472   2.332 -0.9925 -2.8322  0.1854
33953SOL    HW2 4177   9.926   8.580   2.405  1.1108  0.8862 -2.8082
33954SOL     OW 4178   6.173   5.340   0.964 -0.0459  0.3114  0.6396
33954SOL    HW1 4179   6.115   5.395   1.017  0.3355  0.6722  0.6913
33954SOL    HW2 4180   6.114   5.291   0.907 -0.3800  1.1032  0.2797
33955SOL     OW 4181   1.162   8.227   4.016 -0.6218  0.4496 -0.5394
33955SOL    HW1 4182   1.235   8.288   4.006 -0.1561  0.1652  0.8405
33955SOL    HW2 4183   1.113   8.234   3.934  0.2288  1.6006 -0.9786
33956SOL     OW 4184   0.277   5.801   7.335  0.4070 -0.6745  0.3218
33956SOL    HW1 4185   0.358   5.771   7.294  0.6732  0.3071  0.0962
33956SOL    HW2 4186   0.208   5.754   7.288  0.8392 -1.6412  0.6243
33957SOL     OW 4187   4.016   8.239   3.344 -0.0124 -0.4152  0.4298
33957SOL    HW1 4188   3.940   8.197   3.384 -3.4010  3.4058 -1.3300
33957SOL    HW2 4189   4.074   8.259   3.417 -0.3944 -3.6876  1.8121
33958SOL     OW 4190   9.643   0.225   6.215  0.0467 -0.3622 -0.0427
33958SOL    HW1 4191   9.627   0.166   6.289 -0.0660  1.2679  1.2843
33958SOL    HW2 4192   9.683   0.302   6.254  3.1929 -0.7687 -2.1211
33959SOL     OW 4193   3.133   0.058   9.452  0.2481 -0.3304  0.0930
33959SOL    HW1 4194   3.058   0.027   9.503  0.3738 -0.9096 -0.0673
33959SOL    HW2 4195   3.103   0.054   9.361  0.9534 -1.9906 -0.0982
33960SOL     OW 4196   3.896   5.292   6.001 -0.1816  0.7882  0.1447
33960SOL    HW1 4197   3.957   5.221   6.015 -0.1422  0.7199 -0.3537
33960SOL    HW2 4198   3.937   5.368   6.043  0.2380  0.7396 -0.1698
33961SOL     OW 4199   8.742   0.981   5.125 -0.0425 -0.4142 -0.1668
33961SOL    HW1 4200   8.664   0.936   5.156 -0.3157 -0.0654 -0.3318
33961SOL    HW2 4201   8.805   0.912   5.108  0.8810 -0.5263  3.1342
33962SOL     OW 4202   4.689   0.127   4.409 -0.2812 -0.1908 -0.2399
33962SOL    HW1 4203   4.752   0.062   4.439 -0.4980 -0.8946 -1.2688
33962SOL    HW2 4204   4.663   0.097   4.322  0.7100  2.0422 -1.3896
33963SOL     OW 4205   0.906   5.526   2.655 -0.2888 -0.4420  0.2560
33963SOL    HW1 4206   0.906   5.587   2.581 -1.0019 -1.0247 -0.2367
33963SOL    HW2 4207   0.998   5.499   2.662 -0.2262 -0.4700 -0.4994
33964SOL     OW 4208   0.685   4.779   3.408 -0.3548 -0.0382 -0.0118
33964SOL    HW1 4209   0.662   4.870   3.429  0.6646  0.1752  0.2712
33964SOL    HW2 4210   0.638   4.760   3.327  1.5160  1.7067 -1.6349
33965SOL     OW 4211   4.846   1.311   9.923 -0.1802 -0.8174  0.6404
33965SOL    HW1 4212   4.766   1.316   9.975 -1.2332 -0.5863 -0.9348
33965SOL    HW2 4213   4.819   1.336   9.834  1.4132 -1.8086 -0.1775
33966SOL     OW 4214  10.048  10.404   5.737  0.2248 -0.7453  0.2363
33966SOL    HW1 4215   9.959  10.414   5.772  0.5113  0.2361  0.7083
33966SOL    HW2 4216  10.056  10.310   5.720 -0.5162 -1.0214  1.2695
33967SOL     OW 4217   8.166   0.857   6.161  0.0491 -0.2378  0.3919
33967SOL    HW1 4218   8.191   0.815   6.243  0.6519  0.6987  0.7021
33967SOL    HW2 4219   8.082   0.817   6.138 -1.8728  1.8027  3.2099
33968SOL     OW 4220   6.373   6.778   0.821 -0.0014  0.4688 -0.0838
33968SOL    HW1 4221   6.282   6.790   0.845 -0.0217 -0.5144  0.3524
33968SOL    HW2 4222   6.379   6.814   0.732 -0.3540  2.3573  0.6072
33969SOL     OW 4223   9.213   9.323   1.910 -0.4006 -0.0240  0.1350
33969SOL    HW1 4224   9.224   9.269   1.988  0.5844 -1.8004 -1.1710
33969SOL    HW2 4225   9.137   9.285   1.866 -2.0731  2.0684  1.0095
33970SOL     OW 4226   8.065   6.100   5.354  0.0487 -0.3244  0.4224
33970SOL    HW1 4227   8.115   6.175   5.323 -0.1326 -0.0753  0.7238
33970SOL    HW2 4228   8.114   6.067   5.430  1.0667 -1.5815 -0.7228
33971SOL     OW 4229   4.267   1.407   0.233 -0.0635  0.1746  0.0339
33971SOL    HW1 4230   4.228   1.439   0.151  1.8341  0.3301 -0.8694
33971SOL    HW2 4231   4.217   1.451   0.302 -0.7999  1.1537 -1.0751
33972SOL     OW 4232   4.889  10.107   8.370 -0.3342 -0.4662  0.2655
33972SOL    HW1 4233   4.833  10.168   8.419 -2.0358 -2.3920  0.8505
33972SOL    HW2 4234   4.847  10.099   8.285  1.5218  1.3468 -0.8897
33973SOL     OW 4235   4.428   7.749   9.874 -0.1188 -0.0030 -0.1063
33973SOL    HW1 4236   4.341   7.788   9.872  0.0169  0.2911 -0.5440
33973SOL    HW2 4237   4.447   7.730   9.782  0.2289 -0.1682  0.0005
33974SOL     OW 4238   8.619   2.072   0.075 -0.2645 -0.2387 -0.3911
33974SOL    HW1 4239   8.632   2.015   0.151 -0.1258  1.0757  0.6134
33974SOL    HW2 4240   8.553   2.135   0.104  0.1348  0.5671 -1.2057
33975SOL     OW 4241   3.924  10.180   3.263  0.3813 -0.2654 -0.1140
33975SOL    HW1 4242   3.837  10.166   3.300  1.0188 -0.8840  1.2122
33975SOL    HW2 4243   3.910  10.179   3.168 -0.9178 -1.2323  0.0644
33976SOL     OW 4244   0.306   7.762   6.610 -0.0517  0.0081  0.4331
33976SOL    HW1 4245   0.239   7.739   6.675  0.0949 -0.4426  0.4208
33976SOL    HW2 4246   0.259   7.764   6.527  0.4949 -3.3095 -0.0769
33977SOL     OW 4247  10.492   1.471   5.569 -0.0227 -0.6273  0.9104
33977SOL    HW1 4248  10.544   1.398   5.604  1.7076  0.2296  0.2228
33977SOL    HW2 4249  10.430   1.492   5.640  0.5513 -1.6852  1.7597
33978SOL     OW 4250   3.893   9.435   1.372  0.0667  1.4462 -0.1590
33978SOL    HW1 4251   3.838   9.358   1.384  0.2340  1.4957  1.0212
33978SOL    HW2 4252   3.833   9.509   1.385 -0.1286  1.5366 -1.4425
33979SOL     OW 4253   5.330   7.033   2.043 -0.0116 -0.1303  0.6156
33979SOL    HW1 4254   5.337   6.963   1.979 -0.1925 -0.8415  1.3490
33979SOL    HW2 4255   5.343   7.113   1.993 -0.4849 -0.6466 -0.3633
33980SOL     OW 4256   1.679   2.705   2.277  0.2391 -0.1759 -0.2342
33980SOL    HW1 4257   1.592   2.725   2.312  0.7046 -2.5748  2.7129
33980SOL    HW2 4258   1.662   2.641   2.208 -0.3994  0.1932 -0.4321
33981SOL     OW 4259   0.212   2.467   2.215 -0.0854 -0.2566  0.0337
33981SOL    HW1 4260   0.190   2.501   2.128  1.0923 -0.6504 -0.4460
33981SOL    HW2 4261   0.188   2.537   2.275  1.0128  0.9041 -0.8112
33982SOL     OW 4262   1.158   3.654   3.241  0.3199  0.3088 -0.1474
33982SOL    HW1 4263   1.196   3.585   3.186 -0.2171  2.3745 -3.3777
33982SOL    HW2 4264   1.231   3.714   3.258 -0.4549  2.4318 -3.3608
33983SOL     OW 4265   2.956   3.415   6.095 -0.4724  0.4017 -0.2298
33983SOL    HW1 4266   2.966   3.407   6.000 -0.2346 -0.8870 -0.1119
33983SOL    HW2 4267   2.865   3.388   6.111 -1.1777  2.5389 -0.2660
33984SOL     OW 4268   6.795   2.065   0.878 -0.1758 -0.1789 -0.2156
33984SOL    HW1 4269   6.773   2.153   0.850  0.4392  0.2723  0.6778
33984SOL    HW2 4270   6.753   2.055   0.964  0.0446 -0.6184 -0.1527
33985SOL     OW 4271   0.649   9.253   5.511 -0.4438  0.3386  0.1585
33985SOL    HW1 4272   0.554   9.242   5.514 -0.4362  0.1531 -0.1888
33985SOL    HW2 4273   0.676   9.208   5.431  0.0097 -0.1098  0.5609
33986SOL     OW 4274   8.895   8.647   4.316 -0.0365 -0.0830 -0.1789
33986SOL    HW1 4275   8.848   8.651   4.400 -1.2136  3.4208 -0.8143
33986SOL    HW2 4276   8.969   8.706   4.328  0.3723 -0.3489 -1.2909
33987SOL     OW 4277   1.247   5.057   4.897 -0.3000 -0.3733  0.2986
33987SOL    HW1 4278   1.174   5.119   4.906  0.7922  0.9890  0.0040
33987SOL    HW2 4279   1.229   4.991   4.964 -1.3003  0.4561  0.9013
33988SOL     OW 4280   5.076   8.670   1.166  0.6696  0.6037 -0.4435
33988SOL    HW1 4281   5.081   8.662   1.262 -0.0336 -0.9451 -0.4896
33988SOL    HW2 4282   5.161   8.704   1.140  0.3715  2.4544  0.8309
33989SOL     OW 4283   4.814   2.616   4.378  0.0650 -0.6707  0.3031
33989SOL    HW1 4284   4.753   2.690   4.374  0.1178 -0.6385  0.0910
33989SOL    HW2 4285   4.866   2.624   4.298  0.4101 -0.6437  0.5310
33990SOL     OW 4286   9.878   5.644   7.879  0.1270  0.1215  0.3512
33990SOL    HW1 4287   9.917   5.690   7.805 -1.1215  0.9618  0.1934
33990SOL    HW2 4288   9.922   5.559   7.881 -1.1838 -0.7488 -2.6272
33991SOL     OW 4289   5.624   5.269   9.716 -0.5908 -0.4576 -0.5460
33991SOL    HW1 4290   5.637   5.342   9.777 -3.3153 -1.4112  1.4039
33991SOL    HW2 4291   5.685   5.202   9.747  0.5382  0.2719 -1.1284
33992SOL     OW 4292   8.125   6.371   7.145 -0.7014 -0.0360 -0.3607
33992SOL    HW1 4293   8.053   6.383   7.207  0.4891  1.1289  0.8763
33992SOL    HW2 4294   8.153   6.280   7.158 -1.1148 -0.1034  0.0958
33993SOL     OW 4295   9.420   4.365   9.686  0.0766  0.0072  0.4563
33993SOL    HW1 4296   9.400   4.436   9.748  2.7801  0.1646  1.2931
33993SOL    HW2 4297   9.414   4.285   9.738 -2.1355 -0.3824 -0.2851
33994SOL     OW 4298   7.861   0.071   7.217  0.5627 -0.0505 -0.1462
33994SOL    HW1 4299   7.873   0.064   7.312  3.0585  1.4673 -0.2385
33994SOL    HW2 4300   7.822   0.158   7.204  0.3562 -0.1967 -0.5035
33995SOL     OW 4301   4.043   7.308   0.616 -0.2115 -0.5298 -0.3006
33995SOL    HW1 4302   4.116   7.353   0.574 -0.9888  1.9650  0.8242
33995SOL    HW2 4303   3.980   7.293   0.546 -0.1873  0.7630 -0.6210
33996SOL     OW 4304   8.644   8.605   5.838  0.4710 -0.1004  0.0481
33996SOL    HW1 4305   8.681   8.691   5.819  1.6518 -0.2407  1.4769
33996SOL    HW2 4306   8.574   8.622   5.901 -1.0818  0.0361 -1.6581
33997SOL     OW 4307   0.077   2.630   8.571  0.1690 -0.1898 -0.0102
33997SOL    HW1 4308   0.071   2.716   8.530 -1.3018 -0.4330 -0.3627
33997SOL    HW2 4309   0.151   2.587   8.527 -0.3143  0.1836 -1.2384
33998SOL     OW 4310   0.520   2.681   9.034  0.2156 -0.4726  0.7353
33998SOL    HW1 4311   0.457   2.609   9.044 -1.4251  1.0520  1.7738
33998SOL    HW2 4312   0.515   2.703   8.941  1.9681 -2.7015  0.0095
33999SOL     OW 4313   7.046   2.897  10.269  0.4975  0.0145 -0.1083
33999SOL    HW1 4314   7.127   2.853  10.295  1.2951  1.6502  0.3008
33999SOL    HW2 4315   7.015   2.940  10.348  0.6596  1.5482 -0.8250
34000SOL     OW 4316   2.461   1.927   4.343  0.5386  1.0152  0.7342
34000SOL    HW1 4317   2.499   2.006   4.381  0.6535  1.3581 -0.0714
34000SOL    HW2 4318   2.476   1.859   4.408  0.5737  1.6219  1.3703
34001SOL     OW 4319  10.321   6.536   6.374  0.2729 -0.0326  0.0752
34001SOL    HW1 4320  10.323   6.628   6.350 -1.2530  0.1865  0.7062
34001SOL    HW2 4321  10.289   6.535   6.464 -0.8686 -1.2288 -0.3128
34002SOL     OW 4322   3.182   7.006   5.947 -0.1322 -0.8572 -0.0838
34002SOL    HW1 4323   3.150   7.087   5.908  0.3876 -0.6699 -0.1253
34002SOL    HW2 4324   3.137   7.000   6.031 -0.2821 -0.6050 -0.1456
34003SOL     OW 4325   0.431   8.845   9.422  0.0043  0.3153  0.0554
34003SOL    HW1 4326   0.431   8.751   9.443 -0.1939  0.1788 -0.5454
34003SOL    HW2 4327   0.479   8.852   9.340  1.2577  0.9202  0.8201
34004SOL     OW 4328   0.515  10.486   4.198  0.2692 -0.3486 -0.2597
34004SOL    HW1 4329   0.483  10.474   4.109 -0.3209 -0.6650 -0.0111
34004SOL    HW2 4330   0.578  10.414   4.210 -1.3268 -1.6972  0.3340
34005SOL     OW 4331   5.400   3.763   9.759 -0.1397  0.2833  0.2667
34005SOL    HW1 4332   5.398   3.822   9.834 -0.6604  1.7965 -0.8826
34005SOL    HW2 4333   5.337   3.694   9.780  0.5353  0.0714  1.6650
34006SOL     OW 4334  10.171   7.220   7.459  0.4576  0.7505 -0.2457
34006SOL    HW1 4335  10.262   7.240   7.436  0.4172  0.9832 -0.2084
34006SOL    HW2 4336  10.161   7.127   7.440  0.7511  0.6866 -0.0861
34007SOL     OW 4337   7.821   7.134   5.773 -0.1954  0.3249 -0.9877
34007SOL    HW1 4338   7.810   7.043   5.801 -0.4749  0.9046  0.9444
34007SOL    HW2 4339   7.765   7.142   5.695 -0.5791 -1.0133 -0.8713
34008SOL     OW 4340   4.739   9.073   4.352  0.2141 -0.1919 -0.7405
34008SOL    HW1 4341   4.708   8.998   4.300 -0.2619 -1.5528  1.3663
34008SOL    HW2 4342   4.684   9.146   4.324 -1.9615 -1.5285 -0.2616
34009SOL     OW 4343   8.439   1.941   9.866 -0.3142  0.0026  0.4082
34009SOL    HW1 4344   8.349   1.915   9.848 -0.7922  1.9370 -0.2662
34009SOL    HW2 4345   8.438   1.971   9.957 -0.4528  0.3739  0.2868
34010SOL     OW 4346   4.499   0.517   7.218 -0.0318  0.3848 -0.2849
34010SOL    HW1 4347   4.491   0.612   7.219  1.7099  0.6755 -2.7812
34010SOL    HW2 4348   4.421   0.487   7.171  0.6873  0.8917 -1.8950
34011SOL     OW 4349   4.854   5.029   3.250  0.0812  0.1888  0.2598
34011SOL    HW1 4350   4.855   5.100   3.313 -0.0317  1.6200 -1.2720
34011SOL    HW2 4351   4.762   5.002   3.245  0.0447  0.2719  0.4886
34012SOL     OW 4352   9.908  10.218   1.949  0.2807 -1.2559  0.1752
34012SOL    HW1 4353   9.950  10.219   2.035  0.2963 -0.4432  0.1712
34012SOL    HW2 4354   9.871  10.306   1.940  1.6931 -0.7604 -1.3316
34013SOL     OW 4355   8.388   7.358   5.313 -0.0429 -0.3456 -0.3440
34013SOL    HW1 4356   8.296   7.382   5.305  0.0121 -0.2390 -0.6817
34013SOL    HW2 4357   8.416   7.393   5.397  0.6415  2.8215 -1.7524
34014SOL     OW 4358   3.619   8.352   0.688  0.2470 -0.1186 -0.2774
34014SOL    HW1 4359   3.564   8.428   0.704  1.3763  1.1942 -2.1064
34014SOL    HW2 4360   3.628   8.310   0.773  1.1511  2.9069  1.2853
34015SOL     OW 4361   1.523   6.759   2.979 -0.7915  0.0547  0.3675
34015SOL    HW1 4362   1.520   6.697   2.906 -0.1333  0.1044  0.2938
34015SOL    HW2 4363   1.536   6.704   3.057  0.5271  0.1287  0.2276
34016SOL     OW 4364   7.409   8.648   2.167  0.0365 -0.0462  0.3229
34016SOL    HW1 4365   7.342   8.673   2.231 -0.3876  0.4274 -0.2867
34016SOL    HW2 4366   7.396   8.709   2.094  1.3076  0.2272  0.3018
34017SOL     OW 4367   8.720  10.454   9.923 -0.7239  0.0451  0.3306
34017SOL    HW1 4368   8.693  10.545   9.931 -0.2269  0.2396 -0.1805
34017SOL    HW2 4369   8.813  10.453   9.947 -1.0333 -0.5437  1.6004
34018SOL     OW 4370   4.550   8.821   0.895  0.7830 -0.1948 -0.3875
34018SOL    HW1 4371   4.518   8.834   0.806 -1.7037 -1.6822  0.1908
34018SOL    HW2 4372   4.578   8.729   0.897  1.8586  0.1361  0.0750
34019SOL     OW 4373   5.740   9.327  10.530  0.1864  0.9541  0.3339
34019SOL    HW1 4374   5.703   9.242  10.554 -0.9894  1.1282 -0.7065
34019SOL    HW2 4375   5.834   9.313  10.525 -0.1504 -1.1112 -2.6790
34020SOL     OW 4376   0.257   7.244   0.017  0.0449 -0.0794 -0.1827
34020SOL    HW1 4377   0.165   7.269   0.016 -0.1737 -0.8614 -0.5181
34020SOL    HW2 4378   0.256   7.149   0.007  0.8716 -0.1434  0.2379
34021SOL     OW 4379   3.716   0.261   6.681  0.3001 -0.6283  0.0096
34021SOL    HW1 4380   3.789   0.323   6.678  0.4317 -0.7551  0.4993
34021SOL    HW2 4381   3.753   0.183   6.721 -0.2458 -0.4901  0.8124
34022SOL     OW 4382   1.363   2.450   5.667  0.0758 -0.1757  0.6433
34022SOL    HW1 4383   1.431   2.507   5.701  0.2049  1.4053 -2.0312
34022SOL    HW2 4384   1.282   2.501   5.673  0.1257  0.2455 -1.4175
34023SOL     OW 4385   2.890   6.795   7.625  0.6330 -0.3994 -0.4756
34023SOL    HW1 4386   2.946   6.791   7.702  1.0326  0.4655 -0.7122
34023SOL    HW2 4387   2.895   6.886   7.596 -3.0656  0.4600  1.0919
34024SOL     OW 4388   0.181   6.868   6.275 -0.3089  0.1640 -0.0199
34024SOL    HW1 4389   0.203   6.789   6.226 -0.7810  0.1642 -0.2407
34024SOL    HW2 4390   0.254   6.928   6.259  0.1736 -0.3211  0.3584
34025SOL     OW 4391   4.086   1.071   0.110 -0.1043 -0.5069  0.2830
34025SOL    HW1 4392   4.109   1.002   0.173 -0.5121  0.3903  1.4488
34025SOL    HW2 4393   4.010   1.036   0.063  0.1871 -1.1750  0.2946
34026SOL     OW 4394   0.101   0.037   4.757  0.4236 -0.0029  0.4649
34026SOL    HW1 4395   0.194   0.036   4.734  0.2799 -1.1584 -0.1610
34026SOL    HW2 4396   0.080  -0.055   4.771 -0.5980  0.2663  0.7225
34027SOL     OW 4397   1.127   6.217   7.166  0.1534  0.4381  0.1286
34027SOL    HW1 4398   1.095   6.303   7.139  0.7123 -0.4770 -4.1698
34027SOL    HW2 4399   1.053   6.158   7.152  1.0117 -0.3633 -1.3570
34028SOL     OW 4400   6.512   2.950   5.216  0.0373  0.4193  0.2652
34028SOL    HW1 4401   6.436   2.990   5.173 -0.9622 -0.7303  0.8854
34028SOL    HW2 4402   6.534   2.875   5.160 -0.6618 -0.5093  1.1690
34029SOL     OW 4403   5.817   2.896  10.189 -0.4067  0.5380 -0.3718
34029SOL    HW1 4404   5.754   2.880  10.259 -0.2439  2.1396  0.1959
34029SOL    HW2 4405   5.763   2.910  10.111 -0.5351 -3.0988 -1.0754
34030SOL     OW 4406   9.095   7.433   6.079  0.5469  0.2561 -0.0191
34030SOL    HW1 4407   9.055   7.380   6.009  2.4836  0.0054 -1.0100
34030SOL    HW2 4408   9.066   7.522   6.062 -1.1092 -0.1681  0.4475
34031SOL     OW 4409   0.918   3.861   2.572  0.1562  0.0298 -0.2454
34031SOL    HW1 4410   0.974   3.919   2.623  0.6202 -0.6539  0.0431
34031SOL    HW2 4411   0.834   3.860   2.619 -0.1523  1.1429 -0.7412
34032SOL     OW 4412   4.966   4.032   6.261  0.2043  0.7307  0.0026
34032SOL    HW1 4413   4.969   3.950   6.212 -0.2414 -0.2251  1.5196
34032SOL    HW2 4414   5.055   4.066   6.257  0.1496  0.7595 -1.5580
34033SOL     OW 4415   6.637   0.158   5.123 -0.2312  0.3099  0.1677
34033SOL    HW1 4416   6.555   0.111   5.109 -0.7023  0.7134  1.4388
34033SOL    HW2 4417   6.661   0.191   5.036 -2.0200  1.1585 -0.0412
34034SOL     OW 4418   3.862   8.820   8.322  0.4492  0.2391  0.3849
34034SOL    HW1 4419   3.957   8.824   8.322  0.5165 -0.7065 -0.6273
34034SOL    HW2 4420   3.840   8.766   8.397  0.8765 -1.5750 -0.7291
34035SOL     OW 4421   8.980   8.197   5.035 -0.1426  0.1162  0.2401
34035SOL    HW1 4422   9.034   8.206   5.114  1.0395  0.3053 -0.5549
34035SOL    HW2 4423   9.041   8.163   4.969 -1.0102  0.3484 -0.6963
34036SOL     OW 4424   9.605   8.298   3.291  0.0072 -0.1871 -0.1119
34036SOL    HW1 4425   9.554   8.333   3.217 -2.0917 -2.8329 -0.0857
34036SOL    HW2 4426   9.678   8.252   3.249 -0.6233 -0.8524 -0.4956
34037SOL     OW 4427  10.575   5.133   6.727  0.8519 -0.1216  0.0569
34037SOL    HW1 4428  10.558   5.043   6.698  0.6593  0.0928 -0.5185
34037SOL    HW2 4429  10.590   5.125   6.821  1.3418 -0.8234 -0.0725
34038SOL     OW 4430   5.329   8.088   5.065 -0.1416  0.1531  0.0285
34038SOL    HW1 4431   5.265   8.150   5.030 -0.2833  0.3111  0.5721
34038SOL    HW2 4432   5.298   8.067   5.153  0.8082  0.6030  0.4807
34039SOL     OW 4433   7.037   8.864   7.801  0.4709  0.1507 -0.5999
34039SOL    HW1 4434   7.059   8.890   7.712  1.3148 -0.7555 -0.6699
34039SOL    HW2 4435   7.114   8.818   7.833  0.3225  0.7765  0.7399
34040SOL     OW 4436   5.896   5.071   0.062 -0.3805  0.1839 -0.1509
34040SOL    HW1 4437   5.971   5.101   0.010 -0.2514 -0.3518 -0.2791
34040SOL    HW2 4438   5.819   5.105   0.015 -0.2421  0.1610 -0.3970
34041SOL     OW 4439   2.715   9.081   6.501  0.2879 -0.0778 -0.2937
34041SOL    HW1 4440   2.762   9.153   6.458  1.8677  0.9382  2.8326
34041SOL    HW2 4441   2.631   9.120   6.527  0.9133  0.5552  0.8908
34042SOL     OW 4442   0.604   7.692   2.583 -0.4131 -0.0035  0.8288
34042SOL    HW1 4443   0.609   7.724   2.493 -0.0433 -2.8516 -0.2393
34042SOL    HW2 4444   0.560   7.608   2.577  2.2940 -1.7413  2.8866
34043SOL     OW 4445   0.719   4.539  10.385  0.1191 -0.0181  0.0965
34043SOL    HW1 4446   0.660   4.494  10.445  1.7966  0.7050  2.4650
34043SOL    HW2 4447   0.791   4.478  10.372  0.2594  0.2379 -0.3268
34044SOL     OW 4448   9.387  10.028   7.224 -0.1163  0.2287 -0.1488
34044SOL    HW1 4449   9.301   9.998   7.253  0.6140 -0.5971  1.2400
34044SOL    HW2 4450   9.449   9.965   7.261  1.2109  1.6491  0.1758
34045SOL     OW 4451   6.380   1.919   6.353  0.0368 -0.0896 -0.1189
34045SOL    HW1 4452   6.356   1.858   6.283  1.7355 -0.9856  0.0183
34045SOL    HW2 4453   6.431   1.866   6.414 -0.0929  1.0407  1.0010
34046SOL     OW 4454   8.284   2.726   6.603 -0.3964  0.7886  0.4496
34046SOL    HW1 4455   8.277   2.712   6.697  2.1045  1.5899  0.8288
34046SOL    HW2 4456   8.283   2.637   6.566 -3.2791  0.5112  0.9604
34047SOL     OW 4457   0.664   2.226   8.798 -0.3654 -0.1167 -0.0500
34047SOL    HW1 4458   0.740   2.224   8.856 -0.2829  3.5401  0.1828
34047SOL    HW2 4459   0.660   2.138   8.760  2.6817 -1.0527  1.5243
34048SOL     OW 4460   2.237   6.040   7.401  0.2843 -0.0278  0.1274
34048SOL    HW1 4461   2.160   6.096   7.407  0.6537  0.4077  0.9522
34048SOL    HW2 4462   2.276   6.043   7.488  0.2020 -1.7234  0.2569
34049SOL     OW 4463   6.455   6.863   5.446 -0.2384  0.2243  0.5988
34049SOL    HW1 4464   6.530   6.876   5.389  0.3064 -0.7146  1.0635
34049SOL    HW2 4465   6.491   6.819   5.523 -0.9877  1.2473  1.5664
34050SOL     OW 4466   0.371   0.684   2.672 -0.0060  0.6065 -0.3949
34050SOL    HW1 4467   0.359   0.700   2.766 -0.5662 -1.3260 -0.0889
34050SOL    HW2 4468   0.466   0.684   2.660  0.1653 -1.3494  0.6506
34051SOL     OW 4469   0.013   7.955   2.765  0.1981 -0.0073  0.6079
34051SOL    HW1 4470   0.048   7.955   2.854  0.2560  0.9376  0.5864
34051SOL    HW2 4471  -0.071   7.911   2.773  0.1093  0.2556  1.1676
34052SOL     OW 4472   2.596   8.694   3.977  0.2083 -0.1980  0.0050
34052SOL    HW1 4473   2.639   8.777   3.955 -1.1116  0.1471 -1.4166
34052SOL    HW2 4474   2.664   8.628   3.964  0.6715  0.4530 -0.9889
34053SOL     OW 4475   7.125   3.523   8.232 -0.4347 -0.2958  0.5480
34053SOL    HW1 4476   7.155   3.595   8.287  0.2311 -0.5948  0.5859
34053SOL    HW2 4477   7.194   3.457   8.240  0.4918  0.2847 -1.9506
34054SOL     OW 4478  10.014   6.179   0.995 -0.5721  0.4608  0.2898
34054SOL    HW1 4479  10.026   6.106   1.056  0.1339  0.8096  0.5781
34054SOL    HW2 4480  10.070   6.249   1.029  0.4979  0.3957 -1.1948
34055SOL     OW 4481   9.641   0.404   7.133 -0.4074 -0.3062  0.0395
34055SOL    HW1 4482   9.645   0.360   7.218 -1.5369 -1.5224 -0.5008
34055SOL    HW2 4483   9.554   0.444   7.131 -0.2722 -0.0285 -0.4260
34056SOL     OW 4484  10.561   0.472   8.236  0.3530 -0.7371 -0.0748
34056SOL    HW1 4485  10.474   0.432   8.234 -0.2973  0.6034  0.2692
34056SOL    HW2 4486  10.580   0.493   8.144 -0.2530  0.1112 -0.0167
34057SOL     OW 4487   3.673   4.328   0.892 -0.1521  0.1477  0.2318
34057SOL    HW1 4488   3.649   4.240   0.862  1.5164  0.1284 -1.2556
34057SOL    HW2 4489   3.597   4.382   0.872 -0.9607 -0.8415  0.5745
34058SOL     OW 4490   9.107   2.481   9.113  0.3747  0.3350 -0.0555
34058SOL    HW1 4491   9.067   2.449   9.194  1.0300  0.9124  0.5116
34058SOL    HW2 4492   9.191   2.518   9.141  0.7817  0.2017 -1.0542
34059SOL     OW 4493   2.482   1.363   0.660  0.5982  0.2993 -0.6246
34059SOL    HW1 4494   2.422   1.368   0.585  1.9496 -1.5281 -1.8921
34059SOL    HW2 4495   2.489   1.454   0.690 -0.3661  1.0236 -2.4018
34060SOL     OW 4496   9.716   9.021   7.393 -0.1141  0.1285 -0.2790
34060SOL    HW1 4497   9.762   8.963   7.453 -0.9532 -0.8808 -0.5823
34060SOL    HW2 4498   9.703   9.102   7.442 -2.8660 -1.4240  1.8443
34061SOL     OW 4499   5.494  10.032   4.446  0.0710 -0.2262 -0.3000
34061SOL    HW1 4500   5.588  10.030   4.464  0.1589  0.2613 -0.6727
34061SOL    HW2 4501   5.486  10.079   4.363 -0.6446  1.5023  0.6924
34062SOL     OW 4502   8.927   9.741   6.516 -0.1578  0.1339 -0.0030
34062SOL    HW1 4503   8.947   9.685   6.590  1.6309  1.1563  0.3480
34062SOL    HW2 4504   8.840   9.776   6.534 -0.2997 -0.6625  0.9175
34063SOL     OW 4505   5.086   5.857   8.832 -0.0099 -0.2552  0.1414
34063SOL    HW1 4506   5.011   5.802   8.856 -0.6683  0.4023 -0.3689
34063SOL    HW2 4507   5.143   5.854   8.909  0.4621 -2.4404 -0.2400
34064SOL     OW 4508   4.742   4.402   3.836  0.4217 -0.0451  0.2935
34064SOL    HW1 4509   4.782   4.373   3.754 -0.8816 -0.2185 -0.3178
34064SOL    HW2 4510   4.739   4.497   3.830  0.7985 -0.0265  0.3791
34065SOL     OW 4511   5.333   2.038   1.141 -0.0231 -0.0573  1.0202
34065SOL    HW1 4512   5.282   1.958   1.136 -0.5150  0.3016  0.0517
34065SOL    HW2 4513   5.275   2.101   1.185 -1.1622  0.8517 -1.5666
34066SOL     OW 4514   1.994   3.383   7.464 -0.5625  0.0514 -0.1821
34066SOL    HW1 4515   1.939   3.451   7.425 -1.0279 -0.9406 -1.3496
34066SOL    HW2 4516   1.932   3.323   7.505 -0.3178 -0.6717 -0.8383
34067SOL     OW 4517   3.494   0.844   3.340 -0.3857 -0.4140 -0.3412
34067SOL    HW1 4518   3.401   0.862   3.328 -0.3773  0.8758  1.2148
34067SOL    HW2 4519   3.503   0.751   3.319 -1.7818 -0.2827 -1.7050
34068SOL     OW 4520   2.418   0.657   5.943  0.3619  0.2562 -0.2203
34068SOL    HW1 4521   2.438   0.575   5.899  2.1151  0.0780  0.8050
34068SOL    HW2 4522   2.443   0.642   6.034  1.2017  2.0535 -0.1073
34069SOL     OW 4523   9.998   7.210   6.613  0.6489  0.4690  0.4968
34069SOL    HW1 4524  10.028   7.280   6.556 -0.8696  0.3934 -0.4348
34069SOL    HW2 4525   9.965   7.254   6.691 -0.9236  0.8741 -0.3672
34070SOL     OW 4526   8.680   2.643   2.024 -0.1977  0.3347  0.3514
34070SOL    HW1 4527   8.734   2.600   2.091 -0.9205 -0.1068  0.6621
34070SOL    HW2 4528   8.685   2.736   2.047  1.9261  0.5602 -0.7284
34071SOL     OW 4529   6.232   6.144   9.738 -0.2331  0.4505 -0.1176
34071SOL    HW1 4530   6.202   6.078   9.800  2.8666  0.1601  1.2742
34071SOL    HW2 4531   6.307   6.104   9.694 -0.8439  1.5678 -2.3424
34072SOL     OW 4532   1.897   0.103   0.892  0.2612 -0.9517 -0.7066
34072SOL    HW1 4533   1.965   0.170   0.889  0.5957 -1.3226 -1.6052
34072SOL    HW2 4534   1.914   0.055   0.973  0.0176  0.0300 -0.0471
34073SOL     OW 4535   1.064   5.624   8.643  0.1224  0.3029  0.3725
34073SOL    HW1 4536   1.096   5.664   8.723  0.2353  1.1917 -0.1037
34073SOL    HW2 4537   1.082   5.689   8.574 -0.3632 -0.2542 -0.3032
34074SOL     OW 4538  10.569   8.887   4.526  0.2328  0.1479  0.1615
34074SOL    HW1 4539  10.494   8.847   4.484  0.2476  1.5352 -1.2940
34074SOL    HW2 4540  10.544   8.979   4.537  1.8829  0.7812 -0.9248
34075SOL     OW 4541   6.942   1.278   8.050 -0.4191 -0.4248 -0.4093
34075SOL    HW1 4542   6.987   1.242   7.974 -1.1628  1.2440 -1.7086
34075SOL    HW2 4543   6.855   1.302   8.017  0.0197  2.4887  0.3276
34076SOL     OW 4544   1.775   7.947   2.639  0.4000 -0.1862 -0.4021
34076SOL    HW1 4545   1.790   8.041   2.627 -2.0656  0.2916 -0.4195
34076SOL    HW2 4546   1.761   7.937   2.734  0.3164 -0.4728 -0.4435
34077SOL     OW 4547   0.733   2.885   6.480  0.2335  0.3504  0.1806
34077SOL    HW1 4548   0.785   2.899   6.560 -0.8553  1.8694  0.6729
34077SOL    HW2 4549   0.752   2.961   6.425  0.7298 -0.5293 -0.9035
34078SOL     OW 4550   0.360   2.776   5.378  0.3571  0.6703 -0.3175
34078SOL    HW1 4551   0.370   2.691   5.420  1.6344  1.3407  0.7881
34078SOL    HW2 4552   0.325   2.833   5.446 -1.1937  0.8980 -1.2479
34079SOL     OW 4553  10.401   6.847   7.584 -0.4879 -0.0600  0.7597
34079SOL    HW1 4554  10.446   6.881   7.661 -2.6537  0.5750  1.8009
34079SOL    HW2 4555  10.440   6.895   7.511  1.2745 -0.3384  1.4624
34080SOL     OW 4556  10.031   8.843   4.732 -0.0044  0.5758 -0.6444
34080SOL    HW1 4557   9.943   8.833   4.767 -0.0928  1.4057 -0.5956
34080SOL    HW2 4558  10.083   8.778   4.779  0.2269  2.7287  2.3617
34081SOL     OW 4559   9.295  10.484   3.116  0.1388  1.1150  0.4664
34081SOL    HW1 4560   9.241  10.406   3.104 -0.2989  1.1058  2.1902
34081SOL    HW2 4561   9.281  10.535   3.037 -0.9023  0.2129  0.0434
34082SOL     OW 4562   5.731   6.348   8.364  0.5922 -0.6450 -0.3353
34082SOL    HW1 4563   5.684   6.395   8.295 -0.5152  0.5659  1.1678
34082SOL    HW2 4564   5.714   6.255   8.346  0.5993 -0.3862 -1.8384
34083SOL     OW 4565   9.394   8.056  10.167  0.0738 -0.1603  0.0370
34083SOL    HW1 4566   9.488   8.040  10.179  0.9076  2.5564 -1.9691
34083SOL    HW2 4567   9.376   8.136  10.216 -1.2644 -0.7418  0.5384
34084SOL     OW 4568   7.578   9.365   3.158 -0.3815 -0.4510 -0.2157
34084SOL    HW1 4569   7.550   9.298   3.096  0.5323  0.2705 -1.4410
34084SOL    HW2 4570   7.650   9.410   3.115 -0.7134  1.0838  0.7380
34085SOL     OW 4571   9.659   4.655   1.245  0.1911  0.2078 -0.6029
34085SOL    HW1 4572   9.700   4.579   1.206 -0.8920 -0.4236 -0.5469
34085SOL    HW2 4573   9.603   4.691   1.176  1.1289  1.3151 -0.8245
34086SOL     OW 4574   3.673   4.339   7.078  0.2196  0.3609  0.6825
34086SOL    HW1 4575   3.655   4.312   7.168  0.7293  1.1876  1.0389
34086SOL    HW2 4576   3.746   4.400   7.085 -0.6741  1.5618 -0.1289
34087SOL     OW 4577   2.379   2.169   9.570  0.8353 -0.0651  0.1651
34087SOL    HW1 4578   2.286   2.173   9.594  0.6883 -0.7453 -0.2446
34087SOL    HW2 4579   2.401   2.259   9.546 -0.1592 -0.1556 -1.2573
34088SOL     OW 4580   5.888   1.718   8.497 -0.2273  0.1039  0.0084
34088SOL    HW1 4581   5.983   1.727   8.486 -0.3048  0.9139 -0.0352
34088SOL    HW2 4582   5.860   1.803   8.529 -0.9034 -0.2295  0.2951
34089SOL     OW 4583   4.497   2.150   1.121  0.0276  0.4414  0.3152
34089SOL    HW1 4584   4.452   2.129   1.203 -2.2047 -1.9660 -1.3512
34089SOL    HW2 4585   4.430   2.192   1.067  0.8405  0.1128 -0.9889
34090SOL     OW 4586   6.907   5.678   9.133  0.5435  0.3173  0.3235
34090SOL    HW1 4587   6.820   5.717   9.123  0.2077 -0.4288  0.3242
34090SOL    HW2 4588   6.897   5.616   9.206  0.7218 -0.7799 -0.5647
34091SOL     OW 4589   4.606   9.252   9.749 -0.2909  0.2363 -0.2446
34091SOL    HW1 4590   4.524   9.283   9.712 -0.4103 -0.7830 -0.8869
34091SOL    HW2 4591   4.599   9.156   9.746 -0.3474  0.0752  2.5203
34092SOL     OW 4592   0.597   9.876  10.055  0.1753 -0.2645  0.0531
34092SOL    HW1 4593   0.547   9.957  10.060  0.4931  0.0212 -1.2247
34092SOL    HW2 4594   0.531   9.807  10.060 -0.2720  0.1003 -0.6771
34093SOL     OW 4595   5.344   0.696   0.729 -0.3347  0.2590  0.2217
34093SOL    HW1 4596   5.379   0.638   0.661  0.5816  1.4807 -0.3762
34093SOL    HW2 4597   5.353   0.646   0.810  1.9728  0.1738 -0.0318
34094SOL     OW 4598   6.012   5.532  10.209 -0.2338  0.0677 -0.2366
34094SOL    HW1 4599   5.966   5.495  10.284  1.7853 -1.6462  0.2409
34094SOL    HW2 4600   6.101   5.546  10.239  1.3781 -3.1667 -2.9417
34095SOL     OW 4601   8.239   9.206   8.957  0.7377  0.5589  0.4165
34095SOL    HW1 4602   8.188   9.213   8.876  0.3413 -0.4414  0.5624
34095SOL    HW2 4603   8.249   9.112   8.971 -2.0179  0.4940  3.2432
34096SOL     OW 4604   8.148  10.107   4.413  0.5565 -0.2847  0.0754
34096SOL    HW1 4605   8.231  10.125   4.368 -0.0502  1.0505 -0.5710
34096SOL    HW2 4606   8.142  10.012   4.414 -0.0798 -0.4742 -4.0658
34097SOL     OW 4607   6.679   4.998   5.629  0.2389 -0.0489  0.8326
34097SOL    HW1 4608   6.588   5.028   5.636 -0.4802 -2.1660  1.2456
34097SOL    HW2 4609   6.672   4.907   5.600  2.2252 -0.4463  1.4668
34098SOL     OW 4610   0.370   8.582   2.026  0.1642 -0.5192  0.4931
34098SOL    HW1 4611   0.364   8.490   2.001 -0.8301 -0.3802  0.1670
34098SOL    HW2 4612   0.393   8.628   1.945 -0.6833 -0.3396  0.3429
34099SOL     OW 4613   1.073   1.636   0.514 -0.0740  0.0546 -0.2646
34099SOL    HW1 4614   1.098   1.652   0.605 -2.3692 -0.5118  0.5279
34099SOL    HW2 4615   1.138   1.573   0.482 -0.6448 -1.7315  1.8195
34100SOL     OW 4616   2.956   6.142   0.810  0.1606  0.6187  0.1057
34100SOL    HW1 4617   3.024   6.080   0.834 -0.3033 -0.2707 -0.7917
34100SOL    HW2 4618   2.973   6.219   0.864  0.6909 -0.3178  1.3230
34101SOL     OW 4619   2.703   2.941   4.319 -0.2069  0.1049  0.5046
34101SOL    HW1 4620   2.756   2.876   4.366  0.9979  0.6456 -0.0497
34101SOL    HW2 4621   2.661   2.891   4.248  0.7270 -0.0824  0.0676
34102SOL     OW 4622  10.335   0.621   2.897  0.6727 -0.5384 -0.4297
34102SOL    HW1 4623  10.340   0.564   2.821  2.9423 -2.7897  1.2414
34102SOL    HW2 4624  10.345   0.562   2.972 -2.8093  1.3690  1.7872
34103SOL     OW 4625   4.277   2.741   6.250  0.0040 -0.0493 -0.1478
34103SOL    HW1 4626   4.288   2.794   6.329  0.8493  1.7737 -1.4032
34103SOL    HW2 4627   4.213   2.790   6.198 -0.8326 -1.4197 -0.4482
34104SOL     OW 4628   4.454   8.102   2.270 -0.5224  0.1438  0.4089
34104SOL    HW1 4629   4.377   8.098   2.327  0.5189  1.3207  1.9887
34104SOL    HW2 4630   4.504   8.176   2.303  1.4859 -0.8163 -0.3213
34105SOL     OW 4631   6.705   5.112   2.764 -0.2008 -0.3377  0.1930
34105SOL    HW1 4632   6.762   5.048   2.807 -0.4832  0.0412  1.1703
34105SOL    HW2 4633   6.714   5.192   2.816 -0.6826  0.0935 -0.3631
34106SOL     OW 4634   7.034   1.333   7.015  0.2191  0.0435 -0.7809
34106SOL    HW1 4635   6.982   1.265   7.059 -0.0024  0.3856 -0.5143
34106SOL    HW2 4636   7.019   1.412   7.066  1.0726  0.1321 -0.6489
34107SOL     OW 4637   4.691   6.605   6.883 -0.2446  0.4810  0.4443
34107SOL    HW1 4638   4.651   6.536   6.936 -1.4150  1.1804  0.5072
34107SOL    HW2 4639   4.784   6.604   6.908 -0.1306 -1.3311  0.1356
34108SOL     OW 4640   7.069   8.771   1.109 -0.2163 -0.3979 -0.4202
34108SOL    HW1 4641   7.136   8.837   1.125 -2.0326  1.3099  0.6230
34108SOL    HW2 4642   7.031   8.753   1.195 -0.8362 -1.6290 -0.9159
34109SOL     OW 4643   9.938   8.722   5.017  0.5290  0.3431  0.2520
34109SOL    HW1 4644   9.885   8.723   4.937  1.0399 -0.6283 -0.1172
34109SOL    HW2 4645   9.901   8.652   5.070 -0.0169  1.1964  1.0404
34110SOL     OW 4646   0.525   8.410   8.096 -0.1420 -0.2270  0.4340
34110SOL    HW1 4647   0.500   8.327   8.055 -3.5224 -0.3244  2.2931
34110SOL    HW2 4648   0.528   8.473   8.025 -0.5776 -1.3664 -0.6214
34111SOL     OW 4649   7.949   5.607   5.198  0.1830  0.6398 -0.5087
34111SOL    HW1 4650   7.936   5.619   5.104 -2.3897  1.4477 -0.1347
34111SOL    HW2 4651   8.034   5.649   5.216  0.6431  0.6060 -2.4212
34112SOL     OW 4652   5.699   6.581   0.368  0.5827 -0.1826  0.7372
34112SOL    HW1 4653   5.697   6.508   0.306 -1.2245 -0.4418  1.0501
34112SOL    HW2 4654   5.783   6.624   0.351  1.1360 -1.5868 -0.3070
34113SOL     OW 4655   5.892   3.379   9.153  0.3406  0.0445 -0.2702
34113SOL    HW1 4656   5.826   3.434   9.111  0.7442  0.0397 -0.9299
34113SOL    HW2 4657   5.945   3.346   9.080  0.1078 -1.2253  0.1221
34114SOL     OW 4658   8.539   2.861   0.049 -0.6635 -0.1152  0.2901
34114SOL    HW1 4659   8.447   2.859   0.023 -0.8786  1.0623  0.9190
34114SOL    HW2 4660   8.558   2.954   0.064  1.0230 -0.1518 -1.2280
34115SOL     OW 4661   2.923   0.540   6.288 -0.4682 -0.0915  0.1576
34115SOL    HW1 4662   2.879   0.576   6.365 -2.0088 -0.5864 -0.4604
34115SOL    HW2 4663   2.861   0.477   6.252  0.7073 -0.7255 -0.8357
34116SOL     OW 4664   7.712   0.820   8.752  0.1758  0.0857 -0.3248
34116SOL    HW1 4665   7.797   0.792   8.785  0.4451  1.7556  0.4937
34116SOL    HW2 4666   7.649   0.765   8.798  0.7513 -0.3968 -0.0990
34117SOL     OW 4667   6.493   0.829   8.239  0.4430 -0.2276  0.0263
34117SOL    HW1 4668   6.573   0.822   8.291  1.3693  0.4788 -1.2384
34117SOL    HW2 4669   6.524   0.853   8.152 -1.2451  1.3655 -0.1867
34118SOL     OW 4670   3.976   4.460   6.982  0.2723  0.2958  0.1895
34118SOL    HW1 4671   3.967   4.511   6.902  0.8040  1.2460  0.7152
34118SOL    HW2 4672   4.022   4.381   6.955  1.6511  1.2027 -0.2350
34119SOL     OW 4673   1.818   8.459  10.551  0.0704 -0.0053 -0.2671
34119SOL    HW1 4674   1.836   8.520  10.479  0.8496 -0.1120 -0.1715
34119SOL    HW2 4675   1.751   8.503  10.603  0.6028  0.7558 -0.2163
34120SOL     OW 4676   1.380   7.096   6.428  0.2168 -0.1754 -0.3295
34120SOL    HW1 4677   1.356   7.100   6.336 -0.5359  2.0694 -0.1022
34120SOL    HW2 4678   1.476   7.101   6.428  0.3183 -1.7729 -1.0131
34121SOL     OW 4679   2.700   9.995   2.324 -0.3255  0.2949  0.0754
34121SOL    HW1 4680   2.687   9.923   2.386  1.1732 -0.5063 -0.4980
34121SOL    HW2 4681   2.611  10.020   2.298 -0.8946 -2.3477 -0.8280
34122SOL     OW 4682   3.056   1.580   4.412  0.6642  0.3473 -0.4848
34122SOL    HW1 4683   3.051   1.484   4.417  0.8486  0.3851  1.0341
34122SOL    HW2 4684   2.966   1.609   4.399  0.4218  0.0087  0.3797
34123SOL     OW 4685   0.681   5.007  10.385 -0.0802 -0.1679 -0.0744
34123SOL    HW1 4686   0.706   4.928  10.337 -0.2732 -0.6606  0.6275
34123SOL    HW2 4687   0.601   4.982  10.432 -0.6032  0.6888 -0.4743
34124SOL     OW 4688   1.359   6.440  10.382 -0.0588  0.3156 -0.2731
34124SOL    HW1 4689   1.270   6.418  10.410  0.3650  0.7558  1.4986
34124SOL    HW2 4690   1.360   6.535  10.376  0.5558  0.3862  0.7191
34125SOL     OW 4691   0.958  10.178   6.135  0.7501 -0.1251  0.5428
34125SOL    HW1 4692   0.870  10.143   6.130  0.3124  1.0939 -1.8017
34125SOL    HW2 4693   0.984  10.191   6.044  2.8571  0.7676  1.2001
34126SOL     OW 4694   0.508   0.939   7.054  0.0163  0.1904 -0.1519
34126SOL    HW1 4695   0.516   0.865   6.994 -0.9612  0.7741 -1.0346
34126SOL    HW2 4696   0.450   1.000   7.009  0.0920  1.1042  0.9498
34127SOL     OW 4697   9.036   6.246   5.440  0.6548 -0.5225  0.6016
34127SOL    HW1 4698   9.069   6.162   5.407  0.0870 -1.4275  2.2102
34127SOL    HW2 4699   8.981   6.280   5.369  1.3997 -1.1908 -0.3229
34128SOL     OW 4700   2.193   2.456   5.105 -0.4643 -0.2551 -0.8965
34128SOL    HW1 4701   2.274   2.496   5.137 -0.7134 -0.2223 -0.2942
34128SOL    HW2 4702   2.210   2.362   5.108 -1.1843 -0.3859  1.3674
34129SOL     OW 4703   5.482   3.753   8.425  0.3071  0.2345 -0.1733
34129SOL    HW1 4704   5.575   3.774   8.430  0.7182 -1.4360 -0.4220
34129SOL    HW2 4705   5.479   3.658   8.414 -1.3293  0.5119 -3.1633
34130SOL     OW 4706   0.159  10.587   9.472  0.2700 -0.2671 -0.3943
34130SOL    HW1 4707   0.208  10.661   9.509 -0.0025 -0.7024  0.8702
34130SOL    HW2 4708   0.127  10.539   9.548 -1.5647 -0.3814 -1.2044
34131SOL     OW 4709   8.653   1.408   7.628  0.5527 -0.6151 -0.0427
34131SOL    HW1 4710   8.589   1.340   7.607 -0.5763  0.4224 -0.0651
34131SOL    HW2 4711   8.711   1.367   7.692 -0.8542 -1.2156  0.8873
34132SOL     OW 4712   3.210   0.346   4.494  0.0934  0.5134 -0.0122
34132SOL    HW1 4713   3.164   0.264   4.473  1.0171  0.2503 -1.1582
34132SOL    HW2 4714   3.174   0.373   4.578 -0.7922 -0.6658  0.0194
34133SOL     OW 4715  10.194   8.718   5.850 -0.1509  0.2995 -0.3317
34133SOL    HW1 4716  10.269   8.711   5.910  0.6021  1.6280 -1.0689
34133SOL    HW2 4717  10.199   8.640   5.796  0.6109  0.2840 -0.2523
34134SOL     OW 4718   5.652   2.335   6.546  0.0480  0.0143  0.2304
34134SOL    HW1 4719   5.726   2.394   6.564  0.1960 -0.0500 -0.1583
34134SOL    HW2 4720   5.688   2.247   6.559 -0.6052  0.0324  2.4304
34135SOL     OW 4721   0.944   8.153   0.908 -0.2788  0.6472 -0.5635
34135SOL    HW1 4722   0.897   8.187   0.985 -1.3701  0.9872 -1.3607
34135SOL    HW2 4723   1.022   8.208   0.902 -0.3254  0.8054  0.1310
34136SOL     OW 4724   8.846   6.162   7.164  0.1720  0.0546  0.3624
34136SOL    HW1 4725   8.886   6.076   7.175 -1.5447 -0.7738  0.5564
34136SOL    HW2 4726   8.875   6.192   7.078  1.1237 -0.5163  0.4719
34137SOL     OW 4727   6.564   0.076   1.482  0.0905 -0.6202 -0.0314
34137SOL    HW1 4728   6.540   0.047   1.394  0.1860 -0.5086 -0.0957
34137SOL    HW2 4729   6.543   0.002   1.539  0.6570 -0.9499 -0.2394
34138SOL     OW 4730   2.987  10.426   0.390  0.7056  1.0425 -0.0198
34138SOL    HW1 4731   3.062  10.485   0.396  0.1172  1.6773  1.2566
34138SOL    HW2 4732   2.972  10.395   0.479 -0.1509  0.4041 -0.3637
34139SOL     OW 4733   8.576   8.132   9.020  0.3288 -0.4647 -0.0961
34139SOL    HW1 4734   8.621   8.185   8.954  0.0182  1.0564  0.8792
34139SOL    HW2 4735   8.646   8.091   9.070  0.7864  2.6172  2.0097
34140SOL     OW 4736   1.731   4.343   7.273  0.1310  0.4899 -0.5967
34140SOL    HW1 4737   1.664   4.338   7.205  2.2607  0.5765 -2.8335
34140SOL    HW2 4738   1.766   4.254   7.280  0.9113  0.7833 -0.6791
34141SOL     OW 4739   0.405   2.898   3.673  0.2997 -0.0301  0.2859
34141SOL    HW1 4740   0.459   2.974   3.651  1.6975 -1.3283 -0.9753
34141SOL    HW2 4741   0.467   2.828   3.690 -0.9777 -1.0886  0.7665
34142SOL     OW 4742  10.481   9.324   2.192 -0.5662 -0.7906  0.0654
34142SOL    HW1 4743  10.392   9.353   2.212 -0.4134  0.6455 -1.1645
34142SOL    HW2 4744  10.514   9.389   2.130 -0.1774 -3.5958 -2.9130
34143SOL     OW 4745   0.947   4.885   1.022 -0.2503  0.4988 -0.8438
34143SOL    HW1 4746   0.896   4.872   0.942  0.5828 -0.6848 -1.2064
34143SOL    HW2 4747   0.930   4.976   1.046 -0.5513  0.8726 -2.3395
34144SOL     OW 4748  10.588   1.711   5.840 -0.1422 -0.4155  0.2657
34144SOL    HW1 4749  10.565   1.772   5.770  0.1986  1.5152  1.7611
34144SOL    HW2 4750  10.682   1.694   5.827  0.4166  1.5298  1.3325
34145SOL     OW 4751   7.989   5.928   1.765 -0.4143  0.0937 -0.7330
34145SOL    HW1 4752   8.030   5.977   1.693 -1.1559  1.3269 -0.3496
34145SOL    HW2 4753   7.940   5.994   1.813 -0.0971 -0.7523  0.7981
34146SOL     OW 4754   3.118   3.793   1.577  0.3622  0.2103 -0.1577
34146SOL    HW1 4755   3.059   3.800   1.652  0.7341  2.2163  0.0069
34146SOL    HW2 4756   3.067   3.825   1.503  0.6079  0.0943 -0.3798
34147SOL     OW 4757   9.038   8.357   9.415 -0.4805  0.3199  0.2934
34147SOL    HW1 4758   9.076   8.360   9.502  3.1390 -1.1726 -1.0505
34147SOL    HW2 4759   9.030   8.449   9.388  2.7540  0.8066  0.5849
34148SOL     OW 4760   9.349   2.242   3.625 -0.2096 -0.0514 -0.0259
34148SOL    HW1 4761   9.339   2.181   3.698 -1.2765  0.3871  0.2048
34148SOL    HW2 4762   9.298   2.203   3.554  1.1655 -0.6939 -0.7047
34149SOL     OW 4763   0.582  10.512   0.955 -0.3462  0.2238  0.4554
34149SOL    HW1 4764   0.494  10.530   0.989 -0.4752 -0.1196  0.3058
34149SOL    HW2 4765   0.606  10.428   0.995  0.7638  1.2907  2.1665
34150SOL     OW 4766   3.006   6.287   2.342  0.1838 -0.2192 -0.2820
34150SOL    HW1 4767   3.078   6.335   2.302  0.1538 -1.1037 -1.4314
34150SOL    HW2 4768   3.014   6.198   2.308 -0.6660 -0.6687  0.6209
34151SOL     OW 4769  10.548   1.804   1.069  0.1765  0.9895  0.3397
34151SOL    HW1 4770  10.526   1.873   1.132  0.2739  0.0865  1.3959
34151SOL    HW2 4771  10.643   1.792   1.080 -0.0654 -0.2897  1.2104
34152SOL     OW 4772   6.126   9.859   0.545 -0.2123 -0.2084 -0.4362
34152SOL    HW1 4773   6.049   9.831   0.595 -0.5078 -1.5814 -1.6008
34152SOL    HW2 4774   6.156   9.779   0.501  0.1527  0.9020 -2.2931
34153SOL     OW 4775   5.140   6.254   0.440  0.1048  0.0768 -0.6522
34153SOL    HW1 4776   5.078   6.314   0.397  1.5273  1.7789 -0.4592
34153SOL    HW2 4777   5.185   6.210   0.368  0.7373  1.0847 -0.9056
34154SOL     OW 4778   2.433   9.820   5.358 -0.4271 -0.4308  0.6026
34154SOL    HW1 4779   2.375   9.871   5.415 -0.8565 -0.4782  0.2081
34154SOL    HW2 4780   2.375   9.779   5.294 -0.0896 -1.4370  0.9185
34155SOL     OW 4781   3.074   6.062  10.004 -0.1361 -0.3985  0.2221
34155SOL    HW1 4782   3.068   6.000  10.077 -0.1870 -0.6293  0.0206
34155SOL    HW2 4783   3.038   6.143  10.040  0.6844 -0.2509  0.7404
34156SOL     OW 4784   6.883   9.036   1.136  0.0849 -0.5514 -0.3283
34156SOL    HW1 4785   6.941   8.991   1.074  0.7745  0.6459 -0.5760
34156SOL    HW2 4786   6.855   8.967   1.196 -0.0199 -1.5856 -1.5277
34157SOL     OW 4787   7.180   2.477   7.516 -0.2434  0.4578 -0.1327
34157SOL    HW1 4788   7.118   2.422   7.468  2.3354 -1.1665 -1.8161
34157SOL    HW2 4789   7.231   2.415   7.568  1.7765  1.3714 -0.9560
34158SOL     OW 4790  10.161   9.937   5.928 -0.3358  0.8093  0.1700
34158SOL    HW1 4791  10.233   9.990   5.894  0.2935  0.4852  0.9487
34158SOL    HW2 4792  10.112   9.909   5.851  0.6952  0.5814 -0.4141
34159SOL     OW 4793   1.780   9.837   0.015 -0.4226 -0.2089 -0.7035
34159SOL    HW1 4794   1.791   9.847   0.110  0.3367  0.1042 -0.8184
34159SOL    HW2 4795   1.779   9.742   0.001  1.1055 -0.2807 -0.5439
34160SOL     OW 4796   5.922   6.170   7.684 -0.2243  0.3285  0.2120
34160SOL    HW1 4797   5.837   6.211   7.701 -0.7886 -0.5978 -0.3145
34160SOL    HW2 4798   5.916   6.138   7.594  0.8404  0.6148  0.0239
34161SOL     OW 4799   6.106   4.989   8.328  0.1267  0.1692  0.4258
34161SOL    HW1 4800   6.100   5.085   8.325 -0.8536  0.0894 -0.6153
34161SOL    HW2 4801   6.183   4.972   8.383  1.9908  1.6013 -1.5496
34162SOL     OW 4802   9.415   6.257   1.650  0.1933 -0.2080 -0.4495
34162SOL    HW1 4803   9.482   6.203   1.608  1.6285  0.1154  1.3066
34162SOL    HW2 4804   9.457   6.342   1.663 -1.4877  0.8794 -1.7014
34163SOL     OW 4805   4.610   4.250   9.418 -0.0504  0.5105  0.3256
34163SOL    HW1 4806   4.611   4.178   9.482  2.5822  0.6836  0.5914
34163SOL    HW2 4807   4.652   4.323   9.464  0.0209  1.2838 -0.9309
34164SOL     OW 4808   4.768   1.037  10.569  0.1130  0.1372 -0.2421
34164SOL    HW1 4809   4.836   1.075  10.512  0.1964  1.9034  0.9634
34164SOL    HW2 4810   4.816   1.006  10.646 -0.3633  0.7457  0.3035
34165SOL     OW 4811   4.124   4.509   5.291  0.2643 -0.5621  0.2997
34165SOL    HW1 4812   4.214   4.481   5.277  0.4448 -0.1549  0.6371
34165SOL    HW2 4813   4.075   4.469   5.219  1.0650  0.9496 -1.1461
34166SOL     OW 4814   0.408   9.437   8.758  0.0165 -0.4060 -0.1606
34166SOL    HW1 4815   0.468   9.511   8.765  0.2930 -0.5847 -0.6020
34166SOL    HW2 4816   0.444   9.372   8.819  0.6720 -0.7782 -0.9274
34167SOL     OW 4817   4.227   3.640   6.404 -0.3340 -0.5765  0.4123
34167SOL    HW1 4818   4.248   3.687   6.484 -0.4726  0.6267 -0.2421
34167SOL    HW2 4819   4.167   3.571   6.432 -0.3739 -0.1780  1.3416
34168SOL     OW 4820   0.390   2.268   2.353 -0.6874  0.0131  0.0201
34168SOL    HW1 4821   0.465   2.319   2.383 -0.4286 -1.0042  1.1749
34168SOL    HW2 4822   0.327   2.334   2.323  0.5277  0.8928 -0.6960
34169SOL     OW 4823   1.584  10.451   6.564  0.0291 -0.3115  0.9440
34169SOL    HW1 4824   1.586  10.547   6.572  0.2804 -0.1805 -0.4070
34169SOL    HW2 4825   1.656  10.421   6.619  1.9968  0.5267 -0.9816
34170SOL     OW 4826   2.363   7.413   1.147  0.1416  0.0938  0.4781
34170SOL    HW1 4827   2.291   7.418   1.210 -0.1599  0.8767  0.0747
34170SOL    HW2 4828   2.328   7.451   1.066  0.8946  0.1608  0.1708
34171SOL     OW 4829   5.987   5.668   8.862 -0.0556 -0.0783  0.3929
34171SOL    HW1 4830   6.021   5.623   8.939 -0.5551 -0.5608  0.3439
34171SOL    HW2 4831   5.905   5.622   8.842  0.9049 -1.1038 -1.4522
34172SOL     OW 4832   0.818  10.436   4.757 -0.0013 -0.7812 -0.3527
34172SOL    HW1 4833   0.788  10.487   4.833 -0.8238 -1.1080 -0.4532
34172SOL    HW2 4834   0.739  10.395   4.722  0.6192 -2.0236 -0.3607
34173SOL     OW 4835   9.997   5.545   9.488  0.3703 -0.5793  0.3139
34173SOL    HW1 4836  10.062   5.610   9.514 -0.1063  0.0643 -0.0499
34173SOL    HW2 4837   9.919   5.568   9.539 -1.0676  1.6270 -2.5432
34174SOL     OW 4838   6.218   6.118   1.235 -0.1361  0.0826  0.1191
34174SOL    HW1 4839   6.246   6.149   1.321  0.0231 -0.6919  0.3493
34174SOL    HW2 4840   6.151   6.181   1.208  0.1398  0.5934  0.6028
34175SOL     OW 4841   4.655   2.225   5.703 -0.5819  0.7384 -0.0493
34175SOL    HW1 4842   4.711   2.160   5.746 -0.2120 -0.7453 -2.5977
34175SOL    HW2 4843   4.576   2.176   5.679 -1.0366  1.6777 -0.5237
34176SOL     OW 4844   8.145   7.834  10.414 -0.4577 -0.1012 -0.0818
34176SOL    HW1 4845   8.122   7.802  10.501 -0.2658 -0.7762 -0.2704
34176SOL    HW2 4846   8.069   7.884  10.385  0.1208  1.5777  1.1555
34177SOL     OW 4847   8.624  10.437   7.737  0.0789 -0.1255 -0.2502
34177SOL    HW1 4848   8.600  10.348   7.714 -0.7305  0.1030 -0.3208
34177SOL    HW2 4849   8.667  10.429   7.822  0.2302 -0.6060 -0.3706
34178SOL     OW 4850   4.639   3.735   5.667 -0.0025  0.0160 -0.2109
34178SOL    HW1 4851   4.639   3.823   5.630  0.4055  0.9671  1.9139
34178SOL    HW2 4852   4.723   3.698   5.640 -0.7720 -0.3344 -2.3372
34179SOL     OW 4853   6.937   3.030   4.768 -0.3616 -0.0607  0.4068
34179SOL    HW1 4854   6.861   2.972   4.770 -0.5147  0.1383  2.1129
34179SOL    HW2 4855   7.007   2.977   4.731 -1.0118 -0.6586  0.0103
34180SOL     OW 4856   0.960  10.583   2.658 -0.0734  0.2695 -0.2496
34180SOL    HW1 4857   0.930  10.627   2.578 -1.3035  0.2415  0.1677
34180SOL    HW2 4858   0.904  10.619   2.727  0.7191  0.0158  0.5373
34181SOL     OW 4859   5.905   7.196   0.484  0.3184  0.1484 -0.0788
34181SOL    HW1 4860   5.834   7.139   0.513  1.2376 -1.3467 -0.6531
34181SOL    HW2 4861   5.939   7.154   0.405  1.8986  0.7741  0.2273
34182SOL     OW 4862   0.613   4.907   8.355  0.2180  0.1245  0.2315
34182SOL    HW1 4863   0.591   4.997   8.380  0.3447 -0.1684  1.4797
34182SOL    HW2 4864   0.612   4.858   8.438  1.3709 -0.7673 -0.2507
34183SOL     OW 4865  10.012   9.607   9.270  0.2336  0.1723  0.0769
34183SOL    HW1 4866   9.917   9.599   9.260  0.2691  0.7802 -0.8935
34183SOL    HW2 4867  10.037   9.532   9.324 -0.7125 -0.4089 -0.2687
34184SOL     OW 4868   7.826   7.191  10.446 -0.6194 -0.3519  0.2148
34184SOL    HW1 4869   7.794   7.253  10.511 -1.8789  1.4771 -2.0074
34184SOL    HW2 4870   7.921   7.189  10.460 -0.9679 -1.2783  3.0700
34185SOL     OW 4871   2.580   0.390   0.760 -0.0154 -0.5724 -0.4937
34185SOL    HW1 4872   2.503   0.391   0.817 -0.2793 -0.3059 -0.8517
34185SOL    HW2 4873   2.581   0.477   0.720  0.9643 -0.2585  0.1564
34186SOL     OW 4874   8.756  10.518   6.709 -0.1516  0.0209 -0.7082
34186SOL    HW1 4875   8.799  10.510   6.624 -3.2513 -1.2147 -2.3258
34186SOL    HW2 4876   8.727  10.609   6.713  0.5374  0.2466 -0.6450
34187SOL     OW 4877   0.773   2.709   1.743 -0.1619 -0.0925  0.1065
34187SOL    HW1 4878   0.821   2.669   1.670 -0.8007  0.3104 -0.5528
34187SOL    HW2 4879   0.712   2.770   1.700 -2.2165 -1.5572  0.8041
34188SOL     OW 4880   8.780   1.920   1.037  0.0837 -0.0455 -0.1143
34188SOL    HW1 4881   8.749   1.919   1.127  0.4743 -0.2412  0.0207
34188SOL    HW2 4882   8.835   1.842   1.030 -1.4703 -1.1182 -1.0552
34189SOL     OW 4883   2.160   2.858   8.560  0.2387  0.0005  0.1021
34189SOL    HW1 4884   2.251   2.886   8.574  0.1391  0.6069 -0.4023
34189SOL    HW2 4885   2.163   2.807   8.479  0.1519 -0.1030  0.1640
34190SOL     OW 4886   2.392   9.263   1.175 -0.0277  0.1617 -0.4572
34190SOL    HW1 4887   2.440   9.208   1.236 -0.1807  1.7940  1.2178
34190SOL    HW2 4888   2.334   9.202   1.128  0.6547 -1.2390  0.4523
34191SOL     OW 4889   3.681   8.031   4.003  0.9750 -0.0132  0.4220
34191SOL    HW1 4890   3.683   7.962   3.937 -1.0675  1.8525 -1.7707
34191SOL    HW2 4891   3.669   7.985   4.086 -0.6807 -2.2899 -0.9740
34192SOL     OW 4892   3.468   5.181   8.699 -0.9352  0.2433  0.6577
34192SOL    HW1 4893   3.431   5.171   8.611 -1.8457 -1.0439  1.1533
34192SOL    HW2 4894   3.405   5.234   8.746 -1.2546 -0.4142  0.9810
34193SOL     OW 4895   7.579   4.120   0.077  0.1952  0.2485 -0.1699
34193SOL    HW1 4896   7.606   4.113   0.169 -2.4619  2.0980  0.8649
34193SOL    HW2 4897   7.575   4.214   0.060 -0.3604 -0.0425 -1.8916
34194SOL     OW 4898   0.429   8.344   6.599 -0.2115  0.4639  0.0966
34194SOL    HW1 4899   0.414   8.256   6.632  0.5206  0.2463 -0.1234
34194SOL    HW2 4900   0.515   8.339   6.556 -0.3928  1.1514 -0.3661
34195SOL     OW 4901   1.689   2.929   5.711 -0.1271 -0.1139  0.5519
34195SOL    HW1 4902   1.694   2.851   5.657 -1.1011  0.1155  0.1193
34195SOL    HW2 4903   1.656   2.998   5.653  1.0199  0.7171  0.8368
34196SOL     OW 4904   4.425   6.990   2.550 -0.8668  0.3711 -0.3434
34196SOL    HW1 4905   4.450   6.964   2.639  0.1347 -0.2236 -0.7780
34196SOL    HW2 4906   4.366   7.064   2.562  0.0877  0.9721  0.7826
34197SOL     OW 4907   0.430  10.573   7.962  0.1568  0.4818 -0.5214
34197SOL    HW1 4908   0.522  10.546   7.958  0.1581  0.5525 -1.0593
34197SOL    HW2 4909   0.402  10.575   7.870 -1.1982 -2.2128 -0.2507
34198SOL     OW 4910   1.850   8.389   9.425 -0.2143  0.5730  0.4764
34198SOL    HW1 4911   1.873   8.349   9.508  0.8035 -0.1131 -0.1067
34198SOL    HW2 4912   1.868   8.321   9.360 -0.6594  1.2068 -0.3292
34199SOL     OW 4913   4.025   3.991   2.070  0.3191  0.4049 -1.1071
34199SOL    HW1 4914   4.118   4.014   2.069  0.6726 -0.4965  1.7794
34199SOL    HW2 4915   4.022   3.902   2.035  0.3906  0.7280 -1.9720
34200SOL     OW 4916   6.550   4.702   5.365  0.2051 -0.2669 -0.2436
34200SOL    HW1 4917   6.547   4.639   5.292 -1.4171  0.2269 -0.6413
34200SOL    HW2 4918   6.465   4.692   5.408 -0.0916  1.6158 -0.3021
34201SOL     OW 4919   8.286   7.347   9.995  0.0763 -0.3327 -0.0353
34201SOL    HW1 4920   8.320   7.436  10.005 -1.4835  0.4864 -1.4863
34201SOL    HW2 4921   8.196   7.351  10.028 -0.0003 -1.3768 -0.0783
34202SOL     OW 4922   4.850   6.461   9.615  0.0515  0.1626 -0.3212
34202SOL    HW1 4923   4.789   6.388   9.626  1.1372 -0.5230  1.8090
34202SOL    HW2 4924   4.920   6.425   9.561  0.4393 -0.3325  0.4801
34203SOL     OW 4925   9.505   5.342   5.211  0.3209  0.2990 -0.3345
34203SOL    HW1 4926   9.524   5.395   5.288 -0.2391 -0.1683  0.1350
34203SOL    HW2 4927   9.531   5.254   5.235  0.2545  0.1713 -0.7235
34204SOL     OW 4928   0.774   2.261   6.366  1.1058  0.1827 -0.1006
34204SOL    HW1 4929   0.857   2.219   6.388  1.6822  0.8420 -0.9480
34204SOL    HW2 4930   0.772   2.340   6.419  0.2667 -0.6024  1.0949
34205SOL     OW 4931   2.977   2.547   3.272  0.7495 -0.0322  0.1793
34205SOL    HW1 4932   2.940   2.584   3.352 -1.5635 -1.1691 -0.3013
34205SOL    HW2 4933   3.013   2.463   3.299 -1.2178 -1.0272 -0.1520
34206SOL     OW 4934   9.762   5.933   8.397  0.0350 -0.1110 -0.5067
34206SOL    HW1 4935   9.716   5.977   8.326 -1.1095  0.4336  0.5240
34206SOL    HW2 4936   9.848   5.976   8.401 -1.0575  2.1776  0.5022
34207SOL     OW 4937   6.396   4.679   2.927  0.3779 -0.1004 -0.1397
34207SOL    HW1 4938   6.341   4.633   2.864 -0.7238 -1.6022  1.7819
34207SOL    HW2 4939   6.485   4.649   2.909  0.3470  0.7871 -1.9792
34208SOL     OW 4940   6.080   2.491   2.048 -0.1304  0.1360  0.0646
34208SOL    HW1 4941   6.112   2.453   1.966  0.4705 -0.9108  0.7503
34208SOL    HW2 4942   5.985   2.499   2.036  0.1053  1.2532 -1.2075
34209SOL     OW 4943   7.982  10.144   3.110 -0.4680  0.3468 -0.1127
34209SOL    HW1 4944   7.893  10.170   3.136 -1.2867 -0.5212 -1.9014
34209SOL    HW2 4945   8.004  10.072   3.170 -0.7238  0.9305  0.7041
34210SOL     OW 4946   9.297   3.486   9.660 -0.0407  0.1041  0.4686
34210SOL    HW1 4947   9.339   3.408   9.696 -0.8068  0.5268  2.4387
34210SOL    HW2 4948   9.307   3.477   9.565  2.3901 -0.9370  0.7422
34211SOL     OW 4949   4.145   1.164   2.939 -0.0927  0.4677 -0.0543
34211SOL    HW1 4950   4.128   1.197   2.851  1.1224  1.9583  0.2422
34211SOL    HW2 4951   4.216   1.218   2.972 -0.8701  0.2980  2.0476
34212SOL     OW 4952   6.925   0.506   0.332 -0.3353 -0.4155 -0.1322
34212SOL    HW1 4953   6.851   0.470   0.381  0.3690 -1.0475  0.5095
34212SOL    HW2 4954   6.905   0.599   0.323 -0.6969 -0.3684  0.9819
34213SOL     OW 4955   0.782   6.345   0.540 -0.0830 -0.0266  0.3533
34213SOL    HW1 4956   0.772   6.293   0.619  0.7460 -1.6466 -0.5433
34213SOL    HW2 4957   0.745   6.430   0.562 -1.9103 -1.1056  1.7479
34214SOL     OW 4958   3.999   7.759   7.716 -0.3323 -0.0842  0.0388
34214SOL    HW1 4959   3.957   7.829   7.766 -1.0980 -0.7139  0.2981
34214SOL    HW2 4960   4.044   7.707   7.782  0.4148  0.2720 -0.1777
34215SOL     OW 4961   4.437   6.600   9.815  0.2250 -0.7184 -0.2130
34215SOL    HW1 4962   4.434   6.689   9.782  0.0151  0.2265  2.1610
34215SOL    HW2 4963   4.372   6.552   9.762 -1.0689  1.0066 -0.2702
34216SOL     OW 4964   1.220   6.083   6.499  0.0607 -0.0004 -0.1752
34216SOL    HW1 4965   1.290   6.147   6.484 -0.9076  0.6153 -2.8201
34216SOL    HW2 4966   1.264   6.005   6.531  1.9614  0.4457 -1.5227
34217SOL     OW 4967   5.529  10.446   3.848  0.0613 -0.1243 -0.2667
34217SOL    HW1 4968   5.462  10.386   3.816 -0.7636 -0.0182  1.1680
34217SOL    HW2 4969   5.481  10.510   3.901  1.3481 -0.4829  1.4400
34218SOL     OW 4970   5.975   8.489   1.537  0.5881 -0.2161  0.5475
34218SOL    HW1 4971   5.949   8.424   1.602  1.5874  0.3393  1.5436
34218SOL    HW2 4972   6.056   8.454   1.499 -0.6683 -1.1684 -1.3797
34219SOL     OW 4973   4.515   6.846   7.958 -0.1374  0.1298 -0.2571
34219SOL    HW1 4974   4.538   6.762   7.918  2.9896  1.0583 -0.6256
34219SOL    HW2 4975   4.518   6.829   8.052 -1.8004 -0.6462 -0.2970
34220SOL     OW 4976   3.407   6.665   0.181 -0.8370 -0.3615 -0.2854
34220SOL    HW1 4977   3.397   6.573   0.154  0.2951 -0.7436  0.4784
34220SOL    HW2 4978   3.351   6.714   0.121 -0.6631 -1.4535 -1.4066
34221SOL     OW 4979   9.623   0.211   9.195 -0.4507  0.1910  0.1938
34221SOL    HW1 4980   9.713   0.227   9.224  0.0835 -0.0064 -1.2779
34221SOL    HW2 4981   9.618   0.116   9.184 -1.5116 -0.0618  2.2542
34222SOL     OW 4982   6.741   9.626   6.048 -0.5132 -0.8414  0.2083
34222SOL    HW1 4983   6.704   9.630   5.960 -0.0929  0.1044  0.0560
34222SOL    HW2 4984   6.792   9.707   6.056 -0.6913 -0.8274  1.3847
34223SOL     OW 4985   8.761   9.440   3.184 -0.0901 -0.2823 -0.5322
34223SOL    HW1 4986   8.688   9.476   3.234  1.4433  0.4194  1.3066
34223SOL    HW2 4987   8.734   9.350   3.164 -0.8449 -0.5224  1.3933
34224SOL     OW 4988   9.909   4.970   6.351 -0.0285  0.5248 -0.3739
34224SOL    HW1 4989   9.986   4.942   6.302 -0.8663  0.8267 -1.9249
34224SOL    HW2 4990   9.925   4.940   6.440  0.6445 -1.8259 -1.2238
34225SOL     OW 4991   8.803   0.397   2.490  1.0208 -0.6965 -0.4487
34225SOL    HW1 4992   8.729   0.385   2.550  0.4686 -0.0207 -0.9740
34225SOL    HW2 4993   8.762   0.403   2.403  1.3673  2.4891 -0.5166
34226SOL     OW 4994   0.014   9.982   5.084  0.0676 -0.0653  0.0305
34226SOL    HW1 4995  -0.045  10.046   5.123  0.2044 -0.9900  1.8807
34226SOL    HW2 4996   0.022   9.913   5.150 -1.2394 -2.7722 -2.3578
34227SOL     OW 4997   1.550   8.954   7.045  0.2085  0.3658  1.1732
34227SOL    HW1 4998   1.579   8.887   7.107 -0.6487 -0.5890  0.5683
34227SOL    HW2 4999   1.463   8.979   7.075  0.0316  0.3293  0.6937
34228SOL     OW 5000   9.019   1.610   6.235 -0.1368  0.7981  0.2698
34228SOL    HW1 5001   9.067   1.690   6.213 -0.5394  1.3414  1.2852
34228SOL    HW2 5002   8.963   1.636   6.308 -0.1698 -0.4593  0.7060
34229SOL     OW 5003   3.669   0.194  10.400  0.2668  0.6143  0.8422
34229SOL    HW1 5004   3.604   0.184  10.331  0.9281 -1.3136  0.4311
34229SOL    HW2 5005   3.630   0.257  10.461 -0.7379  1.6279 -0.7813
34230SOL     OW 5006   4.462   7.178   3.840 -0.3500  0.0292  0.7503
34230SOL    HW1 5007   4.520   7.239   3.887  2.2084 -0.1416 -1.9081
34230SOL    HW2 5008   4.408   7.234   3.785 -1.9337  0.0972  2.2656
34231SOL     OW 5009   6.315  10.096   3.503  0.8242 -0.5338  0.2930
34231SOL    HW1 5010   6.313  10.182   3.462 -0.0620 -0.2095  0.9908
34231SOL    HW2 5011   6.278  10.110   3.590 -1.0114 -1.9454 -0.1912
34232SOL     OW 5012   5.971   8.182   4.141  0.2770  0.4944  0.0232
34232SOL    HW1 5013   6.012   8.107   4.098  0.3831  0.9579 -0.6913
34232SOL    HW2 5014   5.905   8.143   4.200  0.5827 -0.1695 -0.0689
34233SOL     OW 5015   7.546   3.875   6.972 -0.2043 -0.3395  0.1562
34233SOL    HW1 5016   7.531   3.852   6.880 -2.0587  0.3256  0.2672
34233SOL    HW2 5017   7.633   3.915   6.972 -0.8686  1.2487 -1.6229
34234SOL     OW 5018   3.084   1.281   9.362 -0.0332 -0.0169 -0.4118
34234SOL    HW1 5019   3.057   1.334   9.287 -0.2878 -0.2726 -0.5045
34234SOL    HW2 5020   3.136   1.210   9.323 -0.4414 -0.3388 -0.3911
34235SOL     OW 5021   3.737  10.093   6.540 -0.1784 -0.1128 -0.0746
34235SOL    HW1 5022   3.697  10.045   6.613 -0.2397  0.1203  0.0460
34235SOL    HW2 5023   3.800  10.152   6.583 -0.9398  0.7517 -0.1342
34236SOL     OW 5024   0.712  10.299   4.166  0.0433  0.4923 -0.7370
34236SOL    HW1 5025   0.779  10.295   4.234 -1.1529 -3.3987  0.4957
34236SOL    HW2 5026   0.759  10.279   4.085  0.5507 -2.4927  0.1407
34237SOL     OW 5027   2.343   2.656   1.604 -0.4633  0.6619 -0.3651
34237SOL    HW1 5028   2.308   2.570   1.583 -1.0342  0.8085 -0.0522
34237SOL    HW2 5029   2.280   2.693   1.666  0.4122  0.8139  0.4551
34238SOL     OW 5030   9.118   5.200   8.228  0.3876  0.0059 -0.0711
34238SOL    HW1 5031   9.208   5.227   8.207  0.0305  3.3445  2.1060
34238SOL    HW2 5032   9.108   5.219   8.321 -1.6497 -3.3583  0.5530
34239SOL     OW 5033   0.013   3.341   2.276 -0.1188  0.2678  0.5124
34239SOL    HW1 5034  -0.079   3.328   2.299 -0.3804 -0.3826 -0.7948
34239SOL    HW2 5035   0.052   3.254   2.285 -0.7235 -0.5867 -3.3899
34240SOL     OW 5036   4.209   8.055   0.919 -0.3771 -0.2226  0.1418
34240SOL    HW1 5037   4.155   8.112   0.864  0.5135  0.7522  0.2528
34240SOL    HW2 5038   4.224   8.106   0.999  1.3229 -0.1418 -0.1898
34241SOL     OW 5039   7.372   2.899   0.824 -0.5350 -0.0769 -0.6652
34241SOL    HW1 5040   7.339   2.940   0.904 -0.3897 -0.9064 -0.1668
34241SOL    HW2 5041   7.398   2.811   0.851 -0.4791 -0.3697 -1.6275
34242SOL     OW 5042   9.670   3.472   4.610  0.1527  0.2883  0.7672
34242SOL    HW1 5043   9.668   3.379   4.632 -2.7308 -0.4220 -1.7641
34242SOL    HW2 5044   9.743   3.480   4.548 -0.5027 -0.6473 -0.1612
34243SOL     OW 5045   8.225  10.369   6.501 -0.1363 -0.0360 -0.4142
34243SOL    HW1 5046   8.253  10.458   6.480  1.4595 -0.1110  1.1984
34243SOL    HW2 5047   8.137  10.380   6.537 -0.0142  0.8670 -0.3592
34244SOL     OW 5048   2.127   5.142  10.377 -0.1220 -0.8453 -0.8152
34244SOL    HW1 5049   2.114   5.171  10.468 -0.6332  0.1414 -1.1942
34244SOL    HW2 5050   2.182   5.064  10.385 -2.5225 -2.5616  0.5663
34245SOL     OW 5051   0.427  10.251   2.706 -0.5276 -0.7794 -0.3517
34245SOL    HW1 5052   0.411  10.170   2.657 -0.6386 -0.8367 -0.2226
34245SOL    HW2 5053   0.521  10.264   2.701 -0.6791  0.0480 -1.8902
34246SOL     OW 5054   6.692   3.250   6.051  0.7444  0.3833  0.3859
34246SOL    HW1 5055   6.641   3.170   6.067  2.2908 -0.4002  1.6370
34246SOL    HW2 5056   6.723   3.241   5.961 -1.3884  0.9595 -0.4649
34247SOL     OW 5057   6.617   8.496   7.347 -0.6787 -0.5737  0.0570
34247SOL    HW1 5058   6.548   8.430   7.349 -0.5909 -0.7215 -1.2361
34247SOL    HW2 5059   6.586   8.564   7.407 -1.2352 -1.3135  0.6375
34248SOL     OW 5060   1.045   0.225   1.953 -0.9989  0.7280 -0.0371
34248SOL    HW1 5061   1.053   0.145   1.900 -0.7664  0.2813  0.6661
34248SOL    HW2 5062   0.979   0.277   1.906 -2.4613 -0.6203  0.4021
34249SOL     OW 5063   9.859  10.545   9.790 -0.1219 -0.2995 -0.2311
34249SOL    HW1 5064   9.935  10.543   9.848 -1.1186 -2.4028  1.1094
34249SOL    HW2 5065   9.867  10.466   9.737 -0.7797  0.0675 -0.8997
34250SOL     OW 5066   9.234   7.936   3.889  0.2984 -0.2094  0.1507
34250SOL    HW1 5067   9.215   7.996   3.816 -2.8386 -0.6655  0.4318
34250SOL    HW2 5068   9.190   7.855   3.864  2.1983 -1.5442  0.9904
34251SOL     OW 5069   9.681   6.506   5.708 -0.6848 -0.0382  0.6782
34251SOL    HW1 5070   9.745   6.567   5.746 -0.4572  0.2755 -0.1926
34251SOL    HW2 5071   9.697   6.424   5.754  1.9390 -0.6158 -1.0370
34252SOL     OW 5072   9.453   4.852   4.329 -0.0569 -0.6027 -0.3467
34252SOL    HW1 5073   9.532   4.906   4.325 -0.7772  0.5894  0.7270
34252SOL    HW2 5074   9.483   4.767   4.362  0.8156 -0.2404 -0.1843
34253SOL     OW 5075   4.184   1.266   1.261  0.0272  0.0469  0.5688
34253SOL    HW1 5076   4.232   1.347   1.275  2.1704 -0.7869 -1.3434
34253SOL    HW2 5077   4.250   1.202   1.236 -1.9873 -1.2447 -2.0471
34254SOL     OW 5078   0.484   6.765   7.860 -0.5293 -0.4202  0.2733
34254SOL    HW1 5079   0.442   6.683   7.883 -1.6343  0.4947  1.7052
34254SOL    HW2 5080   0.443   6.830   7.917 -0.5768  1.3513 -1.6524
34255SOL     OW 5081   4.329   1.495   9.724 -0.1394  0.3528 -0.0648
34255SOL    HW1 5082   4.347   1.527   9.812 -0.1930 -2.5809  1.1048
34255SOL    HW2 5083   4.234   1.483   9.722  0.0323 -1.3048  0.1824
34256SOL     OW 5084   9.861   2.183   4.739 -0.4524  0.0760  0.3310
34256SOL    HW1 5085   9.919   2.223   4.674  1.9709  1.1156  2.9148
34256SOL    HW2 5086   9.865   2.089   4.722  0.3524  0.3070 -0.8292
34257SOL     OW 5087   0.963   8.922   6.025  0.6785  0.4529  0.2799
34257SOL    HW1 5088   0.989   8.877   6.105 -0.7077 -0.9994 -0.0450
34257SOL    HW2 5089   0.921   8.854   5.971  0.5966  1.6288 -1.2192
34258SOL     OW 5090   5.536   1.604   4.006 -0.1700 -0.6404  0.0682
34258SOL    HW1 5091   5.447   1.593   3.972  0.0312 -0.1910 -0.6218
34258SOL    HW2 5092   5.524   1.633   4.096 -0.7203 -1.1667  0.1666
34259SOL     OW 5093   0.253  10.019   5.326 -0.3900  0.4677 -0.0926
34259SOL    HW1 5094   0.216   9.947   5.275 -1.9969  1.0398  0.2217
34259SOL    HW2 5095   0.193  10.030   5.399  0.2090  1.6827  0.2380
34260SOL     OW 5096   5.444   3.641   0.721  0.1114  0.1269  0.0606
34260SOL    HW1 5097   5.386   3.650   0.797 -0.9113 -1.3531 -0.4975
34260SOL    HW2 5098   5.446   3.728   0.682  0.6466  0.9252  1.7425
34261SOL     OW 5099   2.783   4.497   9.543  0.3127 -0.3369 -0.2230
34261SOL    HW1 5100   2.749   4.437   9.477 -1.3390 -0.9367  1.1034
34261SOL    HW2 5101   2.846   4.446   9.593  0.3987 -0.3576 -0.3533
34262SOL     OW 5102   0.108   1.037  10.046  0.1611  0.4690 -0.3668
34262SOL    HW1 5103   0.040   0.981  10.009  1.9300 -2.1657  0.1138
34262SOL    HW2 5104   0.076   1.126  10.031 -3.1302 -0.6031 -0.5763
34263SOL     OW 5105  10.162   8.898   5.395 -0.4845  0.2703  0.3197
34263SOL    HW1 5106  10.167   8.975   5.453  0.3897  0.5563 -0.1266
34263SOL    HW2 5107  10.131   8.933   5.312  0.9676  0.3312 -0.2087
34264SOL     OW 5108   4.368   3.645   3.390 -0.6374 -0.0550 -0.1890
34264SOL    HW1 5109   4.351   3.677   3.301 -0.0649 -2.2665 -1.1876
34264SOL    HW2 5110   4.286   3.606   3.418 -0.6462  0.1081  0.0170
34265SOL     OW 5111   9.787   2.623   6.581 -0.3234 -0.1913 -0.2392
34265SOL    HW1 5112   9.712   2.619   6.522 -1.1594  2.7671  0.4519
34265SOL    HW2 5113   9.750   2.601   6.667 -0.5353  1.4419  0.1329
34266SOL     OW 5114   9.179   5.501   3.623  0.3176  0.1617 -0.2915
34266SOL    HW1 5115   9.130   5.505   3.705 -0.8329  0.7733 -0.9943
34266SOL    HW2 5116   9.263   5.543   3.643 -0.0428  0.5126  0.5130
34267SOL     OW 5117   0.258  10.155   0.653  0.8146 -0.5447 -0.1598
34267SOL    HW1 5118   0.236  10.165   0.746  0.7740 -0.9541 -0.1222
34267SOL    HW2 5119   0.174  10.148   0.608  0.8401 -1.0084 -0.1451
34268SOL     OW 5120   0.964   8.275   8.428 -0.3388 -0.3551 -0.0705
34268SOL    HW1 5121   1.038   8.234   8.383 -0.6047 -0.2910 -0.5666
34268SOL    HW2 5122   0.981   8.259   8.521  1.3006  1.2665 -0.0199
34269SOL     OW 5123   9.608   0.327   6.787 -0.4627 -0.3733  0.2185
34269SOL    HW1 5124   9.672   0.257   6.779 -0.2009 -0.4113  2.1866
34269SOL    HW2 5125   9.527   0.282   6.811 -1.5175 -0.4045 -2.9209
34270SOL     OW 5126   6.388  10.158   4.341 -0.6259 -0.2106 -0.4489
34270SOL    HW1 5127   6.389  10.209   4.422  0.6960  0.2934 -0.7468
34270SOL    HW2 5128   6.419  10.219   4.274  2.0387 -1.6076 -0.6478
34271SOL     OW 5129   0.339   1.144   3.658 -0.0430  0.3516 -0.5544
34271SOL    HW1 5130   0.428   1.109   3.665 -0.7578 -1.5394 -0.5806
34271SOL    HW2 5131   0.290   1.078   3.610 -1.8638  0.5678  0.8757
34272SOL     OW 5132   8.383   7.997  10.425 -0.0468  0.5713 -0.2240
34272SOL    HW1 5133   8.312   7.940  10.396 -1.1174  1.2321  0.9970
34272SOL    HW2 5134   8.463   7.951  10.399 -0.7603  1.4158 -4.9607
34273SOL     OW 5135   1.333   0.105   9.809  0.2004  0.5805  0.0337
34273SOL    HW1 5136   1.257   0.148   9.769  0.7595  2.1298  0.5691
34273SOL    HW2 5137   1.407   0.160   9.785  1.0858 -0.5924  0.0063
34274SOL     OW 5138   9.543  10.163   0.147  0.5259  0.3152 -0.3516
34274SOL    HW1 5139   9.626  10.201   0.177 -0.7468  2.3597  0.8564
34274SOL    HW2 5140   9.493  10.238   0.114 -0.7583 -0.9107 -1.2974
34275SOL     OW 5141   0.620   2.550  10.393 -0.2928 -0.3502 -0.3205
34275SOL    HW1 5142   0.663   2.474  10.353 -1.4967 -0.9758 -0.4727
34275SOL    HW2 5143   0.530   2.546  10.361 -1.1888 -0.6026  2.0186
34276SOL     OW 5144   0.823   1.250   9.063 -0.2689  0.2876  0.3107
34276SOL    HW1 5145   0.758   1.279   9.127 -1.7602 -0.4198 -0.8164
34276SOL    HW2 5146   0.845   1.161   9.088  0.4376  0.5925  0.8029
34277SOL     OW 5147   9.111   4.333   5.275  0.0826 -0.0084  0.1641
34277SOL    HW1 5148   9.148   4.358   5.190 -0.1003 -3.0621 -0.9220
34277SOL    HW2 5149   9.187   4.324   5.332  0.2046  2.1191  0.4423
34278SOL     OW 5150   4.964   7.611   2.025 -0.0022 -0.5450 -0.0963
34278SOL    HW1 5151   5.014   7.684   2.060 -0.3757 -0.2531 -0.1694
34278SOL    HW2 5152   4.987   7.609   1.932 -2.1320  1.2706 -0.7265
34279SOL     OW 5153   4.747   6.274   5.200  0.2756 -0.2199 -0.4166
34279SOL    HW1 5154   4.690   6.344   5.169  0.0521 -0.1944  0.0502
34279SOL    HW2 5155   4.730   6.268   5.293  0.0181 -1.1563 -0.5171
34280SOL     OW 5156   7.273   1.286   8.988  0.2704 -0.5935 -0.4767
34280SOL    HW1 5157   7.345   1.332   8.944  0.6202 -0.1867  0.4859
34280SOL    HW2 5158   7.236   1.229   8.921  0.1730  0.6937 -1.5595
34281SOL     OW 5159  10.548   9.363   0.915  0.1997 -0.8068  0.1668
34281SOL    HW1 5160  10.587   9.440   0.958 -0.7675 -1.5539  2.5455
34281SOL    HW2 5161  10.619   9.299   0.913  0.7950 -0.1471 -1.1533
34282SOL     OW 5162  10.457   2.443   8.388  0.0586  0.3393 -0.2796
34282SOL    HW1 5163  10.397   2.374   8.362  0.7895 -0.1656 -0.6401
34282SOL    HW2 5164  10.456   2.441   8.484  1.5473 -1.5032 -0.2426
34283SOL     OW 5165   4.114   4.634  10.575 -0.0047  0.2442  0.0084
34283SOL    HW1 5166   4.091   4.686  10.653 -0.3234  0.2667 -0.0965
34283SOL    HW2 5167   4.181   4.685  10.531  0.8223 -0.1945  0.7349
34284SOL     OW 5168   5.319   2.725   3.063 -0.5212 -0.1539  0.0543
34284SOL    HW1 5169   5.409   2.744   3.036 -1.4841  0.2497 -3.3907
34284SOL    HW2 5170   5.267   2.794   3.022 -2.2866  1.1023  3.9933
34285SOL     OW 5171   7.763   4.136   7.157  0.7390 -0.1858 -0.0665
34285SOL    HW1 5172   7.682   4.093   7.182 -0.0342  0.3187 -1.6004
34285SOL    HW2 5173   7.802   4.078   7.091  1.3797 -0.1655  0.2784
34286SOL     OW 5174   6.394   4.127   1.523 -0.6008 -0.2549  0.3262
34286SOL    HW1 5175   6.364   4.138   1.433 -4.6735  0.1773  1.5215
34286SOL    HW2 5176   6.432   4.039   1.525  0.3741  0.0602 -1.9348
34287SOL     OW 5177   5.275  10.406   4.910 -0.5259 -0.3619  0.8383
34287SOL    HW1 5178   5.249  10.316   4.889  1.6861 -1.0333  0.6895
34287SOL    HW2 5179   5.363  10.415   4.873  0.0208  1.2991  2.3698
34288SOL     OW 5180   6.278   5.162   2.107 -0.1867 -0.0922  0.1675
34288SOL    HW1 5181   6.328   5.158   2.025  3.0984  1.3019  1.9282
34288SOL    HW2 5182   6.214   5.232   2.092  0.4579  0.2435 -1.1844
34289SOL     OW 5183   7.728   8.142   4.682 -0.1862 -0.4200 -0.1872
34289SOL    HW1 5184   7.782   8.106   4.752  0.4036 -2.3805 -1.5618
34289SOL    HW2 5185   7.788   8.147   4.606 -0.0929  3.9364 -0.0726
34290SOL     OW 5186   6.425   4.347   4.263 -0.2523  0.3413  0.4665
34290SOL    HW1 5187   6.484   4.316   4.331  0.5601 -2.5108 -1.3730
34290SOL    HW2 5188   6.477   4.408   4.210 -0.5382  1.6377  1.6048
34291SOL     OW 5189   8.881   1.769   0.256  0.3725 -0.3500 -0.5623
34291SOL    HW1 5190   8.910   1.706   0.322 -0.4730  1.4118  1.6174
34291SOL    HW2 5191   8.961   1.792   0.209  1.3862 -0.2781  1.1085
34292SOL     OW 5192   9.606   3.337   2.990  0.0477  0.0419 -0.2304
34292SOL    HW1 5193   9.518   3.364   2.967  0.1134 -0.6311 -1.3306
34292SOL    HW2 5194   9.647   3.313   2.907  0.4179 -2.1487  0.5245
34293SOL     OW 5195   0.237   3.417   5.303  0.4221 -0.0543 -0.1534
34293SOL    HW1 5196   0.289   3.375   5.371  1.3347  0.4460 -0.5193
34293SOL    HW2 5197   0.274   3.384   5.221  2.8391  3.2082 -0.5553
34294SOL     OW 5198   1.022   9.461   1.635 -0.3710  0.3202 -0.3427
34294SOL    HW1 5199   0.984   9.541   1.671  0.8262  0.9173 -0.3431
34294SOL    HW2 5200   1.091   9.438   1.697  3.6742  2.9176 -3.3713
34295SOL     OW 5201   6.274   1.017   5.466  0.2794  0.0156  0.6053
34295SOL    HW1 5202   6.310   1.101   5.494  1.5601 -0.7618  1.3989
34295SOL    HW2 5203   6.200   1.040   5.410 -0.3004  1.6623  1.9568
34296SOL     OW 5204   1.134   3.186   2.059 -0.3949  0.4701 -0.2882
34296SOL    HW1 5205   1.054   3.139   2.081  0.8463 -1.0674  1.2787
34296SOL    HW2 5206   1.151   3.163   1.968 -1.1481 -0.0983 -0.2979
34297SOL     OW 5207   7.533   0.891  10.003 -0.0932 -0.2675 -0.6612
34297SOL    HW1 5208   7.615   0.867   9.961  0.0643  1.0433 -1.1433
34297SOL    HW2 5209   7.556   0.903  10.095 -0.4275 -3.0754 -0.1229
34298SOL     OW 5210   8.669   2.439   6.937 -0.0147 -0.1074  0.2456
34298SOL    HW1 5211   8.716   2.505   6.886  2.7280 -1.4381  0.8996
34298SOL    HW2 5212   8.587   2.426   6.889  0.5041  1.8574 -1.3162
34299SOL     OW 5213   8.102   1.163   6.841  0.2455 -0.0585 -0.0553
34299SOL    HW1 5214   8.154   1.141   6.919 -0.4069  0.1692  0.4569
34299SOL    HW2 5215   8.134   1.104   6.773  0.4894 -0.6048  0.5224
34300SOL     OW 5216   9.304   9.626   5.089 -0.1730  0.3181 -0.0484
34300SOL    HW1 5217   9.249   9.668   5.155 -0.1087  1.3084 -0.6046
34300SOL    HW2 5218   9.243   9.597   5.022 -0.0743  0.8801 -0.3819
34301SOL     OW 5219   1.689   2.701   1.757 -0.0698 -0.1762 -0.2692
34301SOL    HW1 5220   1.715   2.682   1.667  3.0760  0.6257  0.3538
34301SOL    HW2 5221   1.692   2.797   1.763 -0.1756 -0.2206  0.7121
34302SOL     OW 5222   6.958   7.894   2.708  0.5301  0.0761 -0.4736
34302SOL    HW1 5223   6.954   7.957   2.780 -2.7360 -1.2051  0.6360
34302SOL    HW2 5224   6.997   7.815   2.746 -2.4436 -1.0770  0.4678
34303SOL     OW 5225   8.914   2.268   7.819 -0.0249  0.5668 -0.1606
34303SOL    HW1 5226   8.976   2.326   7.863  0.6761  1.3308 -2.0599
34303SOL    HW2 5227   8.847   2.327   7.783  0.1566  0.1053 -1.2740
34304SOL     OW 5228   6.618   0.018   7.204  0.4296 -0.1979 -0.3577
34304SOL    HW1 5229   6.683   0.085   7.185 -0.3301  0.3656 -1.0087
34304SOL    HW2 5230   6.582  -0.005   7.118  2.4093 -3.2676 -0.5255
34305SOL     OW 5231   9.696   9.158   8.549  0.4974  0.2191 -0.5704
34305SOL    HW1 5232   9.777   9.207   8.532  0.8413 -0.3055 -0.4937
34305SOL    HW2 5233   9.676   9.178   8.641 -0.6889  2.0860 -1.1725
34306SOL     OW 5234   5.091   5.764   9.183 -0.1253 -0.6367  0.3563
34306SOL    HW1 5235   5.158   5.704   9.151 -0.9927 -0.6442 -1.5471
34306SOL    HW2 5236   5.011   5.735   9.140 -0.7667  1.2300  0.2373
34307SOL     OW 5237   0.451   4.523   3.627  0.2185 -0.4012  0.5583
34307SOL    HW1 5238   0.453   4.504   3.721  2.0382  1.2370  0.9125
34307SOL    HW2 5239   0.445   4.618   3.622 -1.2361 -0.5348 -1.0348
34308SOL     OW 5240   2.252   0.119   4.023 -0.3988 -0.1067  0.2053
34308SOL    HW1 5241   2.172   0.119   4.075 -0.8388  0.4604 -0.4600
34308SOL    HW2 5242   2.291   0.205   4.039 -1.0194  0.4439 -1.1122
34309SOL     OW 5243   9.771   0.580   1.877 -0.1363 -0.1628 -1.0852
34309SOL    HW1 5244   9.685   0.556   1.912  0.5706  0.3698  1.1582
34309SOL    HW2 5245   9.822   0.606   1.953  2.2569 -1.0649 -2.2809
34310SOL     OW 5246   5.811   3.672   9.403 -0.3709  0.6384 -0.2099
34310SOL    HW1 5247   5.871   3.600   9.384 -0.0359  0.6765  0.6291
34310SOL    HW2 5248   5.726   3.629   9.415 -0.1530  0.3613  0.3926
34311SOL     OW 5249   9.532   3.152   3.270 -0.5889 -0.0836 -0.0014
34311SOL    HW1 5250   9.522   3.087   3.340 -0.7537 -0.9611 -0.8281
34311SOL    HW2 5251   9.449   3.148   3.222  0.1407 -0.6423 -1.2265
34312SOL     OW 5252   0.706   9.560   5.614  0.3496  0.2340 -0.5596
34312SOL    HW1 5253   0.656   9.576   5.534 -0.7466 -0.0306  0.0677
34312SOL    HW2 5254   0.752   9.643   5.630 -1.3022  1.1035 -0.1550
34313SOL     OW 5255   9.238   1.634   5.390 -0.0435  0.0599  0.0729
34313SOL    HW1 5256   9.288   1.622   5.309 -0.5578 -0.8151 -0.1278
34313SOL    HW2 5257   9.287   1.701   5.438  0.5930  0.1722 -0.6983
34314SOL     OW 5258   3.706   8.052   0.563  0.4289  0.0277  0.5333
34314SOL    HW1 5259   3.662   8.136   0.574 -1.1950 -0.6786 -0.3556
34314SOL    HW2 5260   3.731   8.027   0.652  1.2487  1.5721  0.7837
34315SOL     OW 5261   9.438   6.277   4.154 -0.3790  0.2523 -0.1154
34315SOL    HW1 5262   9.358   6.312   4.112  1.0548  0.5814 -2.8122
34315SOL    HW2 5263   9.442   6.186   4.125 -1.0037 -0.5421  2.0821
34316SOL     OW 5264   4.463  10.589   1.113  0.2959 -1.0741 -0.2031
34316SOL    HW1 5265   4.527  10.600   1.042 -0.6187 -2.9125 -1.3950
34316SOL    HW2 5266   4.414  10.671   1.112  2.3184  0.2332  0.4897
34317SOL     OW 5267   9.979   3.940   4.225 -0.1775  0.1528 -0.6370
34317SOL    HW1 5268  10.043   3.916   4.292  0.7403  0.1804 -1.4862
34317SOL    HW2 5269  10.000   3.884   4.150 -0.9200  0.4185 -1.0550
34318SOL     OW 5270   3.564   8.720   3.301  0.6287 -0.0859  0.1165
34318SOL    HW1 5271   3.627   8.712   3.230 -1.5970 -1.0739 -1.8624
34318SOL    HW2 5272   3.559   8.632   3.339  0.7905  0.1118  0.6123
34319SOL     OW 5273   0.822   2.870   1.380  0.3209  0.6409  0.1520
34319SOL    HW1 5274   0.864   2.889   1.464 -1.1152  1.4060  0.7318
34319SOL    HW2 5275   0.757   2.803   1.401 -0.5997  1.4208 -0.1871
34320SOL     OW 5276   2.496   7.037  10.373  0.2098  0.7000 -0.1288
34320SOL    HW1 5277   2.437   7.073  10.307 -0.0384  2.3046  0.9258
34320SOL    HW2 5278   2.538   6.963  10.329 -0.2293  1.4745 -1.9615
34321SOL     OW 5279   8.641   5.527   5.312  0.8981 -0.1927  0.2320
34321SOL    HW1 5280   8.633   5.551   5.220 -2.3177  0.2037  0.5045
34321SOL    HW2 5281   8.612   5.436   5.315  1.4076 -0.3400  0.8098
34322SOL     OW 5282   3.877   9.337   7.928 -1.1458 -0.6748 -0.1393
34322SOL    HW1 5283   3.860   9.310   7.837 -1.4351 -1.1138  0.0375
34322SOL    HW2 5284   3.890   9.431   7.923  1.4352 -0.9921 -1.0175
34323SOL     OW 5285   9.228   0.243   2.751  0.7583  0.3363  0.7393
34323SOL    HW1 5286   9.257   0.309   2.689  0.9236  0.0750  0.5388
34323SOL    HW2 5287   9.240   0.284   2.837 -0.1126  0.9587  0.5798
34324SOL     OW 5288   0.098   6.203   3.662 -0.1531 -0.2426  0.8850
34324SOL    HW1 5289   0.077   6.216   3.755 -0.3538 -1.9372  1.1192
34324SOL    HW2 5290   0.051   6.122   3.639 -0.1597  0.1937 -0.7131
34325SOL     OW 5291   2.286   9.336   4.716 -0.1199 -0.7868 -0.2974
34325SOL    HW1 5292   2.359   9.396   4.705 -1.4851  1.0025 -0.0691
34325SOL    HW2 5293   2.325   9.257   4.753  1.5477  0.4579  0.7248
34326SOL     OW 5294   8.641   1.944   8.729  0.3159  0.0039  0.0520
34326SOL    HW1 5295   8.614   2.026   8.689 -1.5158  0.7717  2.5812
34326SOL    HW2 5296   8.606   1.876   8.672 -0.2925  0.9814 -0.7714
34327SOL     OW 5297   4.200   9.959   4.275 -0.0745  0.0824 -0.0866
34327SOL    HW1 5298   4.204   9.941   4.181  1.0155 -0.3887  0.0440
34327SOL    HW2 5299   4.147  10.039   4.281  0.0708  0.2717 -1.1189
34328SOL     OW 5300   7.224   2.665   3.473 -0.0854  0.2250  0.8253
34328SOL    HW1 5301   7.270   2.746   3.495 -0.6321  0.4020  1.3545
34328SOL    HW2 5302   7.132   2.688   3.480 -0.3049  0.1784 -1.3023
34329SOL     OW 5303   6.473   1.817   9.478 -0.2013  0.1776 -0.2886
34329SOL    HW1 5304   6.409   1.783   9.540  0.0036  0.7161  0.2260
34329SOL    HW2 5305   6.464   1.912   9.484 -0.3001  0.2424 -1.2101
34330SOL     OW 5306   2.703   9.655   7.690 -0.2153  0.2946 -0.1154
34330SOL    HW1 5307   2.669   9.598   7.621 -1.0340  0.8397 -0.1734
34330SOL    HW2 5308   2.651   9.735   7.684  1.4114  1.3909 -0.5432
34331SOL     OW 5309  10.429   1.743   3.371  0.0470  0.0410  0.6404
34331SOL    HW1 5310  10.368   1.814   3.352 -0.1857  0.0535  1.3962
34331SOL    HW2 5311  10.516   1.785   3.369  0.1530 -0.2030 -1.5358
34332SOL     OW 5312   7.996   7.836   2.447 -0.2586 -0.4483 -0.0220
34332SOL    HW1 5313   7.990   7.904   2.380  0.3764 -1.6161 -1.3117
34332SOL    HW2 5314   7.914   7.787   2.438 -0.9169  0.3669  1.2056
34333SOL     OW 5315   0.416   0.866   2.288  0.2274 -0.4694  0.3699
34333SOL    HW1 5316   0.409   0.922   2.365  0.8623 -0.0490  0.1271
34333SOL    HW2 5317   0.363   0.911   2.221  1.8309  0.6086 -0.2495
34334SOL     OW 5318   6.585   7.733   1.737 -0.1535  0.1360  0.1111
34334SOL    HW1 5319   6.587   7.646   1.777  1.3148 -0.4669 -1.1836
34334SOL    HW2 5320   6.630   7.789   1.800  1.6922 -0.7014 -0.4087
34335SOL     OW 5321   1.417   2.824   6.177  0.2037  0.0322 -0.0022
34335SOL    HW1 5322   1.425   2.913   6.213 -0.0998  0.7848 -1.6916
34335SOL    HW2 5323   1.348   2.831   6.111  0.8281 -1.2316 -0.8252
34336SOL     OW 5324   8.271   7.347   6.017 -0.4764 -0.1254  0.0156
34336SOL    HW1 5325   8.192   7.329   5.966 -0.4729  1.0654 -0.4245
34336SOL    HW2 5326   8.239   7.385   6.098 -0.4618 -1.7297  0.8246
34337SOL     OW 5327   8.551   0.362   9.685  0.1239  0.4352 -0.2353
34337SOL    HW1 5328   8.614   0.428   9.716  0.4644  0.3111 -0.6549
34337SOL    HW2 5329   8.468   0.388   9.725  0.4935  0.4540  0.5272
34338SOL     OW 5330   6.536   1.426   8.496  0.4435  0.2230  0.3526
34338SOL    HW1 5331   6.528   1.477   8.415  2.0781  0.2350  0.1728
34338SOL    HW2 5332   6.487   1.345   8.478 -1.8613  1.4882  0.5090
34339SOL     OW 5333   3.672   5.060   1.441  0.2564 -0.4033  0.3372
34339SOL    HW1 5334   3.705   5.007   1.369  0.0499 -0.1753  0.0749
34339SOL    HW2 5335   3.596   5.011   1.474  0.6016 -0.7166  0.6705
34340SOL     OW 5336   4.550   4.111   0.480 -1.0896 -0.4595 -0.0827
34340SOL    HW1 5337   4.640   4.096   0.450 -1.0057  1.0996 -0.6851
34340SOL    HW2 5338   4.554   4.191   0.532 -2.2435  0.0243 -0.6962
34341SOL     OW 5339   9.808   1.466   3.542 -0.0343 -0.0855 -0.2575
34341SOL    HW1 5340   9.854   1.383   3.552 -0.3576 -0.3488 -0.9229
34341SOL    HW2 5341   9.739   1.448   3.479 -0.3386  0.5980 -0.1287
34342SOL     OW 5342   0.336   0.769   2.919  0.2953 -0.1968  0.4395
34342SOL    HW1 5343   0.368   0.759   3.009 -2.2925  0.5388  1.5301
34342SOL    HW2 5344   0.370   0.855   2.892 -0.1107  0.2382  1.2692
34343SOL     OW 5345   6.071   4.080  10.482  0.2189 -0.6987 -0.1405
34343SOL    HW1 5346   6.044   4.093  10.391 -2.1592 -0.6648  0.5019
34343SOL    HW2 5347   6.063   4.166  10.522 -0.2193 -1.0083  0.4447
34344SOL     OW 5348   2.658   5.789   5.828 -0.3529  0.0122 -0.7445
34344SOL    HW1 5349   2.751   5.806   5.819 -0.4508  0.8184 -0.3070
34344SOL    HW2 5350   2.649   5.695   5.810  0.4600  0.0382 -1.3417
34345SOL     OW 5351   0.732   7.200   2.991 -0.3247  0.3994  0.1331
34345SOL    HW1 5352   0.754   7.213   3.083  0.1806 -1.0996  0.2479
34345SOL    HW2 5353   0.667   7.268   2.972 -3.6980 -1.7556  2.7578
34346SOL     OW 5354   9.050   0.418   1.167 -0.3903  0.0044  0.7227
34346SOL    HW1 5355   9.028   0.430   1.075 -2.3796 -0.5881  1.0625
34346SOL    HW2 5356   9.090   0.501   1.193 -1.9201  1.0771 -0.1483
34347SOL     OW 5357   2.485   7.821   8.035 -0.1137 -0.2193  0.5816
34347SOL    HW1 5358   2.451   7.904   8.001  1.2372  0.3044  0.4318
34347SOL    HW2 5359   2.554   7.796   7.973 -1.3541 -2.1622 -0.1163
34348SOL     OW 5360   7.510   4.844  10.350  0.6689  0.3534  0.2069
34348SOL    HW1 5361   7.494   4.906  10.279 -1.6094 -0.5581 -0.1536
34348SOL    HW2 5362   7.586   4.793  10.321  0.2957  0.5577 -1.1863
34349SOL     OW 5363   0.470   4.157   3.178  0.4453 -0.3781 -0.7460
34349SOL    HW1 5364   0.456   4.252   3.173 -0.9183 -0.5012  0.1686
34349SOL    HW2 5365   0.555   4.143   3.137  1.2183  1.3917  0.1691
34350SOL     OW 5366  10.200   4.831   1.466  0.2733  0.6957 -0.2473
34350SOL    HW1 5367  10.129   4.767   1.458 -0.6813  1.5314  1.0534
34350SOL    HW2 5368  10.214   4.839   1.561  2.3572  0.3180 -0.4778
34351SOL     OW 5369   8.016   7.313   7.670 -0.2168  0.0630  0.0046
34351SOL    HW1 5370   8.037   7.248   7.603 -1.4436  1.5092 -1.8942
34351SOL    HW2 5371   8.088   7.375   7.666 -0.0731 -0.0762  0.3630
34352SOL     OW 5372   2.081   1.532   0.986  0.4628 -0.4926  0.1191
34352SOL    HW1 5373   1.989   1.508   0.980  0.4288 -0.4213  0.3393
34352SOL    HW2 5374   2.114   1.524   0.897  0.0573  0.2228 -0.1002
34353SOL     OW 5375   0.041   8.135   1.521 -0.3520  0.2986  0.1571
34353SOL    HW1 5376   0.106   8.081   1.476 -0.2507  0.4978  0.0638
34353SOL    HW2 5377   0.086   8.167   1.599 -0.7580 -0.6479  0.7990
34354SOL     OW 5378   8.093   7.233   9.499  0.4108  0.2509  0.1212
34354SOL    HW1 5379   8.086   7.306   9.438 -1.7802 -0.0405 -0.0624
34354SOL    HW2 5380   8.028   7.169   9.467 -0.7627  0.0642  2.6543
34355SOL     OW 5381   9.295   1.995  10.449  0.8541  0.3544  0.2244
34355SOL    HW1 5382   9.199   1.989  10.454  0.7232 -0.6090 -2.1007
34355SOL    HW2 5383   9.314   2.086  10.472 -0.2936 -0.1055  3.5802
34356SOL     OW 5384   4.982   0.656   3.142 -1.3571 -0.6482 -0.0451
34356SOL    HW1 5385   4.961   0.623   3.055 -1.8498 -0.0997 -0.1434
34356SOL    HW2 5386   5.042   0.592   3.179  0.3536  0.0199 -1.5058
34357SOL     OW 5387   5.862   4.664   9.933 -0.0908 -0.2014  0.0830
34357SOL    HW1 5388   5.909   4.704  10.007 -1.1607 -0.2651  0.8085
34357SOL    HW2 5389   5.834   4.579   9.966  1.6546 -1.3736 -1.2557
34358SOL     OW 5390   4.469   3.617   1.197 -0.1134  0.3737 -0.1509
34358SOL    HW1 5391   4.502   3.669   1.270 -0.6749  3.6621 -2.0445
34358SOL    HW2 5392   4.374   3.629   1.200 -0.2096 -0.1127 -0.9342
34359SOL     OW 5393   9.139   1.536   8.844 -0.6397  0.1638 -0.4395
34359SOL    HW1 5394   9.146   1.619   8.797 -0.0250 -0.0863 -0.8060
34359SOL    HW2 5395   9.221   1.491   8.826 -1.1714 -0.7500 -0.6843
34360SOL     OW 5396   4.003   7.431   5.230  0.0870 -0.3266 -0.4467
34360SOL    HW1 5397   3.970   7.407   5.144  1.3779  0.3990 -1.1938
34360SOL    HW2 5398   4.035   7.521   5.219  1.7307 -0.7627  0.3270
34361SOL     OW 5399   4.196   5.965   4.359  0.0716 -0.1796 -0.0206
34361SOL    HW1 5400   4.260   6.010   4.303 -1.5171  2.2338 -0.0869
34361SOL    HW2 5401   4.156   5.900   4.302  1.0227 -0.2911 -0.5836
34362SOL     OW 5402   4.244   3.317   5.435  0.0252  0.0191  0.1458
34362SOL    HW1 5403   4.217   3.227   5.415  1.4170 -0.4329  0.1972
34362SOL    HW2 5404   4.306   3.308   5.507 -0.5082  1.1192  0.7672
34363SOL     OW 5405   1.715   3.967   8.128 -0.1813  0.5370 -0.7029
34363SOL    HW1 5406   1.739   4.059   8.144  1.0594  0.0223  0.6652
34363SOL    HW2 5407   1.777   3.937   8.062 -1.0152  0.8425 -1.6447
34364SOL     OW 5408   7.350   2.125   4.573 -0.0584  0.5309 -0.2562
34364SOL    HW1 5409   7.340   2.150   4.481 -0.2440  0.1846 -0.3329
34364SOL    HW2 5410   7.262   2.101   4.601  0.2162 -0.6672 -0.3728
34365SOL     OW 5411   6.507   1.184   3.086  0.4003 -0.5993  0.0642
34365SOL    HW1 5412   6.458   1.260   3.115  0.8192 -1.1514  2.4482
34365SOL    HW2 5413   6.450   1.110   3.105  0.6557 -0.9880 -0.6640
34366SOL     OW 5414   8.313   1.137   0.037  0.1813 -0.0730 -0.3783
34366SOL    HW1 5415   8.257   1.158   0.112  1.0432  1.3285 -0.0895
34366SOL    HW2 5416   8.357   1.056   0.062  1.7883  1.2918  1.4357
34367SOL     OW 5417   8.380   2.202   6.519  0.1937 -0.0236  0.8478
34367SOL    HW1 5418   8.347   2.113   6.535  0.7653 -0.5957 -0.9190
34367SOL    HW2 5419   8.421   2.197   6.433  2.4701  1.3433  1.7676
34368SOL     OW 5420   4.720   9.283   7.962  0.3671  0.0138  0.2351
34368SOL    HW1 5421   4.625   9.270   7.963  0.5698 -1.8667 -0.5969
34368SOL    HW2 5422   4.748   9.264   8.052 -0.1275  1.8209  0.8260
34369SOL     OW 5423   4.312   4.897   3.622 -0.4900 -0.3132 -0.6850
34369SOL    HW1 5424   4.320   4.970   3.682 -3.2628 -0.0716 -0.4498
34369SOL    HW2 5425   4.271   4.934   3.544 -2.5867 -1.6392 -0.3034
34370SOL     OW 5426   7.663   8.923   3.115 -0.0248  0.1025 -0.0543
34370SOL    HW1 5427   7.654   8.842   3.065  2.6931  1.0020 -2.2774
34370SOL    HW2 5428   7.672   8.895   3.206 -0.0092 -2.0044 -0.6631
34371SOL     OW 5429   1.950   2.663   0.819  0.9904 -0.0915  0.4487
34371SOL    HW1 5430   1.919   2.744   0.860  1.6148  0.9574 -1.0385
34371SOL    HW2 5431   2.040   2.652   0.851  0.8024 -0.3797  0.8878
34372SOL     OW 5432   0.761   2.799   0.784  0.3948  0.2575 -0.1717
34372SOL    HW1 5433   0.695   2.731   0.768  0.2502 -0.1626  2.0207
34372SOL    HW2 5434   0.836   2.752   0.819  0.8226  1.0759  0.0192
34373SOL     OW 5435   8.969   2.859   2.052  0.5683 -0.3635  0.2183
34373SOL    HW1 5436   8.891   2.894   2.096 -0.2610 -1.8795  0.0228
34373SOL    HW2 5437   8.983   2.774   2.092  1.9817 -0.2289  0.0429
34374SOL     OW 5438   9.406   1.452   4.061  0.0548 -0.2840 -0.0258
34374SOL    HW1 5439   9.335   1.390   4.046  1.6730 -1.9759 -1.1878
34374SOL    HW2 5440   9.390   1.524   4.000 -0.0832 -1.1776 -1.0643
34375SOL     OW 5441   1.724   1.349   5.043 -0.0640  0.3587 -0.1310
34375SOL    HW1 5442   1.785   1.281   5.073  0.7586  1.0806 -0.1523
34375SOL    HW2 5443   1.737   1.422   5.103 -0.7140  0.6246 -0.3049
34376SOL     OW 5444   3.438   7.225   4.967 -0.1283 -0.3019 -0.2974
34376SOL    HW1 5445   3.458   7.133   4.982  0.6708 -0.2328 -0.8950
34376SOL    HW2 5446   3.437   7.264   5.055 -0.2611 -0.8363 -0.0593
34377SOL     OW 5447   7.112   8.001   7.775 -0.2293  0.3097  0.3301
34377SOL    HW1 5448   7.138   8.086   7.810 -1.6205  0.3575  1.3439
34377SOL    HW2 5449   7.151   7.997   7.687  2.3201  0.7156  1.3655
34378SOL     OW 5450   5.418   5.149   9.626 -0.7291  0.1641  0.2607
34378SOL    HW1 5451   5.476   5.217   9.660 -0.7426 -1.8225  5.1159
34378SOL    HW2 5452   5.475   5.072   9.617 -1.3932 -0.1474 -1.6199
34379SOL     OW 5453   6.619   1.290   1.286 -0.2042 -0.1143 -0.2433
34379SOL    HW1 5454   6.593   1.319   1.199 -0.5701 -1.0498 -0.4568
34379SOL    HW2 5455   6.559   1.335   1.345 -0.2284  0.2002 -0.5048
34380SOL     OW 5456   7.561   7.724   4.820 -0.0460  0.0716 -0.1944
34380SOL    HW1 5457   7.547   7.649   4.764  0.1298  0.4222 -0.7130
34380SOL    HW2 5458   7.482   7.778   4.808 -0.4052 -0.2659  0.5647
34381SOL     OW 5459   7.818   3.268   5.977 -0.7947 -0.3769  0.0754
34381SOL    HW1 5460   7.831   3.176   5.953 -1.8046 -0.7886  0.9785
34381SOL    HW2 5461   7.760   3.264   6.054  1.8983  0.8356  2.3597
34382SOL     OW 5462   2.713   6.435   5.058  0.0883 -0.2115 -0.4496
34382SOL    HW1 5463   2.687   6.516   5.014  0.7497  0.5198  0.4686
34382SOL    HW2 5464   2.654   6.427   5.132 -0.0898 -0.6687 -0.6376
34383SOL     OW 5465   5.919   9.321   0.307 -0.1966  0.4281  0.0117
34383SOL    HW1 5466   5.908   9.409   0.342 -2.6378  0.6372 -1.0545
34383SOL    HW2 5467   5.988   9.329   0.242 -0.7741  1.6996 -0.4709
34384SOL     OW 5468   1.721   6.644   4.349 -0.0624  0.4307  0.3684
34384SOL    HW1 5469   1.640   6.683   4.317 -0.4124  0.1210  0.8611
34384SOL    HW2 5470   1.777   6.637   4.272 -0.5476  0.5493  0.0059
34385SOL     OW 5471   3.107   0.614   9.046  0.4915 -0.0386  0.1455
34385SOL    HW1 5472   3.077   0.703   9.067 -1.1804 -0.5221  0.0115
34385SOL    HW2 5473   3.138   0.619   8.956  2.0341  0.7502  0.6840
34386SOL     OW 5474   0.363   3.450   8.238  0.3961 -0.4490 -0.1624
34386SOL    HW1 5475   0.449   3.464   8.199  0.0298  2.5677 -0.1107
34386SOL    HW2 5476   0.360   3.509   8.313 -1.8868 -0.1142 -0.4267
34387SOL     OW 5477   9.011   6.347   4.845  0.4906  0.4766  0.0348
34387SOL    HW1 5478   9.034   6.255   4.831  0.6991  0.5377 -0.0234
34387SOL    HW2 5479   8.924   6.344   4.886  0.4716  0.2563 -0.0219
34388SOL     OW 5480   6.078   7.544   6.419 -0.0703  0.3103 -0.9386
34388SOL    HW1 5481   6.005   7.581   6.469 -0.0317 -1.3513  0.4512
34388SOL    HW2 5482   6.108   7.616   6.363 -0.2704  2.2055  1.2532
34389SOL     OW 5483   4.919   3.091   2.271  0.4151  0.3650 -0.3123
34389SOL    HW1 5484   4.933   3.104   2.365  2.5603  0.1894 -0.5705
34389SOL    HW2 5485   4.933   3.178   2.233  2.6823 -0.1518 -0.7628
34390SOL     OW 5486   3.258   9.059   9.313 -0.2014 -0.2761 -0.2594
34390SOL    HW1 5487   3.339   9.109   9.307 -1.1412  1.2936 -0.4803
34390SOL    HW2 5488   3.279   8.974   9.273  1.8724 -0.6916  1.5281
34391SOL     OW 5489   8.085   6.840   1.599 -0.1450  0.4346  0.4720
34391SOL    HW1 5490   7.997   6.807   1.579 -0.4277  0.4353  1.6436
34391SOL    HW2 5491   8.076   6.882   1.685  0.9318  0.7336  0.4570
34392SOL     OW 5492   5.873   3.448   4.893  0.1948  0.1410 -0.2454
34392SOL    HW1 5493   5.781   3.442   4.919 -0.4202  2.1111 -1.6879
34392SOL    HW2 5494   5.877   3.526   4.837  2.6051 -0.3320 -0.8536
34393SOL     OW 5495   4.807   1.647   6.245  0.2732 -0.5331 -0.2377
34393SOL    HW1 5496   4.856   1.565   6.245 -1.0687 -1.3861 -1.5927
34393SOL    HW2 5497   4.722   1.624   6.283 -0.4890 -0.0321 -1.5967
34394SOL     OW 5498   9.472   8.588   3.605 -0.3172 -0.0180  0.0591
34394SOL    HW1 5499   9.519   8.593   3.521 -1.7845 -0.3808 -0.8296
34394SOL    HW2 5500   9.528   8.636   3.667 -0.5217  2.8226 -1.7486
34395SOL     OW 5501   9.949   5.874   9.810 -0.0756 -0.6293 -0.6130
34395SOL    HW1 5502   9.971   5.841   9.897  0.8214  0.8584 -0.2396
34395SOL    HW2 5503   9.863   5.837   9.791  0.4539 -2.3542  0.1603
34396SOL     OW 5504   7.718   7.835   7.540  0.2228 -0.4531 -0.3084
34396SOL    HW1 5505   7.806   7.802   7.559  1.0680  0.9970 -1.4692
34396SOL    HW2 5506   7.666   7.756   7.526  1.6881 -1.3533 -0.9930
34397SOL     OW 5507   8.121   1.922   7.447 -0.1458  0.1799 -0.2628
34397SOL    HW1 5508   8.062   1.984   7.490 -1.1959 -1.1048  0.1851
34397SOL    HW2 5509   8.171   1.883   7.518 -0.2761 -0.2969 -0.4316
34398SOL     OW 5510   5.301   1.453   3.541  0.0041  0.0972  0.2883
34398SOL    HW1 5511   5.319   1.545   3.560  2.6331 -0.3047  0.1795
34398SOL    HW2 5512   5.207   1.443   3.557  0.1085  2.1496  2.9484
34399SOL     OW 5513   3.420   8.248   1.976  0.7190  0.3689  0.4926
34399SOL    HW1 5514   3.328   8.266   1.959  0.7501 -1.4411 -2.0794
34399SOL    HW2 5515   3.422   8.221   2.068 -1.5335 -0.6446  0.3126
34400SOL     OW 5516   9.995   2.508   9.186 -0.4886  0.1500  0.2848
34400SOL    HW1 5517   9.996   2.516   9.090 -0.1346  1.5647  0.3920
34400SOL    HW2 5518  10.081   2.470   9.207 -0.8152 -0.7796  0.0165
34401SOL     OW 5519   4.189   1.104   0.473 -0.0317  0.4885 -0.2415
34401SOL    HW1 5520   4.148   1.061   0.549  0.1787  1.6704  0.5602
34401SOL    HW2 5521   4.243   1.035   0.434 -0.0102 -0.0972  0.7755
34402SOL     OW 5522   7.512   0.163   5.898  0.3533 -0.1611 -0.4632
34402SOL    HW1 5523   7.544   0.245   5.861 -4.0560  2.5803  0.9813
34402SOL    HW2 5524   7.539   0.165   5.989  0.5178 -0.4761 -0.5046
34403SOL     OW 5525   8.954  10.440   2.895  0.3189 -0.1649 -0.2269
34403SOL    HW1 5526   8.968  10.497   2.818 -1.2699  0.9431  0.2678
34403SOL    HW2 5527   8.978  10.495   2.969 -2.9625  0.6086  0.4024
34404SOL     OW 5528   7.287   1.280   2.659 -0.3012  0.4535 -0.5688
34404SOL    HW1 5529   7.325   1.237   2.735  1.7416  0.7376 -1.3628
34404SOL    HW2 5530   7.198   1.302   2.686  0.6659  1.4699  2.1270
34405SOL     OW 5531   8.444   1.577   4.323  0.1408 -0.1123 -0.3773
34405SOL    HW1 5532   8.485   1.662   4.310 -0.1728  0.2710  1.0590
34405SOL    HW2 5533   8.350   1.594   4.321  0.0494 -0.6342 -1.3276
34406SOL     OW 5534   2.092   4.839   2.249  0.4382 -0.1105 -0.2389
34406SOL    HW1 5535   2.068   4.815   2.338  1.2711  0.8254  0.2739
34406SOL    HW2 5536   2.158   4.909   2.260  0.8427 -0.2390 -1.5756
34407SOL     OW 5537   6.450   6.657   0.311  0.0898 -0.6473  0.0362
34407SOL    HW1 5538   6.522   6.646   0.249 -0.5192  1.7302 -1.1858
34407SOL    HW2 5539   6.464   6.744   0.349 -1.0458 -0.9609  1.2664
34408SOL     OW 5540   8.939   3.762   5.345 -0.4172 -0.1123  0.6309
34408SOL    HW1 5541   9.006   3.773   5.413 -1.2068  1.2434  1.2250
34408SOL    HW2 5542   8.988   3.762   5.263  0.2190  2.8536  0.9073
34409SOL     OW 5543   7.788   3.551  10.063  0.0443 -0.1282  0.0464
34409SOL    HW1 5544   7.732   3.491  10.112  0.9314 -1.5232 -0.5612
34409SOL    HW2 5545   7.870   3.502  10.052 -0.1085  0.1246 -2.7733
34410SOL     OW 5546   6.132   4.989   4.584  0.2680  0.2250  0.4464
34410SOL    HW1 5547   6.223   5.009   4.563  1.2794 -3.0860  1.0859
34410SOL    HW2 5548   6.094   4.958   4.502  0.4223 -0.5622  0.6653
34411SOL     OW 5549   4.257   5.074   9.962 -0.1295  0.1236  0.4588
34411SOL    HW1 5550   4.258   5.165   9.932  2.1404  0.5534  1.6582
34411SOL    HW2 5551   4.300   5.025   9.891  0.2995  0.2780  0.6104
34412SOL     OW 5552   9.996   3.731   4.778 -0.3427 -0.2226 -0.4839
34412SOL    HW1 5553  10.020   3.712   4.869 -0.3613  0.1825 -0.3912
34412SOL    HW2 5554  10.025   3.654   4.729  0.2069 -0.1937 -0.2178
34413SOL     OW 5555   0.010   9.091   4.785 -0.6892 -0.4919 -0.1083
34413SOL    HW1 5556   0.034   9.102   4.877  0.8861 -0.5842 -0.4770
34413SOL    HW2 5557  -0.023   9.001   4.780 -0.8968 -0.4486  0.3785
34414SOL     OW 5558   1.141   6.132   6.160 -0.0034  0.1005  0.4402
34414SOL    HW1 5559   1.161   6.070   6.230 -1.3681 -0.1897  0.6147
34414SOL    HW2 5560   1.076   6.191   6.198 -0.8242 -0.1076 -0.5789
34415SOL     OW 5561   2.185   0.494   9.314 -0.4528 -0.4279  0.2295
34415SOL    HW1 5562   2.119   0.542   9.364 -0.4268 -0.8189  0.6470
34415SOL    HW2 5563   2.135   0.427   9.267 -0.4236 -0.3378  0.0686
34416SOL     OW 5564   3.586   2.550   1.536  0.2852 -0.5890  0.0631
34416SOL    HW1 5565   3.628   2.573   1.453  0.4574 -1.2938 -0.0582
34416SOL    HW2 5566   3.656   2.513   1.589  0.5997  1.5968  1.2805
34417SOL     OW 5567   4.651   0.082   0.664  0.1441  0.4006 -0.1510
34417SOL    HW1 5568   4.677  -0.007   0.690  0.0555  0.6602  0.8770
34417SOL    HW2 5569   4.573   0.068   0.610 -0.2973 -0.1258  0.5880
34418SOL     OW 5570   5.180   1.002   7.071  0.2129  0.1403  0.5559
34418SOL    HW1 5571   5.161   0.913   7.043  1.9045  0.1332 -0.7215
34418SOL    HW2 5572   5.159   1.002   7.165 -0.5618 -1.3564  0.4146
34419SOL     OW 5573   2.168   0.412   0.213 -0.2984 -0.4846  0.1738
34419SOL    HW1 5574   2.136   0.412   0.303 -0.9231 -0.5858 -0.0455
34419SOL    HW2 5575   2.181   0.320   0.191  0.3300 -0.4343  0.3257
34420SOL     OW 5576   9.728   3.984   3.830  0.1147 -0.1684 -0.1472
34420SOL    HW1 5577   9.724   4.025   3.916 -0.7008  0.3307 -0.4123
34420SOL    HW2 5578   9.822   3.975   3.812  0.2881 -0.4190  0.8478
34421SOL     OW 5579   0.655   6.291   9.867 -0.1733 -0.5733 -0.0737
34421SOL    HW1 5580   0.682   6.216   9.815  0.2311 -1.2971  1.1458
34421SOL    HW2 5581   0.695   6.366   9.823  0.5274 -1.2082 -0.5474
34422SOL     OW 5582   9.004   8.739   6.240 -0.2946  0.1522  0.4846
34422SOL    HW1 5583   8.939   8.669   6.233  0.1142 -0.2529  0.7277
34422SOL    HW2 5584   9.014   8.754   6.334 -0.4965  0.6462  0.4290
34423SOL     OW 5585   4.165   4.040   2.439 -0.6681 -0.5852  0.3707
34423SOL    HW1 5586   4.175   4.123   2.392 -0.2349 -1.4537 -1.1484
34423SOL    HW2 5587   4.081   4.006   2.410 -0.7711 -0.7466  0.8617
34424SOL     OW 5588   3.797   0.726   6.708 -0.2821  0.3414 -0.4288
34424SOL    HW1 5589   3.718   0.672   6.713  0.1669 -0.2869  0.0125
34424SOL    HW2 5590   3.838   0.701   6.625  0.9790 -1.5358  0.6639
34425SOL     OW 5591   4.077   1.936   3.262 -0.3725  1.1203  0.5177
34425SOL    HW1 5592   4.104   1.880   3.335  0.5653 -0.0543 -0.6705
34425SOL    HW2 5593   3.985   1.954   3.278 -0.3986  0.1524  1.5438
34426SOL     OW 5594  10.506   2.348   3.676  0.4256  0.2066  0.6822
34426SOL    HW1 5595  10.434   2.389   3.724  1.4439  1.5980  1.1119
34426SOL    HW2 5596  10.581   2.355   3.736  0.6603 -2.3971  0.7929
34427SOL     OW 5597  10.530   1.416  10.055  0.1757  0.1104 -0.3433
34427SOL    HW1 5598  10.609   1.470  10.063  0.3279 -0.3960  2.2475
34427SOL    HW2 5599  10.563   1.326  10.051 -0.1967  0.0189 -2.0047
34428SOL     OW 5600   9.606   5.719   6.349  0.2103 -0.0312 -0.1303
34428SOL    HW1 5601   9.635   5.795   6.299 -0.5739 -0.4469 -1.2671
34428SOL    HW2 5602   9.518   5.700   6.316 -0.5959  0.0269  1.8478
34429SOL     OW 5603   0.183   6.745   8.150 -0.1599 -0.2647 -0.3339
34429SOL    HW1 5604   0.188   6.734   8.056 -0.5558 -1.1335 -0.2651
34429SOL    HW2 5605   0.091   6.727   8.171 -0.6909  2.2922 -0.0587
34430SOL     OW 5606   2.294   9.024   8.078  0.1578  0.1488 -0.0510
34430SOL    HW1 5607   2.286   9.072   8.160 -0.4541 -0.4476  0.2507
34430SOL    HW2 5608   2.211   8.977   8.070 -0.3425  1.2222 -1.6732
34431SOL     OW 5609   9.715   1.494   9.683 -0.9296 -0.4008 -0.1155
34431SOL    HW1 5610   9.742   1.445   9.760  0.8429  0.1972 -0.3071
34431SOL    HW2 5611   9.634   1.452   9.655  0.4204 -3.2068 -0.2247
34432SOL     OW 5612   1.344   9.197   9.040  0.6799  0.0082  0.0546
34432SOL    HW1 5613   1.363   9.266   8.977 -0.4631 -1.0122 -1.4883
34432SOL    HW2 5614   1.308   9.125   8.987  0.0747 -1.0602  1.8212
34433SOL     OW 5615   9.914   8.150   4.542  0.1760 -0.4595 -0.0429
34433SOL    HW1 5616   9.882   8.073   4.496 -0.3814  0.6927 -1.6851
34433SOL    HW2 5617   9.835   8.189   4.580  0.3470 -0.2689  0.1175
34434SOL     OW 5618   6.092  10.488   2.777 -0.3358 -0.0688 -0.3692
34434SOL    HW1 5619   6.089  10.576   2.815 -2.3480 -0.2967  0.1283
34434SOL    HW2 5620   6.012  10.446   2.808  0.9780 -2.4137  0.1589
34435SOL     OW 5621   2.695   3.278   9.176  0.0814 -0.1574  0.5007
34435SOL    HW1 5622   2.738   3.209   9.125 -1.8139 -1.3511  0.4174
34435SOL    HW2 5623   2.751   3.289   9.252  0.9010 -1.1584  0.0750
34436SOL     OW 5624   0.043   7.408   7.068 -0.3188 -0.0655  0.6422
34436SOL    HW1 5625   0.002   7.425   6.983  0.9754  0.3206  0.0779
34436SOL    HW2 5626   0.074   7.318   7.062 -0.2525 -0.0482  0.7270
34437SOL     OW 5627   7.960   6.412   0.516  0.7042 -0.5100  0.2606
34437SOL    HW1 5628   8.027   6.466   0.476  2.6158 -2.4055  0.7038
34437SOL    HW2 5629   7.909   6.378   0.442  1.7585 -0.9297 -0.2857
34438SOL     OW 5630   2.033   8.673   7.072  0.2214  0.0670 -0.2002
34438SOL    HW1 5631   2.065   8.731   7.004  1.6035  0.0746  0.4148
34438SOL    HW2 5632   2.096   8.601   7.074  0.2063  0.0623  1.0580
34439SOL     OW 5633   2.941   9.788   3.944 -0.2663 -0.0229  0.4020
34439SOL    HW1 5634   2.916   9.709   3.990  0.3906  0.0846  0.9683
34439SOL    HW2 5635   3.011   9.760   3.885  0.4834  0.2583  1.1368
34440SOL     OW 5636   0.687   7.486   5.791 -0.7313  0.0893 -0.5992
34440SOL    HW1 5637   0.604   7.529   5.810  0.1432  1.1968  0.8926
34440SOL    HW2 5638   0.754   7.548   5.820  0.5821 -1.7016  0.4118
34441SOL     OW 5639   6.572   7.711   7.194  0.3443  0.6094  0.1530
34441SOL    HW1 5640   6.511   7.768   7.146 -0.5580 -1.8619 -1.8494
34441SOL    HW2 5641   6.642   7.693   7.132  2.0458  1.6284  1.6931
34442SOL     OW 5642   8.682   8.339   8.497  0.0989 -0.3176  0.0879
34442SOL    HW1 5643   8.776   8.323   8.507  0.0269 -0.5488  0.4274
34442SOL    HW2 5644   8.668   8.344   8.402  0.6338  0.8517  0.0500
34443SOL     OW 5645   3.362   7.189   9.855 -0.2810  0.2873 -0.2131
34443SOL    HW1 5646   3.373   7.122   9.788  0.0862  1.4693 -1.3795
34443SOL    HW2 5647   3.296   7.154   9.915  0.9260 -1.7135  0.0270
34444SOL     OW 5648   9.043   5.590   6.443 -0.0177 -0.1994 -0.7625
34444SOL    HW1 5649   9.071   5.596   6.535 -0.7425 -1.6417 -0.4255
34444SOL    HW2 5650   9.117   5.550   6.398 -0.3706 -1.2513 -0.4320
34445SOL     OW 5651   8.242   9.745   9.458  0.1634 -0.1877  0.1622
34445SOL    HW1 5652   8.245   9.650   9.471  1.5055  0.0643  2.3041
34445SOL    HW2 5653   8.333   9.769   9.437 -0.2467  0.5949 -0.7852
34446SOL     OW 5654   8.405   3.623   9.201  0.2253 -0.4067  0.7644
34446SOL    HW1 5655   8.468   3.570   9.250  2.0729  1.0506  0.0748
34446SOL    HW2 5656   8.419   3.712   9.232  0.7302  0.4078 -1.5906
34447SOL     OW 5657   2.013   0.181   2.713 -0.2558  0.0713  0.2523
34447SOL    HW1 5658   2.003   0.253   2.650 -0.7016  0.0253  0.2664
34447SOL    HW2 5659   2.011   0.224   2.799  0.5489  0.1552  0.2322
34448SOL     OW 5660   4.421   7.877   6.850  0.4782  0.5739  0.1022
34448SOL    HW1 5661   4.396   7.793   6.888  1.0019  1.6930  3.1244
34448SOL    HW2 5662   4.361   7.940   6.889  0.7578  1.7868 -1.3287
34449SOL     OW 5663   0.088   1.788   6.233 -0.3075  0.1880 -0.2590
34449SOL    HW1 5664   0.017   1.747   6.183 -1.2452 -0.1537  1.2763
34449SOL    HW2 5665   0.071   1.882   6.226 -2.5032  0.0852  2.1503
34450SOL     OW 5666   2.803   1.076   4.320  0.4853 -0.2614 -0.1385
34450SOL    HW1 5667   2.793   1.171   4.317  2.5796  0.0350  0.4814
34450SOL    HW2 5668   2.778   1.046   4.233 -0.0968  0.8611 -0.3794
34451SOL     OW 5669   2.424   2.666   0.055  0.5206 -0.6537  0.1436
34451SOL    HW1 5670   2.381   2.644   0.137 -0.1103  0.1406  0.0475
34451SOL    HW2 5671   2.372   2.622  -0.012 -0.0819  0.1955  0.0378
34452SOL     OW 5672   6.917   1.455   3.369 -0.1507 -0.0414 -0.3665
34452SOL    HW1 5673   6.891   1.504   3.292 -1.9764  0.3544  0.4412
34452SOL    HW2 5674   6.868   1.373   3.363  1.6213 -1.1021 -0.8756
34453SOL     OW 5675   1.408   0.067   5.070 -0.0161  0.2530 -0.1848
34453SOL    HW1 5676   1.424   0.015   5.148 -0.6201  0.8302  0.3411
34453SOL    HW2 5677   1.495   0.090   5.037  0.2838 -1.4781 -0.7208
34454SOL     OW 5678   0.749   9.355   9.445 -0.0899 -0.5119 -0.2299
34454SOL    HW1 5679   0.830   9.306   9.455  1.1904  1.9179  2.7410
34454SOL    HW2 5680   0.685   9.309   9.499  0.3400 -0.4370  0.3457
34455SOL     OW 5681   2.582   8.771   8.837  0.3896  0.0721  0.0919
34455SOL    HW1 5682   2.673   8.741   8.840  0.5307  0.5572  1.7338
34455SOL    HW2 5683   2.541   8.716   8.770  1.3217 -1.7596  0.9606
34456SOL     OW 5684   0.520   8.605   8.876  0.3445  0.7260 -0.1110
34456SOL    HW1 5685   0.468   8.639   8.948  1.0609 -1.2315  1.4214
34456SOL    HW2 5686   0.594   8.664   8.869 -1.6231  3.1829 -1.9014
34457SOL     OW 5687   6.571   3.633   9.561 -0.2770 -0.4681  0.0836
34457SOL    HW1 5688   6.638   3.635   9.628  2.1273 -3.2878 -2.0161
34457SOL    HW2 5689   6.512   3.563   9.587 -0.6790 -0.0416  0.3500
34458SOL     OW 5690   9.767   7.310   7.020 -0.4482 -0.0047 -0.2284
34458SOL    HW1 5691   9.803   7.231   7.061 -3.0812 -2.0661 -1.5503
34458SOL    HW2 5692   9.720   7.354   7.091 -1.0383 -0.9966  0.0173
34459SOL     OW 5693   8.886   1.552   9.013  0.7350  0.1331 -0.1087
34459SOL    HW1 5694   8.958   1.614   9.008  0.7819  0.1032  0.1589
34459SOL    HW2 5695   8.878   1.516   8.925  1.4105 -0.2683 -0.0148
34460SOL     OW 5696   1.447   7.717   2.401  0.0667 -0.2412  0.2135
34460SOL    HW1 5697   1.506   7.791   2.386  0.6067 -0.6692  0.1700
34460SOL    HW2 5698   1.446   7.706   2.496 -1.7934  1.2269  0.4036
34461SOL     OW 5699   9.492   2.441   8.280  0.5361  0.4572 -0.4145
34461SOL    HW1 5700   9.555   2.467   8.347 -0.2390  2.9633 -0.5541
34461SOL    HW2 5701   9.546   2.418   8.205  1.3360  1.0243 -0.0368
34462SOL     OW 5702   2.812   4.501   3.223  0.2339  0.2571 -0.4607
34462SOL    HW1 5703   2.900   4.526   3.252  0.3514 -0.0970 -0.5040
34462SOL    HW2 5704   2.822   4.482   3.130  0.6217 -1.9992 -0.0290
34463SOL     OW 5705   1.307   6.509   9.388  0.3778 -0.0535 -0.6245
34463SOL    HW1 5706   1.294   6.519   9.294 -0.8228  3.3185 -0.2316
34463SOL    HW2 5707   1.365   6.582   9.412 -0.2072 -0.1901  1.4018
34464SOL     OW 5708   7.188   5.971   4.290 -0.6081  0.1855 -0.1087
34464SOL    HW1 5709   7.216   5.881   4.276  0.5424 -0.0246  2.7912
34464SOL    HW2 5710   7.115   5.965   4.352 -0.9216  1.2250 -0.3419
34465SOL     OW 5711   6.489  10.059   8.048 -0.5640 -0.9107 -0.0809
34465SOL    HW1 5712   6.456  10.072   7.959 -0.4165 -0.7940 -0.1195
34465SOL    HW2 5713   6.579  10.091   8.045 -1.0715  0.6398  0.5271
34466SOL     OW 5714   3.875   9.165   1.680 -0.4069 -1.1784  0.0284
34466SOL    HW1 5715   3.917   9.160   1.594 -0.3086  0.8849 -0.0969
34466SOL    HW2 5716   3.837   9.253   1.683  0.2772 -0.8903  2.4248
34467SOL     OW 5717   9.387   4.448   4.099  0.0659 -0.0520  0.4069
34467SOL    HW1 5718   9.410   4.536   4.071 -1.1338 -0.1156 -0.9374
34467SOL    HW2 5719   9.470   4.400   4.099  0.5108  0.6904 -0.3397
34468SOL     OW 5720  10.482   0.705   6.155  0.0523 -0.5336 -0.4489
34468SOL    HW1 5721  10.464   0.680   6.064  0.9176  0.1240 -0.8157
34468SOL    HW2 5722  10.574   0.681   6.168  0.2472  0.3859 -0.0972
34469SOL     OW 5723   0.617   7.110  10.243 -0.0223  0.3117  0.6357
34469SOL    HW1 5724   0.662   7.027  10.261 -0.2118  0.0619 -0.0035
34469SOL    HW2 5725   0.679   7.159  10.189  0.1224  0.6217  1.0828
34470SOL     OW 5726   0.183   3.652   3.665 -0.4728 -0.1550  0.2721
34470SOL    HW1 5727   0.243   3.725   3.679 -1.4818  0.4421  1.7335
34470SOL    HW2 5728   0.111   3.689   3.614 -0.6934 -0.2818  0.4879
34471SOL     OW 5729   0.930   1.645   0.045  0.2989 -0.2868  0.1703
34471SOL    HW1 5730   0.954   1.558   0.012  1.7081 -0.0407  0.4930
34471SOL    HW2 5731   1.013   1.693   0.047 -0.4367  1.0062  0.1786
34472SOL     OW 5732   1.673   9.789   1.703 -0.0604 -0.2328 -0.4707
34472SOL    HW1 5733   1.718   9.783   1.788  0.3788  0.6810 -0.6274
34472SOL    HW2 5734   1.692   9.706   1.660 -1.0291 -1.0769  0.6777
34473SOL     OW 5735   2.073   7.973   1.453  0.0952  0.2745 -0.3775
34473SOL    HW1 5736   2.094   7.956   1.361 -0.0951 -0.6560 -0.2525
34473SOL    HW2 5737   2.013   7.904   1.478  0.4957  0.2550  0.5792
34474SOL     OW 5738   3.883   6.832   7.059 -0.6256 -0.0632 -0.0639
34474SOL    HW1 5739   3.882   6.829   6.963  0.6056  1.4057 -0.1443
34474SOL    HW2 5740   3.806   6.885   7.082 -1.1099 -0.6870 -0.1970
34475SOL     OW 5741   6.151   7.964   2.172  0.4841  0.4126 -0.2377
34475SOL    HW1 5742   6.141   7.997   2.083 -1.7234  1.3044  0.2659
34475SOL    HW2 5743   6.191   8.037   2.220 -0.5297  0.8545 -0.0275
34476SOL     OW 5744   7.710   1.532   5.937 -0.7073 -0.3459  0.0752
34476SOL    HW1 5745   7.660   1.464   5.985 -0.7332 -0.5482 -0.2377
34476SOL    HW2 5746   7.672   1.614   5.967 -1.2927 -0.5014 -0.2198
34477SOL     OW 5747   8.147   9.297   2.648 -0.1376  0.0475  0.2421
34477SOL    HW1 5748   8.234   9.321   2.616 -0.4028  0.7625  0.0213
34477SOL    HW2 5749   8.123   9.368   2.707 -0.2678 -0.5262  0.8838
34478SOL     OW 5750   8.452   6.142   3.193 -0.0043  0.0119  0.5419
34478SOL    HW1 5751   8.527   6.102   3.236 -0.3146 -0.8387  0.3025
34478SOL    HW2 5752   8.454   6.106   3.104 -0.0281  0.8762  0.1792
34479SOL     OW 5753   3.341   6.192   9.676  0.4917 -0.2634  0.5586
34479SOL    HW1 5754   3.334   6.116   9.618  0.8695 -0.4463  0.7471
34479SOL    HW2 5755   3.326   6.267   9.619 -1.7014 -0.5405  0.6875
34480SOL     OW 5756   3.659   9.148   2.290  0.0982 -0.6111  0.2334
34480SOL    HW1 5757   3.624   9.212   2.227  0.2771 -1.3598 -0.6550
34480SOL    HW2 5758   3.643   9.188   2.376 -0.8930  0.0733 -0.2433
34481SOL     OW 5759   9.070   3.811   6.875 -0.3074 -0.2208  0.7203
34481SOL    HW1 5760   8.976   3.803   6.888 -0.4177  0.2728  0.2762
34481SOL    HW2 5761   9.105   3.830   6.963 -0.3995 -2.1124  1.1912
34482SOL     OW 5762   0.454   0.068   5.114  0.4245  0.0134 -0.2233
34482SOL    HW1 5763   0.436  -0.024   5.133  0.3617  0.1200  0.2249
34482SOL    HW2 5764   0.396   0.090   5.041 -0.1045 -0.0883  0.1699
34483SOL     OW 5765   2.230   5.362   7.405  0.2186 -0.1989  0.1585
34483SOL    HW1 5766   2.175   5.304   7.458 -1.4328  0.7944 -0.3882
34483SOL    HW2 5767   2.259   5.430   7.466  2.1928 -1.5596  0.8100
34484SOL     OW 5768   2.415   3.778   1.700  0.2790  0.1208  0.6674
34484SOL    HW1 5769   2.484   3.743   1.643 -0.1537 -1.3945  1.0370
34484SOL    HW2 5770   2.355   3.823   1.641  0.9527  0.4079  0.1916
34485SOL     OW 5771   9.854   6.073   3.306 -0.7228  0.8725  0.4630
34485SOL    HW1 5772   9.802   6.091   3.385 -1.6561  1.1473 -0.2028
34485SOL    HW2 5773   9.941   6.052   3.340 -1.3209  0.1233  1.6151
34486SOL     OW 5774   9.670   5.402   9.261  0.1076  0.5311  0.2796
34486SOL    HW1 5775   9.621   5.342   9.318 -1.2032 -1.5948 -2.8061
34486SOL    HW2 5776   9.762   5.378   9.274 -0.3143 -1.5049 -0.0668
34487SOL     OW 5777   3.393   5.336   6.343  0.0065  0.4400 -0.3463
34487SOL    HW1 5778   3.352   5.404   6.290 -0.7051  0.4921  0.2630
34487SOL    HW2 5779   3.331   5.319   6.413  1.4699  1.2713  1.2212
34488SOL     OW 5780   9.575   4.248   6.971 -0.0525 -0.3631  0.2985
34488SOL    HW1 5781   9.592   4.265   7.063  1.5544 -0.3322  0.0100
34488SOL    HW2 5782   9.579   4.153   6.962  0.1476 -0.3457  0.1950
34489SOL     OW 5783   5.538   1.059   8.863  0.3139 -0.3469 -0.0057
34489SOL    HW1 5784   5.445   1.040   8.850 -0.2103  1.3241  0.9874
34489SOL    HW2 5785   5.555   1.036   8.955  0.7584 -0.1855 -0.0437
34490SOL     OW 5786   5.244   8.918   1.389  0.4000  0.1881 -0.1811
34490SOL    HW1 5787   5.187   8.878   1.455 -1.0577  2.6108  0.1331
34490SOL    HW2 5788   5.187   8.933   1.314  0.9291  1.4913 -0.3459
34491SOL     OW 5789   2.723   5.670   1.167 -0.1257 -0.1879 -0.1799
34491SOL    HW1 5790   2.761   5.590   1.130 -0.5451  0.4256 -2.0135
34491SOL    HW2 5791   2.794   5.734   1.161 -0.5214  0.1876 -0.8939
34492SOL     OW 5792   7.761   1.320   6.602  0.9802 -0.0787 -0.1208
34492SOL    HW1 5793   7.846   1.362   6.613  0.4387  0.7064  1.2455
34492SOL    HW2 5794   7.728   1.308   6.690 -1.8017  2.7557 -0.6013
34493SOL     OW 5795   0.199   8.885   1.623  0.2400 -0.3347 -0.5964
34493SOL    HW1 5796   0.127   8.839   1.580 -2.3929  2.2854  0.6521
34493SOL    HW2 5797   0.200   8.972   1.583  1.7259  0.1936  0.4880
34494SOL     OW 5798   4.745   3.643  10.075  0.3159  0.3971 -0.3692
34494SOL    HW1 5799   4.673   3.599  10.029  0.2845  0.0763 -0.0125
34494SOL    HW2 5800   4.703   3.707  10.131  0.3820  1.1846 -1.1994
34495SOL     OW 5801   2.911   7.438   3.108 -0.1290  0.2187  0.1676
34495SOL    HW1 5802   2.948   7.443   3.019 -0.2259 -1.5152  0.0039
34495SOL    HW2 5803   2.983   7.465   3.165  0.1688  0.6195 -0.3861
34496SOL     OW 5804   3.806   8.779   5.696 -0.0028  0.0284  0.3072
34496SOL    HW1 5805   3.803   8.863   5.740 -0.8953  0.2506 -0.1628
34496SOL    HW2 5806   3.810   8.715   5.767 -0.5733  0.4177  0.7008
34497SOL     OW 5807   3.363   0.531  10.126  0.2012 -0.4242  0.5227
34497SOL    HW1 5808   3.420   0.506  10.053  0.5329 -2.5690  1.4369
34497SOL    HW2 5809   3.277   0.542  10.085  0.8235  0.7495 -0.5349
34498SOL     OW 5810  10.217   8.506   5.122 -0.2085  0.2436 -0.1383
34498SOL    HW1 5811  10.179   8.565   5.187 -0.8238  0.2484 -0.4939
34498SOL    HW2 5812  10.308   8.534   5.114 -0.3485  0.7844  0.1025
34499SOL     OW 5813   4.800   6.180   7.917  0.2162 -0.0678 -0.0036
34499SOL    HW1 5814   4.874   6.149   7.969 -1.1319 -0.9368  1.5123
34499SOL    HW2 5815   4.724   6.136   7.955 -0.9638 -0.1381 -2.2504
34500SOL     OW 5816   3.564   4.955   4.129 -0.2238  0.6475 -0.5656
34500SOL    HW1 5817   3.609   5.040   4.127  0.9315  0.0406 -0.6554
34500SOL    HW2 5818   3.593   4.911   4.050 -0.8578  0.1702 -0.5395
34501SOL     OW 5819   6.097   6.651   7.388 -0.6414  0.5899  0.3027
34501SOL    HW1 5820   6.147   6.731   7.407 -0.2773  0.3312  0.4323
34501SOL    HW2 5821   6.022   6.682   7.336  0.5667  0.7733 -1.4383
34502SOL     OW 5822   5.716   2.622  10.477  0.2263 -0.0844  0.4976
34502SOL    HW1 5823   5.809   2.612  10.496  0.1310  0.2358  1.1570
34502SOL    HW2 5824   5.676   2.641  10.562  0.0143  3.0619 -0.2015
34503SOL     OW 5825   4.180  10.247   4.649 -0.2279  0.2363  0.0550
34503SOL    HW1 5826   4.197  10.164   4.604 -0.3301  0.7743 -0.9833
34503SOL    HW2 5827   4.255  10.257   4.708  1.4944  0.9674 -2.1067
34504SOL     OW 5828   5.203   1.750   0.024 -0.2447  0.3522 -0.5915
34504SOL    HW1 5829   5.241   1.669  -0.009  0.7636  0.9128 -0.8512
34504SOL    HW2 5830   5.278   1.801   0.052 -0.9850  0.1385  2.0808
34505SOL     OW 5831   9.879   7.209   6.245  0.1837 -0.7874 -0.0238
34505SOL    HW1 5832   9.927   7.287   6.217  0.3771 -1.3087 -1.1574
34505SOL    HW2 5833   9.808   7.200   6.181 -2.2320  0.6228  2.2035
34506SOL     OW 5834   7.350   1.727   0.407  0.0735 -0.4829  0.3313
34506SOL    HW1 5835   7.276   1.711   0.348  0.4764 -3.1765  0.4592
34506SOL    HW2 5836   7.311   1.726   0.495  0.0512 -0.5068  0.3212
34507SOL     OW 5837   3.397   0.153   6.566 -0.0734  0.9771 -0.3309
34507SOL    HW1 5838   3.410   0.076   6.511  1.4254  1.8980 -1.3211
34507SOL    HW2 5839   3.470   0.151   6.628 -0.2434  1.3880 -0.1138
34508SOL     OW 5840   3.734   0.182   5.168 -0.3091  0.6364 -0.0637
34508SOL    HW1 5841   3.663   0.124   5.141 -0.9789  1.2300  0.3542
34508SOL    HW2 5842   3.704   0.219   5.251  0.5678  0.7787  0.1990
34509SOL     OW 5843   0.900   1.392   9.538 -0.4425 -1.0236 -0.0547
34509SOL    HW1 5844   0.822   1.336   9.538 -1.4925  0.3822 -0.6555
34509SOL    HW2 5845   0.914   1.414   9.446 -0.2615 -0.0241  0.1995
34510SOL     OW 5846   3.145   3.501   9.859 -0.1289  0.0280 -0.0732
34510SOL    HW1 5847   3.095   3.467   9.785  0.6972 -1.4030 -0.0056
34510SOL    HW2 5848   3.091   3.479   9.936 -0.5148  0.6256 -0.1679
34511SOL     OW 5849   2.088  10.078   5.703  0.4558  0.1787  0.3774
34511SOL    HW1 5850   2.073  10.034   5.619 -1.5784  1.4905 -0.0110
34511SOL    HW2 5851   2.051  10.018   5.768  1.3675 -0.5027  0.2830
34512SOL     OW 5852   2.938   9.354  10.223  0.3385  0.4211  0.5213
34512SOL    HW1 5853   2.952   9.410  10.300  0.9184  2.4511 -0.9848
34512SOL    HW2 5854   2.850   9.378  10.192  1.7763  3.0326 -1.9889
34513SOL     OW 5855   0.966   3.863   3.371 -0.6309  0.3176  0.4265
34513SOL    HW1 5856   0.922   3.786   3.335  0.2136  0.0721 -0.1266
34513SOL    HW2 5857   1.038   3.827   3.423  0.2917  0.7109 -0.5179
34514SOL     OW 5858   4.420   0.631   4.981 -0.2669 -0.4307 -0.3271
34514SOL    HW1 5859   4.477   0.706   4.999  0.5588 -0.7181 -1.5743
34514SOL    HW2 5860   4.469   0.578   4.918 -1.2465 -1.5242 -0.2123
34515SOL     OW 5861   4.871   6.986   2.632 -0.1963 -0.2344  0.6874
34515SOL    HW1 5862   4.807   7.056   2.631 -3.0812 -2.6468 -1.7032
34515SOL    HW2 5863   4.940   7.015   2.573 -1.0003  0.8379  0.2482
34516SOL     OW 5864   6.522   6.420   0.539 -0.8267 -0.1589 -0.3576
34516SOL    HW1 5865   6.516   6.501   0.487  1.6647 -0.4860 -1.2524
34516SOL    HW2 5866   6.539   6.352   0.475 -0.4467 -1.0196  0.6424
34517SOL     OW 5867   8.772  10.530   4.223  0.1313 -0.3031 -0.6322
34517SOL    HW1 5868   8.837  10.466   4.253  0.2856 -1.3287 -2.9603
34517SOL    HW2 5869   8.760  10.588   4.298  1.6878 -1.7058  0.7984
34518SOL     OW 5870   2.072   2.697   8.870 -0.4314  0.0871  0.4446
34518SOL    HW1 5871   2.013   2.709   8.795 -1.8790  0.3966  1.5916
34518SOL    HW2 5872   2.055   2.772   8.926 -1.1727 -1.3775  2.2587
34519SOL     OW 5873   8.298   1.746   9.709  0.4846 -0.6383  0.0586
34519SOL    HW1 5874   8.246   1.665   9.709  0.7186 -0.7982 -0.8786
34519SOL    HW2 5875   8.242   1.810   9.665 -0.1505  0.0311  1.7695
34520SOL     OW 5876  10.579   9.927   0.063 -0.0619 -0.3622  0.4562
34520SOL    HW1 5877  10.511   9.909  -0.002  0.7062  2.4492 -1.2963
34520SOL    HW2 5878  10.661   9.916   0.015  0.5659  0.4032  1.3274
34521SOL     OW 5879   9.269   2.788   7.501 -0.2445  0.3810  0.1028
34521SOL    HW1 5880   9.280   2.702   7.460  1.4405  0.4791  0.2636
34521SOL    HW2 5881   9.176   2.807   7.494 -0.3383 -0.5744 -1.7373
34522SOL     OW 5882   6.395   5.188   6.118 -0.4238  0.0990  0.5751
34522SOL    HW1 5883   6.354   5.184   6.031  0.7791 -1.5620  0.0451
34522SOL    HW2 5884   6.417   5.098   6.139  1.1235  0.6993  1.7211
34523SOL     OW 5885  10.487   1.573   8.855  0.2571  1.0841 -0.2582
34523SOL    HW1 5886  10.512   1.481   8.849  0.5938  0.9772  2.0242
34523SOL    HW2 5887  10.402   1.578   8.813  0.3380 -0.2278 -0.6037
34524SOL     OW 5888   1.639   0.394   6.792 -0.0403  0.1723 -0.1165
34524SOL    HW1 5889   1.671   0.408   6.703  0.6748 -1.5479 -0.1627
34524SOL    HW2 5890   1.568   0.331   6.783 -0.4929  0.5858  0.4548
34525SOL     OW 5891   9.426   0.804   7.886 -0.0192  0.0042 -0.9906
34525SOL    HW1 5892   9.457   0.870   7.824  0.4686 -0.3793 -1.1694
34525SOL    HW2 5893   9.461   0.831   7.970 -0.3029  0.2826 -0.9625
34526SOL     OW 5894   9.438   7.197   4.580 -0.8188  0.4009 -0.3854
34526SOL    HW1 5895   9.504   7.170   4.644 -1.0740  1.8712  0.5443
34526SOL    HW2 5896   9.354   7.183   4.624 -0.9853  5.3988  1.5202
34527SOL     OW 5897   4.162   9.760   4.645 -0.4627 -0.4212  0.6884
34527SOL    HW1 5898   4.188   9.752   4.737  3.7651  0.7187 -0.1551
34527SOL    HW2 5899   4.211   9.691   4.601  0.9742  1.5638 -1.0745
34528SOL     OW 5900  10.348   8.365  10.213  0.5226 -0.7013  0.0747
34528SOL    HW1 5901  10.319   8.436  10.270  1.4728 -0.5387  0.3813
34528SOL    HW2 5902  10.358   8.405  10.127 -0.0278 -0.7339 -0.0096
34529SOL     OW 5903   4.660   9.690   5.244  0.2241 -0.4394 -0.0703
34529SOL    HW1 5904   4.584   9.728   5.201 -0.7072 -2.7657 -0.6459
34529SOL    HW2 5905   4.699   9.632   5.178  1.7405 -0.2947  0.6472
34530SOL     OW 5906   2.325   9.789   6.126 -0.0899 -0.7887 -0.4081
34530SOL    HW1 5907   2.408   9.752   6.156  0.0780 -0.0161  0.1002
34530SOL    HW2 5908   2.258   9.733   6.166  0.1552 -0.4501  0.4880
34531SOL     OW 5909   4.558   8.320  10.487 -0.1654  0.6757 -0.2631
34531SOL    HW1 5910   4.590   8.308  10.577  0.3390 -0.5365 -0.5699
34531SOL    HW2 5911   4.638   8.323  10.434 -0.4777 -0.9944 -0.8959
34532SOL     OW 5912   8.489   4.719   5.873  0.0342 -0.0132  0.0842
34532SOL    HW1 5913   8.497   4.804   5.916  0.6298  0.8561 -1.6559
34532SOL    HW2 5914   8.533   4.730   5.789 -0.7086 -1.7605 -0.5850
34533SOL     OW 5915   8.804   8.403   0.895  0.7018 -0.3369 -0.5671
34533SOL    HW1 5916   8.815   8.488   0.938 -0.2430 -0.7706  0.5700
34533SOL    HW2 5917   8.794   8.424   0.802  0.7312  0.7658 -0.3327
34534SOL     OW 5918   4.777   7.711   2.428 -0.1446 -0.0848 -0.2200
34534SOL    HW1 5919   4.810   7.794   2.393  0.0484  0.0726  0.3151
34534SOL    HW2 5920   4.693   7.699   2.386 -0.1034  0.3087 -0.4222
34535SOL     OW 5921   1.988   6.221   1.823 -0.1781 -0.0047  0.9988
34535SOL    HW1 5922   1.975   6.264   1.907  0.4298  0.5986  0.8008
34535SOL    HW2 5923   2.076   6.247   1.796 -0.8427  0.9340 -0.4430
34536SOL     OW 5924   8.820   4.289   4.847  0.4842 -0.1141  0.0216
34536SOL    HW1 5925   8.881   4.235   4.897 -2.2917 -2.3172  1.3011
34536SOL    HW2 5926   8.769   4.336   4.913 -0.7202 -0.1061 -0.8733
34537SOL     OW 5927   7.223   3.284   3.194 -0.5435  0.1295 -0.2615
34537SOL    HW1 5928   7.315   3.281   3.167 -0.3300 -0.0787  0.4818
34537SOL    HW2 5929   7.222   3.334   3.275 -1.2206  0.9597 -0.7578
34538SOL     OW 5930   0.169   9.172   3.076  0.0614  0.0463  0.1428
34538SOL    HW1 5931   0.169   9.248   3.017 -1.4070 -0.4220 -0.4989
34538SOL    HW2 5932   0.078   9.163   3.104  0.5720 -0.2968  1.7973
34539SOL     OW 5933   2.599   4.556   1.073  0.3911 -0.4201  0.3474
34539SOL    HW1 5934   2.595   4.650   1.091  1.8547 -0.0278 -1.1181
34539SOL    HW2 5935   2.552   4.546   0.990  3.6752 -0.2091 -1.7574
34540SOL     OW 5936   4.602   9.641   4.561 -1.0666 -0.6930 -0.8640
34540SOL    HW1 5937   4.638   9.713   4.509  0.5334  0.4345  1.6020
34540SOL    HW2 5938   4.512   9.631   4.530 -0.6751  0.9253 -2.7268
34541SOL     OW 5939   9.683   0.148   9.878 -0.6482 -0.4490  0.2500
34541SOL    HW1 5940   9.753   0.118   9.820 -1.4375  1.0712 -1.6465
34541SOL    HW2 5941   9.615   0.081   9.870 -0.3643 -0.7257  0.1480
34542SOL     OW 5942   9.554   7.747   7.537  0.4956 -0.1621  0.0948
34542SOL    HW1 5943   9.562   7.833   7.496 -1.5491 -0.2515 -0.6434
34542SOL    HW2 5944   9.643   7.715   7.546  1.1912  1.3117 -1.1985
34543SOL     OW 5945   8.297   0.060   9.885  0.0705 -0.1855  0.1652
34543SOL    HW1 5946   8.305   0.009   9.805  1.0502 -0.0209  0.1472
34543SOL    HW2 5947   8.220   0.115   9.871  0.2209 -0.1729 -0.6606
34544SOL     OW 5948   5.717   0.407   3.645 -0.2630 -0.6536  0.1033
34544SOL    HW1 5949   5.740   0.500   3.650  0.9519 -0.7647 -2.0413
34544SOL    HW2 5950   5.622   0.406   3.635 -0.1998  0.4536 -0.8904
34545SOL     OW 5951   2.452   8.689   3.123  0.0480 -0.1860 -0.0009
34545SOL    HW1 5952   2.463   8.772   3.077 -0.4064  0.1732  0.5268
34545SOL    HW2 5953   2.377   8.703   3.181  0.3337 -0.7738  0.5243
34546SOL     OW 5954   4.986   9.745   4.720 -0.3580 -0.2963  0.1628
34546SOL    HW1 5955   4.898   9.722   4.750 -0.2105  0.5261  1.2923
34546SOL    HW2 5956   4.979   9.836   4.691  0.3254  0.1009  1.2020
34547SOL     OW 5957  10.080   8.705   7.861 -0.0808  0.7397  0.2035
34547SOL    HW1 5958  10.013   8.768   7.888  0.3232  1.6807 -0.8904
34547SOL    HW2 5959  10.150   8.759   7.826  0.4031 -0.3214 -0.5068
34548SOL     OW 5960   3.220   0.178   6.243 -0.3125 -0.1060 -0.1260
34548SOL    HW1 5961   3.194   0.154   6.155 -1.2757 -1.9530  0.6241
34548SOL    HW2 5962   3.142   0.164   6.297  0.1083  1.4204  0.9773
34549SOL     OW 5963   0.647   4.240   4.704  0.1491 -0.0477  0.0452
34549SOL    HW1 5964   0.648   4.199   4.618 -0.3659 -0.9999  0.4729
34549SOL    HW2 5965   0.587   4.186   4.756  0.5047  0.4571  1.0182
34550SOL     OW 5966   4.962   3.661   2.681  0.1411 -0.0344  0.4378
34550SOL    HW1 5967   4.867   3.657   2.672  0.2855 -1.5672 -0.8580
34550SOL    HW2 5968   4.978   3.740   2.732 -1.7036  1.6899 -1.4574
34551SOL     OW 5969   1.548   6.871   3.482  0.4340  0.1620 -0.6507
34551SOL    HW1 5970   1.549   6.965   3.503  2.7703  0.1839 -0.5792
34551SOL    HW2 5971   1.460   6.854   3.450 -0.6794  1.9556  1.2271
34552SOL     OW 5972  10.131   5.719   8.981  0.5963  0.1105  0.1224
34552SOL    HW1 5973  10.141   5.671   9.064 -1.9534 -1.0673 -0.1497
34552SOL    HW2 5974  10.038   5.710   8.960  1.0048  1.1694 -2.4284
34553SOL     OW 5975   2.993  10.087   9.162  0.3500  0.1963 -0.1182
34553SOL    HW1 5976   2.973  10.174   9.129  1.2852  0.4316 -0.0718
34553SOL    HW2 5977   2.948  10.082   9.246  2.4543  1.6510  1.1778
34554SOL     OW 5978  10.293  10.390   4.436  0.3098 -0.2134 -0.3580
34554SOL    HW1 5979  10.290  10.394   4.531 -1.0367 -0.9751 -0.3499
34554SOL    HW2 5980  10.293  10.482   4.408 -1.0943  0.0279  0.3523
34555SOL     OW 5981   2.154   2.573   0.982 -0.0738  0.4775  0.3770
34555SOL    HW1 5982   2.104   2.596   1.060 -0.1965  0.9935  0.1493
34555SOL    HW2 5983   2.166   2.479   0.988 -2.3371  0.0903 -0.3096
34556SOL     OW 5984  10.131   6.700   5.565 -0.0296 -0.1714  0.5211
34556SOL    HW1 5985  10.206   6.666   5.516 -0.9166 -1.3595 -0.0634
34556SOL    HW2 5986  10.071   6.626   5.571 -1.1495  0.7499  1.0052
34557SOL     OW 5987   5.483   9.333   4.749 -0.0825  0.3442 -0.6871
34557SOL    HW1 5988   5.494   9.273   4.675  0.0749  0.0166 -0.3954
34557SOL    HW2 5989   5.475   9.419   4.707 -1.4517  0.0053 -1.1638
34558SOL     OW 5990   7.989   9.657   4.578 -0.3141  0.0429  0.0201
34558SOL    HW1 5991   7.965   9.565   4.582  0.1357 -0.0519  2.6694
34558SOL    HW2 5992   7.905   9.703   4.572 -0.6273 -0.4970  0.1489
34559SOL     OW 5993   4.775   9.425   9.412  0.0913 -0.3478  0.4221
34559SOL    HW1 5994   4.843   9.361   9.395 -0.8072 -0.9474 -1.1039
34559SOL    HW2 5995   4.763   9.423   9.507  0.4440 -2.0524  0.4573
34560SOL     OW 5996   3.029   0.872   3.136  0.2889  0.7346  0.4704
34560SOL    HW1 5997   3.099   0.878   3.201 -0.9120  1.5949  1.7586
34560SOL    HW2 5998   3.013   0.778   3.127  2.2247  0.4684 -0.5894
34561SOL     OW 5999   7.649  10.124   1.449  0.4166  0.5765 -0.1744
34561SOL    HW1 6000   7.734  10.112   1.406  0.6278  2.3441 -0.3458
34561SOL    HW2 6001   7.634  10.043   1.498  2.8533  0.7394  0.9779
34562SOL     OW 6002   6.856   6.300   1.194  0.4032  0.1922 -0.3022
34562SOL    HW1 6003   6.829   6.210   1.210  1.6475 -0.2785 -0.7884
34562SOL    HW2 6004   6.783   6.339   1.145  1.0972 -1.4328 -2.7774
34563SOL     OW 6005   7.065   5.505   3.352 -0.2689 -0.0821 -0.8656
34563SOL    HW1 6006   7.002   5.450   3.305 -0.2028 -0.8625 -0.0690
34563SOL    HW2 6007   7.128   5.532   3.285 -1.3432  0.5909 -1.6464
34564SOL     OW 6008   4.875   1.860   2.418  0.2795 -0.5455  0.0132
34564SOL    HW1 6009   4.913   1.946   2.435  0.3266 -0.3285 -1.0987
34564SOL    HW2 6010   4.950   1.805   2.395  0.0557 -0.3827 -1.1572
34565SOL     OW 6011   3.270   7.491   5.505  0.2544 -0.1177  0.1931
34565SOL    HW1 6012   3.299   7.543   5.429  2.4171  0.4608  1.3427
34565SOL    HW2 6013   3.214   7.550   5.555  2.1450  0.9686  1.1300
34566SOL     OW 6014   4.167   7.606   2.588 -0.3642 -0.0972  0.5446
34566SOL    HW1 6015   4.144   7.634   2.499 -0.6962 -1.0260  0.3278
34566SOL    HW2 6016   4.255   7.570   2.580 -0.0373  0.6289  0.7755
34567SOL     OW 6017   3.091   5.941   4.472  0.4497 -0.2317  0.7837
34567SOL    HW1 6018   2.996   5.941   4.484  0.5437  0.8725  1.8195
34567SOL    HW2 6019   3.104   5.968   4.381 -0.2318 -0.4892  0.6070
34568SOL     OW 6020   7.051   4.879   7.728  0.7507  0.0452  0.4616
34568SOL    HW1 6021   7.105   4.926   7.792 -0.3300 -0.0575  1.4724
34568SOL    HW2 6022   6.989   4.829   7.780 -2.1190  2.2193 -0.6073
34569SOL     OW 6023  10.166   2.106   4.058 -0.0190 -0.2884 -0.2564
34569SOL    HW1 6024  10.241   2.154   4.093  0.7161 -1.9690  0.5937
34569SOL    HW2 6025  10.197   2.070   3.975  0.2243 -1.1700  0.2001
34570SOL     OW 6026   6.473   0.964   9.117 -0.4944  0.3800  0.6904
34570SOL    HW1 6027   6.533   1.021   9.166 -0.9582  0.7650  0.8158
34570SOL    HW2 6028   6.437   0.905   9.183  0.1027 -0.1746  0.5349
34571SOL     OW 6029   7.269   7.274   8.252 -0.2922 -0.3943  0.3472
34571SOL    HW1 6030   7.314   7.358   8.261 -0.5642 -0.3414  1.2471
34571SOL    HW2 6031   7.269   7.257   8.157 -1.5330  1.3346 -0.0032
34572SOL     OW 6032   9.503   4.985   8.691  0.4632 -0.0950  0.4971
34572SOL    HW1 6033   9.430   5.014   8.636  0.7960  1.2636  0.7199
34572SOL    HW2 6034   9.489   4.891   8.703  0.1376 -0.3465 -1.5200
34573SOL     OW 6035   6.120  10.546   1.754 -0.4898  0.4110  0.1364
34573SOL    HW1 6036   6.085  10.626   1.794  1.3573  2.3614 -1.8108
34573SOL    HW2 6037   6.215  10.556   1.761 -0.1784 -0.5550 -2.0365
34574SOL     OW 6038   6.409  10.476   8.861  0.0716 -0.2205 -0.2588
34574SOL    HW1 6039   6.505  10.479   8.854 -0.0213 -0.7051 -2.4513
34574SOL    HW2 6040   6.392  10.477   8.955  2.1535  1.6897  0.1865
34575SOL     OW 6041   7.435   5.032  10.166 -0.4167  0.5786 -0.0559
34575SOL    HW1 6042   7.384   5.095  10.115 -0.3526 -0.5535 -1.5750
34575SOL    HW2 6043   7.489   5.087  10.223 -2.7707  1.8260  1.1200
34576SOL     OW 6044   6.214   1.254   5.658  0.7990  0.6901 -0.4119
34576SOL    HW1 6045   6.262   1.321   5.707  0.1508  1.1529 -0.3952
34576SOL    HW2 6046   6.215   1.286   5.568  1.1070  0.3549 -0.5278
34577SOL     OW 6047   4.069   4.825   2.394 -0.2118  0.3306  0.1001
34577SOL    HW1 6048   4.045   4.774   2.316 -0.9763  0.8097  0.0126
34577SOL    HW2 6049   4.165   4.825   2.394 -0.1985  0.4242 -0.9120
34578SOL     OW 6050   2.941   5.231   5.657  0.1782  0.0922  0.1032
34578SOL    HW1 6051   3.022   5.237   5.707  0.2538 -0.3418  0.0379
34578SOL    HW2 6052   2.919   5.322   5.636  2.1606  0.1435 -2.2993
34579SOL     OW 6053   1.081   0.749   0.446 -0.1181 -0.3402 -0.2293
34579SOL    HW1 6054   1.086   0.783   0.356  0.1908  0.1874 -0.0134
34579SOL    HW2 6055   1.147   0.798   0.494 -0.5151 -0.3785  0.3663
34580SOL     OW 6056   7.594   3.273   6.132 -0.2047  0.3340  0.7032
34580SOL    HW1 6057   7.596   3.195   6.188 -0.4783  1.0072  1.6842
34580SOL    HW2 6058   7.502   3.300   6.132 -0.9155 -1.4851 -2.7609
34581SOL     OW 6059   1.400   8.244   7.471 -0.0713  0.4692  0.0372
34581SOL    HW1 6060   1.484   8.207   7.497 -0.8358 -0.7931  0.8186
34581SOL    HW2 6061   1.395   8.228   7.377  0.4819  0.4092  0.0124
34582SOL     OW 6062   9.229   7.948   3.154 -0.2670 -0.2749  0.3167
34582SOL    HW1 6063   9.316   7.979   3.130 -0.6506 -0.3822 -1.3644
34582SOL    HW2 6064   9.177   8.027   3.167 -0.0151 -0.2139  0.9894
34583SOL     OW 6065   2.153  10.218   1.945  0.2014 -0.2304  0.2584
34583SOL    HW1 6066   2.218  10.165   1.898  0.6188  0.6063 -0.1258
34583SOL    HW2 6067   2.117  10.276   1.879 -1.1182 -0.8211  0.4186
34584SOL     OW 6068   5.196   5.467   1.118  0.0477  0.1676 -0.2820
34584SOL    HW1 6069   5.173   5.471   1.026  0.5408 -1.6048 -0.5282
34584SOL    HW2 6070   5.166   5.550   1.155  0.4272  1.1756 -2.1511
34585SOL     OW 6071   7.258   5.782   3.573 -0.3986 -0.1125  0.3256
34585SOL    HW1 6072   7.269   5.874   3.595  1.5524 -0.1600 -0.2007
34585SOL    HW2 6073   7.172   5.758   3.607 -1.0559  1.9607  0.2293
34586SOL     OW 6074   9.906   9.010   2.366  0.3243  0.0252 -0.0726
34586SOL    HW1 6075   9.919   9.098   2.332  0.5085  0.1229  0.2460
34586SOL    HW2 6076   9.916   9.019   2.461 -0.3524 -0.2126  0.0262
34587SOL     OW 6077   8.367   4.899   9.236 -0.0027  0.3515 -0.1341
34587SOL    HW1 6078   8.449   4.910   9.285 -0.2673 -1.7957  0.9314
34587SOL    HW2 6079   8.302   4.880   9.303 -0.2736 -3.2629 -1.2003
34588SOL     OW 6080   3.239   2.931   3.406  0.5225  0.3514  0.1106
34588SOL    HW1 6081   3.173   2.879   3.452  0.9631 -2.3425 -2.0019
34588SOL    HW2 6082   3.190   2.975   3.336  0.5399  0.6682  0.2976
34589SOL     OW 6083   0.239   7.286   7.989  0.2058  0.1338  0.0443
34589SOL    HW1 6084   0.211   7.207   7.944 -2.7729  0.0901  1.7441
34589SOL    HW2 6085   0.306   7.256   8.051 -0.1718 -0.8973 -0.0284
34590SOL     OW 6086   9.553   9.057   8.357  0.1894 -0.3254 -0.4241
34590SOL    HW1 6087   9.617   9.099   8.415  0.0071  2.1565 -1.8892
34590SOL    HW2 6088   9.468   9.078   8.395  0.1169  0.1185 -0.8257
34591SOL     OW 6089   5.775  10.194   2.377  0.1345 -0.0331 -0.0731
34591SOL    HW1 6090   5.870  10.206   2.387 -0.1718  1.3261  1.8208
34591SOL    HW2 6091   5.766  10.127   2.309  2.4158  0.7260 -1.2289
34592SOL     OW 6092   0.576   2.793   3.977  0.2355  0.4584 -0.2624
34592SOL    HW1 6093   0.538   2.749   3.901 -1.1505 -0.6000  0.9910
34592SOL    HW2 6094   0.597   2.722   4.038 -1.0255  1.4052  1.3614
34593SOL     OW 6095   0.291   5.257   2.351  0.0450  0.1007 -0.5463
34593SOL    HW1 6096   0.284   5.163   2.364  0.3462  0.2452  0.7478
34593SOL    HW2 6097   0.382   5.270   2.322  0.0951  0.0264 -0.4229
34594SOL     OW 6098   3.936   4.094   3.152  0.1903  0.5242 -0.3682
34594SOL    HW1 6099   3.994   4.167   3.133  0.5937  0.2131 -0.3500
34594SOL    HW2 6100   3.929   4.047   3.069 -1.5340  1.5900 -0.8798
34595SOL     OW 6101   0.577   7.735   7.415 -0.2276  0.0498 -0.2467
34595SOL    HW1 6102   0.538   7.804   7.469 -0.2662  0.1630 -0.4186
34595SOL    HW2 6103   0.571   7.769   7.325 -1.5733 -0.7885 -0.5024
34596SOL     OW 6104   9.569   6.690   6.423  0.3604 -0.5928  0.0084
34596SOL    HW1 6105   9.480   6.697   6.388  0.1307 -0.8774  0.5318
34596SOL    HW2 6106   9.602   6.607   6.389  1.0501  0.2821 -1.5735
34597SOL     OW 6107   1.182   2.787   7.576  0.2006  0.1182 -0.4460
34597SOL    HW1 6108   1.119   2.775   7.648 -1.1899  0.0441 -1.6181
34597SOL    HW2 6109   1.191   2.700   7.538 -1.7569  0.6996 -2.4510
34598SOL     OW 6110   1.191   7.619   2.353  0.1740  0.4963  0.6226
34598SOL    HW1 6111   1.133   7.693   2.334  0.4129  0.4841 -0.1902
34598SOL    HW2 6112   1.277   7.659   2.367  0.7847  0.2515 -1.9623
34599SOL     OW 6113   8.208   2.898   9.985  0.0251 -0.3230 -0.3394
34599SOL    HW1 6114   8.139   2.850  10.031 -0.2873  0.6898  0.2892
34599SOL    HW2 6115   8.290   2.865  10.021 -0.2132  0.5067  1.0344
34600SOL     OW 6116   6.516   2.275   1.235  0.4500 -0.2714 -0.0024
34600SOL    HW1 6117   6.502   2.367   1.213  1.7328  0.1743  0.9153
34600SOL    HW2 6118   6.430   2.234   1.224 -0.4217  1.2802  0.7559
34601SOL     OW 6119   2.270   6.958   2.728 -0.0306  0.1275  0.0584
34601SOL    HW1 6120   2.258   6.882   2.671  1.1991 -0.5026  0.6159
34601SOL    HW2 6121   2.295   7.028   2.668  1.9445 -0.7010 -0.1638
34602SOL     OW 6122   6.735   4.056   5.875  0.2385 -0.4641 -0.1784
34602SOL    HW1 6123   6.644   4.034   5.893 -0.1756  1.5058  0.2644
34602SOL    HW2 6124   6.752   4.135   5.925  1.9054 -0.2130 -1.0567
34603SOL     OW 6125   3.855   6.911   7.477 -0.2636  0.2513 -0.3547
34603SOL    HW1 6126   3.890   6.830   7.441  0.3462 -0.1133  0.9905
34603SOL    HW2 6127   3.890   6.915   7.566 -0.7229  1.7242 -0.2122
34604SOL     OW 6128   6.176   2.266   9.686 -0.5992 -0.4619 -0.4108
34604SOL    HW1 6129   6.240   2.201   9.718  0.9645  0.7084 -1.0541
34604SOL    HW2 6130   6.222   2.350   9.694 -1.8920  0.3577 -1.3779
34605SOL     OW 6131   0.109   8.611   6.283 -0.1784 -0.4436  0.3353
34605SOL    HW1 6132   0.133   8.528   6.324 -0.2576 -0.9985 -0.7373
34605SOL    HW2 6133   0.146   8.606   6.195 -2.1534 -0.3073 -0.5446
34606SOL     OW 6134   7.147   9.528   2.084  0.0090  0.0074  0.5281
34606SOL    HW1 6135   7.170   9.552   2.174  0.6959 -0.4931  0.4959
34606SOL    HW2 6136   7.060   9.566   2.070  0.0948  0.4835  1.2454
34607SOL     OW 6137   8.882   8.932   6.896  0.5346 -0.5033  0.8216
34607SOL    HW1 6138   8.873   8.939   6.801  1.2560 -0.5554  0.7446
34607SOL    HW2 6139   8.821   8.863   6.921 -0.6559  0.4306  0.5711
34608SOL     OW 6140   3.641   2.689   6.005  0.1179  0.2450  0.0811
34608SOL    HW1 6141   3.595   2.752   5.949  1.8778  0.5164 -1.1673
34608SOL    HW2 6142   3.620   2.604   5.966  1.3158  0.4309 -1.0476
34609SOL     OW 6143   9.813   3.520   6.762 -0.0393 -0.1261 -0.2588
34609SOL    HW1 6144   9.822   3.564   6.846 -2.0526 -0.5267  0.2164
34609SOL    HW2 6145   9.837   3.586   6.697 -0.1652  0.7350  0.5547
34610SOL     OW 6146   5.808   5.063   6.333 -0.8342 -0.3128  0.1274
34610SOL    HW1 6147   5.723   5.020   6.336 -0.9574 -0.0244  2.0102
34610SOL    HW2 6148   5.847   5.035   6.251 -1.7197 -2.4546  0.3978
34611SOL     OW 6149   3.032   2.834   0.273  0.1528 -1.0549 -0.4207
34611SOL    HW1 6150   3.078   2.819   0.356  1.9980  0.3270 -1.1196
34611SOL    HW2 6151   2.969   2.903   0.292 -2.4087 -3.4985  0.7453
34612SOL     OW 6152   6.042   1.912   6.074 -0.1062 -0.5413 -0.1613
34612SOL    HW1 6153   6.013   1.884   6.161 -0.7637  0.2365 -0.1140
34612SOL    HW2 6154   5.964   1.903   6.019  0.3733 -1.2749 -0.7390
34613SOL     OW 6155   1.910   6.263   0.089  0.1094 -0.4171 -0.0612
34613SOL    HW1 6156   1.882   6.181   0.130  0.4923 -0.2725  0.5040
34613SOL    HW2 6157   1.852   6.329   0.127  0.5597 -0.2609  0.3667
34614SOL     OW 6158   9.246   4.875   3.648 -0.2656  0.0903 -0.0947
34614SOL    HW1 6159   9.338   4.852   3.636 -0.4632 -0.1319 -1.3469
34614SOL    HW2 6160   9.215   4.897   3.560 -1.9724 -1.9982 -0.1111
34615SOL     OW 6161   1.672   1.955   2.835  0.1436 -0.7251  0.3309
34615SOL    HW1 6162   1.762   1.957   2.869 -0.1964 -0.3356  1.2404
34615SOL    HW2 6163   1.643   2.046   2.840 -0.9031 -1.1106  1.7251
34616SOL     OW 6164   0.830   3.723   1.373  0.0145  0.2587 -0.3770
34616SOL    HW1 6165   0.827   3.792   1.439  1.3582  0.8460 -0.8911
34616SOL    HW2 6166   0.802   3.766   1.292  1.8492  0.5084 -0.9166
34617SOL     OW 6167   6.315   8.278   3.034  0.0850  0.4002  0.4315
34617SOL    HW1 6168   6.264   8.359   3.025 -2.2186 -1.0075 -0.1205
34617SOL    HW2 6169   6.332   8.271   3.128  0.7121  1.7118  0.4395
34618SOL     OW 6170   2.768   7.078   5.068 -0.3143  0.0511 -0.2385
34618SOL    HW1 6171   2.750   7.109   5.157 -0.5705 -0.8635  0.0324
34618SOL    HW2 6172   2.863   7.072   5.064 -0.3419 -2.2167  0.8085
34619SOL     OW 6173   6.684   2.318   7.692 -0.4212  0.0729 -0.2808
34619SOL    HW1 6174   6.703   2.409   7.716  1.8271 -0.3595 -0.1878
34619SOL    HW2 6175   6.674   2.320   7.597  0.4252  0.3328 -0.3764
34620SOL     OW 6176   9.802  10.534  10.180  0.3188 -0.0730  0.0086
34620SOL    HW1 6177   9.720  10.569  10.145  0.5481 -0.1116 -0.5843
34620SOL    HW2 6178   9.788  10.529  10.274  0.2009  1.4116  0.0840
34621SOL     OW 6179   0.604   1.626   4.153 -0.2740 -0.5902  0.2745
34621SOL    HW1 6180   0.607   1.546   4.206  1.7824 -0.4611  0.4258
34621SOL    HW2 6181   0.523   1.617   4.103  0.6301 -3.5651 -0.9052
34622SOL     OW 6182   8.066   6.832  10.421 -0.5394 -0.0918  0.3494
34622SOL    HW1 6183   8.136   6.897  10.425 -0.1968 -0.4989  1.2404
34622SOL    HW2 6184   8.059   6.810  10.328  0.0226  0.4778  0.1629
34623SOL     OW 6185   9.769   8.903   3.525  0.3739  0.6421 -0.2852
34623SOL    HW1 6186   9.832   8.876   3.458  1.1605  3.4092 -0.7749
34623SOL    HW2 6187   9.791   8.850   3.602  0.1621 -1.8048 -1.7951
34624SOL     OW 6188   7.609   3.518   1.409  0.1142  0.0533  0.3851
34624SOL    HW1 6189   7.636   3.451   1.471 -1.1763 -1.8520 -0.9917
34624SOL    HW2 6190   7.670   3.508   1.335 -0.6844 -0.3296 -0.2445
34625SOL     OW 6191   5.871   1.206   6.632  0.2839  0.1092  0.1570
34625SOL    HW1 6192   5.948   1.155   6.658 -0.2678 -1.4675 -1.1467
34625SOL    HW2 6193   5.865   1.193   6.537 -0.0328  2.4473 -0.1958
34626SOL     OW 6194   5.477   6.144   0.328 -0.4768  0.0927 -0.0135
34626SOL    HW1 6195   5.422   6.087   0.383 -0.4817 -0.0400 -0.1542
34626SOL    HW2 6196   5.565   6.131   0.363 -0.6991  1.3221  1.0841
34627SOL     OW 6197   1.665   7.458  10.077  0.1203  0.6250 -0.6881
34627SOL    HW1 6198   1.571   7.479  10.072  0.1934  1.4775  0.7432
34627SOL    HW2 6199   1.709   7.539  10.053  0.4556  0.7819  0.3859
34628SOL     OW 6200   6.711   2.636   5.381  0.7800 -0.5080 -0.2359
34628SOL    HW1 6201   6.807   2.643   5.380  0.8327 -0.6775 -2.7673
34628SOL    HW2 6202   6.692   2.563   5.323 -0.8907 -1.3156  1.2356
34629SOL     OW 6203   4.133   7.523   6.712  0.9808  0.8040  0.8141
34629SOL    HW1 6204   4.119   7.610   6.674 -3.3231  0.3147  0.8010
34629SOL    HW2 6205   4.158   7.468   6.637  0.5877  1.4299  0.2136
34630SOL     OW 6206   3.231   2.174   9.437 -0.1673  0.2694  0.4706
34630SOL    HW1 6207   3.153   2.208   9.481 -1.9349  1.3971 -3.0732
34630SOL    HW2 6208   3.302   2.231   9.467 -1.6944  2.4581  0.2193
34631SOL     OW 6209   6.873   7.135   0.791 -0.4381  0.3053 -0.0553
34631SOL    HW1 6210   6.851   7.074   0.861 -0.7952  1.3565  0.7918
34631SOL    HW2 6211   6.905   7.080   0.719  1.8774 -0.7095  1.6219
34632SOL     OW 6212   6.975   7.507   6.066 -0.0551  0.0983  0.3507
34632SOL    HW1 6213   6.943   7.474   6.150 -0.5819 -0.5277 -0.0785
34632SOL    HW2 6214   7.059   7.549   6.087 -1.2515  2.0376  1.5616
34633SOL     OW 6215   2.065   9.342   8.678  0.1957  0.4949 -0.1489
34633SOL    HW1 6216   2.153   9.335   8.642  0.1170 -0.4710 -0.1839
34633SOL    HW2 6217   2.043   9.435   8.671  0.2194  0.3834 -2.5250
34634SOL     OW 6218   1.530   7.457   7.467  0.1883  0.1949  0.2461
34634SOL    HW1 6219   1.529   7.453   7.371  1.7457 -1.3388  0.2370
34634SOL    HW2 6220   1.505   7.547   7.488  0.1315  0.6488 -1.6058
34635SOL     OW 6221   0.784   6.654   2.541  0.3627 -0.3510 -0.5344
34635SOL    HW1 6222   0.758   6.712   2.613  0.4691 -0.3719 -0.4790
34635SOL    HW2 6223   0.762   6.566   2.572 -0.9366 -0.2535 -1.1029
34636SOL     OW 6224   2.348   5.720   5.193  0.3730  0.1892 -0.4430
34636SOL    HW1 6225   2.283   5.663   5.152  1.3942 -1.4371  0.1273
34636SOL    HW2 6226   2.407   5.745   5.122 -0.0328  0.4974 -0.6773
34637SOL     OW 6227   3.677   6.990   8.356  0.5880  0.1340  0.0001
34637SOL    HW1 6228   3.644   7.058   8.415  2.5061 -0.6716  2.1265
34637SOL    HW2 6229   3.631   6.911   8.383  0.0741  0.1018 -0.9205
34638SOL     OW 6230   9.641   2.496   4.427  0.4420  0.4619 -0.2222
34638SOL    HW1 6231   9.673   2.435   4.361  1.0951  1.9060 -1.2860
34638SOL    HW2 6232   9.559   2.530   4.392  0.5372  0.8584 -0.0749
34639SOL     OW 6233   6.084   8.672   1.967 -0.0754 -0.7235  0.4852
34639SOL    HW1 6234   6.166   8.666   1.917  0.8527  2.1961  1.4437
34639SOL    HW2 6235   6.015   8.660   1.901  1.0428 -3.5089 -0.3080
34640SOL     OW 6236   1.945   4.731   6.579 -0.3481 -0.3415 -0.4763
34640SOL    HW1 6237   2.037   4.745   6.602 -0.9427 -0.0687  2.1326
34640SOL    HW2 6238   1.910   4.819   6.562 -0.5588 -0.1887  0.6292
34641SOL     OW 6239   0.948   8.250   6.200 -0.0017  0.5454  0.1854
34641SOL    HW1 6240   0.963   8.289   6.286 -2.4915  1.5732  0.2390
34641SOL    HW2 6241   0.884   8.307   6.158 -0.7303 -1.2760 -1.3729
34642SOL     OW 6242  10.567   6.706   4.147 -0.0019  0.1302  0.5878
34642SOL    HW1 6243  10.642   6.726   4.204 -0.2825 -0.7202  1.2700
34642SOL    HW2 6244  10.599   6.636   4.090 -0.2950 -0.2925  0.9360
34643SOL     OW 6245   7.520   7.890  10.067 -0.3330  0.2437 -0.3771
34643SOL    HW1 6246   7.451   7.840  10.024 -1.3561  1.6878 -0.5044
34643SOL    HW2 6247   7.597   7.834  10.063 -1.1743 -0.8923 -1.3742
34644SOL     OW 6248   3.270   1.121   9.228  0.1395 -0.4413  0.0192
34644SOL    HW1 6249   3.261   1.102   9.135 -1.7092  3.0941 -0.7005
34644SOL    HW2 6250   3.341   1.185   9.233 -0.7745  0.5554  0.7938
34645SOL     OW 6251   5.679   4.940   5.100 -0.2919 -0.4259  0.2327
34645SOL    HW1 6252   5.763   4.901   5.074 -0.1340 -0.3370  0.5989
34645SOL    HW2 6253   5.613   4.884   5.060 -0.0835 -1.6457  1.5202
34646SOL     OW 6254   4.663   0.626   1.699  0.3073 -0.5498  0.0876
34646SOL    HW1 6255   4.616   0.582   1.628 -1.1274  0.7603  0.1737
34646SOL    HW2 6256   4.658   0.564   1.773  0.1296 -1.1067 -0.3846
34647SOL     OW 6257   5.974   4.853  10.112 -0.6200  0.0185 -0.0961
34647SOL    HW1 6258   5.902   4.914  10.099 -3.5924 -3.0773  0.2292
34647SOL    HW2 6259   5.973   4.834  10.206  0.0351 -0.6889 -0.2164
34648SOL     OW 6260   2.851   5.677   0.919  0.0163  0.0992  0.2221
34648SOL    HW1 6261   2.793   5.753   0.907  1.0716  0.6619 -1.9052
34648SOL    HW2 6262   2.833   5.622   0.843  1.2734 -0.3820  0.2660
34649SOL     OW 6263   5.852  10.404   0.179  0.1128 -0.0659 -0.0096
34649SOL    HW1 6264   5.928  10.354   0.149 -0.0570 -0.4155  0.1438
34649SOL    HW2 6265   5.847  10.478   0.118 -0.7619 -1.2377 -1.4217
34650SOL     OW 6266   1.092  10.367   5.214 -0.0759  0.2536 -0.3345
34650SOL    HW1 6267   1.003  10.333   5.210 -0.6763  1.6908 -4.0047
34650SOL    HW2 6268   1.082  10.457   5.245 -0.3095  1.1382 -2.7775
34651SOL     OW 6269   4.097   9.724   6.036  0.5693 -0.3324 -0.2093
34651SOL    HW1 6270   4.184   9.754   6.063  0.4798  0.2546 -0.5505
34651SOL    HW2 6271   4.096   9.631   6.056  1.2042 -0.2999 -0.0127
34652SOL     OW 6272   7.981   1.429   7.422  0.2517  0.2814 -0.9880
34652SOL    HW1 6273   8.025   1.513   7.418  1.0738 -0.1155 -0.5733
34652SOL    HW2 6274   7.900   1.441   7.372 -0.2249  1.6497  0.0751
34653SOL     OW 6275   6.207  10.472  10.372 -0.2840 -0.5484  0.0874
34653SOL    HW1 6276   6.191  10.452  10.279  1.4774  0.1603 -0.4063
34653SOL    HW2 6277   6.170  10.397  10.419 -1.5538 -0.7424 -1.1413
34654SOL     OW 6278   6.161   4.610   3.953  0.3410 -0.0184  1.0783
34654SOL    HW1 6279   6.217   4.685   3.933  1.4723 -1.0708  0.1285
34654SOL    HW2 6280   6.102   4.642   4.022  0.6653  1.7746  0.5868
34655SOL     OW 6281  10.523   5.883   4.429 -0.2863 -0.5382  0.4436
34655SOL    HW1 6282  10.527   5.839   4.514 -0.7374 -0.4599  0.5112
34655SOL    HW2 6283  10.471   5.823   4.374 -0.8126 -0.1444  0.5057
34656SOL     OW 6284   9.012   3.518   2.489 -0.8869 -0.0069  0.7724
34656SOL    HW1 6285   9.019   3.545   2.397  0.1539  0.2040  0.9057
34656SOL    HW2 6286   9.007   3.423   2.486  1.0581 -0.1276  0.5787
34657SOL     OW 6287   7.509   4.411   5.094 -0.1263  0.1788  0.3581
34657SOL    HW1 6288   7.508   4.413   5.190  0.6318 -1.7366  0.4640
34657SOL    HW2 6289   7.421   4.439   5.068 -0.3182  0.7901  1.6034
34658SOL     OW 6290   9.813   6.009   2.462 -0.3459  0.3428  0.5165
34658SOL    HW1 6291   9.870   5.982   2.534 -1.4671 -0.8313  1.0172
34658SOL    HW2 6292   9.764   6.083   2.496  0.1934  0.7444  0.4244
34659SOL     OW 6293   8.206   0.554   0.492 -0.4562  0.2687  0.1476
34659SOL    HW1 6294   8.244   0.638   0.468 -1.4315  0.0960 -2.2565
34659SOL    HW2 6295   8.114   0.560   0.465 -0.3985 -1.7654 -0.7312
34660SOL     OW 6296   6.982   6.292   9.420 -0.2884 -0.3940 -0.2600
34660SOL    HW1 6297   7.056   6.256   9.467 -0.0532  0.5560  0.1362
34660SOL    HW2 6298   6.913   6.300   9.487 -0.4981 -0.5910 -0.4534
34661SOL     OW 6299  10.132  10.038   0.809 -0.4495 -0.6998 -0.1130
34661SOL    HW1 6300  10.147   9.954   0.766 -1.6492 -0.1740 -1.6481
34661SOL    HW2 6301  10.089  10.092   0.742  1.7502  1.7085  0.2412
34662SOL     OW 6302   2.511   8.381   6.406 -0.5613 -0.1139  0.9350
34662SOL    HW1 6303   2.581   8.444   6.391  1.2109 -1.3068  3.4562
34662SOL    HW2 6304   2.520   8.317   6.336  0.6257 -0.0392  1.0078
34663SOL     OW 6305   2.447   7.829   0.975  0.7551  0.1149  0.1270
34663SOL    HW1 6306   2.429   7.886   0.899 -1.5175  0.7185  1.0365
34663SOL    HW2 6307   2.463   7.890   1.047 -3.2326 -0.1278  1.4902
34664SOL     OW 6308  10.582   2.426   4.260 -0.4486 -0.1049  0.3392
34664SOL    HW1 6309  10.648   2.469   4.206  0.1687 -1.1911  0.1910
34664SOL    HW2 6310  10.622   2.342   4.284 -2.1556 -1.2695 -0.6217
34665SOL     OW 6311   6.999   0.642   5.130 -0.1407 -0.1387 -0.4438
34665SOL    HW1 6312   7.043   0.689   5.201  0.6264  0.9260 -1.5524
34665SOL    HW2 6313   6.990   0.708   5.061 -0.1284 -1.3233 -1.6220
34666SOL     OW 6314   1.646   6.946   0.874 -0.3364  0.5870  0.1953
34666SOL    HW1 6315   1.691   7.012   0.928 -2.1503 -0.6572  3.5349
34666SOL    HW2 6316   1.594   6.997   0.812  1.4698  2.1394 -0.1279
34667SOL     OW 6317   4.735   1.589   2.516 -0.2281 -0.7469  0.5781
34667SOL    HW1 6318   4.790   1.651   2.564  3.1449 -1.6961 -1.6424
34667SOL    HW2 6319   4.756   1.504   2.553 -1.2418 -1.0330  0.5271
34668SOL     OW 6320   5.590   9.304   3.889 -0.0736  0.5474  0.0213
34668SOL    HW1 6321   5.650   9.295   3.963  1.3772 -0.4721 -1.2002
34668SOL    HW2 6322   5.634   9.367   3.831  0.0771 -0.5484 -1.0973
34669SOL     OW 6323   2.820   5.441   9.355  0.3038 -0.0180 -0.7006
34669SOL    HW1 6324   2.758   5.370   9.372  1.3012 -1.1537 -1.6422
34669SOL    HW2 6325   2.804   5.466   9.265  0.6765  0.2022 -0.7085
34670SOL     OW 6326   4.755   7.675   5.921 -0.5331  0.0007  0.3250
34670SOL    HW1 6327   4.798   7.761   5.917  0.2737 -0.4231 -0.7266
34670SOL    HW2 6328   4.757   7.652   6.014  2.3919 -0.3721  0.2775
34671SOL     OW 6329   5.182   9.664   7.745 -0.5724 -0.4103  0.3553
34671SOL    HW1 6330   5.156   9.573   7.727  0.0091 -0.0721 -2.8302
34671SOL    HW2 6331   5.103   9.715   7.731 -0.4280 -0.2593  0.0760
34672SOL     OW 6332   4.200   4.343   5.805  0.1415  0.1408 -0.2353
34672SOL    HW1 6333   4.276   4.400   5.811  0.5394 -0.3715 -0.3969
34672SOL    HW2 6334   4.139   4.391   5.748  0.3121  0.5729 -0.0632
34673SOL     OW 6335   8.470   6.157   7.654 -0.1475  0.0275  0.0863
34673SOL    HW1 6336   8.425   6.220   7.597  0.1069  0.7361  0.6452
34673SOL    HW2 6337   8.523   6.104   7.594  0.2220  0.8481 -0.3279
34674SOL     OW 6338   6.937   1.117   7.173 -0.0468 -0.2683 -0.0662
34674SOL    HW1 6339   6.942   1.049   7.240 -0.8175 -0.4144 -0.1454
34674SOL    HW2 6340   6.845   1.119   7.148 -0.1594  1.2346  0.3739
34675SOL     OW 6341   8.466   4.057   8.014 -0.2854  0.0038  0.1088
34675SOL    HW1 6342   8.408   4.029   8.084 -0.8340 -0.7620 -0.6319
34675SOL    HW2 6343   8.530   4.115   8.057 -1.0508  0.1425  1.0897
34676SOL     OW 6344   9.017   0.214   5.729 -0.3550 -0.2882  0.0222
34676SOL    HW1 6345   9.105   0.210   5.690 -0.7984 -1.1119 -0.9403
34676SOL    HW2 6346   9.028   0.269   5.806  0.1992  3.1144 -2.2657
34677SOL     OW 6347   4.799   4.505   1.186  0.3400  0.4703  0.2166
34677SOL    HW1 6348   4.832   4.584   1.229  0.5777  1.2307 -1.3284
34677SOL    HW2 6349   4.705   4.519   1.179  0.3202  0.4085  0.3468
34678SOL     OW 6350   3.012   5.892   0.982  0.2244 -0.0564  0.2485
34678SOL    HW1 6351   3.002   5.917   1.074 -0.9126  0.0464  0.1051
34678SOL    HW2 6352   2.975   5.804   0.976  0.8370 -0.3051  0.0010
34679SOL     OW 6353  10.062   0.507  10.581  0.3824  0.3196 -0.2332
34679SOL    HW1 6354  10.101   0.490  10.495  2.7351 -0.0826  0.8308
34679SOL    HW2 6355  10.003   0.581  10.566 -0.4144 -0.6596 -2.4517
34680SOL     OW 6356   4.348   6.365  10.321 -0.1178  0.0920  0.4022
34680SOL    HW1 6357   4.374   6.349  10.412  0.3364  0.7036  0.3820
34680SOL    HW2 6358   4.430   6.370  10.273 -0.3788 -1.1294 -0.2115
34681SOL     OW 6359   1.922   4.980   6.459  0.1677 -0.7619  0.1099
34681SOL    HW1 6360   1.833   5.012   6.449  0.6007  1.0927  1.6748
34681SOL    HW2 6361   1.960   4.986   6.371 -0.2263  1.7288  0.0468
34682SOL     OW 6362   6.465   5.450   4.745 -0.1531  0.0934  0.5328
34682SOL    HW1 6363   6.528   5.390   4.706  0.1630  1.3008 -0.9520
34682SOL    HW2 6364   6.387   5.443   4.688 -0.4604  0.3755  0.9107
34683SOL     OW 6365   7.564   5.739   1.486 -0.8369  0.3317  0.2052
34683SOL    HW1 6366   7.600   5.707   1.569 -1.3247 -1.0190 -0.0841
34683SOL    HW2 6367   7.607   5.824   1.473  1.3430 -0.6467  0.4886
34684SOL     OW 6368   9.634   2.585   6.061  0.6226  0.2376 -0.2269
34684SOL    HW1 6369   9.560   2.530   6.086  1.1735  0.1006  1.1901
34684SOL    HW2 6370   9.597   2.649   5.999 -0.1520 -1.2939 -1.4034
34685SOL     OW 6371   7.159   3.374   2.050 -0.3769 -0.2395  0.3706
34685SOL    HW1 6372   7.249   3.343   2.040 -0.2258  0.7040 -1.7145
34685SOL    HW2 6373   7.126   3.326   2.125  1.5749 -1.2862  0.6380
34686SOL     OW 6374   9.849   8.757   2.026  0.1543  0.0165 -0.1855
34686SOL    HW1 6375   9.859   8.842   1.983  0.4146  0.2792  0.3969
34686SOL    HW2 6376   9.800   8.775   2.106  0.9521 -0.2425  0.3798
34687SOL     OW 6377   1.589   6.197   6.094  0.6044 -0.0887  0.5600
34687SOL    HW1 6378   1.603   6.102   6.093 -1.4790 -0.4489  0.3517
34687SOL    HW2 6379   1.506   6.209   6.048  1.0643  1.9094  0.1566
34688SOL     OW 6380   7.018   1.553   2.174  0.0298 -0.1298  0.0865
34688SOL    HW1 6381   7.072   1.561   2.252 -0.7309  0.9864  0.5290
34688SOL    HW2 6382   6.928   1.562   2.206 -0.3805 -1.0947 -0.7389
34689SOL     OW 6383   6.153   3.910   6.111  0.8290  0.2293 -0.2307
34689SOL    HW1 6384   6.197   3.993   6.131 -0.5304  0.6386  1.2820
34689SOL    HW2 6385   6.127   3.917   6.020  0.0720  1.8123  0.0776
34690SOL     OW 6386   6.750   1.791   9.863 -0.1193 -0.0986  0.3283
34690SOL    HW1 6387   6.784   1.708   9.829 -0.6198 -1.2034  2.3856
34690SOL    HW2 6388   6.803   1.858   9.818  0.9621 -1.5353 -0.6648
34691SOL     OW 6389   0.449   8.281   0.732 -0.2655  0.7315  0.3599
34691SOL    HW1 6390   0.499   8.337   0.672  0.3688  1.0056  1.1419
34691SOL    HW2 6391   0.503   8.203   0.742  1.4140  2.0952  3.3056
34692SOL     OW 6392   4.437   9.032   7.979 -0.4327 -0.0065  0.6141
34692SOL    HW1 6393   4.494   8.986   7.917 -0.3664  1.0342 -0.1293
34692SOL    HW2 6394   4.395   9.100   7.926 -0.5512  0.7563  1.6709
34693SOL     OW 6395   4.255   0.426   6.462 -0.8828  0.7703 -0.0120
34693SOL    HW1 6396   4.348   0.450   6.461 -0.5946 -0.3156 -0.3446
34693SOL    HW2 6397   4.212   0.494   6.409 -0.1363  0.7161 -0.6991
34694SOL     OW 6398   0.190   6.173   3.163  0.5680 -0.6759  0.0327
34694SOL    HW1 6399   0.263   6.144   3.217  0.2243  0.6642  1.3128
34694SOL    HW2 6400   0.146   6.240   3.217 -0.6024 -0.2534 -1.3763
34695SOL     OW 6401   9.879   7.217   8.565  0.3714 -0.0239  0.3522
34695SOL    HW1 6402   9.815   7.242   8.632 -0.7310 -1.2626 -0.2034
34695SOL    HW2 6403   9.936   7.293   8.558  0.2444  0.3161  2.3645
34696SOL     OW 6404   4.809   0.624   9.377 -0.1710 -0.6562  0.3114
34696SOL    HW1 6405   4.806   0.641   9.282 -1.2502 -0.9968  0.2746
34696SOL    HW2 6406   4.835   0.708   9.415 -0.3200 -0.3523 -0.2496
34697SOL     OW 6407   8.566   1.305   8.800 -0.4346  0.2098  0.0333
34697SOL    HW1 6408   8.549   1.377   8.860  0.0772  2.0425 -1.8888
34697SOL    HW2 6409   8.499   1.314   8.732  0.1588 -0.6082 -0.6889
34698SOL     OW 6410   0.296   3.215   2.549  0.5947  0.6159 -0.4378
34698SOL    HW1 6411   0.343   3.188   2.628  3.3854  1.1717 -1.7900
34698SOL    HW2 6412   0.228   3.274   2.580  0.9511  0.0113  1.6229
34699SOL     OW 6413   0.114   3.943   5.738  0.4321  0.2239  0.0749
34699SOL    HW1 6414   0.054   4.011   5.767  1.3903  2.0731 -1.9560
34699SOL    HW2 6415   0.092   3.930   5.646  2.5268  0.3734 -0.5060
34700SOL     OW 6416   3.053   2.913   7.744  0.0761 -0.3206 -0.7073
34700SOL    HW1 6417   3.041   2.949   7.656  2.0836 -2.1598 -1.8236
34700SOL    HW2 6418   3.021   2.823   7.739  2.1750 -1.1474 -0.2224
34701SOL     OW 6419   0.153   7.308  10.343  0.0842  0.2636  0.5505
34701SOL    HW1 6420   0.118   7.340  10.426  0.0290  0.1741  0.5620
34701SOL    HW2 6421   0.084   7.251  10.308 -0.5363  1.4800 -0.2839
34702SOL     OW 6422   1.280   1.126   2.220 -0.7673  0.4330  0.3501
34702SOL    HW1 6423   1.254   1.215   2.245  1.2927  1.1668  0.1002
34702SOL    HW2 6424   1.374   1.133   2.202 -0.4821 -1.8827  0.6366
34703SOL     OW 6425   6.746   4.846   0.486  0.1251  0.0452 -0.2976
34703SOL    HW1 6426   6.806   4.775   0.464 -1.3847 -1.2556 -0.3964
34703SOL    HW2 6427   6.699   4.863   0.404 -1.8795 -1.2308  0.5081
34704SOL     OW 6428  10.439   4.816   7.002 -0.2842 -0.1306 -0.3404
34704SOL    HW1 6429  10.362   4.790   6.952 -0.2771  2.1705 -1.6859
34704SOL    HW2 6430  10.512   4.773   6.956 -0.5059 -0.0245 -0.7973
34705SOL     OW 6431   5.534   4.964   5.561 -0.0765 -0.0178  0.1397
34705SOL    HW1 6432   5.449   5.006   5.544  0.4871  1.4901  0.9499
34705SOL    HW2 6433   5.587   5.031   5.603  1.3859 -1.0860  0.0848
34706SOL     OW 6434   3.178   0.464   6.749 -0.2052  0.4422  0.2818
34706SOL    HW1 6435   3.259   0.461   6.801  0.1305 -0.4622 -0.2731
34706SOL    HW2 6436   3.193   0.533   6.684  0.2210  0.1057  0.0210
34707SOL     OW 6437   9.029   6.758   6.889  0.0070 -0.2282 -0.2258
34707SOL    HW1 6438   9.096   6.731   6.952 -0.6222 -0.7112  0.2411
34707SOL    HW2 6439   9.067   6.835   6.846  0.0253  0.7742  1.4850
34708SOL     OW 6440   5.436   3.287   2.179 -0.2319 -0.2406 -0.1500
34708SOL    HW1 6441   5.439   3.351   2.250  1.4862  0.6161 -0.9384
34708SOL    HW2 6442   5.510   3.229   2.197 -0.2335 -0.4548 -0.8240
34709SOL     OW 6443   4.872   8.135   9.426  0.3893 -0.1247 -0.1154
34709SOL    HW1 6444   4.811   8.175   9.489  0.1232  0.2477 -0.6066
34709SOL    HW2 6445   4.905   8.208   9.375  1.6860 -0.2512  0.4994
34710SOL     OW 6446   9.838   2.267   4.281 -1.0642  0.4908  0.1122
34710SOL    HW1 6447   9.906   2.332   4.301  0.6073 -0.9764 -0.5583
34710SOL    HW2 6448   9.847   2.201   4.350 -0.7837 -0.4749 -0.8291
34711SOL     OW 6449   5.267   4.734   1.921  0.2299 -0.0363  0.5142
34711SOL    HW1 6450   5.246   4.655   1.972 -3.5775  0.0644 -0.5770
34711SOL    HW2 6451   5.287   4.801   1.986 -3.6428 -0.1221  2.0182
34712SOL     OW 6452  10.017   9.702   8.038  0.0663  0.0479  0.7165
34712SOL    HW1 6453  10.007   9.626   8.094  1.5671  0.0357  1.0053
34712SOL    HW2 6454   9.927   9.730   8.019 -0.4947 -0.4424  2.4324
34713SOL     OW 6455   0.580   3.530   5.282 -0.0666  0.5151  0.0548
34713SOL    HW1 6456   0.531   3.590   5.339  1.0461  0.9841  0.5593
34713SOL    HW2 6457   0.598   3.581   5.203 -0.3106  0.3707 -0.0957
34714SOL     OW 6458   4.897  10.402   5.561  0.0648 -0.2858  0.4088
34714SOL    HW1 6459   4.922  10.381   5.471 -3.3775  0.9702 -1.0095
34714SOL    HW2 6460   4.880  10.317   5.602  0.5937 -0.8259 -0.4613
34715SOL     OW 6461   4.232   4.526   9.133  0.0548 -0.3569 -0.2854
34715SOL    HW1 6462   4.253   4.511   9.040  0.9621 -0.0513 -0.1407
34715SOL    HW2 6463   4.305   4.486   9.180 -1.5393 -2.6161  0.4222
34716SOL     OW 6464   2.893   6.951   1.929 -0.1126  0.5010 -0.5587
34716SOL    HW1 6465   2.871   7.025   1.872  0.1057  1.3347  0.4058
34716SOL    HW2 6466   2.972   6.979   1.974 -0.6962  0.1838  0.6960
34717SOL     OW 6467   6.042   3.675   0.613  0.0469 -0.2782 -0.1321
34717SOL    HW1 6468   5.986   3.734   0.563 -1.0709 -1.4935 -0.3496
34717SOL    HW2 6469   6.085   3.621   0.547  1.1710  0.3423  0.0589
34718SOL     OW 6470   9.641   3.790   1.568  0.2080  0.5661  0.1397
34718SOL    HW1 6471   9.683   3.851   1.629 -1.2037  1.3185  0.4051
34718SOL    HW2 6472   9.638   3.837   1.485 -0.0521  0.5110  0.1150
34719SOL     OW 6473   4.149   1.889   2.924 -0.0659 -0.0114 -0.6063
34719SOL    HW1 6474   4.240   1.861   2.928 -0.1763 -0.2783  0.2187
34719SOL    HW2 6475   4.141   1.952   2.996 -0.4968  0.1334 -0.7782
34720SOL     OW 6476   3.889  10.443   4.716  0.7568  0.3505  0.3063
34720SOL    HW1 6477   3.855  10.371   4.769  0.0219  0.7800  0.4267
34720SOL    HW2 6478   3.899  10.516   4.778 -0.0350  0.8320 -0.1245
34721SOL     OW 6479   7.277   5.690   4.922  0.3916  0.0624 -0.2663
34721SOL    HW1 6480   7.198   5.639   4.907 -1.5220  2.7430 -0.0712
34721SOL    HW2 6481   7.324   5.686   4.839 -2.0603  1.6970 -1.8544
34722SOL     OW 6482   6.497  10.277   0.139 -0.0284 -0.3825 -0.6187
34722SOL    HW1 6483   6.493  10.227   0.220 -0.6541 -0.8006 -0.8940
34722SOL    HW2 6484   6.565  10.342   0.154 -0.2829 -0.3121  0.3225
34723SOL     OW 6485   1.319   3.898   2.011  0.2823 -0.2898  0.1268
34723SOL    HW1 6486   1.227   3.902   2.039 -0.4345 -2.2410 -1.6836
34723SOL    HW2 6487   1.327   3.967   1.945 -0.0047 -0.4532 -0.0762
34724SOL     OW 6488   9.438   3.725   7.479 -0.0124  0.1033 -0.0573
34724SOL    HW1 6489   9.352   3.683   7.467  0.5562 -0.5627 -2.2671
34724SOL    HW2 6490   9.418   3.819   7.486 -0.9216  0.0147 -1.1066
34725SOL     OW 6491   0.641   2.206   9.492  0.2492  0.2376  0.5514
34725SOL    HW1 6492   0.621   2.141   9.560 -0.2245 -1.1102 -0.7922
34725SOL    HW2 6493   0.563   2.205   9.436  0.9302  0.7371 -0.4264
34726SOL     OW 6494   1.206   7.878   7.446 -0.4094  0.2243 -0.1992
34726SOL    HW1 6495   1.151   7.899   7.522 -0.2797  0.0043 -0.0421
34726SOL    HW2 6496   1.163   7.921   7.372 -0.1350  1.0832  0.1224
34727SOL     OW 6497   9.975   7.966   3.405 -0.1035  0.5364  0.0819
34727SOL    HW1 6498  10.065   7.972   3.374  0.7213 -0.2744  2.1653
34727SOL    HW2 6499   9.971   8.024   3.481 -1.4141  0.7527 -0.1251
34728SOL     OW 6500   0.563   4.762   4.730 -0.0614  0.1572  0.1608
34728SOL    HW1 6501   0.639   4.803   4.770  0.5746 -0.3284 -0.5293
34728SOL    HW2 6502   0.494   4.828   4.738 -0.3785 -0.3939  3.2497
34729SOL     OW 6503   2.608   5.024   4.295 -0.0136 -0.2100 -0.3970
34729SOL    HW1 6504   2.560   4.941   4.296  0.0425 -0.2327  0.5006
34729SOL    HW2 6505   2.676   5.014   4.361  0.4828  0.2736 -0.8187
34730SOL     OW 6506   8.854   5.138   3.400 -0.3261 -0.3327 -0.3513
34730SOL    HW1 6507   8.780   5.195   3.419  0.0807  0.8319 -2.0057
34730SOL    HW2 6508   8.922   5.165   3.462  0.0213  1.3639 -1.4055
34731SOL     OW 6509   3.855   2.720   9.391  0.9242  0.2597 -0.2595
34731SOL    HW1 6510   3.842   2.684   9.478 -1.3022  0.5395 -0.4257
34731SOL    HW2 6511   3.800   2.798   9.389  1.4724  0.6359 -1.6926
34732SOL     OW 6512   5.117   1.552   9.602  0.5554 -0.4049 -0.0942
34732SOL    HW1 6513   5.128   1.503   9.684  2.1497  0.1413  0.0643
34732SOL    HW2 6514   5.086   1.638   9.630 -0.3099 -0.6738 -0.2026
34733SOL     OW 6515   7.381   1.052   1.522  0.3231  0.5716  0.2983
34733SOL    HW1 6516   7.325   1.011   1.588 -1.5384 -1.2875 -2.2434
34733SOL    HW2 6517   7.333   1.132   1.497  0.0198  0.2629 -0.1298
34734SOL     OW 6518   7.555   8.012   5.502  0.1519  0.0978 -0.0228
34734SOL    HW1 6519   7.470   8.055   5.502  0.1818  0.1708  0.6619
34734SOL    HW2 6520   7.585   8.018   5.411 -1.3319 -1.4467 -0.6850
34735SOL     OW 6521   2.229   6.622   5.559  0.3520  0.6166 -0.4935
34735SOL    HW1 6522   2.213   6.688   5.626  0.0103 -0.4679  0.5168
34735SOL    HW2 6523   2.247   6.673   5.480 -0.7667  1.9266  0.0427
34736SOL     OW 6524   6.323   2.855   1.599 -0.4400 -0.2521 -0.5338
34736SOL    HW1 6525   6.384   2.786   1.572  0.0978  0.3006 -0.7579
34736SOL    HW2 6526   6.244   2.839   1.546 -1.1436 -1.9592  0.9291
34737SOL     OW 6527   2.827   8.260   1.081  0.1488  0.0225 -0.1945
34737SOL    HW1 6528   2.864   8.176   1.053 -0.7082 -0.6945  0.7389
34737SOL    HW2 6529   2.789   8.297   1.001 -1.8260 -1.7535 -0.1757
34738SOL     OW 6530   8.025   8.839   6.924 -0.0993 -0.3628  0.2284
34738SOL    HW1 6531   8.067   8.829   6.838  0.3667  0.4497  0.3518
34738SOL    HW2 6532   8.083   8.792   6.984 -0.6505 -1.2962  0.0437
34739SOL     OW 6533   8.054   6.962   1.850 -0.3772  0.3299 -0.3442
34739SOL    HW1 6534   8.095   7.047   1.866  0.2769 -0.2013  0.9103
34739SOL    HW2 6535   8.005   6.943   1.930  0.7867 -1.1944  0.0496
34740SOL     OW 6536   2.542   6.979   3.734 -0.5330 -0.6592 -0.3046
34740SOL    HW1 6537   2.567   6.888   3.718  0.4759 -0.9551  2.5013
34740SOL    HW2 6538   2.480   6.975   3.807 -0.7974  0.8778 -0.4056
34741SOL     OW 6539   3.733   0.697   9.322 -0.2566  0.2799 -0.4733
34741SOL    HW1 6540   3.782   0.739   9.393  0.5762 -0.3109 -0.6833
34741SOL    HW2 6541   3.660   0.757   9.305 -0.9668  0.0130  1.4379
34742SOL     OW 6542   0.934   6.242   2.892  0.0947 -0.0335  0.2823
34742SOL    HW1 6543   1.014   6.241   2.840 -1.3852 -1.6308 -2.2104
34742SOL    HW2 6544   0.918   6.335   2.911  1.0930  0.5664 -1.5717
34743SOL     OW 6545   9.831  10.519   6.396  0.4540 -0.6268  0.2261
34743SOL    HW1 6546   9.841  10.498   6.489 -0.5277  2.5192  1.1711
34743SOL    HW2 6547   9.747  10.566   6.391  1.4717  1.1506 -1.8478
34744SOL     OW 6548   4.605   7.417   3.942 -0.3936  1.0342 -0.0792
34744SOL    HW1 6549   4.677   7.457   3.895  0.4799  1.1366  1.2875
34744SOL    HW2 6550   4.534   7.482   3.937 -0.2009  1.1860 -0.9235
34745SOL     OW 6551   4.901   4.858   3.463 -0.2400 -0.1254 -0.3322
34745SOL    HW1 6552   4.889   4.914   3.386 -2.0038 -0.7537 -0.5551
34745SOL    HW2 6553   4.830   4.883   3.522  1.2379  0.5319  1.2557
34746SOL     OW 6554   7.326   3.033   2.480  0.2964 -0.4639  0.3068
34746SOL    HW1 6555   7.278   3.041   2.398  0.0106 -3.8089 -0.0136
34746SOL    HW2 6556   7.417   3.053   2.457  0.4120 -2.4027 -1.1714
34747SOL     OW 6557   8.461   3.919   5.164  0.1694 -0.2899  0.2417
34747SOL    HW1 6558   8.382   3.948   5.209  1.0455  1.3701  0.7790
34747SOL    HW2 6559   8.474   3.828   5.193 -1.9149 -0.8631 -0.4552
34748SOL     OW 6560   7.970   7.681   1.580  0.0437  0.3440  0.3595
34748SOL    HW1 6561   7.975   7.618   1.509  0.3320 -0.1460  0.8113
34748SOL    HW2 6562   8.061   7.695   1.606 -0.1561 -0.6473  1.6557
34749SOL     OW 6563   5.030   0.414   8.026 -0.2055  0.2035  0.3288
34749SOL    HW1 6564   5.003   0.351   8.093  0.4761 -0.1681  0.2560
34749SOL    HW2 6565   5.125   0.403   8.019  0.0217  1.6239  0.7257
34750SOL     OW 6566   4.790   4.196   5.794  0.1744 -0.1767 -0.2008
34750SOL    HW1 6567   4.772   4.121   5.852 -1.5488  0.1430 -0.2748
34750SOL    HW2 6568   4.854   4.162   5.731  0.5497 -1.1390  0.6624
34751SOL     OW 6569   1.800   0.744   1.152 -0.5147 -0.0266  0.0471
34751SOL    HW1 6570   1.741   0.814   1.180 -0.1410 -0.0143  0.8304
34751SOL    HW2 6571   1.788   0.739   1.057 -0.8000  0.8632  0.0259
34752SOL     OW 6572   2.384   0.780   7.321  0.2727 -0.2107  0.2617
34752SOL    HW1 6573   2.391   0.726   7.399  0.2881 -1.2930 -0.4780
34752SOL    HW2 6574   2.369   0.719   7.249 -0.6117  0.8170 -0.4771
34753SOL     OW 6575   5.833   3.234   5.523  0.5703  0.3681 -0.4618
34753SOL    HW1 6576   5.894   3.260   5.454  1.8144 -0.9375  0.0924
34753SOL    HW2 6577   5.783   3.161   5.485  0.5545  0.3069 -0.3244
34754SOL     OW 6578   8.026   9.812   8.961 -0.3335 -0.0929  0.3029
34754SOL    HW1 6579   7.999   9.886   9.015 -0.4674  0.1172 -0.0464
34754SOL    HW2 6580   8.119   9.827   8.945 -0.7576  1.0275 -1.3352
34755SOL     OW 6581   9.025   2.100   8.557 -0.3403 -0.0884  0.5938
34755SOL    HW1 6582   9.088   2.035   8.526  0.0614  1.0240 -1.0608
34755SOL    HW2 6583   9.062   2.133   8.638  1.7478  1.1778 -0.7872
34756SOL     OW 6584   4.856   6.685   7.883  0.4144 -0.1743 -0.2053
34756SOL    HW1 6585   4.878   6.668   7.975 -0.8015 -0.5636  0.0246
34756SOL    HW2 6586   4.932   6.652   7.834  0.5657 -1.0600  0.5882
34757SOL     OW 6587   5.338   1.470   0.103  0.5602 -0.2269 -0.2833
34757SOL    HW1 6588   5.358   1.431   0.018  2.2876 -0.6824  0.2979
34757SOL    HW2 6589   5.326   1.396   0.162 -1.2115  0.0735 -0.2105
34758SOL     OW 6590   5.740   2.075   6.508  0.3339  0.0419  0.3611
34758SOL    HW1 6591   5.682   2.010   6.469 -0.5860  1.9094 -1.5538
34758SOL    HW2 6592   5.827   2.036   6.501  0.0731 -0.1762 -2.6259
34759SOL     OW 6593   2.255  10.109   0.355  0.0963  0.0711 -0.0670
34759SOL    HW1 6594   2.303  10.057   0.290 -0.2273  0.2018 -0.4150
34759SOL    HW2 6595   2.299  10.195   0.353 -0.3009  0.2669 -0.5615
34760SOL     OW 6596   6.614   5.850   1.127  0.1189  0.3891  0.4301
34760SOL    HW1 6597   6.573   5.933   1.106 -1.6202 -0.0476  1.8173
34760SOL    HW2 6598   6.541   5.788   1.136  1.1131 -0.6243  2.1950
34761SOL     OW 6599   9.207   4.964   4.106 -0.1991  0.1898  0.0747
34761SOL    HW1 6600   9.215   5.026   4.033  0.1306  0.3442  0.2364
34761SOL    HW2 6601   9.135   4.999   4.158 -1.3536 -0.6696 -0.8840
34762SOL     OW 6602   1.222   1.725   7.298  0.5004  0.6174 -0.6010
34762SOL    HW1 6603   1.284   1.773   7.353 -0.2071  1.1857 -0.2666
34762SOL    HW2 6604   1.271   1.701   7.220  0.3244  4.0359 -1.9604
34763SOL     OW 6605   3.379  10.367   6.104  0.2777 -0.3593  0.9539
34763SOL    HW1 6606   3.359  10.313   6.028 -1.1586  1.8635 -0.3467
34763SOL    HW2 6607   3.470  10.394   6.091  0.3485 -0.7832  0.5468
34764SOL     OW 6608   2.366   3.882   3.396  0.2847  0.6120 -0.1647
34764SOL    HW1 6609   2.372   3.975   3.374 -1.0056  0.4879 -1.1530
34764SOL    HW2 6610   2.272   3.865   3.406  0.5140 -0.5402  0.2428
34765SOL     OW 6611   1.422   0.493   3.786 -0.0462  0.1870  1.0244
34765SOL    HW1 6612   1.349   0.436   3.809  0.0045  0.2979  1.4770
34765SOL    HW2 6613   1.388   0.549   3.716  0.7431 -2.2096 -1.4351
34766SOL     OW 6614   5.510   6.434   5.867 -0.4106  0.1638 -0.6259
34766SOL    HW1 6615   5.494   6.493   5.941  0.8330 -0.5408  0.2512
34766SOL    HW2 6616   5.522   6.348   5.907 -0.1021 -0.3016 -1.6890
34767SOL     OW 6617   5.393   9.449   6.894  0.1532 -0.6462  0.8660
34767SOL    HW1 6618   5.363   9.528   6.849 -1.8269 -1.2668  0.9919
34767SOL    HW2 6619   5.483   9.468   6.919  0.5681  0.5803 -1.3351
34768SOL     OW 6620   9.420   3.842   0.612  0.5927 -0.1631 -0.5883
34768SOL    HW1 6621   9.443   3.871   0.524  3.5166  1.0260  0.4182
34768SOL    HW2 6622   9.386   3.920   0.655  0.3643 -0.4152 -0.3050
34769SOL     OW 6623   0.697  10.077   3.105  1.0096 -0.1780 -0.0872
34769SOL    HW1 6624   0.787  10.043   3.101  0.8240 -0.6633 -0.2922
34769SOL    HW2 6625   0.707  10.172   3.108  1.5846 -0.2570  1.5972
34770SOL     OW 6626   6.112  10.053   3.303  0.4893 -0.5771 -0.5684
34770SOL    HW1 6627   6.108  10.137   3.257 -1.5065 -0.6254 -0.5303
34770SOL    HW2 6628   6.184  10.065   3.366 -1.6480  2.2681  1.5865
34771SOL     OW 6629   6.685  10.579   8.832 -0.3697 -0.1827  0.0373
34771SOL    HW1 6630   6.776  10.547   8.836 -1.2606 -3.1680 -0.6982
34771SOL    HW2 6631   6.665  10.577   8.738 -1.0398  1.0219  0.1481
34772SOL     OW 6632   2.433   3.078   0.259 -0.0361 -0.0187  0.1752
34772SOL    HW1 6633   2.466   3.138   0.192 -1.2477  0.5694  0.0714
34772SOL    HW2 6634   2.359   3.125   0.298 -0.6531 -1.2152  0.4753
34773SOL     OW 6635   5.583   8.996   3.837 -0.3944 -0.0820  0.5348
34773SOL    HW1 6636   5.626   8.989   3.752  1.0176 -0.2730  1.2393
34773SOL    HW2 6637   5.582   9.090   3.856 -0.7433 -0.0366  0.2956
34774SOL     OW 6638   5.283  10.150   0.181 -0.2155  0.0340  0.0054
34774SOL    HW1 6639   5.346  10.086   0.148 -1.4198 -1.2504  0.0825
34774SOL    HW2 6640   5.320  10.179   0.264  1.6755  1.5124 -1.2759
34775SOL     OW 6641   2.977   6.698   4.995 -0.3312  0.0328  0.0937
34775SOL    HW1 6642   2.922   6.681   4.918 -1.6792  0.0778  1.0117
34775SOL    HW2 6643   2.918   6.684   5.070  1.3210 -1.5445  1.1966
34776SOL     OW 6644   1.840   2.394   3.026  0.5630 -0.2893 -0.2053
34776SOL    HW1 6645   1.787   2.384   2.947 -0.4298 -1.2347  0.5563
34776SOL    HW2 6646   1.902   2.464   3.004  0.2103 -0.4148 -1.7575
34777SOL     OW 6647   5.560   2.142   1.227 -0.0436 -0.0336  0.3538
34777SOL    HW1 6648   5.622   2.133   1.154  0.5539  0.6904  0.7559
34777SOL    HW2 6649   5.482   2.095   1.198 -1.1865  3.1404 -2.2896
34778SOL     OW 6650   8.274   5.911   5.929 -0.3476  0.6984 -0.1595
34778SOL    HW1 6651   8.356   5.936   5.886 -0.6798  1.2754 -0.4896
34778SOL    HW2 6652   8.224   5.868   5.860  0.6699 -2.0400  0.6943
34779SOL     OW 6653   3.951   5.890   5.383 -0.3533 -0.2040  0.3250
34779SOL    HW1 6654   4.020   5.941   5.427  0.2358 -1.6021  1.0955
34779SOL    HW2 6655   3.987   5.802   5.377 -2.1344 -1.0082  0.8622
34780SOL     OW 6656   7.232   4.700   2.103 -0.5399  0.2956 -0.2897
34780SOL    HW1 6657   7.324   4.679   2.085 -0.5859 -0.2966  0.1174
34780SOL    HW2 6658   7.184   4.624   2.071 -0.8275  0.3152  0.0825
34781SOL     OW 6659   2.704   9.489   4.446 -0.5846 -0.8201  0.8948
34781SOL    HW1 6660   2.756   9.410   4.460 -0.7529 -0.9342  0.8746
34781SOL    HW2 6661   2.688   9.491   4.352  1.5421  0.5698  0.4741
34782SOL     OW 6662   5.411   8.518   1.047  0.2548 -0.3017  0.7522
34782SOL    HW1 6663   5.391   8.481   0.962 -0.6308  0.1010  0.7677
34782SOL    HW2 6664   5.502   8.495   1.063  0.7036  0.3544 -0.6873
34783SOL     OW 6665   7.726   1.264  10.449 -0.4957  0.1602 -0.1839
34783SOL    HW1 6666   7.774   1.292  10.527 -0.7773 -3.1336  1.3345
34783SOL    HW2 6667   7.635   1.286  10.468 -0.3209  1.3722 -0.6329
34784SOL     OW 6668   6.404   5.816   5.119 -0.3752 -0.4569 -0.0160
34784SOL    HW1 6669   6.481   5.782   5.164 -1.6667 -0.0604  2.7355
34784SOL    HW2 6670   6.399   5.767   5.038  0.3244 -3.6826  1.7408
34785SOL     OW 6671   9.543   6.814   8.734 -0.5855  0.4259  0.3932
34785SOL    HW1 6672   9.580   6.743   8.787 -2.9493 -1.1612  0.0364
34785SOL    HW2 6673   9.492   6.866   8.796 -1.8112 -0.3325  0.0438
34786SOL     OW 6674   5.580   5.321   1.176  0.2035 -0.2512  0.4155
34786SOL    HW1 6675   5.587   5.365   1.260 -2.0586  1.0475  0.0187
34786SOL    HW2 6676   5.613   5.233   1.191  0.6908  0.2457  2.4167
34787SOL     OW 6677   0.955   8.972   7.873  0.0174 -0.0355 -0.3874
34787SOL    HW1 6678   1.028   9.029   7.847  0.8859 -3.1341 -6.2552
34787SOL    HW2 6679   0.877   9.016   7.839 -0.1954  0.5399  0.7866
34788SOL     OW 6680   5.490   4.418   8.338 -0.8312  0.5283  0.2640
34788SOL    HW1 6681   5.564   4.436   8.279 -0.4459 -0.0169  0.5797
34788SOL    HW2 6682   5.429   4.490   8.321 -0.6624  0.4631 -0.6983
34789SOL     OW 6683   9.043   7.186  10.436 -0.3397 -0.1949 -0.0296
34789SOL    HW1 6684   9.062   7.186  10.342  1.3751 -0.1146  0.2828
34789SOL    HW2 6685   8.988   7.109  10.449 -0.6552 -0.1683 -1.1065
34790SOL     OW 6686   3.774   5.440   2.982 -0.9709  0.0717 -0.4159
34790SOL    HW1 6687   3.790   5.376   3.051 -2.0539 -1.7992 -1.7894
34790SOL    HW2 6688   3.684   5.423   2.954 -1.9363  3.3866  0.2731
34791SOL     OW 6689   7.980   2.287   3.727  0.0607 -0.7589  0.1199
34791SOL    HW1 6690   8.029   2.310   3.807  0.7807  2.1231 -1.0442
34791SOL    HW2 6691   8.045   2.294   3.657 -1.7589  2.6810 -1.4253
34792SOL     OW 6692   6.871   6.031   6.615  0.0626 -0.2302  0.0796
34792SOL    HW1 6693   6.884   5.939   6.638  2.3932  0.7207  3.2650
34792SOL    HW2 6694   6.947   6.054   6.562  0.2799  0.2016  0.5678
34793SOL     OW 6695   7.424   3.070   6.585 -0.4989 -0.6272  0.1496
34793SOL    HW1 6696   7.516   3.059   6.609  0.3872  0.7350 -2.2983
34793SOL    HW2 6697   7.398   2.986   6.549 -0.2040 -0.9791  0.7345
34794SOL     OW 6698   4.562   6.155   4.776 -0.2044 -0.1955  0.1267
34794SOL    HW1 6699   4.552   6.118   4.688  1.3986 -1.6084  0.4969
34794SOL    HW2 6700   4.654   6.183   4.780 -0.1742 -0.4341  1.4533
34795SOL     OW 6701   8.321   0.649   9.514 -0.2945 -0.7002  0.0062
34795SOL    HW1 6702   8.319   0.716   9.583 -0.2636  1.2428 -1.7682
34795SOL    HW2 6703   8.253   0.586   9.540  1.4863 -1.5421  3.1306
34796SOL     OW 6704   9.533   6.839   4.534 -0.1451 -0.0446 -0.1847
34796SOL    HW1 6705   9.441   6.859   4.515  0.0124  1.3656  0.4455
34796SOL    HW2 6706   9.530   6.789   4.615 -0.3092  0.8742  0.3908
34797SOL     OW 6707   4.234   2.770   5.366  0.0240 -0.8519 -0.4334
34797SOL    HW1 6708   4.154   2.729   5.399  0.2252  0.5795  2.1006
34797SOL    HW2 6709   4.247   2.731   5.280 -2.0816 -2.8861  0.0605
34798SOL     OW 6710   3.674   4.584   1.607  0.6521  0.4736  0.4405
34798SOL    HW1 6711   3.650   4.606   1.697  0.0037  0.8308  0.1884
34798SOL    HW2 6712   3.594   4.549   1.569  0.9483  0.2371  0.0265
34799SOL     OW 6713   6.134   7.325   0.753 -0.1162  0.6662 -0.7311
34799SOL    HW1 6714   6.044   7.335   0.783 -0.0673 -0.3583 -0.2163
34799SOL    HW2 6715   6.127   7.286   0.666 -0.1592 -0.8618 -0.0767
34800SOL     OW 6716   5.877   0.007   4.504 -0.4227  0.3494  0.0158
34800SOL    HW1 6717   5.875  -0.050   4.427 -0.6739  0.2012  0.1327
34800SOL    HW2 6718   5.819   0.080   4.482 -0.6776  0.1910  0.1531
34801SOL     OW 6719   5.604   3.308  10.463  0.2934  0.0606 -0.1354
34801SOL    HW1 6720   5.602   3.277  10.553  1.1500 -1.1600 -0.5139
34801SOL    HW2 6721   5.638   3.398  10.468  0.1404  0.0706  0.7555
34802SOL     OW 6722  10.259   5.406  10.234  0.4114  0.5980  0.6544
34802SOL    HW1 6723  10.334   5.349  10.216 -1.0669 -1.0378 -0.5816
34802SOL    HW2 6724  10.242   5.394  10.327  1.1183  0.3212  0.7560
34803SOL     OW 6725   2.151   6.694   2.989 -0.2193 -0.1965 -0.2156
34803SOL    HW1 6726   2.183   6.708   3.078  0.2106  3.1171 -0.7512
34803SOL    HW2 6727   2.062   6.728   2.989  0.3272  1.3314 -1.3611
34804SOL     OW 6728   7.103   3.977   1.007  0.2238  0.3877 -0.0270
34804SOL    HW1 6729   7.035   3.922   0.968  0.9337  0.4930 -1.4873
34804SOL    HW2 6730   7.176   3.972   0.945  1.1942  1.0361  1.0343
34805SOL     OW 6731   5.374   6.445   8.382 -0.6070 -0.2522 -0.0524
34805SOL    HW1 6732   5.314   6.397   8.325 -0.1748 -1.8281  0.7670
34805SOL    HW2 6733   5.461   6.414   8.357 -0.1492  1.3088 -0.5757
34806SOL     OW 6734   8.398  10.217  10.212 -0.0994  0.0613 -0.0205
34806SOL    HW1 6735   8.352  10.248  10.134 -0.7512 -2.4966 -0.7294
34806SOL    HW2 6736   8.491  10.222  10.189 -0.3107 -2.8722 -1.9859
34807SOL     OW 6737  10.420   0.833   1.999  0.6269 -0.3156 -0.1835
34807SOL    HW1 6738  10.447   0.786   2.079 -0.5266 -1.1706 -0.2718
34807SOL    HW2 6739  10.341   0.787   1.970 -1.0978  2.2271  0.2035
34808SOL     OW 6740   6.091   7.950   4.012 -0.4778  0.8354 -0.4599
34808SOL    HW1 6741   6.162   7.921   4.070 -0.0549  1.8950 -0.4231
34808SOL    HW2 6742   6.058   7.869   3.973 -0.0325  0.2098  0.4169
34809SOL     OW 6743   0.130   5.160   1.250 -0.1644 -0.2844 -0.4963
34809SOL    HW1 6744   0.121   5.085   1.192 -0.7376 -0.3189 -0.3674
34809SOL    HW2 6745   0.040   5.190   1.265  0.0782  0.6192 -0.7956
34810SOL     OW 6746   9.861   1.541   4.362 -0.1862 -0.6738 -0.1785
34810SOL    HW1 6747   9.771   1.549   4.393 -0.1980  1.7734 -0.6694
34810SOL    HW2 6748   9.859   1.576   4.273  1.3532  0.1491  0.0700
34811SOL     OW 6749   4.989   1.520   2.097  0.3552 -0.3861 -0.7938
34811SOL    HW1 6750   4.906   1.503   2.143 -0.0807  0.2569 -1.3255
34811SOL    HW2 6751   5.056   1.481   2.154 -0.0932  0.9617  0.7447
34812SOL     OW 6752   5.361   2.489   5.158  0.3346 -0.4399  0.5134
34812SOL    HW1 6753   5.453   2.500   5.182  0.5680 -0.2396 -0.4068
34812SOL    HW2 6754   5.354   2.398   5.129  1.0039  0.3010 -2.3301
34813SOL     OW 6755   8.807   4.154   9.082  0.3987 -0.0282 -0.2859
34813SOL    HW1 6756   8.768   4.067   9.080  1.8944 -0.7115 -1.6562
34813SOL    HW2 6757   8.895   4.140   9.116  0.5949  0.9810 -0.3570
34814SOL     OW 6758  10.035   5.047   8.896  0.2413 -0.6402 -0.0512
34814SOL    HW1 6759  10.025   5.131   8.852  1.5696 -0.6203 -0.3508
34814SOL    HW2 6760  10.114   5.057   8.950 -0.8345 -0.9649  1.6600
34815SOL     OW 6761   7.819  10.240   8.176  0.0267 -0.1700 -0.3667
34815SOL    HW1 6762   7.836  10.217   8.268 -1.2543 -2.3572 -0.6000
34815SOL    HW2 6763   7.903  10.270   8.143  0.7116 -0.1279  1.3030
34816SOL     OW 6764   3.003   3.011   2.491  0.3805 -0.3410 -0.1560
34816SOL    HW1 6765   2.936   2.978   2.550  1.0773 -0.7854  0.4042
34816SOL    HW2 6766   2.957   3.074   2.435 -0.0550  1.0584  1.6831
34817SOL     OW 6767   6.469   5.822   6.338  0.1069  0.1525 -0.1100
34817SOL    HW1 6768   6.450   5.915   6.347  0.4935  0.3517 -1.2503
34817SOL    HW2 6769   6.389   5.785   6.301 -0.1508 -0.0303  0.6096
34818SOL     OW 6770   9.064   7.266   0.852 -0.0101  0.7259  0.1791
34818SOL    HW1 6771   9.029   7.354   0.864 -0.7221  0.5822 -0.7498
34818SOL    HW2 6772   8.987   7.212   0.835  0.4130 -0.0995  0.8255
34819SOL     OW 6773   3.079   9.065   3.012 -0.0674  0.1297 -0.1623
34819SOL    HW1 6774   3.162   9.039   2.973  0.0616 -1.7239  1.2117
34819SOL    HW2 6775   3.098   9.149   3.054  1.3497 -0.5952  0.7338
34820SOL     OW 6776   7.884   9.505   3.960 -0.0067  0.1680  0.4122
34820SOL    HW1 6777   7.809   9.560   3.981  0.7870  2.0521 -1.3790
34820SOL    HW2 6778   7.941   9.513   4.037 -1.5948 -1.3934  1.8497
34821SOL     OW 6779   1.061   0.535   4.877  0.2590  0.6642 -0.4249
34821SOL    HW1 6780   1.077   0.586   4.956  1.1880 -0.4091  0.1107
34821SOL    HW2 6781   1.136   0.475   4.871 -1.1280 -1.1531 -0.5995
34822SOL     OW 6782   1.101   0.264   9.682  0.1866  0.3787 -0.0165
34822SOL    HW1 6783   1.009   0.258   9.659  0.1464 -3.2283  0.4862
34822SOL    HW2 6784   1.103   0.308   9.766 -1.0915  0.3467  0.0446
34823SOL     OW 6785   0.204   7.214   2.590 -0.1321 -0.6117  0.1466
34823SOL    HW1 6786   0.236   7.224   2.500 -0.5499  1.4210  0.1749
34823SOL    HW2 6787   0.168   7.125   2.593  0.2051 -0.8499 -1.5823
34824SOL     OW 6788  10.257   1.891   8.435  0.1942 -0.6253  0.1165
34824SOL    HW1 6789  10.313   1.817   8.412  0.4707 -0.7808  1.2338
34824SOL    HW2 6790  10.223   1.922   8.351 -0.3797 -2.3676 -0.3311
34825SOL     OW 6791   5.063   1.074   1.624 -0.3571  0.2351  0.3988
34825SOL    HW1 6792   5.108   1.021   1.690  0.9454  0.1204 -0.5329
34825SOL    HW2 6793   4.998   1.015   1.586 -0.0715 -0.1757  0.5395
34826SOL     OW 6794   9.612   6.988   9.794 -0.4221  0.1539  1.2563
34826SOL    HW1 6795   9.613   7.076   9.755 -2.2348  0.2782  1.4134
34826SOL    HW2 6796   9.543   6.941   9.747  0.2964 -1.0987  1.4093
34827SOL     OW 6797   0.561   4.679   8.561 -0.0654 -0.1669  0.2112
34827SOL    HW1 6798   0.474   4.691   8.523  0.3915 -0.9122 -1.1546
34827SOL    HW2 6799   0.556   4.719   8.648 -1.8369 -0.4334  0.2591
34828SOL     OW 6800   9.328   5.347   8.440 -0.7960  0.0570 -0.1279
34828SOL    HW1 6801   9.420   5.366   8.457 -1.3481  3.1028  0.0231
34828SOL    HW2 6802   9.326   5.310   8.352  0.5317  0.4279 -0.3243
34829SOL     OW 6803   1.517   1.781   8.030  0.6850  0.0866  0.3654
34829SOL    HW1 6804   1.467   1.798   7.950  0.1827 -1.4288  0.3162
34829SOL    HW2 6805   1.519   1.865   8.075 -0.2980  0.6271 -0.5405
34830SOL     OW 6806   1.541  10.353   7.665  1.2443 -0.0317 -0.4220
34830SOL    HW1 6807   1.636  10.366   7.655  0.9003  2.2615 -1.2863
34830SOL    HW2 6808   1.529  10.344   7.760  2.1841  1.6258 -0.0917
34831SOL     OW 6809   5.033   7.549   7.893 -0.0882  0.2282 -0.9027
34831SOL    HW1 6810   4.975   7.515   7.825 -1.3159  0.7769 -0.1564
34831SOL    HW2 6811   5.092   7.609   7.847  0.0244 -0.4644 -1.6930
34832SOL     OW 6812   1.500   4.032   4.024 -0.2097  0.5240  0.4371
34832SOL    HW1 6813   1.577   4.014   4.078  0.4617  1.6803 -0.0955
34832SOL    HW2 6814   1.486   4.126   4.033 -0.3990  0.6458 -0.9861
34833SOL     OW 6815   2.349   9.478   9.423  0.1618 -1.1547 -0.0467
34833SOL    HW1 6816   2.260   9.460   9.394  0.7595 -1.8750 -1.5170
34833SOL    HW2 6817   2.339   9.510   9.513 -1.6369 -0.3182 -0.5064
34834SOL     OW 6818   4.367   6.383   1.407  0.1901 -0.5321 -0.1739
34834SOL    HW1 6819   4.420   6.463   1.403  0.9462 -1.0460 -0.8183
34834SOL    HW2 6820   4.390   6.336   1.328 -0.0508 -1.5130  0.3286
34835SOL     OW 6821   0.432   7.945   9.650 -0.1970  0.1224 -0.3191
34835SOL    HW1 6822   0.423   8.035   9.681 -1.8994 -0.0134 -0.2768
34835SOL    HW2 6823   0.392   7.892   9.720 -0.5462 -0.5182 -0.9837
34836SOL     OW 6824   9.866   8.013   9.440  0.1570  0.1531  0.3476
34836SOL    HW1 6825   9.877   8.012   9.345  1.1015  0.2467  0.4474
34836SOL    HW2 6826   9.787   8.065   9.454 -0.4693 -0.5543 -0.4204
34837SOL     OW 6827   9.197   1.414   6.220 -0.2644  0.5950  0.4149
34837SOL    HW1 6828   9.246   1.394   6.299  2.3106  3.2727 -0.3424
34837SOL    HW2 6829   9.141   1.488   6.245 -1.0601  0.0714  0.2344
34838SOL     OW 6830   9.612   3.345   0.007 -0.3076 -0.3193  0.3688
34838SOL    HW1 6831   9.568   3.285  -0.053 -2.0544  1.0440  0.1895
34838SOL    HW2 6832   9.675   3.393  -0.047  0.7751 -1.6117  0.4272
34839SOL     OW 6833   6.749   6.128  10.408  0.6279  0.2198 -0.3110
34839SOL    HW1 6834   6.769   6.160  10.496  0.0590  0.2030 -0.1696
34839SOL    HW2 6835   6.665   6.084  10.418  0.9885 -0.5753 -0.6811
34840SOL     OW 6836   4.611   4.641   6.768  0.1580 -0.1502 -0.0060
34840SOL    HW1 6837   4.599   4.572   6.703 -1.9369  0.3992 -0.2662
34840SOL    HW2 6838   4.585   4.721   6.722 -2.8115  0.0759  1.8640
34841SOL     OW 6839   5.854   2.496   6.306 -0.4842 -0.0127  0.4764
34841SOL    HW1 6840   5.823   2.485   6.216  0.6527  1.7683 -0.1629
34841SOL    HW2 6841   5.905   2.576   6.305  0.0915 -0.2926  2.5915
34842SOL     OW 6842   5.341   4.751   3.354 -0.2566 -0.3716 -0.2908
34842SOL    HW1 6843   5.306   4.839   3.368 -0.5967 -0.3032 -1.4491
34842SOL    HW2 6844   5.392   4.758   3.272  0.8301 -0.9410  0.3072
34843SOL     OW 6845   4.903   0.400   7.067  0.2067  0.4420  0.4466
34843SOL    HW1 6846   4.812   0.373   7.056  0.0515 -0.3367  3.0043
34843SOL    HW2 6847   4.903   0.494   7.047 -0.9527  0.2735 -0.4406
34844SOL     OW 6848   3.163   5.231   5.840  0.3899 -0.3278 -0.2404
34844SOL    HW1 6849   3.227   5.159   5.843  1.1256  0.3189  2.2948
34844SOL    HW2 6850   3.119   5.227   5.925 -0.9355  1.0508 -0.8161
34845SOL     OW 6851   8.110   9.372   7.482  0.0161 -0.1293  0.0544
34845SOL    HW1 6852   8.106   9.284   7.445  3.7337 -1.1090  1.4498
34845SOL    HW2 6853   8.045   9.373   7.552  0.1559 -1.9548  0.2515
34846SOL     OW 6854   8.626   9.940   2.519  0.2814  0.2390 -0.6130
34846SOL    HW1 6855   8.537   9.971   2.536 -0.3366 -1.7103  0.0185
34846SOL    HW2 6856   8.629   9.928   2.424 -0.1359  0.3254 -0.6391
34847SOL     OW 6857   9.559   5.503   0.510 -0.9997 -0.4704 -0.0302
34847SOL    HW1 6858   9.584   5.523   0.600 -1.9645 -1.5644  0.5150
34847SOL    HW2 6859   9.569   5.408   0.503  1.9554 -0.1183 -2.0323
34848SOL     OW 6860   1.185   2.756   5.394  0.2998 -0.0192 -0.0713
34848SOL    HW1 6861   1.160   2.846   5.415  0.5334  0.0158  0.0690
34848SOL    HW2 6862   1.105   2.715   5.361 -0.0796 -0.0731  0.8860
34849SOL     OW 6863   2.218   3.711   5.355  0.2299 -0.3527 -0.0089
34849SOL    HW1 6864   2.153   3.779   5.374  1.5724  1.1543 -0.5720
34849SOL    HW2 6865   2.190   3.636   5.407 -1.0672  0.7702  0.9906
34850SOL     OW 6866   1.307   2.638   7.784 -0.3107  0.1065 -0.0431
34850SOL    HW1 6867   1.226   2.642   7.834  0.6306 -0.9654  1.6574
34850SOL    HW2 6868   1.365   2.700   7.829  0.0321  0.3612 -0.8288
34851SOL     OW 6869   8.800   0.568   6.434  0.0027 -0.2795  0.4839
34851SOL    HW1 6870   8.801   0.622   6.513 -1.3372  1.7189 -0.7929
34851SOL    HW2 6871   8.893   0.560   6.410  0.2381  2.7978 -0.0828
34852SOL     OW 6872   5.200   1.725   8.071  0.4057  0.5614 -0.1824
34852SOL    HW1 6873   5.113   1.763   8.071  0.0275 -0.2798 -0.0892
34852SOL    HW2 6874   5.233   1.739   7.982 -0.5821 -0.7868 -0.7872
34853SOL     OW 6875   9.510   6.638   6.728 -0.7707  0.3173 -0.0789
34853SOL    HW1 6876   9.516   6.670   6.638 -0.0214  0.5558  0.0519
34853SOL    HW2 6877   9.472   6.550   6.720  1.1214 -0.4849 -0.8144
34854SOL     OW 6878   0.412   5.519   5.215 -0.1583  0.1122 -0.1735
34854SOL    HW1 6879   0.478   5.484   5.156 -0.4511  0.4643 -0.7202
34854SOL    HW2 6880   0.456   5.592   5.259 -0.1066  0.1977 -0.3651
34855SOL     OW 6881   8.919   0.964  10.282  0.1198  0.0624  0.3558
34855SOL    HW1 6882   8.853   1.028  10.307 -1.4692 -0.8050 -1.2959
34855SOL    HW2 6883   8.882   0.880  10.310  0.5865 -0.4173 -0.4235
34856SOL     OW 6884   4.411   2.143  10.465  0.9939 -0.3362  0.5093
34856SOL    HW1 6885   4.446   2.059  10.437  0.4370 -0.3584 -0.1458
34856SOL    HW2 6886   4.433   2.204  10.395 -2.3818 -0.8563 -1.2354
34857SOL     OW 6887   7.954   3.899   5.977  0.1926 -0.0917  0.6230
34857SOL    HW1 6888   7.988   3.987   5.960  1.2764 -0.6793 -0.3955
34857SOL    HW2 6889   7.888   3.911   6.045 -0.0497  1.5757  0.1248
34858SOL     OW 6890   5.747  10.003   8.570  0.1749  0.0412  0.2726
34858SOL    HW1 6891   5.738  10.046   8.655 -1.5851  1.7972 -0.7243
34858SOL    HW2 6892   5.810  10.057   8.522 -0.7851  0.5887 -0.4097
34859SOL     OW 6893   1.086   2.695   5.055  0.0428  0.0830 -0.3359
34859SOL    HW1 6894   1.174   2.726   5.078 -1.2884  3.1161  1.2493
34859SOL    HW2 6895   1.065   2.631   5.123  0.7138 -0.0446 -0.2384
34860SOL     OW 6896   1.191   8.340   2.060 -0.7996  0.0760 -0.3728
34860SOL    HW1 6897   1.242   8.419   2.081  1.8609 -1.2876 -1.2888
34860SOL    HW2 6898   1.188   8.290   2.141 -2.2073  0.8916  0.1208
34861SOL     OW 6899  10.209   8.087   3.259 -0.2544  0.0530 -0.2257
34861SOL    HW1 6900  10.159   8.147   3.204  0.2017  0.8443  0.1918
34861SOL    HW2 6901  10.273   8.144   3.303 -0.5992 -0.5472  1.1063
34862SOL     OW 6902   3.513   8.255   9.326  0.0016 -0.3751  0.4488
34862SOL    HW1 6903   3.608   8.254   9.332  0.0171  0.5068  0.5134
34862SOL    HW2 6904   3.484   8.187   9.386  0.5872 -0.6585  0.4155
34863SOL     OW 6905   9.515   5.069   6.195 -0.0286 -0.3926 -0.2124
34863SOL    HW1 6906   9.541   4.990   6.242  2.3816 -0.2998 -1.2596
34863SOL    HW2 6907   9.592   5.126   6.198 -0.6418  0.6490 -2.0674
34864SOL     OW 6908   6.044   0.346   1.386 -0.1015  0.2376  0.4078
34864SOL    HW1 6909   6.133   0.337   1.420 -0.1517  2.1950  1.1488
34864SOL    HW2 6910   5.993   0.382   1.459 -2.2458 -3.3770  0.9754
34865SOL     OW 6911   1.954   1.751   8.084 -0.1496  0.3466 -0.4457
34865SOL    HW1 6912   1.977   1.675   8.137 -0.0133  0.2027 -0.7086
34865SOL    HW2 6913   1.876   1.786   8.126 -0.0756  0.2007 -0.1837
34866SOL     OW 6914   6.067   2.996   9.804  0.3497  0.0279  0.0878
34866SOL    HW1 6915   6.005   2.928   9.778  0.5580 -0.2160  0.2383
34866SOL    HW2 6916   6.103   2.966   9.887  2.4843 -1.0247 -1.1562
34867SOL     OW 6917   1.092   3.629   4.092  0.6529 -0.1308  0.2672
34867SOL    HW1 6918   1.114   3.721   4.077  0.2818  0.0129  0.5882
34867SOL    HW2 6919   1.041   3.630   4.173 -0.5191 -0.4509 -0.4426
34868SOL     OW 6920   3.181   8.097   3.343  0.3121 -0.2370  0.5282
34868SOL    HW1 6921   3.157   8.189   3.334  0.0861 -0.2609  0.8578
34868SOL    HW2 6922   3.154   8.074   3.432 -0.0220 -0.7291  0.3078
34869SOL     OW 6923  10.062   8.265   1.825 -0.4498 -0.2462 -0.1811
34869SOL    HW1 6924  10.056   8.191   1.885  0.7231 -1.0482 -1.0113
34869SOL    HW2 6925  10.144   8.308   1.848 -1.1649  0.8869  0.3567
34870SOL     OW 6926   1.187   0.115   4.454  0.2585  0.3365  1.2211
34870SOL    HW1 6927   1.124   0.052   4.488 -0.6592  0.9862  0.7813
34870SOL    HW2 6928   1.165   0.197   4.499  1.9311  0.2058  2.3773
34871SOL     OW 6929   4.149   4.315   3.789  0.1244  0.1047 -0.1669
34871SOL    HW1 6930   4.138   4.330   3.883  2.2635  0.3958  0.0781
34871SOL    HW2 6931   4.196   4.393   3.758  1.1418 -0.8507 -1.1011
34872SOL     OW 6932   5.799   9.131  10.089 -0.0066  0.5380  0.8919
34872SOL    HW1 6933   5.746   9.203  10.056  0.5896  0.3256 -0.6013
34872SOL    HW2 6934   5.745   9.090  10.157 -1.5790  0.5713 -0.2919
34873SOL     OW 6935  10.506   8.576   9.618  0.2654 -0.4148  0.2012
34873SOL    HW1 6936  10.576   8.589   9.555 -0.3189 -0.8188 -0.5459
34873SOL    HW2 6937  10.469   8.491   9.596 -1.9175  0.7332 -0.8777
34874SOL     OW 6938   8.715   8.155   5.786  0.5640 -0.5065  0.2690
34874SOL    HW1 6939   8.625   8.165   5.817  0.5671  0.8864 -0.1446
34874SOL    HW2 6940   8.764   8.125   5.863 -0.2598 -1.4035  0.4633
34875SOL     OW 6941   8.750   1.676   5.418 -0.3438  0.1564 -0.2322
34875SOL    HW1 6942   8.830   1.723   5.441 -1.1447  2.0047 -1.0091
34875SOL    HW2 6943   8.766   1.585   5.445  1.3347  0.8293  1.1945
34876SOL     OW 6944   9.531   4.724   1.011 -0.4118 -0.3347 -0.5031
34876SOL    HW1 6945   9.592   4.656   0.980  0.2915 -0.1020  0.3511
34876SOL    HW2 6946   9.575   4.807   0.992 -0.4959 -0.1600  0.0492
34877SOL     OW 6947   5.577   6.559   4.026  0.4099 -0.3241 -0.7456
34877SOL    HW1 6948   5.549   6.613   3.953 -1.5778 -0.6372 -0.2807
34877SOL    HW2 6949   5.649   6.506   3.991  0.8638  0.9743 -1.8497
34878SOL     OW 6950   2.431   2.432   4.022 -0.1806  0.1242 -0.0311
34878SOL    HW1 6951   2.505   2.373   4.009 -0.6205 -0.1073 -1.7875
34878SOL    HW2 6952   2.460   2.493   4.090 -0.1189 -2.7201  2.7146
34879SOL     OW 6953   6.692   2.825  10.534  0.3241 -0.3328  0.7662
34879SOL    HW1 6954   6.668   2.753  10.477 -1.1989 -0.2465  1.2265
34879SOL    HW2 6955   6.717   2.896  10.475 -0.2073 -0.5790  0.2390
34880SOL     OW 6956   6.879   4.531   2.673  0.6694  0.2423 -0.2477
34880SOL    HW1 6957   6.923   4.538   2.758  0.5880  1.2300 -0.2674
34880SOL    HW2 6958   6.879   4.438   2.654  2.2372  0.1402  0.0324
34881SOL     OW 6959   3.657  10.376   0.670 -0.1609 -0.2241  0.4463
34881SOL    HW1 6960   3.678  10.466   0.646  1.0048 -0.8603 -1.0814
34881SOL    HW2 6961   3.678  10.370   0.764  0.7001  0.8200  0.3336
34882SOL     OW 6962   7.507   2.884   1.353  0.3418  0.2277 -0.0276
34882SOL    HW1 6963   7.535   2.920   1.437 -1.2837  2.4255 -0.3420
34882SOL    HW2 6964   7.519   2.957   1.291 -3.0172  0.3259 -0.7370
34883SOL     OW 6965   2.568   5.719   6.577 -0.5593 -0.2150  0.1281
34883SOL    HW1 6966   2.589   5.729   6.670 -0.3425 -1.4922  0.2373
34883SOL    HW2 6967   2.653   5.714   6.534 -0.6528  0.8305 -0.2208
34884SOL     OW 6968   8.183   9.283   2.288 -0.5051 -0.1872 -0.1309
34884SOL    HW1 6969   8.205   9.314   2.200  0.0777  1.3225  0.5139
34884SOL    HW2 6970   8.262   9.302   2.339 -1.4076  0.4306  1.0617
34885SOL     OW 6971   4.502   3.993   0.734 -0.2855  0.1200  0.2413
34885SOL    HW1 6972   4.537   3.908   0.709  0.3677 -0.3556  2.5442
34885SOL    HW2 6973   4.474   4.033   0.652  1.3953 -1.4093 -1.1516
34886SOL     OW 6974   6.873   3.084   9.589 -0.1531  0.5419 -0.0869
34886SOL    HW1 6975   6.895   3.073   9.682  0.2659  1.0082 -0.1262
34886SOL    HW2 6976   6.821   3.164   9.586 -0.1123  0.5616 -0.2622
34887SOL     OW 6977   6.349   9.757   7.013  0.3177  0.2640 -0.4834
34887SOL    HW1 6978   6.393   9.674   7.034  0.1289  0.1832 -0.4139
34887SOL    HW2 6979   6.369   9.770   6.920 -0.2378 -0.2164 -0.6770
34888SOL     OW 6980   5.045   1.149   9.646 -0.9689 -0.0917  0.3765
34888SOL    HW1 6981   5.107   1.132   9.575 -2.2567  1.9542 -1.3672
34888SOL    HW2 6982   5.022   1.063   9.680  0.2298 -1.0909 -1.2209
34889SOL     OW 6983   0.469   9.791   8.191  0.0943  0.2817  0.1789
34889SOL    HW1 6984   0.554   9.774   8.151  0.1355 -0.8216  0.6966
34889SOL    HW2 6985   0.489   9.811   8.282 -0.0651  1.9204 -0.1176
34890SOL     OW 6986   8.477   2.109   3.319 -0.0216  0.0872  0.5423
34890SOL    HW1 6987   8.433   2.024   3.325  1.3709 -0.5937  1.9055
34890SOL    HW2 6988   8.457   2.152   3.402  0.1389  0.6645  0.2872
34891SOL     OW 6989   1.247   7.051   1.256 -0.0835 -0.2344  0.0524
34891SOL    HW1 6990   1.238   6.965   1.297 -2.7007 -0.4824 -0.8182
34891SOL    HW2 6991   1.189   7.107   1.307  1.5204  1.0441  0.5516
34892SOL     OW 6992   9.304   9.497  10.324  0.1988 -0.6983 -0.0262
34892SOL    HW1 6993   9.228   9.482  10.268 -0.9772 -0.8369  1.5509
34892SOL    HW2 6994   9.329   9.410  10.355  1.3663 -0.7183 -0.9439
34893SOL     OW 6995   8.345   8.006   9.415 -0.1240  0.0237  0.6657
34893SOL    HW1 6996   8.378   8.081   9.367  0.7784  0.8083  2.4236
34893SOL    HW2 6997   8.275   7.971   9.360  0.2258  1.4332 -0.7303
34894SOL     OW 6998   5.927   0.970   7.979 -0.2102 -0.5839  0.3720
34894SOL    HW1 6999   5.885   0.987   7.894  1.0723  1.2897  0.0606
34894SOL    HW2 7000   5.855   0.951   8.038 -1.4303  1.4411 -0.3929
34895SOL     OW 7001   8.207   6.674   2.032 -0.3729 -0.3723  0.3376
34895SOL    HW1 7002   8.176   6.720   2.110  0.0586  3.1001 -1.3434
34895SOL    HW2 7003   8.128   6.642   1.990 -0.5807 -2.7070  2.3277
34896SOL     OW 7004   8.115   1.318   3.961  0.0640 -0.3906  0.3562
34896SOL    HW1 7005   8.170   1.312   3.882  0.8428 -0.0211  0.8619
34896SOL    HW2 7006   8.028   1.340   3.928  0.1305 -1.3189 -0.4876
34897SOL     OW 7007   9.017   9.620   1.810 -0.3605  0.0190  0.2261
34897SOL    HW1 7008   8.966   9.545   1.779  0.3569 -0.4056  0.0470
34897SOL    HW2 7009   9.074   9.583   1.878 -0.7763  0.6260  0.9211
34898SOL     OW 7010   2.849   5.058   3.035  0.0588  0.0055  0.1977
34898SOL    HW1 7011   2.812   4.971   3.017  0.3058 -0.2102  0.7101
34898SOL    HW2 7012   2.790   5.095   3.101 -2.1510  1.6825 -2.4993
34899SOL     OW 7013  10.012   5.089   6.964  0.4311  0.8768  0.2076
34899SOL    HW1 7014   9.966   5.044   6.893  0.0578  2.8807 -0.8864
34899SOL    HW2 7015  10.008   5.028   7.038 -3.8459  0.8211  0.1426
34900SOL     OW 7016   9.764   0.492   0.184 -0.3644 -0.0267 -0.4351
34900SOL    HW1 7017   9.728   0.509   0.097  0.5908  1.6162 -0.5539
34900SOL    HW2 7018   9.858   0.477   0.168 -0.2489 -0.0905  0.2711
34901SOL     OW 7019   1.475   6.692   4.237 -0.1010  0.5387  0.3111
34901SOL    HW1 7020   1.411   6.739   4.291 -0.2190  0.2938  0.3884
34901SOL    HW2 7021   1.422   6.638   4.179  0.0203 -1.1271  1.6693
34902SOL     OW 7022   9.408   1.184   2.420  0.0996 -0.1139  0.9740
34902SOL    HW1 7023   9.397   1.094   2.450 -1.2006 -0.4945 -0.5202
34902SOL    HW2 7024   9.498   1.207   2.444  0.4715 -1.8187  1.3107
34903SOL     OW 7025   0.608   6.049   3.764  0.3863  0.1833 -0.0612
34903SOL    HW1 7026   0.615   6.033   3.858 -1.0494  0.1139  0.0647
34903SOL    HW2 7027   0.514   6.044   3.746  0.5207  1.3794 -1.2837
34904SOL     OW 7028   2.714   9.295   8.479 -0.2628 -0.1731 -0.1091
34904SOL    HW1 7029   2.693   9.207   8.450 -1.7588 -0.2374  1.0208
34904SOL    HW2 7030   2.806   9.291   8.504 -0.2062 -1.2996 -0.4504
34905SOL     OW 7031   6.616   9.795   3.954 -0.1664  0.1779 -0.1089
34905SOL    HW1 7032   6.593   9.752   3.872 -0.7383  1.7904 -0.8307
34905SOL    HW2 7033   6.619   9.724   4.019 -0.0785 -1.0624 -1.4354
34906SOL     OW 7034   1.787   6.351   3.940 -0.6926 -0.3951 -0.1782
34906SOL    HW1 7035   1.868   6.357   3.991 -0.8691  1.6217 -0.0192
34906SOL    HW2 7036   1.815   6.325   3.853 -0.1033 -1.5696  0.3457
34907SOL     OW 7037   1.567   8.547   7.732 -0.1948 -0.3205 -0.3291
34907SOL    HW1 7038   1.640   8.588   7.779 -0.5857 -0.2792  0.2446
34907SOL    HW2 7039   1.502   8.616   7.722 -0.8422 -0.7757  0.6167
34908SOL     OW 7040   7.940   7.523  10.392  0.7638 -0.5172  0.8771
34908SOL    HW1 7041   7.996   7.567  10.328  2.8500 -1.8663  1.6235
34908SOL    HW2 7042   7.990   7.445  10.417 -1.6256 -1.9713  1.4397
34909SOL     OW 7043   4.160   1.815   0.075  0.6779  0.1261  0.1611
34909SOL    HW1 7044   4.235   1.805   0.015  0.1523 -1.0677 -0.3397
34909SOL    HW2 7045   4.127   1.726   0.087  0.9976  0.2720  2.5759
34910SOL     OW 7046   8.767   6.020   7.636  0.3187 -0.2405 -0.5409
34910SOL    HW1 7047   8.808   6.106   7.628  1.2127 -0.7121 -1.2349
34910SOL    HW2 7048   8.840   5.960   7.649 -0.3545 -0.8026  0.9282
34911SOL     OW 7049   5.125   9.452   8.970  0.1576  0.4354  0.3541
34911SOL    HW1 7050   5.186   9.417   8.905 -0.5900 -0.5406  0.1613
34911SOL    HW2 7051   5.172   9.448   9.053  0.0348 -1.2282  0.3727
34912SOL     OW 7052   6.200   6.119   5.855  0.1822  0.0302  0.4368
34912SOL    HW1 7053   6.256   6.166   5.794  0.6303 -0.9362  0.0908
34912SOL    HW2 7054   6.154   6.188   5.904  1.1050  0.8190  0.2130
34913SOL     OW 7055   5.287   6.873   2.824 -0.2738 -0.5605 -0.4859
34913SOL    HW1 7056   5.217   6.938   2.818 -0.5610 -0.9477 -1.6470
34913SOL    HW2 7057   5.367   6.925   2.833 -0.4814 -0.0194 -1.5878
34914SOL     OW 7058   1.377   1.796   0.705  0.7732  0.5839  0.7633
34914SOL    HW1 7059   1.384   1.781   0.800  0.3240 -1.9853  0.4573
34914SOL    HW2 7060   1.386   1.709   0.666 -2.4439  1.0296 -1.3589
34915SOL     OW 7061   4.943   9.846   1.610  0.2561  0.1494 -0.2729
34915SOL    HW1 7062   4.874   9.779   1.608  0.2672  0.1519 -0.9595
34915SOL    HW2 7063   4.923   9.898   1.688 -0.3626 -0.0193 -0.3104
34916SOL     OW 7064   6.980   4.480   4.287  0.3334  0.3236 -0.2197
34916SOL    HW1 7065   7.030   4.407   4.249 -0.2296  0.9309 -2.2388
34916SOL    HW2 7066   7.004   4.556   4.234 -0.4167  1.2644  0.7409
34917SOL     OW 7067   9.379   2.504   3.207  0.4137  0.0371 -0.0667
34917SOL    HW1 7068   9.297   2.503   3.257  0.6506  2.2511  0.4658
34917SOL    HW2 7069   9.443   2.466   3.267  0.3865  1.2425  0.7450
34918SOL     OW 7070   3.748   0.667   2.057  0.0459 -0.6474 -0.8569
34918SOL    HW1 7071   3.755   0.654   1.963  2.0530 -1.4569 -0.6533
34918SOL    HW2 7072   3.677   0.730   2.068  0.3319  0.1056 -2.9582
34919SOL     OW 7073   8.901   6.950  10.532 -0.5208 -0.1833  0.7900
34919SOL    HW1 7074   8.861   7.003  10.602 -1.5140  0.0055  0.0954
34919SOL    HW2 7075   8.844   6.964  10.456  1.2517  0.6390 -0.4450
34920SOL     OW 7076   4.526   2.606   4.685 -0.0293 -1.1108  0.2825
34920SOL    HW1 7077   4.533   2.628   4.592 -1.0447 -0.9184  0.2331
34920SOL    HW2 7078   4.432   2.599   4.700  0.1635 -3.4269  0.7841
34921SOL     OW 7079   7.334   8.050   1.874  0.2111 -0.1250 -0.4694
34921SOL    HW1 7080   7.319   7.955   1.866 -0.6952  0.1264 -2.0062
34921SOL    HW2 7081   7.248   8.087   1.890  0.6586  0.4066  0.8610
34922SOL     OW 7082   3.953   3.101   3.814 -0.3377 -0.3370  0.3998
34922SOL    HW1 7083   3.879   3.128   3.869 -0.4781  0.5006 -0.1854
34922SOL    HW2 7084   3.914   3.042   3.750 -0.3412 -0.5638  0.6071
34923SOL     OW 7085  10.255   1.239   3.074  0.3494  0.1934 -0.1781
34923SOL    HW1 7086  10.342   1.274   3.097  0.2976 -0.0829  0.4685
34923SOL    HW2 7087  10.273   1.175   3.006  0.4397  1.5186 -1.4396
34924SOL     OW 7088   2.229   8.074   0.185  0.5762  0.3770 -0.2777
34924SOL    HW1 7089   2.306   8.129   0.176  1.8587 -1.4868 -1.4309
34924SOL    HW2 7090   2.264   7.987   0.205 -1.3475 -0.1326  1.1469
34925SOL     OW 7091   3.580   8.520   9.646  0.6505  0.0210  0.0989
34925SOL    HW1 7092   3.579   8.588   9.578 -0.4887 -0.6847 -0.6301
34925SOL    HW2 7093   3.588   8.568   9.728  2.9977  0.8570 -0.5497
34926SOL     OW 7094   4.387   2.801   2.961  0.2114 -0.1332 -0.2819
34926SOL    HW1 7095   4.405   2.708   2.975 -0.3475 -0.0398  1.2027
34926SOL    HW2 7096   4.321   2.801   2.891  2.2192 -0.6731 -2.3212
34927SOL     OW 7097   6.146   4.357   1.791  0.1641 -0.1495  0.6827
34927SOL    HW1 7098   6.199   4.421   1.744  1.3889 -0.8289  1.1049
34927SOL    HW2 7099   6.162   4.374   1.883  0.5741 -1.0979  0.8005
34928SOL     OW 7100   5.223   1.263   8.162  0.1112  0.4936  1.0003
34928SOL    HW1 7101   5.265   1.204   8.225  0.3303 -0.3913  0.0628
34928SOL    HW2 7102   5.178   1.328   8.215 -1.6929 -1.5730  2.1254
34929SOL     OW 7103   7.948   4.716   2.491  0.1438  0.3426  0.1424
34929SOL    HW1 7104   7.985   4.734   2.578  0.6051  1.7490 -0.3212
34929SOL    HW2 7105   7.853   4.725   2.504 -0.0983 -2.5215  1.1586
34930SOL     OW 7106   3.287   5.874   3.474 -0.0107 -0.9107 -0.6660
34930SOL    HW1 7107   3.295   5.870   3.378  3.4517  0.9767 -0.6359
34930SOL    HW2 7108   3.350   5.810   3.506  1.6757  1.0539  0.1990
34931SOL     OW 7109   0.458   3.667   0.151  0.3947 -0.2148  0.0361
34931SOL    HW1 7110   0.366   3.640   0.148  0.2317  0.4067 -2.5599
34931SOL    HW2 7111   0.456   3.761   0.134  1.5659 -0.4350 -1.4919
34932SOL     OW 7112   9.256   7.657   6.541 -0.2322  0.3528  0.2775
34932SOL    HW1 7113   9.330   7.691   6.491 -0.0445 -0.6311 -0.1414
34932SOL    HW2 7114   9.194   7.625   6.474 -0.0778 -0.7661  0.6402
34933SOL     OW 7115   5.158   5.045   4.128  0.1460 -0.5747  0.4188
34933SOL    HW1 7116   5.092   5.008   4.187 -0.1282 -0.3465  0.2569
34933SOL    HW2 7117   5.129   5.018   4.040 -1.3290  1.8785  0.0566
34934SOL     OW 7118   3.481   1.247  10.462 -0.2946  0.0947 -0.8128
34934SOL    HW1 7119   3.467   1.167  10.411 -0.9277  0.2892 -0.9575
34934SOL    HW2 7120   3.566   1.279  10.432  0.0873 -0.6605 -0.5598
34935SOL     OW 7121   9.733   7.290   7.825 -0.7867 -0.2057 -0.2925
34935SOL    HW1 7122   9.794   7.279   7.752  0.2614 -1.4887  0.7376
34935SOL    HW2 7123   9.729   7.385   7.839  0.2390 -0.0472 -0.9866
34936SOL     OW 7124   9.005   0.524   7.068  0.0818  0.5146  0.3169
34936SOL    HW1 7125   8.933   0.586   7.055 -0.2997 -0.3216 -1.9928
34936SOL    HW2 7126   9.074   0.576   7.109  0.0000  2.6972 -2.0557
34937SOL     OW 7127   4.735   1.988   3.996  0.1485 -0.2359 -0.3124
34937SOL    HW1 7128   4.652   1.940   3.999  0.3501 -0.5492  2.0493
34937SOL    HW2 7129   4.758   1.990   3.903 -2.0737 -0.8521 -0.9402
34938SOL     OW 7130   4.669   0.224   7.974 -0.3756 -0.0667  0.3836
34938SOL    HW1 7131   4.677   0.252   8.065 -0.1964 -1.5184  0.8538
34938SOL    HW2 7132   4.732   0.151   7.966 -1.6695 -1.1586 -0.3754
34939SOL     OW 7133   9.768   4.054   6.214 -0.0153 -0.0695  0.3717
34939SOL    HW1 7134   9.691   4.108   6.196 -1.7100 -1.5967  2.5198
34939SOL    HW2 7135   9.750   3.972   6.167 -0.5471 -1.0138  2.1217
34940SOL     OW 7136   0.385   8.470   6.061  0.3230 -0.4015  0.7555
34940SOL    HW1 7137   0.295   8.499   6.048  0.2284 -1.1041 -0.3215
34940SOL    HW2 7138   0.415   8.517   6.139 -0.3661  1.2865  0.0642
34941SOL     OW 7139   8.621   5.696   1.463 -0.3075 -0.1356 -0.4040
34941SOL    HW1 7140   8.627   5.743   1.546  0.6196  0.9726 -1.0686
34941SOL    HW2 7141   8.582   5.759   1.403 -0.4505 -0.7376 -0.9499
34942SOL     OW 7142   2.502   7.188   7.212  0.4256 -0.0999 -0.0176
34942SOL    HW1 7143   2.560   7.264   7.203  1.5277 -1.0154 -0.9718
34942SOL    HW2 7144   2.426   7.210   7.157  1.1674 -0.0628 -1.0557
34943SOL     OW 7145   4.291   9.995   4.881  0.0860 -0.3424  0.0094
34943SOL    HW1 7146   4.223   9.929   4.869  1.6802 -1.7704 -1.7229
34943SOL    HW2 7147   4.325   9.978   4.969  0.7284 -2.1348 -0.5384
34944SOL     OW 7148   2.705   3.451   6.499 -0.0608  0.0977 -0.6027
34944SOL    HW1 7149   2.718   3.508   6.423 -0.6632  3.3830  1.5733
34944SOL    HW2 7150   2.706   3.510   6.574  0.5618 -2.9854  2.0231
34945SOL     OW 7151   1.183   5.197   2.418 -0.7653 -0.0469 -0.1110
34945SOL    HW1 7152   1.152   5.264   2.357  0.7663  1.8775  1.0999
34945SOL    HW2 7153   1.157   5.228   2.504  0.1548 -0.8956  0.5053
34946SOL     OW 7154   9.208   0.444   0.041  0.5082  0.2027 -0.7995
34946SOL    HW1 7155   9.187   0.524   0.089 -2.3730 -1.9558  1.9778
34946SOL    HW2 7156   9.280   0.405   0.090  1.2506  0.5593 -1.5753
34947SOL     OW 7157   3.517   3.005   7.091 -0.0691 -0.0999  0.0699
34947SOL    HW1 7158   3.448   3.068   7.072  0.0159  0.1032  0.4270
34947SOL    HW2 7159   3.491   2.965   7.174  1.0132  1.0794  1.0141
34948SOL     OW 7160   5.486   3.472   2.355  0.3376  0.1584  0.3082
34948SOL    HW1 7161   5.477   3.517   2.439  1.5499  2.0748 -0.5393
34948SOL    HW2 7162   5.554   3.520   2.308  0.7141 -1.7321 -1.2351
34949SOL     OW 7163   3.953   3.483   0.482  0.1742 -0.0367  0.2327
34949SOL    HW1 7164   3.948   3.413   0.416  0.3137 -2.2123  2.3820
34949SOL    HW2 7165   4.043   3.514   0.476  0.6694 -1.3396  0.4235
34950SOL     OW 7166  10.529   2.668  10.402 -0.0268  0.0161  0.3202
34950SOL    HW1 7167  10.453   2.686  10.458  1.0339  0.5681  1.6409
34950SOL    HW2 7168  10.508   2.585  10.360 -1.6587  0.4949  0.1161
34951SOL     OW 7169   1.229   5.734   5.024  0.2461  0.3086  0.0720
34951SOL    HW1 7170   1.276   5.817   5.013  0.9835 -0.3031 -1.6405
34951SOL    HW2 7171   1.197   5.712   4.937 -2.5248  0.2318  0.9952
34952SOL     OW 7172   3.386   5.784   9.673 -0.6523  0.6620 -0.1645
34952SOL    HW1 7173   3.474   5.779   9.710 -0.7285  0.1719 -0.0459
34952SOL    HW2 7174   3.328   5.781   9.749 -0.9424 -3.3748 -0.3538
34953SOL     OW 7175   0.694   6.214   8.219  0.3329  0.1234  0.0172
34953SOL    HW1 7176   0.627   6.248   8.278  0.1695 -2.3430  1.3690
34953SOL    HW2 7177   0.646   6.156   8.159  0.9016  0.4604 -0.7936
34954SOL     OW 7178   7.715   3.504   6.293  0.0434 -0.1192  0.2302
34954SOL    HW1 7179   7.702   3.448   6.216 -0.4105  0.8473 -0.4143
34954SOL    HW2 7180   7.629   3.508   6.335 -0.1960  0.9522 -0.3351
34955SOL     OW 7181   6.443   6.975   7.707 -0.3836  0.0585  0.0110
34955SOL    HW1 7182   6.504   6.914   7.748  0.7026  0.4286 -0.9871
34955SOL    HW2 7183   6.406   6.927   7.633  1.1573  0.8496 -1.3283
34956SOL     OW 7184   6.796   7.961   8.013  0.1178 -0.0242 -0.2501
34956SOL    HW1 7185   6.779   7.973   7.920 -0.3033  1.0949 -0.0481
34956SOL    HW2 7186   6.714   7.988   8.056  0.1610 -0.9243  0.4244
34957SOL     OW 7187   2.105   1.191   8.378  0.0786 -0.6723  0.0441
34957SOL    HW1 7188   2.163   1.261   8.409 -1.7039  0.4623  1.0118
34957SOL    HW2 7189   2.032   1.237   8.336 -1.9386 -1.7799  2.0772
34958SOL     OW 7190   0.480   3.297   4.817  0.1786 -0.1773 -0.5800
34958SOL    HW1 7191   0.545   3.235   4.851  0.7992  0.2644 -0.9511
34958SOL    HW2 7192   0.528   3.378   4.806 -1.5410  1.9628  4.5031
34959SOL     OW 7193   8.159   9.010   9.452 -0.5978  0.5230  0.4599
34959SOL    HW1 7194   8.090   8.954   9.417 -0.3299  0.4990 -0.0398
34959SOL    HW2 7195   8.237   8.955   9.452  0.3455  1.6476 -2.6603
34960SOL     OW 7196   1.220   1.242  10.485 -0.2811 -0.1731 -0.0257
34960SOL    HW1 7197   1.297   1.198  10.449  0.3383  1.0311 -0.2375
34960SOL    HW2 7198   1.246   1.267  10.574 -0.0709  1.0496 -0.4124
34961SOL     OW 7199   1.743   8.126   6.491  0.0072  0.0700  0.0761
34961SOL    HW1 7200   1.837   8.120   6.474  0.2620  0.9642  1.0485
34961SOL    HW2 7201   1.711   8.190   6.426 -0.1116 -0.8940 -0.8411
34962SOL     OW 7202   1.997   3.034   6.241  0.0369 -0.3258 -0.1169
34962SOL    HW1 7203   1.965   2.977   6.312  0.1096 -1.3164 -0.8587
34962SOL    HW2 7204   2.005   2.976   6.166 -2.4960  1.1758 -1.6982
34963SOL     OW 7205   8.651   9.680   3.279 -0.1665  0.2499  0.2025
34963SOL    HW1 7206   8.668   9.692   3.185 -1.0703 -0.2603 -0.0434
34963SOL    HW2 7207   8.679   9.762   3.319 -0.2456  0.6742 -0.5831
34964SOL     OW 7208   6.084   5.718   7.105  0.8889 -0.0617  0.3601
34964SOL    HW1 7209   6.130   5.651   7.054 -0.0812 -1.0616  0.7474
34964SOL    HW2 7210   6.057   5.783   7.041  0.2535 -0.9718 -0.3152
34965SOL     OW 7211   5.643   4.719   9.775 -0.4866 -0.5012  0.3673
34965SOL    HW1 7212   5.581   4.753   9.840 -0.0697  0.4155  0.3035
34965SOL    HW2 7213   5.723   4.703   9.824 -0.0633  0.5166  0.0357
34966SOL     OW 7214   7.029   4.991   0.756  0.5982  0.1054 -0.0539
34966SOL    HW1 7215   7.098   5.042   0.798  0.9516 -0.7270  0.3945
34966SOL    HW2 7216   7.071   4.909   0.730 -0.5385 -1.0684  1.6084
34967SOL     OW 7217   4.432   8.753   1.148 -0.0356 -0.0113  0.5917
34967SOL    HW1 7218   4.501   8.796   1.097 -0.7473 -1.4775 -1.7956
34967SOL    HW2 7219   4.359   8.815   1.146  0.4639  0.6035  1.1859
34968SOL     OW 7220   5.631   5.203   8.449  0.6452  0.4261 -0.2876
34968SOL    HW1 7221   5.597   5.135   8.508 -0.5006  2.1564  1.1628
34968SOL    HW2 7222   5.623   5.164   8.361 -0.4339 -1.1225  0.4405
34969SOL     OW 7223   5.170   3.528   1.526 -0.1001 -0.2119 -0.3831
34969SOL    HW1 7224   5.255   3.571   1.520  1.7045 -2.9991  2.1729
34969SOL    HW2 7225   5.125   3.574   1.596  1.1196 -1.2743  1.1681
34970SOL     OW 7226   5.287   0.208   6.248 -0.2033 -0.1083 -0.6220
34970SOL    HW1 7227   5.216   0.152   6.216 -0.0013 -0.5909 -0.2326
34970SOL    HW2 7228   5.348   0.215   6.175 -0.0538 -0.6868 -0.5517
34971SOL     OW 7229   0.097   2.405   7.115 -0.1706 -0.0015 -0.3174
34971SOL    HW1 7230   0.169   2.468   7.112  2.3020 -2.6137 -0.5770
34971SOL    HW2 7231   0.079   2.394   7.208  0.6412 -0.1694 -0.1663
34972SOL     OW 7232   6.399   8.827   3.825 -0.2405 -0.0582  0.2802
34972SOL    HW1 7233   6.470   8.856   3.768 -0.3154  0.5237  0.4782
34972SOL    HW2 7234   6.365   8.747   3.784 -0.0652  0.1655 -0.2949
34973SOL     OW 7235   8.732   7.279   7.820 -0.2641  0.1073  0.1605
34973SOL    HW1 7236   8.824   7.302   7.806 -0.0147 -0.7159  0.4009
34973SOL    HW2 7237   8.700   7.343   7.884  0.7122 -0.8181  1.6380
34974SOL     OW 7238   4.711   1.929   0.150  0.6087  0.6282 -0.3012
34974SOL    HW1 7239   4.746   1.884   0.074  2.9819  1.2335  0.3400
34974SOL    HW2 7240   4.787   1.971   0.190 -0.6471  0.8203  2.0720
34975SOL     OW 7241  10.360   0.491   6.314  0.1915 -0.0643  0.7934
34975SOL    HW1 7242  10.412   0.563   6.278  2.0049 -0.6422  2.0851
34975SOL    HW2 7243  10.365   0.503   6.409 -1.7188 -0.4176  0.9764
34976SOL     OW 7244   4.660   9.263   3.732  0.0492 -0.6736 -0.7346
34976SOL    HW1 7245   4.701   9.315   3.802 -1.1258 -0.4210 -0.2080
34976SOL    HW2 7246   4.602   9.202   3.778  0.6079 -1.7470 -1.4093
34977SOL     OW 7247   6.291   7.384   0.958  0.0271  0.2711 -0.0641
34977SOL    HW1 7248   6.229   7.440   1.005 -0.2238 -0.3792  0.3911
34977SOL    HW2 7249   6.241   7.349   0.885  0.4475  1.3672 -0.9073
34978SOL     OW 7250   4.720   3.452   1.012 -0.3840 -0.5938 -0.5283
34978SOL    HW1 7251   4.802   3.461   1.062  0.0284 -1.5470 -0.9991
34978SOL    HW2 7252   4.692   3.542   0.997 -0.2830 -0.2731  1.0188
34979SOL     OW 7253   7.409   3.751   2.133 -0.3610 -0.1846 -0.1839
34979SOL    HW1 7254   7.388   3.720   2.221 -1.2075 -3.0909 -1.2742
34979SOL    HW2 7255   7.357   3.695   2.075  1.7134  0.2166 -2.6283
34980SOL     OW 7256   2.735  10.104   3.491  0.5338  0.1198  0.2384
34980SOL    HW1 7257   2.698  10.106   3.403  3.7688  0.7979 -1.2870
34980SOL    HW2 7258   2.761  10.195   3.508  1.3669 -0.2815  1.1876
34981SOL     OW 7259   0.669   6.393   8.992  0.4146  0.2949 -0.0242
34981SOL    HW1 7260   0.672   6.322   9.056 -0.6503 -0.3752 -0.7003
34981SOL    HW2 7261   0.751   6.384   8.942  0.5935 -0.0336  0.3263
34982SOL     OW 7262   8.626   0.185   1.775  0.0238 -0.1472  0.3281
34982SOL    HW1 7263   8.690   0.253   1.756  1.7191 -1.0812  2.2518
34982SOL    HW2 7264   8.586   0.212   1.858 -0.4326 -0.7011  0.2949
34983SOL     OW 7265   6.507   6.134   2.148 -0.7350 -0.0467 -0.0771
34983SOL    HW1 7266   6.474   6.209   2.197 -3.0385  1.7582 -3.8934
34983SOL    HW2 7267   6.455   6.060   2.179 -1.6882  0.8696  0.5934
34984SOL     OW 7268   9.514   7.196   0.658 -0.6078 -0.1687  0.1301
34984SOL    HW1 7269   9.432   7.243   0.670  0.5048  1.7655  0.5765
34984SOL    HW2 7270   9.529   7.198   0.563 -0.0006  1.4606  0.2385
34985SOL     OW 7271   2.403   1.960   0.812  0.8338  0.4310  0.3756
34985SOL    HW1 7272   2.323   1.987   0.767  1.1500  1.3221  0.3285
34985SOL    HW2 7273   2.404   1.864   0.804  0.6407  0.5275 -1.1123
34986SOL     OW 7274   1.687   3.559   3.709  0.2399 -0.1650 -0.5232
34986SOL    HW1 7275   1.611   3.571   3.652  0.9491 -1.0746 -1.7139
34986SOL    HW2 7276   1.731   3.482   3.674 -0.1856 -1.8410  2.2709
34987SOL     OW 7277   4.366   5.060   8.845 -0.0865  0.1142 -0.5510
34987SOL    HW1 7278   4.418   5.122   8.795 -0.5296 -0.2232 -1.4470
34987SOL    HW2 7279   4.298   5.030   8.784 -0.1372 -0.9292 -0.0062
34988SOL     OW 7280   8.369   6.950   2.341  0.2733  0.4473 -0.4667
34988SOL    HW1 7281   8.424   6.958   2.263  0.4220 -0.9880 -0.5269
34988SOL    HW2 7282   8.393   7.026   2.395  0.8520  0.9374 -1.3877
34989SOL     OW 7283   6.340   1.869   5.809 -0.4421  0.1872 -0.4960
34989SOL    HW1 7284   6.253   1.853   5.774  0.1945 -0.9427 -1.6259
34989SOL    HW2 7285   6.400   1.831   5.745  0.7763 -2.4098  1.9859
34990SOL     OW 7286   4.887   8.353   3.911  0.7433 -0.0426  0.5831
34990SOL    HW1 7287   4.965   8.367   3.857  2.0744  0.0591  2.4446
34990SOL    HW2 7288   4.871   8.259   3.907  0.0159  0.1106 -0.9913
34991SOL     OW 7289   9.999   8.034   0.141  0.1479  0.2437 -0.5541
34991SOL    HW1 7290   9.921   8.057   0.192  0.1177  0.7502 -0.8276
34991SOL    HW2 7291  10.007   7.939   0.151  1.4914  0.5547  2.3646
34992SOL     OW 7292   2.608   4.294   5.386  0.4946  0.0928  0.6036
34992SOL    HW1 7293   2.671   4.293   5.459 -1.0803  0.0024  2.0204
34992SOL    HW2 7294   2.561   4.211   5.393 -1.8614  1.3966  1.5415
34993SOL     OW 7295   2.473   0.857   2.858 -0.4534 -0.4021 -0.3147
34993SOL    HW1 7296   2.510   0.860   2.946 -2.1275 -0.0602  0.4228
34993SOL    HW2 7297   2.536   0.808   2.806  1.0061  0.1790  0.8501
34994SOL     OW 7298   2.118   6.609   1.658  0.2952 -0.0029  0.1504
34994SOL    HW1 7299   2.047   6.640   1.601  0.0497  1.3362  1.1300
34994SOL    HW2 7300   2.192   6.666   1.637 -0.0118  1.0044  1.6277
34995SOL     OW 7301   0.137   7.665  10.446 -0.4348  0.1311 -0.3279
34995SOL    HW1 7302   0.084   7.587  10.463  0.6265 -0.5248  0.1089
34995SOL    HW2 7303   0.177   7.649  10.360  1.4559 -0.8447  0.6562
34996SOL     OW 7304   0.296   3.118   9.255  0.3647 -0.0684 -0.1156
34996SOL    HW1 7305   0.234   3.123   9.327  0.5475  1.8761 -0.0447
34996SOL    HW2 7306   0.242   3.095   9.179 -0.1484 -0.0890  0.2508
34997SOL     OW 7307   1.729  10.340   0.870  0.4025  0.5549  0.6083
34997SOL    HW1 7308   1.718  10.255   0.827  0.2441  1.4693 -1.2443
34997SOL    HW2 7309   1.697  10.325   0.959  0.7839 -1.4297  0.4644
34998SOL     OW 7310   9.909   8.049   9.167 -0.1470  0.9599 -0.5546
34998SOL    HW1 7311   9.828   8.095   9.148 -0.9659 -0.8357 -1.7539
34998SOL    HW2 7312   9.941   8.020   9.082  0.6500 -0.0993  0.0697
34999SOL     OW 7313   6.882   4.072   0.058 -0.3638  0.1713 -0.1902
34999SOL    HW1 7314   6.831   3.993   0.041  0.5728 -0.2221 -1.3137
34999SOL    HW2 7315   6.961   4.041   0.103 -0.2048  0.5346 -0.2095
35000SOL     OW 7316   9.053   4.704   8.403 -0.0439 -0.1751 -0.2910
35000SOL    HW1 7317   9.120   4.760   8.364 -1.0670  0.3851 -1.2975
35000SOL    HW2 7318   9.101   4.649   8.464  1.1060  1.2987  0.1958
35001SOL     OW 7319   1.256   9.864   3.658 -0.3105  0.2397  0.4076
35001SOL    HW1 7320   1.265   9.796   3.725  1.4657 -0.4753 -0.4723
35001SOL    HW2 7321   1.217   9.819   3.583 -1.3089  0.7833  0.5831
35002SOL     OW 7322   3.050   9.355   8.802  0.5528  0.0715  0.6480
35002SOL    HW1 7323   3.094   9.435   8.829 -0.7140  0.8052  0.6110
35002SOL    HW2 7324   3.113   9.310   8.745  1.7127  0.4619  1.5676
35003SOL     OW 7325   0.224   0.842   0.987 -0.3751  0.0261 -0.0343
35003SOL    HW1 7326   0.214   0.901   0.912 -1.0887  1.1972  0.9617
35003SOL    HW2 7327   0.319   0.829   0.994 -0.1686  1.4085 -0.0139
35004SOL     OW 7328  10.309   4.752   4.993 -0.0641  0.5315 -0.0427
35004SOL    HW1 7329  10.229   4.767   5.043  1.1132 -0.2524  2.2390
35004SOL    HW2 7330  10.305   4.660   4.968  0.2729  0.3770  0.4400
35005SOL     OW 7331   9.913   4.994   8.178 -0.3703  0.7823 -0.1120
35005SOL    HW1 7332   9.987   4.960   8.228  0.9102  1.8194 -1.2376
35005SOL    HW2 7333   9.868   5.053   8.239 -0.3104  0.1356  0.5792
35006SOL     OW 7334   3.219   8.043   0.886 -0.7856  0.2719 -0.5652
35006SOL    HW1 7335   3.231   8.004   0.973 -0.1283  1.1375 -0.2434
35006SOL    HW2 7336   3.125   8.037   0.870 -0.8706 -0.2218  0.0480
35007SOL     OW 7337   8.759   1.239   4.044 -0.0304  0.6055  0.2488
35007SOL    HW1 7338   8.842   1.195   4.025  0.1479  1.2544 -0.5687
35007SOL    HW2 7339   8.755   1.243   4.139  0.7573  0.3234  0.3045
35008SOL     OW 7340   9.602   5.906   8.082  0.2005 -0.0478 -0.4204
35008SOL    HW1 7341   9.570   5.995   8.092 -1.3450 -0.5541 -0.5450
35008SOL    HW2 7342   9.602   5.891   7.987  2.6133  0.5193 -0.5831
35009SOL     OW 7343   2.605   2.211   3.101  0.2341  0.5544  0.4047
35009SOL    HW1 7344   2.623   2.301   3.076  0.1931  0.5824  0.4755
35009SOL    HW2 7345   2.619   2.160   3.021 -1.1885  0.8105 -0.0284
35010SOL     OW 7346   5.240   4.136   3.390 -0.3275 -0.0314  0.4043
35010SOL    HW1 7347   5.190   4.217   3.387 -1.3161 -0.6555 -1.6378
35010SOL    HW2 7348   5.177   4.069   3.413  0.4288 -0.2998  1.8085
35011SOL     OW 7349   0.781   2.440   5.262  0.1844 -0.4962 -0.0048
35011SOL    HW1 7350   0.703   2.481   5.224  0.7090  0.2863 -0.2601
35011SOL    HW2 7351   0.785   2.353   5.222 -0.5246 -0.5318 -0.0191
35012SOL     OW 7352   6.368   1.333   6.024 -0.6754  0.2866 -0.2959
35012SOL    HW1 7353   6.360   1.348   6.118  0.5488  0.9890 -0.2792
35012SOL    HW2 7354   6.304   1.265   6.004  0.3246 -1.2183  1.3645
35013SOL     OW 7355   2.716   8.877   2.425 -0.3667  0.2320  0.0209
35013SOL    HW1 7356   2.635   8.845   2.465 -0.3427 -0.1743 -0.2455
35013SOL    HW2 7357   2.711   8.973   2.433 -1.3535  0.2818 -0.8819
35014SOL     OW 7358   6.084   9.727   6.539  0.4616  0.0502  0.2629
35014SOL    HW1 7359   6.163   9.755   6.494 -0.0836  1.2029 -0.0407
35014SOL    HW2 7360   6.098   9.635   6.558  1.6368  0.0969 -0.2773
35015SOL     OW 7361   3.118   7.101   8.717  0.0165  0.1033 -0.3728
35015SOL    HW1 7362   3.062   7.091   8.640 -0.5302  0.3019 -0.0045
35015SOL    HW2 7363   3.080   7.042   8.782  0.2628  0.2084 -0.1308
35016SOL     OW 7364   8.169   0.890   5.535  0.1669 -0.6486  0.0820
35016SOL    HW1 7365   8.103   0.877   5.603  2.1432  1.9675  2.7969
35016SOL    HW2 7366   8.246   0.841   5.566  0.4897 -1.1727 -1.4439
35017SOL     OW 7367   6.747   4.298   6.761 -0.6845 -0.1834 -0.2731
35017SOL    HW1 7368   6.801   4.372   6.731 -0.0852  0.0135  1.1854
35017SOL    HW2 7369   6.659   4.318   6.729 -0.1736  0.1921 -1.5203
35018SOL     OW 7370   2.465   0.759   8.209  0.4223  0.1796  0.4116
35018SOL    HW1 7371   2.542   0.748   8.153  0.0797  1.5194 -0.3820
35018SOL    HW2 7372   2.418   0.834   8.170 -0.2965  0.5855  1.9816
35019SOL     OW 7373   5.985   0.654   0.675  0.1122  1.0205  0.5199
35019SOL    HW1 7374   5.981   0.585   0.608  1.1986  2.2180 -0.8362
35019SOL    HW2 7375   5.896   0.656   0.713 -0.1424 -0.5916  0.0705
35020SOL     OW 7376   1.677   6.692   0.885 -0.4032  0.3428  0.0418
35020SOL    HW1 7377   1.679   6.681   0.790  0.2401  1.4745 -0.0846
35020SOL    HW2 7378   1.665   6.786   0.899 -0.1841  0.2322  1.0812
35021SOL     OW 7379  10.309   6.073   1.121  0.1124  0.1527 -0.9952
35021SOL    HW1 7380  10.268   6.155   1.148  0.2449 -0.4851  1.4209
35021SOL    HW2 7381  10.389   6.068   1.173 -0.0639 -1.6360 -0.8115
35022SOL     OW 7382   9.520   8.235   5.466 -0.0565  0.5146 -0.4685
35022SOL    HW1 7383   9.465   8.157   5.465  0.3126  0.2106  0.7971
35022SOL    HW2 7384   9.607   8.203   5.441  0.0437  0.5533 -0.1774
35023SOL     OW 7385  10.512   4.488  10.257  0.0891  0.2512 -0.0346
35023SOL    HW1 7386  10.455   4.414  10.276 -0.0440  0.0138 -1.3082
35023SOL    HW2 7387  10.452   4.562  10.247  0.1562  0.3645  0.3683
35024SOL     OW 7388   4.527   4.827   0.187  0.2057  0.0824 -0.3474
35024SOL    HW1 7389   4.444   4.797   0.222  1.0367  0.8612  2.5087
35024SOL    HW2 7390   4.592   4.766   0.221  0.8791 -0.7641 -2.8599
35025SOL     OW 7391   8.382  10.128   7.012  0.3845  0.3953  0.1081
35025SOL    HW1 7392   8.465  10.086   7.033 -0.0037 -0.1562  0.5529
35025SOL    HW2 7393   8.403  10.221   7.007  1.1376  0.2054 -0.3363
35026SOL     OW 7394   8.780   1.293   9.017 -0.1135  0.0835 -0.3629
35026SOL    HW1 7395   8.732   1.345   9.081  1.4241  1.4389 -0.2403
35026SOL    HW2 7396   8.747   1.323   8.932 -0.0382  0.4569 -0.2619
35027SOL     OW 7397  10.455   4.491   7.100  0.2269  0.2738 -0.0497
35027SOL    HW1 7398  10.504   4.469   7.021 -0.0840 -1.1591  0.1314
35027SOL    HW2 7399  10.516   4.542   7.153  0.6403  0.7246 -0.9529
35028SOL     OW 7400   5.392   7.077   3.139 -0.1394  0.1287  0.2605
35028SOL    HW1 7401   5.445   7.042   3.211 -1.2615  0.5672  1.3515
35028SOL    HW2 7402   5.386   7.006   3.076  2.4004  0.3307 -0.3121
35029SOL     OW 7403  10.063   0.951   8.661  0.5355 -0.2994 -0.4380
35029SOL    HW1 7404  10.015   1.030   8.635 -0.4650 -0.8199 -0.2138
35029SOL    HW2 7405  10.080   0.963   8.754  0.9147 -0.0834 -0.5326
35030SOL     OW 7406   5.966  10.307   3.580 -0.6774  0.1715 -0.5012
35030SOL    HW1 7407   5.890  10.340   3.628 -0.4656  0.0216 -0.0521
35030SOL    HW2 7408   5.984  10.222   3.621 -0.8190 -0.2034 -1.2090
35031SOL     OW 7409   8.954   2.817   2.579  0.1358 -0.4219 -0.4280
35031SOL    HW1 7410   8.934   2.731   2.544  0.8489 -0.7829  0.0388
35031SOL    HW2 7411   8.996   2.800   2.663  2.3214  0.2771 -1.3049
35032SOL     OW 7412   7.531   5.285   0.132  0.2083 -0.4057  0.2027
35032SOL    HW1 7413   7.477   5.206   0.138 -1.1405  0.5274  0.9086
35032SOL    HW2 7414   7.522   5.313   0.041  0.4139 -0.8731  0.0370
35033SOL     OW 7415   0.613   3.741   3.108 -0.3262 -0.2922  0.4270
35033SOL    HW1 7416   0.625   3.835   3.124 -1.2874 -0.3275  1.4623
35033SOL    HW2 7417   0.699   3.703   3.126 -0.1270  0.2982  0.7670
35034SOL     OW 7418   4.288   3.260   3.435 -0.4695  0.4627 -0.1487
35034SOL    HW1 7419   4.277   3.316   3.512 -0.0519 -0.6149  0.7317
35034SOL    HW2 7420   4.366   3.293   3.392 -0.7906  1.1725 -0.2008
35035SOL     OW 7421   6.946   2.802   0.798  0.0373 -0.4445  0.5059
35035SOL    HW1 7422   7.019   2.750   0.832  0.5521  0.4749  0.8350
35035SOL    HW2 7423   6.871   2.742   0.801  0.5920 -1.1306  0.9844
35036SOL     OW 7424   2.423   1.064   7.353  0.6945  0.3103 -0.0491
35036SOL    HW1 7425   2.399   0.971   7.348 -0.2465  0.5264  0.2352
35036SOL    HW2 7426   2.386   1.094   7.436  1.0324  0.9350 -0.1183
35037SOL     OW 7427   1.776   1.937  10.496  0.0737  0.0515  0.3856
35037SOL    HW1 7428   1.845   1.878  10.525 -1.5202 -0.9271  2.5454
35037SOL    HW2 7429   1.763   1.996  10.570 -0.8327  0.7170 -0.2849
35038SOL     OW 7430   6.345   0.361   2.423 -0.1942 -0.1998  0.2401
35038SOL    HW1 7431   6.313   0.282   2.379  0.2853 -0.0348 -0.4356
35038SOL    HW2 7432   6.433   0.374   2.387  1.6677 -1.9182  3.6778
35039SOL     OW 7433   7.129   3.886   1.309 -0.3448  0.3411 -0.5506
35039SOL    HW1 7434   7.133   3.896   1.213 -0.1520  1.2059 -0.4671
35039SOL    HW2 7435   7.180   3.960   1.342 -1.5732  0.8575  0.2523
35040SOL     OW 7436   1.999   0.973   2.437  0.4784 -0.9237 -0.3423
35040SOL    HW1 7437   1.971   0.918   2.510  0.3332 -0.4898 -0.0670
35040SOL    HW2 7438   1.939   1.048   2.439 -0.4917 -1.6172 -1.8276
35041SOL     OW 7439  10.475   5.522   5.051  0.1263 -0.3121  0.3310
35041SOL    HW1 7440  10.468   5.440   5.100 -2.1710  1.5178  3.4588
35041SOL    HW2 7441  10.552   5.565   5.088 -0.8731  0.5205  1.5104
35042SOL     OW 7442   8.552   3.812   3.411 -0.7160 -0.1172 -0.9933
35042SOL    HW1 7443   8.492   3.742   3.436 -1.3980  0.8889  0.3262
35042SOL    HW2 7444   8.605   3.827   3.489 -0.4808  0.7284 -1.3007
35043SOL     OW 7445   2.433   8.419   4.078 -0.0672 -0.0530  0.3654
35043SOL    HW1 7446   2.339   8.404   4.081 -1.0463  4.1855 -1.3958
35043SOL    HW2 7447   2.449   8.483   4.148  0.9949  1.0427 -0.8275
35044SOL     OW 7448   5.098   2.856   9.527  0.5318 -0.0634  0.2607
35044SOL    HW1 7449   5.186   2.847   9.490  1.0995 -2.8370  1.9614
35044SOL    HW2 7450   5.110   2.841   9.621 -1.6561  0.4211  0.6789
35045SOL     OW 7451   4.121   1.778   8.709  0.4138 -0.0644 -0.1118
35045SOL    HW1 7452   4.193   1.765   8.648  0.9926  1.7770  0.1109
35045SOL    HW2 7453   4.140   1.720   8.783  0.4983 -1.1826 -0.9952
35046SOL     OW 7454   6.164   2.200   8.615 -0.2713 -0.4172 -0.0534
35046SOL    HW1 7455   6.116   2.281   8.633  1.2391  0.7619 -1.0724
35046SOL    HW2 7456   6.136   2.175   8.526  1.2598  0.5342 -0.8419
35047SOL     OW 7457   0.233   4.722   1.191 -0.0893 -0.4265 -0.0367
35047SOL    HW1 7458   0.186   4.639   1.189  0.2272 -0.6495  1.0437
35047SOL    HW2 7459   0.324   4.699   1.173 -0.1332 -0.1996 -0.5663
35048SOL     OW 7460   4.166   4.071   9.409 -0.3505  0.1699  0.2801
35048SOL    HW1 7461   4.222   4.034   9.477 -1.4448 -1.9448  0.1076
35048SOL    HW2 7462   4.103   4.125   9.458 -1.4410 -1.7225  1.0773
35049SOL     OW 7463   0.765   5.292   3.053  0.0212  0.8092 -0.0588
35049SOL    HW1 7464   0.791   5.223   3.115  0.0502  1.4234  0.6322
35049SOL    HW2 7465   0.728   5.361   3.108 -0.0711  1.3212 -0.7448
35050SOL     OW 7466   6.923   4.261   3.621  0.2504  0.8509 -0.3298
35050SOL    HW1 7467   6.864   4.323   3.664  1.0881  0.4626  1.5219
35050SOL    HW2 7468   6.866   4.190   3.591 -0.5136  1.7303 -0.9983
35051SOL     OW 7469   0.646   5.348   8.589  0.1297  0.4617  0.1637
35051SOL    HW1 7470   0.670   5.437   8.612 -0.7297  0.5234  0.8455
35051SOL    HW2 7471   0.727   5.298   8.600  0.4886  1.0578  0.2663
35052SOL     OW 7472   1.981   7.964   6.425  0.1451 -0.2936 -0.0217
35052SOL    HW1 7473   1.953   7.892   6.368  1.0212  0.0222 -0.8827
35052SOL    HW2 7474   2.059   7.930   6.468  0.4864  0.0842 -0.3342
35053SOL     OW 7475   7.966   7.344   9.114  0.1715  0.1328  0.3371
35053SOL    HW1 7476   8.045   7.289   9.106  0.2392  0.2151  0.4493
35053SOL    HW2 7477   7.997   7.433   9.097  0.1593  0.2049  0.6979
35054SOL     OW 7478   7.751   2.468   3.752  0.3197  0.0933 -0.0454
35054SOL    HW1 7479   7.821   2.403   3.743 -0.2812 -0.6761  0.6995
35054SOL    HW2 7480   7.687   2.426   3.809  0.6050  1.9128  1.7128
35055SOL     OW 7481   4.088   7.488   2.322 -0.0882 -0.2889 -0.3614
35055SOL    HW1 7482   4.005   7.495   2.369  0.1338 -1.1564  0.1974
35055SOL    HW2 7483   4.116   7.397   2.337  1.1315  0.0884 -0.2270
35056SOL     OW 7484   9.321   9.513   9.728  0.3124 -0.1113  0.4317
35056SOL    HW1 7485   9.409   9.482   9.750  0.7354  0.1749 -0.7707
35056SOL    HW2 7486   9.281   9.532   9.812  1.4219 -0.2041  1.0063
35057SOL     OW 7487   5.984   6.212   7.378  0.2107  1.2273  0.4658
35057SOL    HW1 7488   6.035   6.165   7.313 -1.3706 -2.0032  1.3724
35057SOL    HW2 7489   5.894   6.209   7.345 -0.2993  1.4132  1.7558
35058SOL     OW 7490   9.654   8.885   0.047 -0.1602  0.2880 -0.3233
35058SOL    HW1 7491   9.593   8.816   0.072  0.2334 -0.7414 -2.0677
35058SOL    HW2 7492   9.724   8.840   0.001  1.1372  1.6397  0.2505
35059SOL     OW 7493   4.944   4.437   5.102  0.7156 -0.1719 -0.4719
35059SOL    HW1 7494   4.998   4.363   5.126  0.4143  0.1681  1.4367
35059SOL    HW2 7495   4.856   4.413   5.132  0.6128  0.9185  0.1520
35060SOL     OW 7496   3.064  10.193   5.010 -0.0544 -0.1230 -0.2047
35060SOL    HW1 7497   3.143  10.153   4.973 -0.1731 -1.2780  0.7062
35060SOL    HW2 7498   3.008  10.210   4.935 -0.7062 -3.3324 -0.5918
35061SOL     OW 7499   4.934   0.649   0.526 -0.8307 -0.1453 -0.9395
35061SOL    HW1 7500   4.973   0.563   0.544  0.0885  0.3368 -0.5967
35061SOL    HW2 7501   4.857   0.652   0.582 -0.1524 -0.2363  0.0201
35062SOL     OW 7502   3.495  10.253   7.838  0.4913  0.3087  0.0024
35062SOL    HW1 7503   3.464  10.224   7.752  0.3710 -3.6838  1.2035
35062SOL    HW2 7504   3.577  10.299   7.821 -0.2986  0.9787 -2.3063
35063SOL     OW 7505   1.177   9.362   1.436  0.1269 -0.0857  0.2109
35063SOL    HW1 7506   1.159   9.271   1.411  0.9744 -0.3462  0.5010
35063SOL    HW2 7507   1.129   9.374   1.518  1.5776 -0.9240  1.2432
35064SOL     OW 7508   9.290  10.498   3.405  0.1337  0.1909  0.8251
35064SOL    HW1 7509   9.321  10.507   3.315  1.9534 -0.7773  1.2992
35064SOL    HW2 7510   9.293  10.587   3.441 -1.3283  0.7074 -0.2485
35065SOL     OW 7511   9.426   1.074   4.507 -0.1256 -0.4338  0.1054
35065SOL    HW1 7512   9.481   1.069   4.586 -1.6232  1.6006  1.3537
35065SOL    HW2 7513   9.410   1.167   4.495  2.1301 -0.3608 -4.1867
35066SOL     OW 7514   4.610   6.568   0.880 -0.0238  0.4279 -0.4296
35066SOL    HW1 7515   4.700   6.597   0.865  0.1724 -0.3402 -0.8133
35066SOL    HW2 7516   4.592   6.507   0.808 -0.4844 -0.2210  0.2215
35067SOL     OW 7517   0.694   4.023   3.074  0.1685  0.4209  0.0573
35067SOL    HW1 7518   0.771   4.068   3.040  0.9554 -0.8834  0.0506
35067SOL    HW2 7519   0.714   4.007   3.166  0.6941 -1.4760 -0.3502
35068SOL     OW 7520   7.032   0.529   7.279 -0.1781  0.1831 -0.4089
35068SOL    HW1 7521   6.982   0.605   7.310 -0.9503  0.3269 -1.8831
35068SOL    HW2 7522   7.021   0.532   7.183  1.2326 -0.7948 -0.6182
35069SOL     OW 7523   8.715   4.250   3.973 -0.6363  0.3488 -0.0875
35069SOL    HW1 7524   8.769   4.305   4.030  0.2927 -2.4212  1.9129
35069SOL    HW2 7525   8.777   4.201   3.920 -1.3888  0.1882 -0.8500
35070SOL     OW 7526   3.410   8.949   1.626  0.4721 -0.3178  0.4221
35070SOL    HW1 7527   3.401   8.871   1.571  2.0612 -0.9298  0.9569
35070SOL    HW2 7528   3.501   8.978   1.611 -0.6037  2.6157 -1.2667
35071SOL     OW 7529   9.576   9.952   9.010 -0.0861 -0.0266 -0.1366
35071SOL    HW1 7530   9.521   9.875   9.020 -1.4264  0.6882 -1.6464
35071SOL    HW2 7531   9.632   9.932   8.935 -0.2146  0.3411 -0.3311
35072SOL     OW 7532   7.608   1.034   0.698  0.1585 -0.8462 -0.1432
35072SOL    HW1 7533   7.535   1.004   0.753  0.9645 -0.0017  1.4588
35072SOL    HW2 7534   7.627   0.960   0.641 -1.1097 -1.5458  0.2986
35073SOL     OW 7535   8.431   3.638   8.072 -0.3917  0.2292 -0.2257
35073SOL    HW1 7536   8.370   3.629   8.145  0.3407 -0.9871  0.2586
35073SOL    HW2 7537   8.444   3.549   8.039  0.9756  0.4684 -0.4203
35074SOL     OW 7538   1.862   4.944   9.227 -0.4331 -0.1785 -0.0080
35074SOL    HW1 7539   1.842   5.035   9.250  0.2176  0.1516 -0.6930
35074SOL    HW2 7540   1.859   4.943   9.131 -2.1142 -1.2793  0.0213
35075SOL     OW 7541   7.128   2.257   6.870  0.1546  0.2746  0.1969
35075SOL    HW1 7542   7.168   2.328   6.920 -2.1887  1.0791  1.0785
35075SOL    HW2 7543   7.200   2.199   6.847  1.8022  1.7406  1.4733
35076SOL     OW 7544   5.083   7.145  10.179 -0.3159 -0.3195  0.4875
35076SOL    HW1 7545   5.038   7.062  10.165  0.2499 -0.3071 -1.9014
35076SOL    HW2 7546   5.024   7.196  10.235 -1.8204 -1.4373 -0.0148
35077SOL     OW 7547   2.609   2.954   9.167 -0.4016 -0.0603 -0.1541
35077SOL    HW1 7548   2.551   3.013   9.215  0.6324  1.3054 -0.5090
35077SOL    HW2 7549   2.558   2.926   9.091  0.2637  3.4961 -2.1213
35078SOL     OW 7550   9.503   7.474   1.091 -0.1521 -0.7733 -0.0744
35078SOL    HW1 7551   9.537   7.432   1.011 -1.0075 -0.3066 -0.7062
35078SOL    HW2 7552   9.408   7.472   1.080 -0.2482  1.8998 -0.4560
35079SOL     OW 7553   1.780   5.628   3.891 -0.1969  0.5166  0.1348
35079SOL    HW1 7554   1.727   5.605   3.815  0.3899 -0.6776  0.0716
35079SOL    HW2 7555   1.720   5.620   3.965  0.0734 -1.7363  0.1710
35080SOL     OW 7556   2.352  10.279   0.791 -0.1805  0.5421 -0.1331
35080SOL    HW1 7557   2.401  10.275   0.873  0.9045 -0.9130 -0.8054
35080SOL    HW2 7558   2.266  10.243   0.813  0.5411 -1.1550  0.1246
35081SOL     OW 7559   3.704   5.823   9.394  0.3109  0.0736 -0.1311
35081SOL    HW1 7560   3.613   5.816   9.420 -0.0267  1.1806 -0.9603
35081SOL    HW2 7561   3.752   5.835   9.476  0.1191 -3.4507  0.6670
35082SOL     OW 7562   6.422   8.200   8.605  0.1208  0.2504 -0.9443
35082SOL    HW1 7563   6.485   8.129   8.589  0.6291  0.3740  0.3441
35082SOL    HW2 7564   6.357   8.190   8.536  1.3755 -0.0815 -2.1292
35083SOL     OW 7565   0.283   3.358   8.603 -0.2933 -0.2467 -0.4020
35083SOL    HW1 7566   0.221   3.344   8.532  0.4533  0.2023 -1.1626
35083SOL    HW2 7567   0.364   3.316   8.573 -0.1029 -0.4920  0.4050
35084SOL     OW 7568   1.440   7.181   5.293  0.1098  0.5079 -0.3282
35084SOL    HW1 7569   1.362   7.208   5.342 -0.5069 -1.6662  0.0044
35084SOL    HW2 7570   1.494   7.134   5.358  0.3921 -0.3776 -1.1832
35085SOL     OW 7571   8.692   4.935   8.455 -0.0602 -0.0686 -0.4986
35085SOL    HW1 7572   8.638   4.877   8.402 -0.7066  0.1725 -0.1139
35085SOL    HW2 7573   8.755   4.972   8.393 -1.1067  0.5719 -1.2060
35086SOL     OW 7574   5.481   7.792   5.185 -0.8096 -0.8833 -0.3439
35086SOL    HW1 7575   5.520   7.831   5.263  2.1121 -0.3391 -1.9210
35086SOL    HW2 7576   5.518   7.704   5.180 -0.8968 -0.8870 -1.1440
35087SOL     OW 7577   3.441   9.818   7.931 -0.3350  0.4156 -0.2534
35087SOL    HW1 7578   3.464   9.894   7.984 -1.1427  1.7630 -1.7434
35087SOL    HW2 7579   3.345   9.815   7.934 -0.3403 -2.8013  2.7476
35088SOL     OW 7580   9.636   0.295   3.245 -0.2228 -0.1573 -0.3491
35088SOL    HW1 7581   9.596   0.247   3.317 -0.0926 -0.3940 -0.4346
35088SOL    HW2 7582   9.636   0.233   3.172 -1.9343  0.6053 -1.0615
35089SOL     OW 7583   3.149   7.283   5.119  0.4397 -0.1947 -0.1688
35089SOL    HW1 7584   3.236   7.315   5.142 -0.2027 -0.2172  2.7447
35089SOL    HW2 7585   3.097   7.363   5.104  0.8986 -0.1813 -1.8511
35090SOL     OW 7586   7.248  10.310   7.616  0.3037  0.4747 -0.2731
35090SOL    HW1 7587   7.158  10.278   7.609  0.1938  0.1897  1.7783
35090SOL    HW2 7588   7.240  10.405   7.624  0.2258  0.5044 -0.7244
35091SOL     OW 7589   2.925   0.687   0.675  0.0975 -0.1310 -0.8939
35091SOL    HW1 7590   2.846   0.717   0.719  0.9426  1.3982 -0.3509
35091SOL    HW2 7591   2.985   0.761   0.680  2.1254 -1.7287  0.0895
35092SOL     OW 7592   4.166   8.226   4.843  0.0914 -0.0315 -0.1641
35092SOL    HW1 7593   4.256   8.224   4.876  0.1102 -0.6447 -0.2515
35092SOL    HW2 7594   4.160   8.151   4.784 -1.2079 -1.5206  1.7439
35093SOL     OW 7595   9.312   6.987   5.858  0.2016 -0.3220  0.5644
35093SOL    HW1 7596   9.265   7.001   5.941 -1.2660  3.2513 -0.6822
35093SOL    HW2 7597   9.246   6.948   5.801  0.1047  0.5277  0.0884
35094SOL     OW 7598   3.292   4.372  10.435 -0.1311 -0.1196  0.4123
35094SOL    HW1 7599   3.377   4.352  10.397  0.1089 -0.3266  1.0476
35094SOL    HW2 7600   3.281   4.466  10.419  0.1983 -0.0971  0.2999
35095SOL     OW 7601   2.713   0.251   2.511  0.7555 -0.0915  0.2260
35095SOL    HW1 7602   2.632   0.296   2.537  0.0181 -1.7909  1.0648
35095SOL    HW2 7603   2.776   0.277   2.578  1.4240  2.4353 -1.2481
35096SOL     OW 7604   1.704   5.481   6.465 -0.0080 -0.5162  0.2534
35096SOL    HW1 7605   1.631   5.426   6.436 -0.1593 -0.6265  0.8256
35096SOL    HW2 7606   1.708   5.552   6.401 -0.5416 -0.5791  0.1457
35097SOL     OW 7607   9.270   6.294   7.678 -0.1404  0.2407  0.0476
35097SOL    HW1 7608   9.304   6.362   7.737  0.6067 -0.4680  0.4579
35097SOL    HW2 7609   9.274   6.214   7.730 -0.3019 -0.2521 -0.6890
35098SOL     OW 7610   1.708   2.975   3.029 -0.7003 -0.2652  0.3526
35098SOL    HW1 7611   1.680   3.056   3.071 -1.2922  0.1126 -0.7209
35098SOL    HW2 7612   1.803   2.971   3.044 -0.5516  0.9812 -0.1700
35099SOL     OW 7613   0.211   0.320   5.367 -0.1343 -0.2167  0.5082
35099SOL    HW1 7614   0.149   0.378   5.322  0.0720 -0.8843 -0.6817
35099SOL    HW2 7615   0.295   0.337   5.323  0.4067  0.1956  1.6599
35100SOL     OW 7616   3.251   8.004   1.812 -0.3620 -0.2026 -0.2270
35100SOL    HW1 7617   3.210   7.960   1.886  1.0788 -1.0912  0.0591
35100SOL    HW2 7618   3.287   8.085   1.849  0.8232 -0.9008  0.1694
35101SOL     OW 7619   5.817   6.169   9.220  0.3768  0.3230 -0.0332
35101SOL    HW1 7620   5.744   6.231   9.216 -0.6618 -0.8727 -0.2298
35101SOL    HW2 7621   5.782   6.088   9.183  1.9552 -0.1530 -0.5576
35102SOL     OW 7622   0.005  10.479   1.182  0.4652 -0.0964  0.2448
35102SOL    HW1 7623   0.018  10.562   1.228 -0.0403  0.9708 -1.4450
35102SOL    HW2 7624  -0.089  10.477   1.164  0.2491 -1.6640  1.3314
35103SOL     OW 7625   7.034   6.461   1.069  0.1493 -0.5461  0.0593
35103SOL    HW1 7626   6.978   6.535   1.046  0.5071 -0.6522 -1.1799
35103SOL    HW2 7627   6.974   6.395   1.105 -0.3738 -0.2642 -0.2903
35104SOL     OW 7628   9.427   1.051   7.734 -0.1751 -0.7583 -0.1589
35104SOL    HW1 7629   9.465   1.112   7.670 -2.6774 -0.0495 -1.0747
35104SOL    HW2 7630   9.400   1.106   7.807 -1.8401 -0.8135 -0.6995
35105SOL     OW 7631   2.268   1.784   7.456 -0.0144 -0.0338  0.0218
35105SOL    HW1 7632   2.226   1.698   7.448 -0.0039 -0.1395  0.9808
35105SOL    HW2 7633   2.315   1.795   7.374 -0.8832 -0.4768 -0.5539
35106SOL     OW 7634   2.344   1.455   5.433 -0.0846 -0.2883 -0.2198
35106SOL    HW1 7635   2.251   1.437   5.420 -0.2123  0.0391  0.2055
35106SOL    HW2 7636   2.354   1.547   5.409 -0.4106  0.4743  2.2686
35107SOL     OW 7637   1.504   4.801   7.685 -0.4391  0.6407 -0.6970
35107SOL    HW1 7638   1.543   4.741   7.748 -1.8137  0.2624 -0.1630
35107SOL    HW2 7639   1.456   4.745   7.624 -1.3797  1.1345 -0.4464
35108SOL     OW 7640   5.972   1.937  10.295  0.7012 -0.0718 -0.2745
35108SOL    HW1 7641   6.003   1.977  10.214 -0.2123 -0.6746 -0.9300
35108SOL    HW2 7642   6.039   1.873  10.317 -0.1837 -1.6465 -1.8967
35109SOL     OW 7643   6.643   4.920   6.269  0.4509 -0.0238  0.0963
35109SOL    HW1 7644   6.566   4.881   6.226 -0.9251  0.8570  1.6299
35109SOL    HW2 7645   6.623   4.913   6.363  1.6686  1.3943  0.4826
35110SOL     OW 7646   1.174   9.126   0.482  0.0848 -0.1335  0.5958
35110SOL    HW1 7647   1.253   9.082   0.451 -0.4518 -0.1428 -0.8239
35110SOL    HW2 7648   1.198   9.162   0.567  0.5972 -2.9975  1.7515
35111SOL     OW 7649   2.783   4.835   5.144  0.1833  0.0225  0.5777
35111SOL    HW1 7650   2.724   4.856   5.216 -0.7548 -1.4887  0.3062
35111SOL    HW2 7651   2.728   4.838   5.066  0.9966  0.8123  0.0115
35112SOL     OW 7652   9.148   7.196   7.165 -0.3423  0.4630 -0.0385
35112SOL    HW1 7653   9.122   7.286   7.185  0.8090  0.8412 -0.1429
35112SOL    HW2 7654   9.068   7.154   7.133 -0.8790  1.4627 -0.0409
35113SOL     OW 7655   7.651   5.874   5.661  0.7961 -0.0407 -0.1066
35113SOL    HW1 7656   7.629   5.808   5.595  1.4173 -0.2297 -0.1326
35113SOL    HW2 7657   7.746   5.869   5.669  0.8329  0.7166  0.0360
35114SOL     OW 7658   0.649   7.029   2.592 -0.0273  0.3180  0.4350
35114SOL    HW1 7659   0.681   7.114   2.562  0.0327  1.0266  2.3997
35114SOL    HW2 7660   0.714   6.998   2.654 -0.4637 -0.7846  0.3720
35115SOL     OW 7661   2.840   1.321   7.155 -0.2345 -0.4791 -0.2204
35115SOL    HW1 7662   2.751   1.317   7.190 -0.0469  1.2355  0.5984
35115SOL    HW2 7663   2.829   1.315   7.060 -1.1984 -0.6389 -0.1054
35116SOL     OW 7664   0.682   5.730   2.924 -0.3571  0.1567  0.0979
35116SOL    HW1 7665   0.687   5.803   2.986 -0.7488 -0.2459  0.6190
35116SOL    HW2 7666   0.609   5.677   2.956  1.3780 -1.7448  1.1753
35117SOL     OW 7667   9.297   9.175   2.115  0.8297  0.2263  1.1560
35117SOL    HW1 7668   9.225   9.137   2.166  0.7755 -0.2518  0.7297
35117SOL    HW2 7669   9.374   9.125   2.141  0.6993 -0.4163  0.3475
35118SOL     OW 7670   6.337   2.086   4.825  0.0225  0.2654 -0.2599
35118SOL    HW1 7671   6.410   2.129   4.871  0.7121  0.5882 -1.6127
35118SOL    HW2 7672   6.356   1.993   4.834  0.6182  0.3451 -0.6013
35119SOL     OW 7673   1.179  10.074   9.207 -0.1457  0.4412 -0.3131
35119SOL    HW1 7674   1.119  10.139   9.244 -1.2707  1.3008 -3.3526
35119SOL    HW2 7675   1.122  10.008   9.168  0.9845 -1.6625  1.3470
35120SOL     OW 7676   8.088   4.680   6.395 -0.6083  0.0774 -0.2209
35120SOL    HW1 7677   8.181   4.705   6.389 -0.9892  1.3631 -1.1674
35120SOL    HW2 7678   8.090   4.587   6.418  0.9072  0.3436  0.9229
35121SOL     OW 7679   8.399   6.252   0.988  0.5390 -0.3109 -0.5855
35121SOL    HW1 7680   8.492   6.270   0.975  0.6902  1.1316  1.8599
35121SOL    HW2 7681   8.397   6.173   1.042  0.4895  0.8556  1.1880
35122SOL     OW 7682   2.191   9.988   6.388  0.4310 -0.7535 -1.1589
35122SOL    HW1 7683   2.103  10.006   6.357  1.1364  0.3450 -2.6390
35122SOL    HW2 7684   2.199  10.038   6.469 -0.7766 -2.0607 -0.1904
35123SOL     OW 7685   1.932   7.418   6.647  0.3195 -0.4149  0.4936
35123SOL    HW1 7686   1.904   7.510   6.647  0.6175 -0.2736  2.6013
35123SOL    HW2 7687   1.897   7.382   6.566  0.3763  1.6155 -0.4929
35124SOL     OW 7688   7.333   7.082   3.004 -1.0951 -0.0512 -0.1619
35124SOL    HW1 7689   7.315   6.988   2.997  0.5084 -0.4085  0.1173
35124SOL    HW2 7690   7.322   7.115   2.915 -1.6663 -0.4906 -0.2635
35125SOL     OW 7691   0.503   9.685  10.494  0.1989  0.0212  0.5584
35125SOL    HW1 7692   0.563   9.620  10.531 -0.0358  0.1446  1.1773
35125SOL    HW2 7693   0.425   9.678  10.549  0.9115  2.2392  1.9842
35126SOL     OW 7694   2.163   6.607   9.742  0.0361  0.0760 -0.3388
35126SOL    HW1 7695   2.158   6.627   9.649 -1.8375 -0.2357 -0.3299
35126SOL    HW2 7696   2.136   6.515   9.749  0.7475 -0.0930  0.4620
35127SOL     OW 7697   4.976   3.200   8.640 -0.1138 -0.2066 -0.5821
35127SOL    HW1 7698   4.965   3.291   8.669 -0.0103 -0.1287 -0.7837
35127SOL    HW2 7699   5.033   3.161   8.707 -1.7152 -0.6694  0.5650
35128SOL     OW 7700   3.415   1.327   0.498 -0.3730  0.5131  0.2491
35128SOL    HW1 7701   3.432   1.262   0.566 -1.2296 -1.3547 -1.2499
35128SOL    HW2 7702   3.497   1.376   0.491  1.3800 -2.3087 -0.5417
35129SOL     OW 7703   8.625   9.990   1.560 -0.6001 -0.3241  0.0529
35129SOL    HW1 7704   8.715   9.957   1.551  0.6427  2.4848  1.1418
35129SOL    HW2 7705   8.616  10.009   1.653 -2.6204 -1.1343  0.0717
35130SOL     OW 7706   7.525   8.073   0.939  0.5509 -0.0788 -0.7169
35130SOL    HW1 7707   7.443   8.103   0.978 -0.3033 -1.1856 -1.6034
35130SOL    HW2 7708   7.590   8.137   0.967  0.0587 -0.8842  2.6743
35131SOL     OW 7709   8.887   9.087   5.974  0.4895 -0.2326  0.5984
35131SOL    HW1 7710   8.907   9.179   5.988  1.6874 -0.9079  5.0725
35131SOL    HW2 7711   8.969   9.049   5.944 -0.3358  0.1776 -2.5538
35132SOL     OW 7712   2.096   1.431   2.500  0.6446 -0.3419  0.3086
35132SOL    HW1 7713   2.141   1.388   2.573  0.5549 -2.1142 -0.6307
35132SOL    HW2 7714   2.125   1.384   2.422 -1.1472 -0.1003 -0.5569
35133SOL     OW 7715   9.933   3.050   9.735  0.0361 -0.4321 -0.2380
35133SOL    HW1 7716   9.927   3.139   9.769  0.7681 -0.0064 -1.1981
35133SOL    HW2 7717   9.977   3.059   9.651 -0.8083 -1.5786 -0.8362
35134SOL     OW 7718   8.076   3.054   5.940  0.2271  0.6955  0.1327
35134SOL    HW1 7719   8.071   3.133   5.993  0.0818  1.1545 -0.5550
35134SOL    HW2 7720   8.159   3.013   5.966  0.3726  1.1451  0.3870
35135SOL     OW 7721   3.248   8.468   7.093  0.0843 -0.2170 -0.4220
35135SOL    HW1 7722   3.317   8.460   7.027 -0.9865 -0.3730 -1.5392
35135SOL    HW2 7723   3.167   8.453   7.046 -1.1706  4.3237 -0.1308
35136SOL     OW 7724   3.752   7.054   0.952  0.4329  0.6791  0.1347
35136SOL    HW1 7725   3.696   7.131   0.962 -0.1546  0.5556 -1.7648
35136SOL    HW2 7726   3.692   6.984   0.928  1.1978  0.1036 -0.1283
35137SOL     OW 7727   6.662   6.291   2.356 -0.0005 -0.0410  0.4909
35137SOL    HW1 7728   6.646   6.227   2.425 -0.1687 -0.9120 -0.3393
35137SOL    HW2 7729   6.719   6.246   2.294 -1.1230  0.1482 -0.7393
35138SOL     OW 7730   3.646   6.886   4.525  0.0832  1.2729  0.0315
35138SOL    HW1 7731   3.738   6.867   4.544  0.4445  2.3858 -0.5337
35138SOL    HW2 7732   3.607   6.903   4.611 -0.0598 -1.0183  0.4745
35139SOL     OW 7733   1.766   5.803   2.763 -0.5154  0.7471  0.1374
35139SOL    HW1 7734   1.721   5.853   2.695 -0.2952 -0.4907 -0.9433
35139SOL    HW2 7735   1.856   5.836   2.761 -0.4129  0.4449 -0.4523
35140SOL     OW 7736   4.542   4.577   5.532 -0.0473 -0.4275  0.0610
35140SOL    HW1 7737   4.585   4.628   5.601  1.3898 -1.3804 -0.0836
35140SOL    HW2 7738   4.535   4.637   5.458 -0.2791  0.1675  0.5511
35141SOL     OW 7739   0.184   6.908   5.725 -0.3162 -0.1402  0.2294
35141SOL    HW1 7740   0.126   6.972   5.766 -0.0548 -0.4640  1.1427
35141SOL    HW2 7741   0.253   6.960   5.685  0.4535  0.1468  1.8326
35142SOL     OW 7742   2.024  10.040   0.512  0.3610  0.3583  0.4329
35142SOL    HW1 7743   1.949  10.099   0.515  0.4200  0.5195 -0.6807
35142SOL    HW2 7744   2.084  10.082   0.450  0.3840 -0.8699 -0.4236
35143SOL     OW 7745   8.159   7.473   5.455 -0.0514 -0.4705 -0.6426
35143SOL    HW1 7746   8.147   7.537   5.525  0.0630  1.6636 -2.4685
35143SOL    HW2 7747   8.115   7.395   5.487 -1.2012  0.8484  1.2237
35144SOL     OW 7748   3.771   1.630  10.079  0.2032  0.2294 -0.6935
35144SOL    HW1 7749   3.699   1.607  10.021 -0.4607  0.7110 -0.0716
35144SOL    HW2 7750   3.836   1.561  10.066 -0.4438 -0.3028 -1.1192
35145SOL     OW 7751   0.084   0.635   4.763  0.0691 -0.3413 -0.0441
35145SOL    HW1 7752   0.057   0.585   4.686 -1.8573  2.8198 -1.6091
35145SOL    HW2 7753   0.141   0.704   4.728  0.9411 -0.1058  1.7261
35146SOL     OW 7754   6.915   5.612   3.948 -0.1106 -0.2779 -0.2825
35146SOL    HW1 7755   6.857   5.536   3.939  1.9180 -2.2646  1.7006
35146SOL    HW2 7756   6.892   5.649   4.034  1.6120 -1.3011  0.6914
35147SOL     OW 7757   6.174   1.088   9.110  0.1737  0.4046  0.4175
35147SOL    HW1 7758   6.211   1.103   9.023  0.0535  0.3976  0.3664
35147SOL    HW2 7759   6.235   1.026   9.151  1.0515  1.5320  0.8751
35148SOL     OW 7760  10.550   1.370   6.960  0.2843 -0.4763 -0.1746
35148SOL    HW1 7761  10.566   1.284   6.998  0.6151 -1.1580 -1.7986
35148SOL    HW2 7762  10.545   1.355   6.866 -0.6621  1.1338 -0.4219
35149SOL     OW 7763   1.846   2.711   8.155  0.0864  0.2763 -0.3476
35149SOL    HW1 7764   1.884   2.624   8.148  0.5285  0.2394  1.8865
35149SOL    HW2 7765   1.837   2.741   8.064  1.6553 -1.3422 -1.0828
35150SOL     OW 7766   9.983   0.357   2.065  0.2184 -0.1541 -0.0577
35150SOL    HW1 7767  10.037   0.388   2.137 -0.2166  0.1223  0.1528
35150SOL    HW2 7768   9.894   0.352   2.101  0.2090 -1.2795 -0.1982
35151SOL     OW 7769   4.650   2.628   6.160 -0.9445 -0.2325  0.1680
35151SOL    HW1 7770   4.644   2.587   6.074 -0.0635  2.2132 -1.1550
35151SOL    HW2 7771   4.583   2.696   6.159 -0.4510  0.2859  1.1267
35152SOL     OW 7772   0.861   0.981   1.329 -0.0384  0.3018 -0.5586
35152SOL    HW1 7773   0.797   0.944   1.268 -2.5418  1.2414  1.3381
35152SOL    HW2 7774   0.942   0.935   1.309 -1.6848 -2.2242 -1.9564
35153SOL     OW 7775   1.102   2.718   7.966  0.5624  0.1950 -0.0418
35153SOL    HW1 7776   1.102   2.813   7.977  0.0807  0.1877  0.0554
35153SOL    HW2 7777   1.038   2.687   8.030  1.0266 -0.2341  0.2219
35154SOL     OW 7778   5.794   9.287   6.806 -0.1003 -0.3513  0.0147
35154SOL    HW1 7779   5.868   9.285   6.745 -0.2778 -3.8713 -0.3203
35154SOL    HW2 7780   5.717   9.294   6.750 -0.1724  1.9695  0.2917
35155SOL     OW 7781   5.487   4.434   4.791 -0.1226  0.2357 -0.0061
35155SOL    HW1 7782   5.431   4.370   4.747  0.6026  0.1424 -0.8330
35155SOL    HW2 7783   5.575   4.416   4.757  0.6917 -0.5864  2.3594
35156SOL     OW 7784   9.240   0.531   6.002 -0.6835  0.2013  0.0597
35156SOL    HW1 7785   9.266   0.454   6.053 -0.1189  0.4765  0.1973
35156SOL    HW2 7786   9.270   0.605   6.054 -1.2742  0.5249 -0.0451
35157SOL     OW 7787   4.807   5.720   2.848  0.2606  0.2431  0.0303
35157SOL    HW1 7788   4.889   5.735   2.894 -0.6732 -0.3787  1.9895
35157SOL    HW2 7789   4.832   5.668   2.771  2.0014  2.2412 -0.8303
35158SOL     OW 7790   4.352  10.424   0.884  0.3959  0.0361 -0.0537
35158SOL    HW1 7791   4.364  10.456   0.973  1.5556 -2.2599  0.6750
35158SOL    HW2 7792   4.440  10.419   0.848 -0.0906  1.4383 -1.5773
35159SOL     OW 7793  10.475   4.492   4.065 -0.3576 -0.3965  0.3617
35159SOL    HW1 7794  10.559   4.455   4.040 -1.6226 -2.5723 -1.0348
35159SOL    HW2 7795  10.449   4.547   3.992 -1.5826 -2.4127 -0.8225
35160SOL     OW 7796   2.878   4.686   7.091  0.7315 -0.1757  0.1711
35160SOL    HW1 7797   2.886   4.674   7.186  0.6468  0.0921  0.2132
35160SOL    HW2 7798   2.858   4.598   7.058  0.6980 -0.2605  0.4080
35161SOL     OW 7799   5.124   6.701   0.611 -0.1989 -0.5008 -0.0656
35161SOL    HW1 7800   5.166   6.690   0.526 -0.1868 -1.3840  0.0466
35161SOL    HW2 7801   5.167   6.637   0.668 -0.7237 -0.4402  0.4138
35162SOL     OW 7802   4.949   2.659   2.274  0.3200  0.1836  0.2133
35162SOL    HW1 7803   4.867   2.610   2.276  1.1331 -1.4001 -1.8673
35162SOL    HW2 7804   4.940   2.717   2.199  1.0217  0.1591  0.1028
35163SOL     OW 7805   2.737   2.654   8.681  0.3103 -0.3154  0.5303
35163SOL    HW1 7806   2.823   2.613   8.671  0.1877 -0.6785  0.9654
35163SOL    HW2 7807   2.718   2.689   8.594  0.5461 -0.9229  0.2284
35164SOL     OW 7808   5.925   5.699   7.782  0.0515 -0.3135 -0.1073
35164SOL    HW1 7809   5.958   5.786   7.803 -0.6723 -0.2748  0.9412
35164SOL    HW2 7810   5.831   5.711   7.772 -0.4927 -1.3946  2.7754
35165SOL     OW 7811   2.426   8.473  10.379 -0.4699  0.0666  0.3018
35165SOL    HW1 7812   2.496   8.535  10.357 -0.1789 -0.2432  0.3481
35165SOL    HW2 7813   2.348   8.528  10.387 -0.6557  0.1728 -1.7480
35166SOL     OW 7814   2.769   3.127   7.544 -0.1233  1.1122  0.1863
35166SOL    HW1 7815   2.778   3.131   7.639  1.0207 -1.2445  0.2416
35166SOL    HW2 7816   2.805   3.042   7.519 -1.4002  1.1839 -2.2656
35167SOL     OW 7817   1.317   8.692   9.637 -0.5071 -0.1069  0.1431
35167SOL    HW1 7818   1.290   8.655   9.552  0.2166 -0.7583  0.1843
35167SOL    HW2 7819   1.404   8.728   9.621 -0.1224 -0.7364  0.7308
35168SOL     OW 7820   3.582  10.056   0.065  0.1846 -0.3112  0.4789
35168SOL    HW1 7821   3.572  10.024  -0.025  0.8837 -2.0232  0.9666
35168SOL    HW2 7822   3.657  10.007   0.100 -0.9846 -0.7945  2.4597
35169SOL     OW 7823   6.648   3.966   4.719  0.0353 -0.6566 -0.7192
35169SOL    HW1 7824   6.635   4.027   4.792 -0.5066  0.1383 -1.4490
35169SOL    HW2 7825   6.708   3.900   4.752 -1.3196 -1.1409  0.9227
35170SOL     OW 7826   8.317   6.025   9.812 -0.0901 -0.4822 -0.1978
35170SOL    HW1 7827   8.345   6.116   9.800  1.4949 -0.8249  0.6038
35170SOL    HW2 7828   8.315   6.012   9.907 -0.1380 -1.3284 -0.3037
35171SOL     OW 7829  10.320   2.972   1.499  0.4108  0.4556  0.0369
35171SOL    HW1 7830  10.264   2.906   1.459  2.1258 -0.0365 -1.7038
35171SOL    HW2 7831  10.293   3.055   1.458  0.0631  0.4253  0.2049
35172SOL     OW 7832   8.262   5.458   1.599 -0.1404 -0.4193 -0.2650
35172SOL    HW1 7833   8.183   5.408   1.623  0.1678 -1.5968 -1.5378
35172SOL    HW2 7834   8.253   5.472   1.505  0.6016  0.5175 -0.2136
35173SOL     OW 7835   2.486   1.600   3.695 -0.3580  0.1771 -0.0767
35173SOL    HW1 7836   2.480   1.508   3.724  1.2060  0.6176  1.9318
35173SOL    HW2 7837   2.437   1.649   3.761  0.4798  0.9500 -0.0102
35174SOL     OW 7838   1.115   2.987   5.021 -0.0343 -0.1933  0.4487
35174SOL    HW1 7839   1.202   2.960   4.991  0.4642  0.1142  1.5854
35174SOL    HW2 7840   1.078   2.909   5.061  0.3758  0.0890  1.4092
35175SOL     OW 7841   4.298   5.869   3.715 -0.0174  0.6392  0.7015
35175SOL    HW1 7842   4.283   5.843   3.624  0.0492  0.6047  0.7006
35175SOL    HW2 7843   4.216   5.910   3.742  0.2307  1.3622  0.3799
35176SOL     OW 7844   2.469   2.289   6.917 -0.2084  0.0570 -0.3679
35176SOL    HW1 7845   2.515   2.266   6.837 -1.4982 -0.0455 -1.1017
35176SOL    HW2 7846   2.377   2.294   6.892 -1.0058 -2.4078  1.5955
35177SOL     OW 7847   7.548   2.613   4.388 -0.1184  0.1029 -0.0904
35177SOL    HW1 7848   7.530   2.576   4.302 -0.2410  1.0468 -0.4822
35177SOL    HW2 7849   7.520   2.705   4.382  0.6193  0.4000  0.6968
35178SOL     OW 7850   5.106   5.976   7.090 -0.5682  0.1568 -0.2547
35178SOL    HW1 7851   5.023   5.978   7.043 -0.0552  0.4960 -1.1597
35178SOL    HW2 7852   5.173   5.992   7.023  0.4989 -2.9738 -0.1172
35179SOL     OW 7853   9.662   8.945   4.180  0.5074  0.2372 -0.0172
35179SOL    HW1 7854   9.713   9.026   4.175 -2.0588  2.0795  1.3333
35179SOL    HW2 7855   9.728   8.875   4.177  2.9495  2.3668  0.1940
35180SOL     OW 7856   6.509   5.166   6.657  0.7110  0.4979  0.1353
35180SOL    HW1 7857   6.487   5.134   6.569 -0.2961  0.9404  0.2072
35180SOL    HW2 7858   6.459   5.110   6.716  2.3737 -0.6298  0.5247
35181SOL     OW 7859   9.382   9.154   4.821  0.3947 -0.1796  1.1602
35181SOL    HW1 7860   9.303   9.172   4.872 -0.4667  0.6964 -0.3969
35181SOL    HW2 7861   9.357   9.082   4.763  0.4277  0.7010  0.0247
35182SOL     OW 7862   8.640   3.482   4.312  0.4491  0.0751  0.1646
35182SOL    HW1 7863   8.566   3.539   4.294  0.4718  0.9192  2.4999
35182SOL    HW2 7864   8.710   3.516   4.256 -0.3517  0.4602 -0.6391
35183SOL     OW 7865   5.729   6.810   5.942 -0.2239 -0.3965  0.2567
35183SOL    HW1 7866   5.752   6.899   5.970 -2.0266  0.0352  0.5059
35183SOL    HW2 7867   5.680   6.824   5.861 -2.1175 -0.9811  1.2451
35184SOL     OW 7868   5.634   9.256   7.094 -0.2131  0.3827 -0.5466
35184SOL    HW1 7869   5.642   9.348   7.072 -1.9404  0.7562  0.1730
35184SOL    HW2 7870   5.680   9.210   7.023  0.4669  1.7684 -1.0410
35185SOL     OW 7871   6.364   3.554   6.815  0.9184 -0.6180  0.6152
35185SOL    HW1 7872   6.351   3.589   6.903  2.5591  0.6604  0.3987
35185SOL    HW2 7873   6.454   3.522   6.814  0.4024 -2.1611 -0.1296
35186SOL     OW 7874   9.561   4.626   1.524  0.1074  0.1824  0.4671
35186SOL    HW1 7875   9.585   4.533   1.524 -0.3662  0.0445 -0.3243
35186SOL    HW2 7876   9.592   4.658   1.439  0.2568  0.7446  0.7330
35187SOL     OW 7877   9.553   8.974   2.874 -0.1388  0.5195  0.0685
35187SOL    HW1 7878   9.549   9.030   2.797 -1.4012  1.3286  0.6796
35187SOL    HW2 7879   9.606   8.899   2.847 -0.2452  0.9627 -1.4602
35188SOL     OW 7880   5.547   4.976   7.287 -0.3536  0.5469  0.2476
35188SOL    HW1 7881   5.563   4.931   7.369 -0.3956 -1.0881 -0.5998
35188SOL    HW2 7882   5.451   4.980   7.279 -0.3816 -1.2498 -0.7044
35189SOL     OW 7883   3.716   7.425   8.811 -0.3885 -0.2457  0.3839
35189SOL    HW1 7884   3.812   7.434   8.813 -0.3040 -0.5992 -1.2501
35189SOL    HW2 7885   3.696   7.371   8.888  0.7472 -0.3637  0.6144
35190SOL     OW 7886   6.052   3.265   2.408 -0.4280  0.4305  0.0420
35190SOL    HW1 7887   5.971   3.292   2.365 -0.9803  0.7911  1.2550
35190SOL    HW2 7888   6.056   3.319   2.487  0.9254  0.3104  0.0753
35191SOL     OW 7889   9.098   0.533   4.642 -0.1711 -0.6116  0.2568
35191SOL    HW1 7890   9.059   0.600   4.699 -0.4856  0.4500 -1.1348
35191SOL    HW2 7891   9.056   0.452   4.669 -0.9012 -0.0069  1.0156
35192SOL     OW 7892   1.594   9.759   3.259  0.1706 -0.1302 -0.4091
35192SOL    HW1 7893   1.521   9.708   3.224 -0.1194  0.1549 -0.2286
35192SOL    HW2 7894   1.573   9.769   3.352  0.1827  0.3806 -0.4574
35193SOL     OW 7895   3.086   8.297   8.419  0.0355 -0.4878 -0.4468
35193SOL    HW1 7896   3.085   8.301   8.515 -1.4252 -1.2070 -0.3998
35193SOL    HW2 7897   3.031   8.222   8.398  0.9568 -0.8063 -1.8534
35194SOL     OW 7898   1.082   3.388   3.672  0.3663 -1.0555  0.7243
35194SOL    HW1 7899   1.039   3.366   3.589  1.2353 -1.8289  0.4729
35194SOL    HW2 7900   1.145   3.456   3.649  0.6394 -1.3026  0.7432
35195SOL     OW 7901   6.116   0.780   5.220  0.2541 -0.2062 -0.1138
35195SOL    HW1 7902   6.105   0.873   5.241 -0.4035 -0.3926  0.3843
35195SOL    HW2 7903   6.210   0.770   5.204  0.1471  0.8524 -1.6417
35196SOL     OW 7904   7.728   9.327  10.365  0.2687  0.2528 -0.4341
35196SOL    HW1 7905   7.725   9.285  10.451 -1.3980  0.6717 -0.2520
35196SOL    HW2 7906   7.798   9.392  10.372  0.7232 -0.3052  0.3175
35197SOL     OW 7907   9.502   5.643   1.976  0.4773  0.1194  0.2680
35197SOL    HW1 7908   9.559   5.718   1.957  0.3610 -0.0045 -0.6048
35197SOL    HW2 7909   9.557   5.584   2.027  0.6724  0.6467  0.6898
35198SOL     OW 7910   9.477   8.280   7.942  0.6012  0.0595 -0.3905
35198SOL    HW1 7911   9.422   8.261   7.866  1.0444 -0.2040 -0.6481
35198SOL    HW2 7912   9.566   8.263   7.913  0.9244  1.3887 -0.2620
35199SOL     OW 7913   2.893   3.011   0.454  0.1330  0.5477 -0.4367
35199SOL    HW1 7914   2.847   2.995   0.537  0.6513  0.7458 -0.1059
35199SOL    HW2 7915   2.894   3.106   0.445  0.0333  0.5245 -0.7009
35200SOL     OW 7916   5.620   2.361   5.407  0.6509  0.2758  0.2362
35200SOL    HW1 7917   5.675   2.363   5.329  0.4305 -1.8680 -0.0208
35200SOL    HW2 7918   5.546   2.305   5.383 -1.6948  2.9972  0.5998
35201SOL     OW 7919   3.826   1.711   2.292 -0.3775  0.2399 -0.3598
35201SOL    HW1 7920   3.739   1.681   2.265 -0.5578 -0.2836  0.7650
35201SOL    HW2 7921   3.814   1.805   2.308 -0.4663  0.3899 -1.2264
35202SOL     OW 7922   3.498   7.857   1.721 -0.6346  0.3607  0.6010
35202SOL    HW1 7923   3.412   7.874   1.760 -0.1838  1.4393  1.1606
35202SOL    HW2 7924   3.551   7.828   1.795 -0.5289 -0.4026  0.2364
35203SOL     OW 7925   6.315   1.975   2.864  0.0404  0.4217  0.1942
35203SOL    HW1 7926   6.320   1.908   2.797  1.8840  1.0465 -0.3656
35203SOL    HW2 7927   6.363   1.937   2.939  0.2718  0.7290  0.2051
35204SOL     OW 7928   6.349   0.336  10.418 -0.8506 -0.2558 -0.2414
35204SOL    HW1 7929   6.282   0.287  10.466  1.5661 -1.9932  1.5308
35204SOL    HW2 7930   6.389   0.393  10.484  0.0038  0.1235 -1.0657
35205SOL     OW 7931   2.423   2.209   4.412  0.1473 -0.1247 -0.2229
35205SOL    HW1 7932   2.485   2.235   4.344 -0.3127 -1.0242 -1.0087
35205SOL    HW2 7933   2.339   2.244   4.382  0.0618  0.0788  0.2442
35206SOL     OW 7934   7.161   3.395   7.126  0.2182 -0.1454 -0.0199
35206SOL    HW1 7935   7.239   3.442   7.097  1.6070 -1.4652  1.3362
35206SOL    HW2 7936   7.169   3.394   7.222 -1.2140 -0.7211  0.1102
35207SOL     OW 7937  10.232  10.479   3.242 -0.5628  0.3737 -0.0553
35207SOL    HW1 7938  10.249  10.548   3.177 -2.3436  0.8896 -0.0301
35207SOL    HW2 7939  10.292  10.499   3.314  1.3445 -0.1230 -1.4266
35208SOL     OW 7940   8.467   9.344   9.539 -0.6066 -0.8016 -0.5307
35208SOL    HW1 7941   8.534   9.383   9.483  1.2984 -0.0469  2.1015
35208SOL    HW2 7942   8.470   9.250   9.518  2.3037 -1.0042  0.4249
35209SOL     OW 7943   1.057   3.704   6.227  0.4870 -0.5406  0.4235
35209SOL    HW1 7944   1.010   3.761   6.166 -0.1121  0.2190  1.5732
35209SOL    HW2 7945   1.149   3.710   6.199  0.0256 -1.7471 -1.6076
35210SOL     OW 7946   3.934   4.290   6.296 -0.3884  0.6581 -0.1959
35210SOL    HW1 7947   4.028   4.304   6.288 -0.5267  1.4136 -0.5733
35210SOL    HW2 7948   3.908   4.250   6.213 -0.3592  0.1978  0.0138
35211SOL     OW 7949   2.028   8.106   6.001  0.5721 -0.6541  0.0197
35211SOL    HW1 7950   2.103   8.105   5.941  1.0598  2.3909  0.4271
35211SOL    HW2 7951   2.068   8.116   6.087 -0.2602 -1.5980  0.5301
35212SOL     OW 7952   2.005   6.351   3.519  0.1427  0.0457  0.7751
35212SOL    HW1 7953   2.057   6.431   3.519 -2.1826  1.6522  0.7230
35212SOL    HW2 7954   2.033   6.304   3.441  0.8739  1.2896  0.2597
35213SOL     OW 7955   0.647   9.385   3.719  0.2321  0.3460 -0.0239
35213SOL    HW1 7956   0.691   9.308   3.684  1.3404  0.7074  0.5163
35213SOL    HW2 7957   0.565   9.352   3.756  1.4084 -0.8743  1.6555
35214SOL     OW 7958   9.279   0.820   9.197  0.1510 -1.1896  0.1812
35214SOL    HW1 7959   9.247   0.901   9.158  1.3273 -1.3856 -1.2634
35214SOL    HW2 7960   9.201   0.781   9.237 -0.9144 -0.4863 -1.1123
35215SOL     OW 7961   3.989   2.222   6.386  0.0024  0.0296 -0.1504
35215SOL    HW1 7962   4.007   2.315   6.375 -0.9318  0.1990 -0.3048
35215SOL    HW2 7963   3.919   2.203   6.323  1.2432 -1.1255 -1.2571
35216SOL     OW 7964   0.638  10.200   0.971  0.1500 -0.1547  0.0053
35216SOL    HW1 7965   0.732  10.180   0.974 -0.0370 -1.0826 -0.1378
35216SOL    HW2 7966   0.597  10.131   1.024 -0.4366  0.3437  0.2104
35217SOL     OW 7967   1.942   5.829   6.998  0.2742  0.1388  0.4925
35217SOL    HW1 7968   1.952   5.817   6.904 -0.3093  0.5453  0.3665
35217SOL    HW2 7969   2.029   5.852   7.029  0.2270  1.3305 -0.1684
35218SOL     OW 7970   3.676   2.868   3.586 -0.5702 -0.0024  0.1462
35218SOL    HW1 7971   3.675   2.962   3.570 -0.5235  0.1127  0.7973
35218SOL    HW2 7972   3.748   2.854   3.647  1.1990 -0.8252 -1.9898
35219SOL     OW 7973   9.203   2.693   2.421  0.2703 -0.1680 -0.6838
35219SOL    HW1 7974   9.138   2.672   2.353  1.5217 -0.3973 -1.8473
35219SOL    HW2 7975   9.181   2.782   2.448 -0.7746 -0.3840 -0.7597
35220SOL     OW 7976   9.673   9.640   5.971  0.1219 -0.5015 -0.0051
35220SOL    HW1 7977   9.609   9.568   5.975 -0.9121  0.3167 -1.1069
35220SOL    HW2 7978   9.743   9.612   6.030 -1.9719 -0.7102  2.6043
35221SOL     OW 7979   2.539   5.357   7.699  0.5839  0.0299 -0.1589
35221SOL    HW1 7980   2.489   5.283   7.664  0.0627  0.7019 -0.8578
35221SOL    HW2 7981   2.474   5.410   7.745  0.3021  1.7122 -2.3589
35222SOL     OW 7982  10.412   7.973   0.312  0.4242  0.1936 -0.2296
35222SOL    HW1 7983  10.350   7.912   0.350 -2.0158  0.6269 -3.1178
35222SOL    HW2 7984  10.468   7.919   0.256 -0.1608  0.2679 -0.9041
35223SOL     OW 7985   8.431   6.468   1.145  0.0921 -0.1437  0.3921
35223SOL    HW1 7986   8.430   6.398   1.080  0.0001 -0.1058  0.3524
35223SOL    HW2 7987   8.341   6.469   1.180 -1.2448  2.8237 -2.6410
35224SOL     OW 7988  10.547   6.916   8.351  0.1606 -0.0711 -0.1782
35224SOL    HW1 7989  10.600   6.852   8.399 -1.9915 -1.7154  0.1871
35224SOL    HW2 7990  10.563   6.999   8.395  0.6800 -0.9459  1.3453
35225SOL     OW 7991   1.372   7.908   0.391 -0.0033  0.7617 -0.4013
35225SOL    HW1 7992   1.284   7.871   0.389  0.3311 -0.2187  1.0398
35225SOL    HW2 7993   1.417   7.865   0.318 -0.0292 -0.6973  0.3972
35226SOL     OW 7994   7.268   4.692   6.030 -0.1772 -0.3579  0.2351
35226SOL    HW1 7995   7.309   4.610   6.003  0.1585  0.0741 -0.5881
35226SOL    HW2 7996   7.342   4.747   6.058 -0.2823  0.0592 -0.2895
35227SOL     OW 7997   4.629   4.979   3.975  0.3453 -0.0106  0.1806
35227SOL    HW1 7998   4.613   5.029   4.055 -0.6039 -0.1163  0.0623
35227SOL    HW2 7999   4.543   4.950   3.947  0.9824 -3.4353  1.3267
35228SOL     OW 8000   3.146   3.216   3.808  0.0314  0.0597 -0.0021
35228SOL    HW1 8001   3.159   3.271   3.731 -0.7858  0.0445 -0.1650
35228SOL    HW2 8002   3.129   3.129   3.773  1.7102 -0.4043  0.2668
35229SOL     OW 8003   4.960   6.295   7.749  0.5000 -0.1232 -0.0342
35229SOL    HW1 8004   4.889   6.271   7.810  0.2327  1.0739  0.1599
35229SOL    HW2 8005   5.038   6.302   7.804  0.2998  0.7544  0.1596
35230SOL     OW 8006   5.098   3.421  10.068 -0.0647  0.4851 -0.4968
35230SOL    HW1 8007   5.054   3.417   9.983  0.1804  2.5264 -0.7673
35230SOL    HW2 8008   5.067   3.502  10.108 -1.3881 -1.1406  2.1096
35231SOL     OW 8009   7.183   0.124   3.735  0.1728  0.7382  0.0392
35231SOL    HW1 8010   7.121   0.196   3.741  1.8965  2.2607  0.4461
35231SOL    HW2 8011   7.231   0.127   3.818  0.4767 -0.7274 -0.0488
35232SOL     OW 8012   1.354   2.616   7.190  0.2168 -0.1802 -0.2683
35232SOL    HW1 8013   1.376   2.536   7.238 -0.4604 -0.3210 -0.1894
35232SOL    HW2 8014   1.373   2.687   7.252  0.3221 -0.3055 -0.1564
35233SOL     OW 8015   9.022   9.073  10.000  0.1113 -0.1368  0.3973
35233SOL    HW1 8016   8.943   9.127   9.996 -0.3338 -0.7957  0.3136
35233SOL    HW2 8017   9.081   9.113   9.935 -0.3547  0.0284  0.0696
35234SOL     OW 8018   5.756   1.977   7.588  0.5514 -0.1066  0.1501
35234SOL    HW1 8019   5.749   1.955   7.680 -3.3540 -1.5295 -0.3119
35234SOL    HW2 8020   5.747   1.893   7.542 -3.8887  0.9344 -1.4631
35235SOL     OW 8021   3.196   4.246   6.137  0.4224 -0.0514 -0.0300
35235SOL    HW1 8022   3.101   4.245   6.122  0.1375  1.9607  1.2848
35235SOL    HW2 8023   3.232   4.199   6.062 -1.6201 -1.3439 -0.3050
35236SOL     OW 8024   9.853   9.245   4.639 -0.4177 -0.2147 -0.6409
35236SOL    HW1 8025   9.882   9.318   4.584  2.7903 -0.5684  0.3595
35236SOL    HW2 8026   9.823   9.287   4.720  2.1269  0.0688  0.2294
35237SOL     OW 8027   7.586   1.779   3.688  0.2512 -0.0095  0.6195
35237SOL    HW1 8028   7.681   1.779   3.679  0.3738  1.5828  1.5938
35237SOL    HW2 8029   7.556   1.846   3.627 -0.2612 -0.4577  0.3636
35238SOL     OW 8030   1.898   5.328   8.335  0.1210  0.2577 -0.5675
35238SOL    HW1 8031   1.911   5.317   8.429  0.8755 -0.1374 -0.7160
35238SOL    HW2 8032   1.867   5.419   8.326  0.0817  0.3096  0.0539
35239SOL     OW 8033   8.959  10.376  10.019  0.1874 -0.3149 -0.4182
35239SOL    HW1 8034   8.985  10.341   9.934  0.9970 -1.5702  0.3143
35239SOL    HW2 8035   9.038  10.414  10.055 -0.4813  1.5304 -0.8067
35240SOL     OW 8036   1.355   4.588   7.570 -0.1623  0.4652  0.0277
35240SOL    HW1 8037   1.296   4.542   7.631  0.8521 -0.3624  0.4009
35240SOL    HW2 8038   1.299   4.609   7.495 -1.3032  1.0212  0.9918
35241SOL     OW 8039   0.082   8.576   9.311 -0.2361  0.6156  0.3282
35241SOL    HW1 8040   0.146   8.544   9.375 -0.5848 -1.9059 -0.4762
35241SOL    HW2 8041   0.100   8.525   9.232 -0.2586  3.1708 -1.4496
35242SOL     OW 8042   2.819   2.204   5.427  0.6547  0.9369 -0.0479
35242SOL    HW1 8043   2.858   2.169   5.508  0.4934  3.1849  1.0852
35242SOL    HW2 8044   2.890   2.251   5.384  0.4000  0.8872 -0.5303
35243SOL     OW 8045   9.969   5.219   4.637  0.0375  0.1295  0.1529
35243SOL    HW1 8046  10.059   5.252   4.638 -0.3487  1.2394 -0.4293
35243SOL    HW2 8047   9.920   5.278   4.693 -0.1293 -1.1732  1.4431
35244SOL     OW 8048   4.824   8.796   6.724  0.0442 -0.2076  0.1206
35244SOL    HW1 8049   4.866   8.710   6.729  1.1285  0.1904 -1.3940
35244SOL    HW2 8050   4.746   8.781   6.672 -0.1557 -0.3967  0.4682
35245SOL     OW 8051   5.579   9.794   6.123 -0.3567 -0.3738  0.0333
35245SOL    HW1 8052   5.549   9.711   6.159  0.4908 -0.7393 -0.0767
35245SOL    HW2 8053   5.499   9.846   6.113 -0.8375 -0.9958  0.5469
35246SOL     OW 8054   0.603   0.301   6.553 -0.1176 -0.2861  0.0879
35246SOL    HW1 8055   0.656   0.275   6.628  1.2254 -1.0535 -1.0822
35246SOL    HW2 8056   0.650   0.375   6.515 -1.2295  0.6346  0.4467
35247SOL     OW 8057   7.835   4.389   5.328 -0.6901  0.7211  0.0902
35247SOL    HW1 8058   7.768   4.415   5.391  0.5621  2.5058  0.7994
35247SOL    HW2 8059   7.824   4.450   5.255 -0.2037  0.6620 -0.0363
35248SOL     OW 8060   7.738   5.210   9.273 -0.0300  0.2772  0.0334
35248SOL    HW1 8061   7.793   5.258   9.335 -1.6654 -1.1886  2.8784
35248SOL    HW2 8062   7.648   5.232   9.300 -0.9422 -4.4815  1.9759
35249SOL     OW 8063   9.098   1.495   1.018 -0.0777  0.3900 -0.1794
35249SOL    HW1 8064   9.101   1.535   1.105 -1.1014  0.6995 -0.2748
35249SOL    HW2 8065   9.099   1.401   1.035 -0.5798  0.4461  0.1865
35250SOL     OW 8066   9.106   9.623   9.508 -0.9725 -0.3900  0.0705
35250SOL    HW1 8067   9.054   9.671   9.573 -2.3208  0.6524 -1.7067
35250SOL    HW2 8068   9.134   9.690   9.446  0.4650 -1.3373 -0.3647
35251SOL     OW 8069   2.985   9.061  10.100  0.1850 -0.5942  0.3725
35251SOL    HW1 8070   2.895   9.075  10.071  0.8256  0.5262 -1.2086
35251SOL    HW2 8071   3.011   9.145  10.138  1.0556 -0.3972 -0.6290
35252SOL     OW 8072   2.646   7.104   6.761  0.1760 -0.6226 -0.2420
35252SOL    HW1 8073   2.612   7.032   6.707 -0.3304 -1.1227  0.7293
35252SOL    HW2 8074   2.729   7.070   6.796  0.0561 -0.6382  0.0246
35253SOL     OW 8075   8.658   6.969   0.250 -0.3134 -0.3204 -1.0142
35253SOL    HW1 8076   8.709   7.014   0.183 -1.0780  3.5832  0.7724
35253SOL    HW2 8077   8.571   6.959   0.212 -0.1162 -0.3723 -1.4578
35254SOL     OW 8078   0.572   6.418   5.358 -0.1837  0.0704  0.3962
35254SOL    HW1 8079   0.515   6.372   5.420 -0.0880  2.4622  2.3798
35254SOL    HW2 8080   0.651   6.364   5.353 -0.0570 -0.0181  2.6518
35255SOL     OW 8081   4.744   5.107   9.989  0.0811 -0.0945 -0.4627
35255SOL    HW1 8082   4.649   5.110   9.999  0.0494  1.1162 -1.1127
35255SOL    HW2 8083   4.759   5.105   9.895  0.7197  0.3261 -0.3736
35256SOL     OW 8084   3.650   5.999   0.121 -0.1783 -0.2044  0.5655
35256SOL    HW1 8085   3.590   6.068   0.150  1.2021  1.1375  0.3976
35256SOL    HW2 8086   3.615   5.970   0.037 -0.3005  0.9876  0.1764
35257SOL     OW 8087   6.395   8.958   4.553  0.4187  0.0298  0.6163
35257SOL    HW1 8088   6.445   9.038   4.571  0.8811 -0.1463  0.1604
35257SOL    HW2 8089   6.443   8.889   4.599  0.8557 -0.2079 -0.1660
35258SOL     OW 8090   8.286   0.386   2.931 -0.6240  0.0682  0.1208
35258SOL    HW1 8091   8.307   0.424   3.016 -1.1753  1.3127 -0.2734
35258SOL    HW2 8092   8.345   0.312   2.923 -0.0498  0.3715  1.2715
35259SOL     OW 8093  10.560   6.985   3.367  0.0212 -0.6266  0.1181
35259SOL    HW1 8094  10.489   7.043   3.339  1.1176  0.0764 -1.3705
35259SOL    HW2 8095  10.591   7.023   3.449 -0.4456 -0.1618  0.0895
35260SOL     OW 8096   3.930   0.984   7.772  0.2098 -0.2452  0.0931
35260SOL    HW1 8097   3.843   0.962   7.805  0.5785 -2.3867 -0.1903
35260SOL    HW2 8098   3.983   0.998   7.850  0.0712 -1.0053  0.3353
35261SOL     OW 8099   6.545   7.221   5.706  0.5556 -0.2384  0.8998
35261SOL    HW1 8100   6.467   7.181   5.668 -0.0047  1.7324 -0.1957
35261SOL    HW2 8101   6.517   7.251   5.792  0.2808 -0.1141  0.7693
35262SOL     OW 8102   5.421  10.502   9.565 -0.2916  0.2527  0.1213
35262SOL    HW1 8103   5.486  10.546   9.511  0.9056 -0.4297  0.9678
35262SOL    HW2 8104   5.427  10.544   9.650  1.4413 -1.9298  1.1958
35263SOL     OW 8105   3.976   3.402   0.739 -0.0931  0.0954 -0.1129
35263SOL    HW1 8106   3.959   3.439   0.653 -3.7826  1.8097  1.1153
35263SOL    HW2 8107   3.997   3.477   0.794 -0.5140 -0.5711  0.9919
35264SOL     OW 8108   5.659   6.674   1.880 -0.5178 -0.5282  0.1308
35264SOL    HW1 8109   5.610   6.710   1.954  1.3383  1.1770  0.6046
35264SOL    HW2 8110   5.743   6.721   1.881  0.3892 -1.9687 -1.7890
35265SOL     OW 8111   8.153   2.526   2.990  0.4610 -0.0242  0.6652
35265SOL    HW1 8112   8.202   2.585   3.048  1.6351  0.8446 -1.1178
35265SOL    HW2 8113   8.212   2.451   2.978  1.1944  0.7829 -1.0696
35266SOL     OW 8114   4.535   7.180   7.262  1.0097 -0.2953 -0.0956
35266SOL    HW1 8115   4.518   7.216   7.175 -0.2381 -1.6863 -0.4540
35266SOL    HW2 8116   4.590   7.104   7.247  1.5612 -0.0186  0.4431
35267SOL     OW 8117   5.254   9.866   7.968 -0.1127  0.3922  0.1699
35267SOL    HW1 8118   5.170   9.821   7.962  0.0708  0.0816 -0.1605
35267SOL    HW2 8119   5.283   9.875   7.877  1.4743 -1.9559  0.3309
35268SOL     OW 8120   4.820   9.984   3.944  0.0168 -0.1967  0.3053
35268SOL    HW1 8121   4.736   9.952   3.911 -0.2025 -1.8763  2.3157
35268SOL    HW2 8122   4.797  10.061   3.995 -0.4005 -0.9344  1.2575
35269SOL     OW 8123   9.115  10.193   7.127  0.2555 -0.1366  0.3774
35269SOL    HW1 8124   9.207  10.167   7.113  0.2251 -1.5605  2.4716
35269SOL    HW2 8125   9.117  10.247   7.206 -0.5829  0.8300 -0.2411
35270SOL     OW 8126   0.772   8.399   6.071  0.3442 -0.2918  0.0451
35270SOL    HW1 8127   0.759   8.401   5.977  1.0894  0.8708 -0.0599
35270SOL    HW2 8128   0.765   8.491   6.098  1.3542 -0.4596  0.9378
35271SOL     OW 8129   5.767   6.003   7.444  0.2509  0.7902 -0.5060
35271SOL    HW1 8130   5.759   5.931   7.381  2.0293  0.1177 -0.0168
35271SOL    HW2 8131   5.680   6.009   7.485 -1.0956  1.4783 -3.1886
35272SOL     OW 8132   7.858   5.798   5.982 -0.1013  0.3055  0.0984
35272SOL    HW1 8133   7.841   5.704   5.973  1.8126 -0.0218 -0.6036
35272SOL    HW2 8134   7.942   5.802   6.028  0.4873  1.6409 -1.0413
35273SOL     OW 8135   9.416   4.225   1.612 -0.5989  0.6255 -0.5832
35273SOL    HW1 8136   9.398   4.131   1.613 -1.0388  0.6539 -2.2976
35273SOL    HW2 8137   9.329   4.266   1.614 -0.4194  0.9932 -0.1802
35274SOL     OW 8138   9.473   0.005   6.768  0.0301 -0.4516 -0.3343
35274SOL    HW1 8139   9.470  -0.088   6.787 -1.7444 -0.2198  0.7822
35274SOL    HW2 8140   9.468   0.011   6.673 -0.6489 -1.4994 -0.3755
35275SOL     OW 8141   7.802   1.850   9.796 -0.3883 -0.3039  0.5119
35275SOL    HW1 8142   7.846   1.768   9.818 -0.2437 -0.8312 -1.5594
35275SOL    HW2 8143   7.873   1.914   9.786 -0.4605 -0.0403  1.4903
35276SOL     OW 8144   4.174   7.629   7.912  0.2838 -0.2284 -0.3976
35276SOL    HW1 8145   4.174   7.536   7.890 -0.0486 -0.7975  1.7387
35276SOL    HW2 8146   4.252   7.640   7.966 -0.1639  0.5270  0.1080
35277SOL     OW 8147   6.061  10.370   3.247 -0.2519 -0.1139  0.0873
35277SOL    HW1 8148   6.108  10.344   3.326 -0.7545 -1.6417 -0.0965
35277SOL    HW2 8149   5.986  10.421   3.279  0.3836  0.5958  0.4837
35278SOL     OW 8150   6.211   8.777   2.208  0.4267  0.0167  0.5385
35278SOL    HW1 8151   6.148   8.772   2.136  0.4754  0.9094  0.4226
35278SOL    HW2 8152   6.186   8.706   2.266 -1.2256  0.8607  0.9143
35279SOL     OW 8153   3.332   3.059   8.088 -0.5482 -0.0958 -0.0517
35279SOL    HW1 8154   3.422   3.028   8.094 -0.0607  0.7642 -2.0337
35279SOL    HW2 8155   3.327   3.131   8.150  0.9235  1.4731 -1.6454
35280SOL     OW 8156   0.099   4.818   2.798 -0.0630  0.3269 -0.1885
35280SOL    HW1 8157   0.056   4.900   2.821  2.9586  1.4728  2.0936
35280SOL    HW2 8158   0.105   4.820   2.703  0.1103  2.9021 -0.1844
35281SOL     OW 8159   4.827   9.826   0.601  0.2132 -0.4145 -0.1772
35281SOL    HW1 8160   4.821   9.734   0.626  0.4341 -0.4956 -0.4212
35281SOL    HW2 8161   4.920   9.848   0.609  0.1371 -0.1626  0.0530
35282SOL     OW 8162   6.660   9.735   7.771  0.1867 -0.2260  0.1233
35282SOL    HW1 8163   6.583   9.711   7.823  0.8230  0.7862  1.6248
35282SOL    HW2 8164   6.657   9.831   7.768  0.5908 -0.2358 -1.1038
35283SOL     OW 8165   7.455   9.456   8.644  0.0696  0.3097  0.1176
35283SOL    HW1 8166   7.428   9.471   8.554 -0.4987 -0.0448  0.2270
35283SOL    HW2 8167   7.476   9.363   8.649 -2.6773 -0.3711  1.0289
35284SOL     OW 8168   2.830   4.467   5.356 -0.1028  0.0128  0.0991
35284SOL    HW1 8169   2.779   4.480   5.276 -1.2889 -0.2104  0.7865
35284SOL    HW2 8170   2.847   4.373   5.359 -0.9340 -0.1370  0.5926
35285SOL     OW 8171   7.036   6.543   6.685  0.2140  0.1782 -0.1358
35285SOL    HW1 8172   7.010   6.480   6.618  2.0417 -1.0519  0.2361
35285SOL    HW2 8173   6.954   6.569   6.726 -0.6614 -1.4830 -0.7226
35286SOL     OW 8174   7.884  10.277   2.452  0.2084  0.3259 -0.0552
35286SOL    HW1 8175   7.887  10.307   2.543 -0.5985  1.9440 -0.5205
35286SOL    HW2 8176   7.975  10.286   2.421  0.5293 -0.4324  0.6333
35287SOL     OW 8177   8.818   7.249   2.424  0.0442 -0.1021 -0.3283
35287SOL    HW1 8178   8.739   7.251   2.370 -1.2729  5.4539  1.1710
35287SOL    HW2 8179   8.820   7.160   2.460 -3.6663 -1.4866 -2.9006
35288SOL     OW 8180  10.454   7.239   9.605  0.7580 -0.6017  0.4869
35288SOL    HW1 8181  10.413   7.257   9.690  0.0478 -1.1770  0.2827
35288SOL    HW2 8182  10.457   7.143   9.600  0.5565 -0.5765 -0.2408
35289SOL     OW 8183   7.355   4.952   0.426  0.1330 -0.5529  0.9322
35289SOL    HW1 8184   7.260   4.936   0.423  0.2954 -1.5926  0.9455
35289SOL    HW2 8185   7.394   4.865   0.422  1.0764 -0.1883  1.7178
35290SOL     OW 8186   3.247   8.056   2.744 -0.6240  0.2487  0.2958
35290SOL    HW1 8187   3.261   7.968   2.708 -2.1067  0.6909 -1.4746
35290SOL    HW2 8188   3.335   8.088   2.765  0.5589  0.3394 -3.9290
35291SOL     OW 8189   2.165   6.207   4.843  0.3646  0.1152  0.4520
35291SOL    HW1 8190   2.168   6.141   4.774  0.6548 -1.0267  1.5240
35291SOL    HW2 8191   2.074   6.237   4.843  0.4162  0.2921 -0.5673
35292SOL     OW 8192   8.317   4.297   5.224  0.4941  0.1311 -0.4261
35292SOL    HW1 8193   8.389   4.303   5.288  0.8180  0.1601 -0.7913
35292SOL    HW2 8194   8.244   4.342   5.266  0.2611 -1.0766  0.5263
35293SOL     OW 8195   3.089   2.219  10.168 -0.2925 -0.0202 -0.9996
35293SOL    HW1 8196   3.086   2.133  10.211  1.1829  0.2821 -0.2095
35293SOL    HW2 8197   3.139   2.274  10.228 -0.1423  1.0534 -2.0652
35294SOL     OW 8198   7.216   1.062   1.828  0.4813 -0.0294 -0.2815
35294SOL    HW1 8199   7.177   1.008   1.897 -0.0893 -0.8847 -1.2320
35294SOL    HW2 8200   7.294   1.099   1.868  1.2417 -2.0753  0.2488
35295SOL     OW 8201   4.945   5.023   1.078  0.2135  0.6333  0.8967
35295SOL    HW1 8202   5.024   4.986   1.038 -0.1148 -0.1171  0.9272
35295SOL    HW2 8203   4.977   5.094   1.133  1.1537 -1.2464  2.9107
35296SOL     OW 8204   7.025   2.291   6.442 -0.4003  0.3111  0.2708
35296SOL    HW1 8205   6.989   2.380   6.441 -0.4606  0.2910  0.6247
35296SOL    HW2 8206   7.015   2.262   6.532  1.6696  0.7751  0.6952
35297SOL     OW 8207   4.218   3.270   1.375 -0.1199  0.2186  0.0893
35297SOL    HW1 8208   4.247   3.290   1.286  0.9503  2.1126  0.8128
35297SOL    HW2 8209   4.264   3.188   1.396  0.3129  0.2169 -0.7860
35298SOL     OW 8210   8.934   4.472   7.996 -0.0898  0.2072  0.2019
35298SOL    HW1 8211   8.904   4.383   7.976 -2.6498  1.0250 -0.0123
35298SOL    HW2 8212   9.019   4.460   8.038  1.3459 -2.1384 -2.9094
35299SOL     OW 8213   0.310   1.214  10.455 -0.3546  0.3338 -0.2685
35299SOL    HW1 8214   0.378   1.226  10.389 -1.0928 -1.0709 -1.3284
35299SOL    HW2 8215   0.295   1.301  10.491  0.0571  1.1374 -1.9663
35300SOL     OW 8216   0.394   9.518   8.220 -0.4375  0.2966 -0.0165
35300SOL    HW1 8217   0.359   9.529   8.309 -4.5047  0.4403 -1.4267
35300SOL    HW2 8218   0.420   9.605   8.193  1.3004  0.1748  1.1462
35301SOL     OW 8219   5.520   7.488   1.682  0.1247 -0.1752 -0.8933
35301SOL    HW1 8220   5.464   7.562   1.706  0.7214 -0.3894  1.4496
35301SOL    HW2 8221   5.601   7.502   1.732  0.1638 -2.4926 -0.1883
35302SOL     OW 8222   0.258   1.966   8.077 -0.4834 -0.6838 -0.0811
35302SOL    HW1 8223   0.301   2.047   8.102  1.5897 -1.7692  0.0495
35302SOL    HW2 8224   0.216   1.935   8.157 -1.1722  0.1531 -0.1006
35303SOL     OW 8225   6.233   7.624   2.679 -0.1099  0.3372 -0.3651
35303SOL    HW1 8226   6.225   7.674   2.761  1.6307 -0.0997  0.1185
35303SOL    HW2 8227   6.306   7.665   2.633  1.1709 -1.5142 -0.0937
35304SOL     OW 8228   0.342   2.953   4.118 -0.2872  0.1591  0.2385
35304SOL    HW1 8229   0.311   3.021   4.058  0.3709  0.5150  0.2834
35304SOL    HW2 8230   0.395   2.895   4.064 -0.9755 -0.4178  0.1696
35305SOL     OW 8231   3.783   1.908   3.285 -0.1875  0.0588  0.4298
35305SOL    HW1 8232   3.790   1.839   3.220  0.9568  0.7215 -0.1707
35305SOL    HW2 8233   3.694   1.942   3.274 -0.2524 -0.3162 -0.2807
35306SOL     OW 8234  10.363   3.285   8.268  0.8058 -0.1768  0.8794
35306SOL    HW1 8235  10.323   3.357   8.220 -0.0505 -0.5585  1.0137
35306SOL    HW2 8236  10.376   3.216   8.202  1.0649 -0.1315  0.8797
35307SOL     OW 8237   3.630   4.571   9.824 -0.1673 -0.2506  0.1913
35307SOL    HW1 8238   3.659   4.535   9.740 -0.4968  1.8676 -0.9241
35307SOL    HW2 8239   3.620   4.665   9.807 -1.0284  0.1245  2.4009
35308SOL     OW 8240   4.372   3.172  10.122  0.2037  0.5243  0.5797
35308SOL    HW1 8241   4.455   3.125  10.120 -0.2566 -0.2998  0.5404
35308SOL    HW2 8242   4.392   3.258  10.084  0.5616 -0.4323 -1.5511
35309SOL     OW 8243   8.431   0.450   8.553  0.3630  0.3014  0.0086
35309SOL    HW1 8244   8.466   0.398   8.625 -0.7363 -0.4523  0.0204
35309SOL    HW2 8245   8.395   0.528   8.595 -0.1616 -0.0770  0.2655
35310SOL     OW 8246   5.335   2.881   4.435 -0.8668  0.2921 -0.7158
35310SOL    HW1 8247   5.298   2.896   4.522 -0.8630  1.6302 -0.9242
35310SOL    HW2 8248   5.413   2.937   4.433  0.3866 -1.3854 -0.8085
35311SOL     OW 8249   7.936  10.579  10.211  0.1054  0.1259 -0.1808
35311SOL    HW1 8250   7.870  10.627  10.162  0.5621  0.9062 -0.0549
35311SOL    HW2 8251   7.912  10.590  10.303  0.0387 -0.1577 -0.1616
35312SOL     OW 8252   8.692   4.729   3.012 -0.2496  0.0048  0.2447
35312SOL    HW1 8253   8.712   4.703   2.922  1.3556  1.0007  0.2797
35312SOL    HW2 8254   8.745   4.669   3.066 -1.9532 -1.2479  0.6050
35313SOL     OW 8255   9.040   8.287   2.619 -0.0157  0.2827 -0.0724
35313SOL    HW1 8256   8.992   8.364   2.649  2.1361  1.8583 -0.4152
35313SOL    HW2 8257   8.995   8.261   2.539 -0.6592  1.3079 -0.0655
35314SOL     OW 8258   4.486   8.988   3.375  0.8433 -0.0911  0.1409
35314SOL    HW1 8259   4.436   8.926   3.429  0.4718 -0.5651 -0.7310
35314SOL    HW2 8260   4.495   8.944   3.291 -0.8568  1.7110 -1.0505
35315SOL     OW 8261   5.995  10.017   9.574 -0.2503  0.1198  0.0154
35315SOL    HW1 8262   6.084  10.004   9.541 -0.2323  0.5115 -0.0939
35315SOL    HW2 8263   5.942  10.029   9.495 -0.0840  1.8698  0.1261
35316SOL     OW 8264  10.067   9.980   6.999  0.1104 -0.2040  0.0925
35316SOL    HW1 8265  10.128  10.051   6.979 -1.0251  0.8538  0.2703
35316SOL    HW2 8266  10.035   9.952   6.914 -1.9891  1.8411  0.1245
35317SOL     OW 8267   1.770   5.145   4.983  0.0123 -0.2961  0.4028
35317SOL    HW1 8268   1.775   5.143   5.078 -1.4892  1.0785  0.5618
35317SOL    HW2 8269   1.676   5.148   4.964  0.2619  2.4374 -0.9430
35318SOL     OW 8270   0.121   1.600   7.744 -0.2672 -0.6236 -0.0014
35318SOL    HW1 8271   0.122   1.639   7.657 -1.0015  0.1574  0.3220
35318SOL    HW2 8272   0.187   1.648   7.793 -1.7583  0.8979  0.6465
35319SOL     OW 8273   6.456   2.066   9.634 -0.3338  0.1488  0.1324
35319SOL    HW1 8274   6.547   2.091   9.644 -0.2890 -0.3707  1.1141
35319SOL    HW2 8275   6.418   2.075   9.721 -0.8508 -1.0629  0.0531
35320SOL     OW 8276   3.419   8.536   5.952  0.0367 -0.1062 -0.1830
35320SOL    HW1 8277   3.337   8.526   5.904  0.9003  1.5156 -2.1604
35320SOL    HW2 8278   3.486   8.504   5.891  1.1446  1.6163  0.0789
35321SOL     OW 8279   4.395   4.517  10.444 -0.3280  0.2117  0.1686
35321SOL    HW1 8280   4.394   4.574  10.521 -0.1119  0.6261 -0.1358
35321SOL    HW2 8281   4.481   4.531  10.405  0.0028 -0.8384  0.4796
35322SOL     OW 8282   5.754   9.523   1.228 -0.3288 -0.0609  0.2084
35322SOL    HW1 8283   5.829   9.500   1.172 -0.4851  1.0594 -0.4894
35322SOL    HW2 8284   5.713   9.597   1.184 -1.6878 -0.4617  0.7406
35323SOL     OW 8285   7.139   2.633   6.630  0.1329  0.3424 -0.0976
35323SOL    HW1 8286   7.112   2.657   6.719  1.1893  1.3903 -0.0369
35323SOL    HW2 8287   7.228   2.600   6.640 -0.3189 -1.1116 -0.5741
35324SOL     OW 8288   3.987   4.152   1.799  0.1555 -0.1252 -0.0177
35324SOL    HW1 8289   3.971   4.167   1.892 -0.9422  1.3069 -0.4009
35324SOL    HW2 8290   4.039   4.072   1.797 -0.0139 -0.3415  1.8071
35325SOL     OW 8291   3.240   6.521   4.209  0.6092  0.6407 -0.4798
35325SOL    HW1 8292   3.197   6.446   4.168 -0.1328  0.5271  0.4913
35325SOL    HW2 8293   3.272   6.573   4.135 -0.9148  0.5652 -1.2267
35326SOL     OW 8294   3.292   9.142   6.668 -0.1284  0.8146  0.2861
35326SOL    HW1 8295   3.220   9.157   6.729 -0.4441  2.5384 -0.4630
35326SOL    HW2 8296   3.337   9.065   6.703 -0.7221  1.3241  2.2783
35327SOL     OW 8297   1.880   9.130   9.307  0.4586 -0.2324 -0.0280
35327SOL    HW1 8298   1.907   9.189   9.377  0.4407  0.5848 -0.7033
35327SOL    HW2 8299   1.864   9.046   9.352  0.8700  0.1571  0.8719
35328SOL     OW 8300   9.021   1.282   8.766  0.6225 -0.5156  0.2720
35328SOL    HW1 8301   8.929   1.299   8.785  0.8348 -1.0283  1.9510
35328SOL    HW2 8302   9.067   1.360   8.798  0.5991  1.0288 -3.1121
35329SOL     OW 8303   2.858   1.899   0.934 -0.0828  0.3992 -0.0754
35329SOL    HW1 8304   2.938   1.949   0.914 -0.8805  1.1160 -1.7147
35329SOL    HW2 8305   2.802   1.961   0.980  0.3121 -0.1210  1.1261
35330SOL     OW 8306   1.599   3.165   5.005  0.2199 -0.4908  0.6475
35330SOL    HW1 8307   1.611   3.073   5.025  1.4866 -0.0128  2.2422
35330SOL    HW2 8308   1.671   3.187   4.946 -1.1681 -0.9124 -1.3268
35331SOL     OW 8309   9.924   7.646   7.745  0.0448  0.2106  0.6446
35331SOL    HW1 8310  10.016   7.662   7.723  0.5831 -1.6705  1.2691
35331SOL    HW2 8311   9.920   7.656   7.840  0.1440 -1.7536  0.9094
35332SOL     OW 8312   9.255   9.778   0.202 -0.5543  0.0591  0.0126
35332SOL    HW1 8313   9.282   9.741   0.118 -1.5505 -2.4231  0.6912
35332SOL    HW2 8314   9.336   9.808   0.243  0.2078 -0.5472 -1.0086
35333SOL     OW 8315   3.542   0.938  10.208  0.2014  0.3195 -0.2632
35333SOL    HW1 8316   3.456   0.976  10.191 -0.7005 -1.0040  1.1222
35333SOL    HW2 8317   3.556   0.953  10.302  1.1982 -0.0263 -0.3496
35334SOL     OW 8318   6.120   1.567   9.825 -0.1671  0.1980  0.3195
35334SOL    HW1 8319   6.207   1.572   9.865  0.2071 -0.6768 -0.3641
35334SOL    HW2 8320   6.066   1.623   9.880  0.5360 -0.2690  1.5165
35335SOL     OW 8321   2.232   1.539   5.807 -0.2114 -0.1343 -0.3599
35335SOL    HW1 8322   2.161   1.590   5.770  0.4456  1.0149 -0.0714
35335SOL    HW2 8323   2.228   1.557   5.901 -0.2821 -1.0189 -0.1821
35336SOL     OW 8324   6.776   6.029   5.453  1.0044  0.0339 -0.3074
35336SOL    HW1 8325   6.748   6.017   5.362 -0.6853 -2.0478  0.3840
35336SOL    HW2 8326   6.736   6.112   5.480  0.9922  0.3508 -1.2870
35337SOL     OW 8327   2.607   3.250   1.407  0.3168  0.1690 -0.1545
35337SOL    HW1 8328   2.513   3.265   1.394  0.1526  0.4004  1.1569
35337SOL    HW2 8329   2.633   3.196   1.333 -0.9832 -0.4080 -0.2263
35338SOL     OW 8330   9.548   4.767   3.337 -0.1238 -0.5838  0.5252
35338SOL    HW1 8331   9.548   4.671   3.337 -0.1947 -0.6156  2.0331
35338SOL    HW2 8332   9.482   4.792   3.273  1.0657 -1.4980 -1.1417
35339SOL     OW 8333   2.225   7.026   1.639 -0.8938  0.5544 -0.1542
35339SOL    HW1 8334   2.250   6.978   1.560 -1.6192  0.6474 -0.4527
35339SOL    HW2 8335   2.285   6.995   1.707  1.4113  2.2581 -1.2790
35340SOL     OW 8336   1.326   3.205   0.953  0.2050 -0.2570  0.2678
35340SOL    HW1 8337   1.342   3.297   0.974 -0.4325 -0.2622  0.8146
35340SOL    HW2 8338   1.230   3.197   0.957  0.2559 -0.9189  0.1254
35341SOL     OW 8339  10.186   9.134   3.412  0.2049  0.5469 -0.2049
35341SOL    HW1 8340  10.192   9.117   3.318  0.1687  0.6786 -0.2313
35341SOL    HW2 8341  10.093   9.144   3.429  0.0151 -1.5805  0.2178
35342SOL     OW 8342   7.100   8.303   8.143 -0.0596 -0.3515  0.1408
35342SOL    HW1 8343   7.152   8.325   8.220 -0.2351  1.2939 -0.1844
35342SOL    HW2 8344   7.163   8.264   8.082  0.7355  1.2091 -0.0768
35343SOL     OW 8345   0.322   4.484   2.478  0.1424 -0.4204 -0.2182
35343SOL    HW1 8346   0.229   4.489   2.501 -0.0621  0.1647 -1.1291
35343SOL    HW2 8347   0.363   4.439   2.552 -1.1915 -2.5594 -0.6936
35344SOL     OW 8348   2.509   0.449   5.790  0.1122 -0.2154  0.1312
35344SOL    HW1 8349   2.492   0.482   5.702  0.3978  0.6992  0.4103
35344SOL    HW2 8350   2.584   0.390   5.779 -1.2567 -1.9161 -0.5951
35345SOL     OW 8351   3.439   5.825   0.812 -0.4925 -0.1761 -0.0990
35345SOL    HW1 8352   3.354   5.864   0.831 -0.8743 -1.4811  1.0220
35345SOL    HW2 8353   3.445   5.824   0.717 -1.1101  1.1988 -0.1663
35346SOL     OW 8354   3.830   6.808   4.218 -0.0638  0.3983  0.0364
35346SOL    HW1 8355   3.874   6.732   4.257 -1.0758  0.4418  1.3549
35346SOL    HW2 8356   3.873   6.820   4.134  1.1746 -0.6794  0.4750
35347SOL     OW 8357   6.267   0.207   6.159 -0.3565 -0.0811  0.1633
35347SOL    HW1 8358   6.197   0.144   6.145  0.2436 -0.9168  0.8175
35347SOL    HW2 8359   6.327   0.163   6.219 -0.2901  1.4087  1.2350
35348SOL     OW 8360   6.061   0.368   9.166 -0.2528 -0.3839  0.2173
35348SOL    HW1 8361   5.981   0.346   9.117  0.0956 -3.5312  0.8328
35348SOL    HW2 8362   6.126   0.305   9.135 -0.2619 -3.3106  5.1451
35349SOL     OW 8363   1.591   4.239   2.899  0.2518  0.0967  0.0406
35349SOL    HW1 8364   1.556   4.327   2.911 -0.2200  0.0213 -0.7210
35349SOL    HW2 8365   1.658   4.231   2.966 -1.1568  0.2726  1.5390
35350SOL     OW 8366   0.387   1.612   7.441 -0.6289 -0.2909  0.1005
35350SOL    HW1 8367   0.447   1.679   7.408 -0.4647  0.0382  1.0457
35350SOL    HW2 8368   0.305   1.658   7.455 -1.6378 -1.0424 -2.6477
35351SOL     OW 8369  10.449   7.848   7.963 -0.0644 -0.4893  0.6490
35351SOL    HW1 8370  10.477   7.853   8.054 -3.3546 -0.3891  1.7782
35351SOL    HW2 8371  10.358   7.818   7.967 -1.1579  1.8626 -2.4517
35352SOL     OW 8372   0.805   3.043  10.258  0.1336 -0.1276  0.3285
35352SOL    HW1 8373   0.735   3.069  10.318 -1.2046 -1.0868 -0.7403
35352SOL    HW2 8374   0.812   3.115  10.196 -1.5719 -0.9424 -0.9204
35353SOL     OW 8375   0.598   5.441   9.429  0.6253  0.1998 -0.0347
35353SOL    HW1 8376   0.630   5.509   9.371  0.3688 -0.6737 -1.2367
35353SOL    HW2 8377   0.673   5.420   9.485  1.4017 -0.0674 -1.1340
35354SOL     OW 8378   7.077   8.440   3.499 -0.4665  0.5394  0.3348
35354SOL    HW1 8379   7.078   8.429   3.594  1.4160  1.6013  0.5017
35354SOL    HW2 8380   7.093   8.534   3.486  2.0673  0.0338 -0.9726
35355SOL     OW 8381   4.272   7.272  10.022  0.6845  0.4711 -0.8999
35355SOL    HW1 8382   4.218   7.198  10.052  0.6580  1.2387  1.0894
35355SOL    HW2 8383   4.208   7.339   9.996  0.6803  0.5351 -0.7299
35356SOL     OW 8384   5.046   7.865   7.310  0.5815 -0.6667 -0.6505
35356SOL    HW1 8385   5.111   7.799   7.285 -0.8622 -2.3341 -0.2389
35356SOL    HW2 8386   4.974   7.850   7.249  1.1975  2.3242 -2.2696
35357SOL     OW 8387  10.120  10.570   2.607  0.4312  0.1088  0.3362
35357SOL    HW1 8388  10.210  10.542   2.591 -0.2141 -1.7464 -0.3881
35357SOL    HW2 8389  10.076  10.491   2.638 -0.6016  1.3643  2.2857
35358SOL     OW 8390   9.688   6.443   4.858 -0.2645 -0.0049 -0.2138
35358SOL    HW1 8391   9.776   6.454   4.822  0.1930 -0.4524  0.7099
35358SOL    HW2 8392   9.644   6.383   4.798  0.5268 -0.8595  0.0369
35359SOL     OW 8393  10.588   2.361   3.006  0.0461  0.2627  0.4897
35359SOL    HW1 8394  10.669   2.329   2.968  0.3712  1.8335 -0.1917
35359SOL    HW2 8395  10.570   2.301   3.078  1.4984 -0.4374  0.2937
35360SOL     OW 8396   1.886   9.685   7.915 -0.0708 -0.3769  0.5957
35360SOL    HW1 8397   1.937   9.607   7.936 -1.4732 -1.3796  0.3946
35360SOL    HW2 8398   1.949   9.758   7.923  2.1139 -1.7529 -2.2278
35361SOL     OW 8399   2.561   3.148   4.396 -0.0408 -0.7883 -0.3367
35361SOL    HW1 8400   2.632   3.201   4.433  0.2790 -0.7560 -0.9875
35361SOL    HW2 8401   2.602   3.063   4.377 -0.5778 -1.3230  0.8139
35362SOL     OW 8402   9.063   4.615   3.972  0.2121  0.4436 -0.1859
35362SOL    HW1 8403   9.116   4.645   4.046  0.2045  1.1890 -0.4682
35362SOL    HW2 8404   9.127   4.576   3.912  0.1303 -0.8221  0.5116
35363SOL     OW 8405   1.462   3.696   4.261 -0.1535  0.3680  0.0346
35363SOL    HW1 8406   1.370   3.721   4.266 -0.5746 -1.3563  1.8304
35363SOL    HW2 8407   1.508   3.768   4.304 -0.4791  1.7753 -1.8310
35364SOL     OW 8408   9.632   3.037   8.734 -0.6922 -0.1427 -0.1299
35364SOL    HW1 8409   9.582   3.090   8.796  0.0557  0.8301 -0.3122
35364SOL    HW2 8410   9.723   3.050   8.760 -0.2806  1.0446 -1.9456
35365SOL     OW 8411   8.437   1.151   3.952 -0.2074  0.4348  0.1388
35365SOL    HW1 8412   8.480   1.069   3.972 -0.7814  0.2147  0.4730
35365SOL    HW2 8413   8.433   1.153   3.856 -0.8949 -0.3002  0.1413
35366SOL     OW 8414   0.588   0.997   9.715  0.0186 -0.2087  0.1981
35366SOL    HW1 8415   0.659   0.993   9.778  0.6317  0.5638 -0.4310
35366SOL    HW2 8416   0.509   1.005   9.769  0.4566 -0.3379  0.8758
35367SOL     OW 8417   1.420   5.215   2.782 -0.1426 -0.4469 -0.2293
35367SOL    HW1 8418   1.325   5.203   2.784 -0.2118 -0.3251 -1.5430
35367SOL    HW2 8419   1.436   5.292   2.837 -0.5382 -1.7517  1.8085
35368SOL     OW 8420   2.780   6.140   6.397  0.5272  0.4798 -0.0568
35368SOL    HW1 8421   2.786   6.232   6.372 -0.8182  0.3129 -1.1885
35368SOL    HW2 8422   2.686   6.119   6.390  0.5350 -0.5177  1.9763
35369SOL     OW 8423   1.193   5.294   1.827  0.1100  0.1507 -0.5408
35369SOL    HW1 8424   1.244   5.217   1.853  0.5601  0.8702  0.7838
35369SOL    HW2 8425   1.255   5.367   1.835 -1.3979  1.2702  2.4979
35370SOL     OW 8426   0.096   9.467   6.409 -0.3975  0.4857 -0.1381
35370SOL    HW1 8427   0.081   9.438   6.499 -0.1183  1.1549  0.1301
35370SOL    HW2 8428   0.144   9.394   6.369 -3.4364 -1.3155 -0.7754
35371SOL     OW 8429   4.965   3.698   6.676  0.4944 -0.1283 -0.1380
35371SOL    HW1 8430   4.967   3.664   6.587 -2.0591 -1.5949  0.2360
35371SOL    HW2 8431   4.954   3.620   6.731  0.7883  0.8347  1.3507
35372SOL     OW 8432   3.593   2.233   0.420 -0.0983 -0.2948  0.2662
35372SOL    HW1 8433   3.592   2.319   0.377 -1.9711 -0.6826 -0.5408
35372SOL    HW2 8434   3.546   2.246   0.502  1.5966 -0.0642  1.2486
35373SOL     OW 8435   5.281   5.013   7.214  0.3973  0.6701  0.2573
35373SOL    HW1 8436   5.232   4.966   7.147  0.6812  0.5486  0.1314
35373SOL    HW2 8437   5.244   5.101   7.214  1.0122  0.9421 -0.7106
35374SOL     OW 8438   2.368  10.558  10.152 -0.4768 -0.7802 -0.3230
35374SOL    HW1 8439   2.304  10.492  10.177 -1.5061  0.2238 -0.2584
35374SOL    HW2 8440   2.376  10.614  10.229  0.9218 -1.2149 -0.1245
35375SOL     OW 8441   5.111   1.115   3.316 -0.6174 -0.2375  0.1288
35375SOL    HW1 8442   5.186   1.173   3.302 -0.0989 -0.6245  1.1808
35375SOL    HW2 8443   5.141   1.029   3.285 -0.7678 -0.3099  0.1806
35376SOL     OW 8444   0.327   3.295   5.066  0.0192 -0.0357 -0.3100
35376SOL    HW1 8445   0.403   3.241   5.086 -0.1655 -0.1565  0.0755
35376SOL    HW2 8446   0.271   3.240   5.012 -0.0473 -0.1396 -0.1360
35377SOL     OW 8447   5.928   4.689   4.059 -0.6483  0.0421 -0.3160
35377SOL    HW1 8448   5.956   4.736   4.137  1.6936 -0.4518 -0.7789
35377SOL    HW2 8449   5.849   4.642   4.086 -1.2161  1.6810  1.0405
35378SOL     OW 8450   9.926   1.426   9.499  0.3338  0.1540 -0.2539
35378SOL    HW1 8451   9.876   1.403   9.420 -0.1470  2.9077 -0.8595
35378SOL    HW2 8452   9.862   1.468   9.556  0.9024 -0.9119  1.2217
35379SOL     OW 8453   3.947   6.838   6.462 -0.1645 -0.2895 -0.3062
35379SOL    HW1 8454   4.020   6.900   6.454  0.6693 -1.2667 -0.4143
35379SOL    HW2 8455   3.909   6.836   6.374  0.1906 -0.3911 -0.4614
35380SOL     OW 8456   9.836   2.794   9.811 -0.5013 -0.2392 -0.4651
35380SOL    HW1 8457   9.823   2.774   9.904 -1.7287  0.5345 -0.4466
35380SOL    HW2 8458   9.894   2.870   9.811 -0.3564 -0.3496 -0.3343
35381SOL     OW 8459   0.610   4.400   5.684  0.2092 -0.0343 -0.0943
35381SOL    HW1 8460   0.682   4.441   5.636 -0.4559  0.0835 -1.0253
35381SOL    HW2 8461   0.643   4.387   5.772  0.9903  1.0160 -0.2272
35382SOL     OW 8462   8.578   4.730   8.275 -0.3394  0.0572 -0.0344
35382SOL    HW1 8463   8.659   4.720   8.224 -0.8096  2.4245 -1.4214
35382SOL    HW2 8464   8.514   4.763   8.212 -1.5095  1.2411  1.6706
35383SOL     OW 8465   8.680   4.310   3.017  0.7497  0.5908 -0.0011
35383SOL    HW1 8466   8.640   4.270   2.939  0.0740 -0.8714  1.0401
35383SOL    HW2 8467   8.715   4.393   2.986  1.0897 -0.2350 -2.0191
35384SOL     OW 8468   4.469   4.170   3.482  0.3992 -0.3271  0.0092
35384SOL    HW1 8469   4.460   4.190   3.575  0.0598 -0.5373  0.0222
35384SOL    HW2 8470   4.459   4.255   3.438 -0.7787 -0.4217  0.0811
35385SOL     OW 8471   9.536   7.059   3.078 -0.5688  0.2466  0.5142
35385SOL    HW1 8472   9.525   7.128   3.144 -2.3187  0.4212  0.0793
35385SOL    HW2 8473   9.624   7.074   3.043 -0.2875  1.2318  1.5701
35386SOL     OW 8474   5.719   5.994   1.599 -0.0022 -0.2664  0.2737
35386SOL    HW1 8475   5.800   6.027   1.560  0.0106  0.3648  0.8107
35386SOL    HW2 8476   5.744   5.912   1.642  0.0553 -0.7797 -0.7233
35387SOL     OW 8477   7.099   7.832  10.105  0.3046  0.0579  0.0089
35387SOL    HW1 8478   7.085   7.884  10.184  1.4428  1.6138 -0.7575
35387SOL    HW2 8479   7.090   7.741  10.134 -3.5275  0.5806  1.0833
35388SOL     OW 8480   4.374   7.434   9.200 -0.0764 -0.2906 -0.2301
35388SOL    HW1 8481   4.387   7.359   9.258 -1.4767 -1.1791 -0.9958
35388SOL    HW2 8482   4.305   7.405   9.139 -0.9681  1.7656 -0.2686
35389SOL     OW 8483   0.083   9.519   7.960  0.1646  0.7977 -0.5179
35389SOL    HW1 8484  -0.009   9.541   7.975 -0.0692 -0.7481  0.4258
35389SOL    HW2 8485   0.131   9.579   8.017 -0.4524 -0.8364  1.8505
35390SOL     OW 8486   2.248   2.964   6.417 -0.3182  0.0768 -0.4625
35390SOL    HW1 8487   2.312   3.034   6.416 -0.0512 -0.1206  1.1846
35390SOL    HW2 8488   2.169   3.004   6.452 -0.5266 -0.1512 -0.6701
35391SOL     OW 8489   7.914   5.606   9.887  0.6598  0.4178  0.0894
35391SOL    HW1 8490   7.825   5.577   9.904  0.9949 -1.4512 -1.0589
35391SOL    HW2 8491   7.933   5.667   9.957 -1.9026  1.7699 -0.2668
35392SOL     OW 8492   0.948   1.417   9.251  0.2850 -0.2546 -0.1206
35392SOL    HW1 8493   1.015   1.364   9.208  1.8822  1.7006 -0.1686
35392SOL    HW2 8494   0.865   1.380   9.220  1.3421 -1.0343 -2.2545
35393SOL     OW 8495   4.646   9.380   1.889 -0.1537  0.2395 -0.2577
35393SOL    HW1 8496   4.733   9.415   1.906  0.6240 -1.3607 -0.7388
35393SOL    HW2 8497   4.589   9.456   1.889  1.0723  1.2130  1.1073
35394SOL     OW 8498   8.633   8.117   7.998 -0.1080 -0.0485  0.0773
35394SOL    HW1 8499   8.663   8.065   8.073 -0.4509 -0.8426 -0.3218
35394SOL    HW2 8500   8.687   8.086   7.925  0.6467  1.1442  0.0984
35395SOL     OW 8501   6.744   0.859   1.855 -0.2908 -0.2460  0.0540
35395SOL    HW1 8502   6.767   0.938   1.904 -0.7872  0.2370 -0.4745
35395SOL    HW2 8503   6.649   0.865   1.844 -0.2020 -0.3752 -0.9028
35396SOL     OW 8504   3.434   2.856   6.338 -0.7226  0.3455  0.1341
35396SOL    HW1 8505   3.405   2.780   6.389 -1.3995  1.0500  0.8128
35396SOL    HW2 8506   3.391   2.846   6.253 -0.6117 -0.1575  0.1351
35397SOL     OW 8507  10.127   2.698   0.867 -0.3607 -0.6399 -0.0256
35397SOL    HW1 8508  10.179   2.690   0.787  0.8006  1.2764  0.4951
35397SOL    HW2 8509  10.166   2.770   0.915 -2.1165 -0.6061  1.4769
35398SOL     OW 8510   1.057   0.508   5.322 -0.0683 -0.0071  0.4589
35398SOL    HW1 8511   0.979   0.539   5.367  0.5087  1.8325  0.2519
35398SOL    HW2 8512   1.029   0.493   5.232  0.1297  2.2388 -0.0305
35399SOL     OW 8513   7.056   6.952   4.146 -0.2485 -0.0444 -0.6249
35399SOL    HW1 8514   6.972   6.990   4.169 -0.3879 -0.4594 -0.4380
35399SOL    HW2 8515   7.051   6.938   4.051 -0.3503  0.0263 -0.6295
35400SOL     OW 8516   4.283   4.766   1.082 -0.4931 -0.0138 -0.4216
35400SOL    HW1 8517   4.321   4.706   1.019  0.0752 -0.0565 -0.0453
35400SOL    HW2 8518   4.258   4.711   1.156 -1.7198 -0.0545 -0.8455
35401SOL     OW 8519   2.221   1.032   1.284 -0.4639 -0.0273  0.2329
35401SOL    HW1 8520   2.311   0.998   1.276 -0.7679 -1.2129  1.4263
35401SOL    HW2 8521   2.180   1.008   1.201  0.2691  0.3992 -0.2712
35402SOL     OW 8522   8.512   3.344   1.156 -0.3833  0.2176  0.7014
35402SOL    HW1 8523   8.449   3.408   1.189 -0.5509  1.9183 -2.5331
35402SOL    HW2 8524   8.595   3.391   1.155 -0.2962  0.0814 -0.7371
35403SOL     OW 8525   0.098   7.637   5.559  0.0747  0.1873  0.5132
35403SOL    HW1 8526   0.063   7.697   5.625  0.8267  0.6059  0.5422
35403SOL    HW2 8527   0.124   7.694   5.487 -0.0142 -0.1942  0.1761
35404SOL     OW 8528   6.983   8.666   2.166  0.1811 -0.4986 -0.2892
35404SOL    HW1 8529   6.929   8.590   2.185 -0.1997 -0.1552  0.0121
35404SOL    HW2 8530   6.922   8.731   2.131  0.4427 -0.2052 -0.2064
35405SOL     OW 8531   7.821   4.276   6.759 -0.5317 -0.3371  0.0881
35405SOL    HW1 8532   7.835   4.207   6.694 -2.3002 -0.3483 -0.3324
35405SOL    HW2 8533   7.742   4.250   6.806  0.5714 -0.1796  2.0959
35406SOL     OW 8534   8.547   2.422   6.188  0.1448  0.2020 -0.5301
35406SOL    HW1 8535   8.540   2.491   6.121 -1.4817  1.4078  0.8030
35406SOL    HW2 8536   8.547   2.469   6.271 -1.9634 -1.3788  0.4815
35407SOL     OW 8537   2.662   0.764   1.627  0.6744 -0.5597  0.3027
35407SOL    HW1 8538   2.734   0.813   1.667  0.9640 -1.8082  1.3901
35407SOL    HW2 8539   2.705   0.694   1.578  0.2762  0.3761 -1.4459
35408SOL     OW 8540   4.760   8.494   5.969  0.1681 -0.0132  0.2088
35408SOL    HW1 8541   4.668   8.517   5.966 -0.3078 -1.8171 -0.6572
35408SOL    HW2 8542   4.795   8.543   6.044 -1.7311 -0.1251  1.2323
35409SOL     OW 8543   2.948   3.647   3.431  0.0545  0.6907  0.5175
35409SOL    HW1 8544   2.918   3.692   3.510  0.7550  0.2612  1.0448
35409SOL    HW2 8545   3.043   3.659   3.432  0.1590 -0.0647  0.2156
35410SOL     OW 8546   6.350   2.295   0.762  0.8103 -0.3378  0.3272
35410SOL    HW1 8547   6.352   2.234   0.688 -1.5370  2.2841 -2.1127
35410SOL    HW2 8548   6.433   2.342   0.757  0.1928  0.6212 -1.4509
35411SOL     OW 8549   3.703   9.711  10.087 -0.3087 -0.4675  1.2464
35411SOL    HW1 8550   3.641   9.762  10.140  0.0139  1.6873 -0.3148
35411SOL    HW2 8551   3.666   9.714   9.999  1.8955  0.8263  0.2807
35412SOL     OW 8552   0.054   0.711   2.885  0.0229 -0.3571 -0.5998
35412SOL    HW1 8553   0.044   0.617   2.894 -0.4009 -0.3307 -0.7910
35412SOL    HW2 8554   0.144   0.729   2.914 -0.0682 -0.7511 -0.0728
35413SOL     OW 8555   3.358   9.255   5.980 -0.4268 -0.1910 -0.0443
35413SOL    HW1 8556   3.417   9.202   6.032  1.1378  0.3591 -1.1840
35413SOL    HW2 8557   3.282   9.269   6.037 -0.5084 -2.8219  0.6218
35414SOL     OW 8558   5.449   1.507  10.197  0.3609 -0.3741  0.1892
35414SOL    HW1 8559   5.445   1.598  10.226  2.6142 -0.4111  0.7956
35414SOL    HW2 8560   5.428   1.511  10.104  1.3796  0.9287 -0.0140
35415SOL     OW 8561  10.235   5.657   7.255 -0.2393  0.0389  0.1486
35415SOL    HW1 8562  10.263   5.748   7.258  1.5917 -0.4754  0.1854
35415SOL    HW2 8563  10.145   5.658   7.288 -1.2070  2.1388 -2.2611
35416SOL     OW 8564   4.577   3.596   6.339  0.7175 -0.0025  0.5291
35416SOL    HW1 8565   4.524   3.671   6.365 -0.6697 -0.1255 -1.7301
35416SOL    HW2 8566   4.561   3.531   6.409  1.9005  1.6830  2.4854
35417SOL     OW 8567   9.332   0.759   3.084  0.1674  0.0837  0.2036
35417SOL    HW1 8568   9.328   0.743   2.990  0.7470 -2.1389  0.4774
35417SOL    HW2 8569   9.343   0.853   3.093  1.2782  0.2164 -2.0046
35418SOL     OW 8570   2.642   6.351   9.542 -0.1361 -0.3851 -0.2061
35418SOL    HW1 8571   2.598   6.435   9.555 -2.3081 -1.7634  2.4536
35418SOL    HW2 8572   2.732   6.367   9.570 -0.3381  1.1948 -0.3391
35419SOL     OW 8573   1.762   8.585   7.461  0.2441 -0.2872 -0.1945
35419SOL    HW1 8574   1.672   8.552   7.464  0.0983  0.0987  3.2114
35419SOL    HW2 8575   1.757   8.672   7.500  2.0999 -0.3457  0.2601
35420SOL     OW 8576   5.694   5.485   2.370 -0.0718  0.1575 -0.1199
35420SOL    HW1 8577   5.737   5.405   2.338 -0.7799 -0.1848 -0.2367
35420SOL    HW2 8578   5.613   5.490   2.320  0.5825  1.7045 -1.0804
35421SOL     OW 8579   3.201   1.982   1.841 -0.1925 -0.0440  0.2662
35421SOL    HW1 8580   3.225   2.066   1.803 -0.6882  1.2600  2.6028
35421SOL    HW2 8581   3.226   1.990   1.934 -1.1649 -2.1066  0.7660
35422SOL     OW 8582  10.331   1.057   4.175 -0.1193 -0.3802 -0.5379
35422SOL    HW1 8583  10.393   1.070   4.248  0.6804 -0.2489 -1.2256
35422SOL    HW2 8584  10.317   1.145   4.140  2.4340 -0.7652 -2.8825
35423SOL     OW 8585   6.339   0.922   0.251  0.0331 -0.2487 -0.6927
35423SOL    HW1 8586   6.405   0.949   0.188  0.8229 -0.9216 -0.1811
35423SOL    HW2 8587   6.323   0.829   0.231 -0.7710 -0.0878 -0.8211
35424SOL     OW 8588   8.272   6.791   9.397  0.5155  0.5154 -0.2796
35424SOL    HW1 8589   8.333   6.717   9.404 -0.1396 -0.0799 -0.6987
35424SOL    HW2 8590   8.207   6.775   9.465 -0.2099  0.1374 -1.0459
35425SOL     OW 8591   6.469   8.865   4.207 -0.3212  0.2440 -0.1273
35425SOL    HW1 8592   6.472   8.787   4.152 -0.5065  0.6942 -0.7886
35425SOL    HW2 8593   6.404   8.845   4.274  0.6478 -0.7037  0.5660
35426SOL     OW 8594  10.046   4.871   9.252 -0.1542 -0.1650 -0.3189
35426SOL    HW1 8595  10.003   4.904   9.331 -1.6125 -0.1243 -1.0846
35426SOL    HW2 8596   9.984   4.891   9.182  0.6189 -1.1942 -1.3246
35427SOL     OW 8597   6.586   4.483   7.524  0.7011 -0.1416 -0.5227
35427SOL    HW1 8598   6.593   4.573   7.492  1.1467  0.3784  0.9188
35427SOL    HW2 8599   6.525   4.489   7.598 -1.4626 -1.5456 -2.0851
35428SOL     OW 8600   7.036   5.915   4.494  0.2256  0.4571 -0.6406
35428SOL    HW1 8601   7.080   5.948   4.573 -2.0278  0.1325  0.8742
35428SOL    HW2 8602   7.003   5.829   4.520 -0.4444  0.2887 -2.0009
35429SOL     OW 8603   1.036   9.814   9.079  0.5454  0.2051 -0.2963
35429SOL    HW1 8604   0.963   9.762   9.043  0.7974 -0.9018  0.7245
35429SOL    HW2 8605   1.091   9.750   9.124  0.5207  1.4430  1.6221
35430SOL     OW 8606   5.742   5.515   4.076 -0.1137 -0.1417 -0.1341
35430SOL    HW1 8607   5.763   5.448   4.141 -0.8763  0.9668  1.3174
35430SOL    HW2 8608   5.826   5.555   4.054  0.5306 -2.2860 -1.9274
35431SOL     OW 8609   2.100   8.683   8.569 -0.0659 -0.4605 -0.3985
35431SOL    HW1 8610   2.086   8.745   8.641 -3.8349  0.6211 -1.8272
35431SOL    HW2 8611   2.158   8.729   8.509  0.3222  0.0562  0.3547
35432SOL     OW 8612   6.759   4.235   7.025 -0.1769  0.8381 -0.0127
35432SOL    HW1 8613   6.721   4.246   6.938 -0.8695  1.4828  0.3662
35432SOL    HW2 8614   6.694   4.184   7.073  0.3903  0.1170  0.0158
35433SOL     OW 8615  10.264   9.694   1.525  0.1464  0.0854  0.0499
35433SOL    HW1 8616  10.192   9.695   1.588  1.0757 -0.1842  1.1524
35433SOL    HW2 8617  10.261   9.607   1.487 -0.7604  0.4320 -0.7050
35434SOL     OW 8618   2.872   2.604   3.015  0.0634  0.0814  0.3440
35434SOL    HW1 8619   2.954   2.581   3.059 -0.5881 -1.2954  0.8872
35434SOL    HW2 8620   2.845   2.686   3.057  0.9497  0.3468  0.4214
35435SOL     OW 8621   1.611   9.459   2.191  0.2152 -0.0879  0.0413
35435SOL    HW1 8622   1.691   9.457   2.243 -1.3944 -1.4774  2.6589
35435SOL    HW2 8623   1.563   9.535   2.223 -0.7284 -0.8595  0.4744
35436SOL     OW 8624   1.734   4.046   1.062  0.2056  0.2709 -0.4583
35436SOL    HW1 8625   1.648   4.057   1.103  0.1297 -1.3092 -0.1100
35436SOL    HW2 8626   1.789   4.111   1.104  0.1886 -1.3965  2.4308
35437SOL     OW 8627   6.779   5.066  10.598  0.6621  0.7566  0.2254
35437SOL    HW1 8628   6.874   5.071  10.597  0.6966  0.2176  0.2670
35437SOL    HW2 8629   6.753   5.072  10.506  0.8059 -0.1116  0.1161
35438SOL     OW 8630   7.937   2.810   7.137 -0.2972 -0.5076 -0.1880
35438SOL    HW1 8631   7.894   2.751   7.074 -0.6628  0.0867 -0.5045
35438SOL    HW2 8632   8.013   2.761   7.167 -0.5601 -1.1208 -0.4951
35439SOL     OW 8633   8.675   2.888   2.152  0.3238 -0.7050  0.1049
35439SOL    HW1 8634   8.599   2.947   2.151  1.3234  0.9853 -4.4060
35439SOL    HW2 8635   8.709   2.893   2.241 -3.2391  0.6153  1.5526
35440SOL     OW 8636   9.928   9.529   7.586 -0.1765  0.1236  0.2614
35440SOL    HW1 8637   9.972   9.449   7.556  0.2367 -0.4598  2.2577
35440SOL    HW2 8638   9.885   9.503   7.668 -1.7851  1.4452 -0.1256
35441SOL     OW 8639   2.970   2.066   8.575  0.0420  0.6006  0.0031
35441SOL    HW1 8640   2.920   2.138   8.613 -1.5334 -0.7361  0.5815
35441SOL    HW2 8641   2.958   2.077   8.480 -1.6772  0.1370  0.1300
35442SOL     OW 8642   9.291   1.960   8.187  0.0432  0.0561  0.4399
35442SOL    HW1 8643   9.376   1.999   8.167 -0.4875  0.2753 -1.6423
35442SOL    HW2 8644   9.235   2.035   8.208  0.3501 -0.0965  1.9136
35443SOL     OW 8645   1.383   6.183   2.501 -0.1716 -0.1007 -0.4821
35443SOL    HW1 8646   1.445   6.224   2.561  0.4416 -1.1412 -0.3717
35443SOL    HW2 8647   1.297   6.213   2.531  0.1491 -0.2850  0.6901
35444SOL     OW 8648   9.834   3.228   8.450  0.3008  0.3379 -0.2323
35444SOL    HW1 8649   9.784   3.276   8.515  2.1486  0.5466  1.1093
35444SOL    HW2 8650   9.898   3.178   8.501  1.1088 -0.3361 -1.8333
35445SOL     OW 8651   5.443   9.917   0.205 -0.3792 -0.7538 -0.1824
35445SOL    HW1 8652   5.534   9.895   0.227  0.3325  1.6989 -0.3742
35445SOL    HW2 8653   5.393   9.889   0.282  0.9445  0.2660  1.1225
35446SOL     OW 8654   8.442   7.494   3.263  0.2196 -0.0085 -0.4410
35446SOL    HW1 8655   8.355   7.520   3.294  0.8552  0.6353  0.8782
35446SOL    HW2 8656   8.503   7.530   3.328  1.6035  1.0374 -2.2389
35447SOL     OW 8657   3.964   6.171   1.645  0.3417 -0.3480 -0.4270
35447SOL    HW1 8658   3.869   6.169   1.631  0.0333  1.4500  0.9487
35447SOL    HW2 8659   3.996   6.241   1.588  0.3475  0.9917  1.1073
35448SOL     OW 8660   2.290   2.228   3.460  0.0786 -0.1407 -0.1083
35448SOL    HW1 8661   2.382   2.248   3.478  0.3035  0.1907 -1.4997
35448SOL    HW2 8662   2.282   2.235   3.365 -1.6283  0.8848  0.0649
35449SOL     OW 8663   5.060   4.387   8.530  0.0790 -0.6248  0.2618
35449SOL    HW1 8664   4.989   4.379   8.593  0.7684  1.1537  1.3556
35449SOL    HW2 8665   5.024   4.440   8.459  0.4774  0.9725  1.1966
35450SOL     OW 8666   0.073   3.506   9.407 -0.5454 -0.2249 -0.0044
35450SOL    HW1 8667   0.050   3.591   9.444 -0.2669 -0.6519  1.2111
35450SOL    HW2 8668   0.075   3.447   9.483 -0.4517 -1.2555 -0.7824
35451SOL     OW 8669   5.188   7.296   4.882  0.2227 -0.5178 -0.1108
35451SOL    HW1 8670   5.177   7.361   4.813 -1.0679 -1.4459 -0.8291
35451SOL    HW2 8671   5.233   7.342   4.952  0.8429  0.6759 -1.2519
35452SOL     OW 8672   5.659   8.392   8.132 -0.3741 -0.0726 -0.3923
35452SOL    HW1 8673   5.744   8.433   8.116  0.5373 -0.1172  3.2994
35452SOL    HW2 8674   5.675   8.298   8.124 -1.0781 -0.0455 -3.2203
35453SOL     OW 8675   6.427   6.792   5.884  0.7476 -0.3431 -0.3044
35453SOL    HW1 8676   6.417   6.738   5.805  0.5772 -0.0816 -0.4624
35453SOL    HW2 8677   6.341   6.832   5.896  1.0175  0.3079 -0.4921
35454SOL     OW 8678   8.807   4.407  10.248  0.3554 -0.0055  0.4843
35454SOL    HW1 8679   8.862   4.333  10.274  2.3485  0.7307 -1.2972
35454SOL    HW2 8680   8.832   4.478  10.308  2.5730  0.7554 -1.2032
35455SOL     OW 8681   0.764   2.846   5.400  0.6993  0.0359 -0.4182
35455SOL    HW1 8682   0.695   2.846   5.334  1.1004  0.4170 -0.8464
35455SOL    HW2 8683   0.788   2.939   5.410  0.3900  0.0272  0.5351
35456SOL     OW 8684   7.420   0.393   8.428 -0.1314 -0.3578  0.3228
35456SOL    HW1 8685   7.415   0.359   8.339 -0.3131  1.1017 -0.2406
35456SOL    HW2 8686   7.398   0.486   8.420  1.1174  0.0915  1.6930
35457SOL     OW 8687   6.456   4.445   9.903  0.3996 -0.3532  0.3604
35457SOL    HW1 8688   6.389   4.427   9.968  0.0507 -0.5604 -0.0522
35457SOL    HW2 8689   6.536   4.459   9.954  0.1318 -0.5184  0.8289
35458SOL     OW 8690   3.945   6.737   1.189  0.1927 -0.6608  0.1450
35458SOL    HW1 8691   3.944   6.734   1.094 -3.1547  0.0711  0.0572
35458SOL    HW2 8692   3.921   6.648   1.217  1.4818 -0.9636  0.3649
35459SOL     OW 8693   5.050   5.654   9.419  0.1074  0.0438  0.1883
35459SOL    HW1 8694   5.130   5.602   9.414 -0.0989 -0.2779  0.2372
35459SOL    HW2 8695   5.054   5.711   9.341  1.4735  1.6204  1.3249
35460SOL     OW 8696   1.728   2.739   5.167 -0.6682  0.2867 -0.5768
35460SOL    HW1 8697   1.819   2.766   5.171 -0.1655 -1.4423  0.5312
35460SOL    HW2 8698   1.726   2.651   5.206 -2.5685 -0.3251 -1.8765
35461SOL     OW 8699   8.260   1.868   8.037 -0.3499 -0.2883 -0.1480
35461SOL    HW1 8700   8.209   1.945   8.012 -0.5061 -0.6169 -0.8521
35461SOL    HW2 8701   8.346   1.904   8.061 -1.1391  0.3666  1.8990
35462SOL     OW 8702   3.093   2.898   2.255  0.7878  0.2871 -0.0399
35462SOL    HW1 8703   3.154   2.825   2.249  1.1608  0.5171  0.8831
35462SOL    HW2 8704   3.064   2.899   2.346 -1.0443 -0.1643 -0.5702
35463SOL     OW 8705   6.460   6.705   4.459 -0.7117  0.0137  0.1288
35463SOL    HW1 8706   6.490   6.696   4.368  3.0506  2.3840  0.9267
35463SOL    HW2 8707   6.498   6.630   4.505  0.4894  0.7399  0.3544
35464SOL     OW 8708   3.913   2.451   3.922 -0.4774 -0.1806 -0.3201
35464SOL    HW1 8709   3.992   2.450   3.867 -0.5878 -0.3887 -0.4767
35464SOL    HW2 8710   3.919   2.533   3.971  1.0317 -1.2513  1.4154
35465SOL     OW 8711   8.159   8.443   3.004  0.0860  0.0328 -0.7933
35465SOL    HW1 8712   8.217   8.488   3.065 -0.6445  1.7058 -1.2637
35465SOL    HW2 8713   8.108   8.383   3.059  1.9375 -1.2122 -0.3289
35466SOL     OW 8714  10.039   1.274   4.716  0.1387 -0.1812  0.5710
35466SOL    HW1 8715  10.050   1.364   4.746  0.5042 -0.4949  1.4047
35466SOL    HW2 8716   9.945   1.267   4.697  0.0469  0.2726  0.8295
35467SOL     OW 8717   1.343   4.820   6.349 -0.5381  0.0989  0.0047
35467SOL    HW1 8718   1.337   4.814   6.444  0.3372  2.6242  0.2785
35467SOL    HW2 8719   1.256   4.797   6.318 -0.6464 -1.4811  1.3187
35468SOL     OW 8720   6.654   7.274   6.019  0.1221  0.0635  0.6465
35468SOL    HW1 8721   6.620   7.351   6.065 -0.7481  0.6263 -0.8882
35468SOL    HW2 8722   6.686   7.307   5.935 -0.7572 -1.3059 -0.2787
35469SOL     OW 8723   9.581   0.578   6.325 -0.4034 -0.4748  0.0582
35469SOL    HW1 8724   9.558   0.505   6.382 -0.9610 -0.5928 -0.3171
35469SOL    HW2 8725   9.649   0.543   6.268 -0.3096 -0.5472  0.2117
35470SOL     OW 8726   9.163   0.673   1.188  0.4044 -0.2274  0.1196
35470SOL    HW1 8727   9.105   0.737   1.147  3.0008  2.5007  0.3283
35470SOL    HW2 8728   9.193   0.716   1.268  1.4749 -2.1762  0.8322
35471SOL     OW 8729   2.353   5.718   9.587 -0.2216  0.4722  0.6910
35471SOL    HW1 8730   2.379   5.804   9.621 -0.3932  0.3633  1.1065
35471SOL    HW2 8731   2.304   5.738   9.507 -1.0975  0.8245  1.2933
35472SOL     OW 8732   7.165   1.041   9.171  0.4828 -0.1094 -0.4572
35472SOL    HW1 8733   7.248   1.024   9.126  1.2354 -0.4295  0.9965
35472SOL    HW2 8734   7.137   1.126   9.136  0.6478 -0.6778 -2.0532
35473SOL     OW 8735   5.848   1.974   5.708 -0.1106  0.4085  0.0240
35473SOL    HW1 8736   5.916   2.041   5.720 -0.9734  1.1258  1.1947
35473SOL    HW2 8737   5.789   2.012   5.643 -0.0468  0.3316 -0.0784
35474SOL     OW 8738   4.182   8.115   3.771 -0.1556 -0.4344 -0.0377
35474SOL    HW1 8739   4.180   8.150   3.682  0.8998 -0.2920 -0.0137
35474SOL    HW2 8740   4.102   8.148   3.812 -1.2910 -1.4968 -1.2867
35475SOL     OW 8741  10.239  10.475   3.653  0.1085  0.3709 -0.5549
35475SOL    HW1 8742  10.161  10.530   3.649  1.2690  2.0350 -1.9032
35475SOL    HW2 8743  10.208  10.387   3.632 -1.4905  0.8777 -0.4163
35476SOL     OW 8744   4.710   4.344   3.510  0.0610 -0.0661  0.3690
35476SOL    HW1 8745   4.649   4.365   3.439 -2.2366 -0.7723  2.0261
35476SOL    HW2 8746   4.792   4.387   3.485 -1.5150  2.2312 -1.2389
35477SOL     OW 8747   6.063  10.301   1.148 -0.4840 -0.3062  0.3780
35477SOL    HW1 8748   5.992  10.319   1.087  1.0146 -0.9609 -1.6712
35477SOL    HW2 8749   6.057  10.372   1.213 -0.4823  2.1344 -2.1081
35478SOL     OW 8750   4.223   6.996   4.102  0.1092 -0.2435 -0.3792
35478SOL    HW1 8751   4.227   6.964   4.192  1.0150  2.1544  0.5190
35478SOL    HW2 8752   4.259   7.085   4.107 -1.8290  0.7745 -2.7165
35479SOL     OW 8753   7.312   4.219   9.930 -0.4163  0.0171 -0.1374
35479SOL    HW1 8754   7.360   4.142   9.961  0.4704  0.9826  0.9738
35479SOL    HW2 8755   7.260   4.186   9.857  3.3372 -0.7525 -2.7716
35480SOL     OW 8756   0.608   4.769  10.259  0.2374  0.4726  0.3863
35480SOL    HW1 8757   0.658   4.692  10.283 -1.1877 -0.6658 -0.1528
35480SOL    HW2 8758   0.631   4.785  10.167  1.8209  1.7639  0.9572
35481SOL     OW 8759  10.350   0.223   3.641  0.3040 -0.2176  0.3936
35481SOL    HW1 8760  10.369   0.176   3.560  1.7961 -0.1978  0.7108
35481SOL    HW2 8761  10.269   0.272   3.622  0.5712 -0.2895 -1.0396
35482SOL     OW 8762   4.081   6.182   0.332 -0.1558 -0.2820 -0.5680
35482SOL    HW1 8763   4.023   6.157   0.260 -0.1864 -0.0204 -0.6325
35482SOL    HW2 8764   4.067   6.113   0.398  0.4867 -0.9798 -1.1419
35483SOL     OW 8765   5.297   9.487   1.108 -0.4451 -0.1704 -0.4639
35483SOL    HW1 8766   5.284   9.455   1.198  1.5390  0.6789  0.1614
35483SOL    HW2 8767   5.243   9.565   1.103  0.1730  0.3196  0.3263
35484SOL     OW 8768   9.932   7.132   3.996  0.1392 -0.1810 -0.2794
35484SOL    HW1 8769   9.954   7.045   4.031 -1.3937 -1.0863 -1.4177
35484SOL    HW2 8770  10.001   7.150   3.932  1.3237  0.1731  1.0482
35485SOL     OW 8771   7.590   8.402   3.460  0.6244 -0.4088 -0.0182
35485SOL    HW1 8772   7.632   8.316   3.469 -0.8771 -1.1460  0.2367
35485SOL    HW2 8773   7.564   8.426   3.549 -0.1609 -0.3309 -0.2574
35486SOL     OW 8774   4.787   8.045   1.924 -0.6865 -0.1441  0.4455
35486SOL    HW1 8775   4.772   8.120   1.982  0.5784  0.7861 -0.3717
35486SOL    HW2 8776   4.736   7.974   1.963  0.7836  0.1818  3.2173
35487SOL     OW 8777   0.827   7.327   4.621  0.2731 -0.1709  0.1103
35487SOL    HW1 8778   0.826   7.419   4.650  0.0020  0.1936 -1.0003
35487SOL    HW2 8779   0.775   7.327   4.541 -0.9383 -1.5762  0.8740
35488SOL     OW 8780   1.610   1.155   0.724  0.3440 -0.1204  0.5688
35488SOL    HW1 8781   1.521   1.121   0.735  0.8147 -1.1918  1.1625
35488SOL    HW2 8782   1.631   1.194   0.809  0.6594 -0.3930  0.6155
35489SOL     OW 8783   2.673   1.806   9.167 -0.0484  0.3874  0.1441
35489SOL    HW1 8784   2.710   1.806   9.079  0.1192  1.3200  0.2009
35489SOL    HW2 8785   2.657   1.899   9.186 -1.7060  0.0818  0.4176
35490SOL     OW 8786   5.060   2.292   8.247  0.2039 -0.0702  0.4237
35490SOL    HW1 8787   5.058   2.234   8.323 -3.4565 -0.9081 -0.1362
35490SOL    HW2 8788   5.091   2.236   8.175 -0.2371 -0.4404  0.5181
35491SOL     OW 8789   7.813   6.173   5.280 -0.0663 -0.3736 -0.2725
35491SOL    HW1 8790   7.890   6.133   5.322 -0.4510 -0.6762  0.1607
35491SOL    HW2 8791   7.809   6.133   5.193  1.3622  1.0507 -1.0324
35492SOL     OW 8792   7.111   9.926   2.965 -0.2079  0.0979  0.6136
35492SOL    HW1 8793   7.025   9.891   2.988 -3.4757  6.0868 -0.5201
35492SOL    HW2 8794   7.115   9.920   2.869 -0.0919  1.2389  0.5392
35493SOL     OW 8795   9.790   1.904   4.680  0.5024 -0.2473  0.8501
35493SOL    HW1 8796   9.805   1.835   4.616 -1.0030  0.0495  0.1162
35493SOL    HW2 8797   9.808   1.863   4.765  2.7502 -0.5721  0.2648
35494SOL     OW 8798   3.969   7.363   1.636 -0.6101  0.2282 -0.5595
35494SOL    HW1 8799   3.952   7.304   1.563 -1.8352  1.4825 -1.3663
35494SOL    HW2 8800   3.942   7.315   1.713  1.8864 -1.6050 -0.7161
35495SOL     OW 8801   9.159   7.931   6.613  0.4866  0.0176 -0.7250
35495SOL    HW1 8802   9.094   7.862   6.614  2.6276 -2.1297  0.2367
35495SOL    HW2 8803   9.239   7.889   6.581  1.9772  1.9413  0.2095
35496SOL     OW 8804   8.164   3.937   6.595  0.1076  0.3307 -0.0608
35496SOL    HW1 8805   8.089   3.882   6.616 -1.2361  1.4694 -1.7114
35496SOL    HW2 8806   8.235   3.901   6.649 -1.8174 -0.1386  2.3404
35497SOL     OW 8807   4.522   4.495   2.175 -0.3048  0.5551  0.1242
35497SOL    HW1 8808   4.453   4.506   2.240 -1.2364 -1.2415 -0.4891
35497SOL    HW2 8809   4.504   4.560   2.108 -0.6410  0.9425  0.5881
35498SOL     OW 8810   7.692   3.963   5.788 -0.9072 -0.2530  0.0040
35498SOL    HW1 8811   7.620   3.928   5.841  0.5325 -0.9835  1.5689
35498SOL    HW2 8812   7.726   3.888   5.739 -1.8564  0.3066 -1.5836
35499SOL     OW 8813   9.200   4.665  10.428 -0.2773  0.6534 -0.1963
35499SOL    HW1 8814   9.182   4.577  10.395  1.7477 -0.2527  0.9315
35499SOL    HW2 8815   9.188   4.659  10.523  0.2447  1.4843 -0.0640
35500SOL     OW 8816   8.232   8.671   0.443 -0.2793 -0.0304  0.1168
35500SOL    HW1 8817   8.213   8.752   0.396  1.7230 -0.0891 -0.9250
35500SOL    HW2 8818   8.299   8.628   0.390 -1.7624 -2.7523  0.2608
35501SOL     OW 8819   7.799   6.369   1.884 -0.5892  0.3973 -0.0930
35501SOL    HW1 8820   7.815   6.381   1.791  0.4807 -0.7133 -0.0762
35501SOL    HW2 8821   7.776   6.456   1.916 -1.3228  0.7285 -1.4442
35502SOL     OW 8822   6.641   7.234   5.306  0.1177  0.1889 -0.3362
35502SOL    HW1 8823   6.652   7.155   5.253 -1.1670  0.3859 -0.9303
35502SOL    HW2 8824   6.697   7.220   5.382  1.2011 -0.5526 -1.2413
35503SOL     OW 8825   7.218   2.648   6.020 -0.2700 -0.0607  0.4618
35503SOL    HW1 8826   7.172   2.703   6.084 -1.5135  0.7385 -1.0571
35503SOL    HW2 8827   7.228   2.704   5.944  0.4735 -1.2419 -0.3304
35504SOL     OW 8828   6.434   4.984   9.702  0.7945  0.1178 -0.1871
35504SOL    HW1 8829   6.409   4.898   9.668 -0.0316  0.0833  0.4772
35504SOL    HW2 8830   6.394   5.046   9.640 -0.0893  0.0415  0.2842
35505SOL     OW 8831   7.439   8.619   9.922  0.6437  1.1538  0.5334
35505SOL    HW1 8832   7.425   8.527   9.945 -0.1792  1.5672  1.7745
35505SOL    HW2 8833   7.460   8.617   9.829 -1.2702 -0.1333  0.0621
35506SOL     OW 8834   5.957   1.333   8.397 -0.6058 -0.6723 -0.9907
35506SOL    HW1 8835   5.913   1.385   8.463  0.9292  0.8843 -1.1310
35506SOL    HW2 8836   5.886   1.302   8.340 -1.5726  1.5238 -1.0735
35507SOL     OW 8837   6.367   1.757   9.732 -0.2463 -0.1637  1.0789
35507SOL    HW1 8838   6.458   1.782   9.746 -0.7229  0.7315  2.7916
35507SOL    HW2 8839   6.344   1.705   9.809 -1.7211  1.2015  1.6104
35508SOL     OW 8840   5.192   9.183   2.746 -0.0246 -0.0777 -0.1428
35508SOL    HW1 8841   5.263   9.134   2.786  1.4199  2.2722  0.3869
35508SOL    HW2 8842   5.227   9.212   2.662 -0.1109  1.5543  0.3443
35509SOL     OW 8843   0.419   5.321   6.007  0.1964  0.5158 -0.5206
35509SOL    HW1 8844   0.503   5.365   5.998  0.1802  1.0890  1.5451
35509SOL    HW2 8845   0.390   5.305   5.917  1.6033  2.0403 -1.2980
35510SOL     OW 8846   9.752   5.392   1.428 -0.1724 -0.1748 -0.3937
35510SOL    HW1 8847   9.776   5.424   1.515 -0.6838 -0.6233 -0.0866
35510SOL    HW2 8848   9.705   5.311   1.444  0.6287 -0.8065 -1.1390
35511SOL     OW 8849   7.678   3.256   2.772 -0.0313 -0.1950 -0.1050
35511SOL    HW1 8850   7.717   3.171   2.757  1.3321  0.3258  0.3941
35511SOL    HW2 8851   7.625   3.272   2.693  1.9569 -0.2811 -1.5252
35512SOL     OW 8852   7.072  10.370   9.722  0.0776 -0.3792  0.2674
35512SOL    HW1 8853   7.131  10.443   9.739  1.5179 -1.0322 -1.5347
35512SOL    HW2 8854   7.119  10.293   9.753 -0.3328 -0.7950 -0.1217
35513SOL     OW 8855   2.257   5.172   0.653  0.0744 -0.0203 -0.3051
35513SOL    HW1 8856   2.297   5.213   0.576  0.0089 -1.0460 -0.9094
35513SOL    HW2 8857   2.246   5.080   0.627 -1.2160 -0.0888  0.4335
35514SOL     OW 8858   9.447   3.006   4.314  0.0902  0.0290  0.6179
35514SOL    HW1 8859   9.373   2.999   4.375 -0.3041  0.1873  0.1621
35514SOL    HW2 8860   9.426   2.945   4.243 -0.1650  0.9196 -0.0841
35515SOL     OW 8861   2.531   7.364   3.268 -0.0658  0.3890 -0.3655
35515SOL    HW1 8862   2.456   7.419   3.289 -1.4819 -0.9325 -1.7032
35515SOL    HW2 8863   2.505   7.276   3.296  0.8693 -0.1483 -1.1314
35516SOL     OW 8864   3.417   7.993   4.516 -0.3117 -0.0959 -0.2838
35516SOL    HW1 8865   3.380   8.081   4.513  1.2961  0.6226 -0.0014
35516SOL    HW2 8866   3.512   8.006   4.509  0.1971 -1.5891  2.3931
35517SOL     OW 8867   9.401   2.665   5.529 -0.2107  0.0533 -0.5765
35517SOL    HW1 8868   9.373   2.607   5.458 -0.3363  0.3310 -0.7521
35517SOL    HW2 8869   9.466   2.723   5.488  0.7378 -0.6745 -0.1449
35518SOL     OW 8870   9.051   1.957   0.863  0.0905 -0.3639  0.5843
35518SOL    HW1 8871   9.101   2.023   0.911  2.2474 -0.4206 -1.4199
35518SOL    HW2 8872   8.980   2.006   0.821  0.3184  0.2657  0.9303
35519SOL     OW 8873   1.529   4.609   2.763  0.1006 -0.9406  0.0103
35519SOL    HW1 8874   1.516   4.576   2.851 -0.4448 -1.4730 -0.2644
35519SOL    HW2 8875   1.485   4.546   2.706 -0.3683 -0.1087 -0.5772
35520SOL     OW 8876   0.563   3.797   2.299  0.0155  0.2735 -0.5423
35520SOL    HW1 8877   0.578   3.833   2.387  2.2315 -0.7755 -0.4168
35520SOL    HW2 8878   0.532   3.708   2.314  1.1116 -0.1644 -0.7855
35521SOL     OW 8879   5.781   6.625   6.549  0.4744 -0.1112  0.3855
35521SOL    HW1 8880   5.844   6.666   6.608  1.1007 -0.5879  0.0626
35521SOL    HW2 8881   5.794   6.669   6.465  2.1323 -1.8377 -0.3446
35522SOL     OW 8882   2.368   7.097   9.241 -0.0692 -0.0873  0.4479
35522SOL    HW1 8883   2.460   7.121   9.233 -0.3035  0.6478 -0.0997
35522SOL    HW2 8884   2.331   7.113   9.154 -0.4908 -1.3804  0.3587
35523SOL     OW 8885   1.815   9.774   7.049 -0.0079 -0.8997 -0.2452
35523SOL    HW1 8886   1.839   9.809   7.134 -0.6427  1.2564 -0.8906
35523SOL    HW2 8887   1.726   9.741   7.060 -1.0919  1.6428 -0.5710
35524SOL     OW 8888   2.752   0.676   4.631 -0.6777  0.9964  0.0249
35524SOL    HW1 8889   2.765   0.720   4.714 -0.8243  2.9424 -0.9376
35524SOL    HW2 8890   2.657   0.676   4.617 -0.9506 -1.9724  1.1701
35525SOL     OW 8891   5.206   1.112   6.112  0.8388  0.2208  0.5160
35525SOL    HW1 8892   5.217   1.019   6.089 -1.6047  0.0361 -0.1963
35525SOL    HW2 8893   5.133   1.113   6.173  0.2757  1.7444 -0.1361
35526SOL     OW 8894   5.343   7.230   5.440  0.2870  0.5518  0.0154
35526SOL    HW1 8895   5.254   7.197   5.429 -0.2480  1.9619 -0.1257
35526SOL    HW2 8896   5.363   7.213   5.532  0.3476 -0.8297 -0.2217
35527SOL     OW 8897   2.470   8.438   8.051 -0.4938 -0.3288 -0.0180
35527SOL    HW1 8898   2.415   8.516   8.061 -1.0632 -0.7077 -0.1737
35527SOL    HW2 8899   2.440   8.397   7.970 -1.6448 -1.8423  1.1003
35528SOL     OW 8900   6.742   0.953   6.093  0.0828 -0.0128  0.5681
35528SOL    HW1 8901   6.728   1.048   6.089 -0.6473 -0.1597 -1.6589
35528SOL    HW2 8902   6.726   0.930   6.185 -0.8500  1.8417  0.9145
35529SOL     OW 8903  10.543   8.740   8.682 -0.0371  0.5842  0.3543
35529SOL    HW1 8904  10.542   8.665   8.622  0.3255  0.1033  0.9359
35529SOL    HW2 8905  10.517   8.815   8.628 -2.8565 -0.3317  0.2735
35530SOL     OW 8906   9.983   9.347   3.135 -0.0869  0.0496 -0.7961
35530SOL    HW1 8907   9.977   9.394   3.218 -0.3257  1.3230 -1.4933
35530SOL    HW2 8908   9.896   9.355   3.097  0.7469  2.2498 -2.5382
35531SOL     OW 8909   8.712   5.750   4.235 -0.3440  0.3193 -0.1707
35531SOL    HW1 8910   8.622   5.729   4.261  0.2300 -0.3068  1.4715
35531SOL    HW2 8911   8.757   5.766   4.318  1.2980 -0.3948 -0.8770
35532SOL     OW 8912   1.360   3.621   2.162 -0.3264 -0.0659  0.3977
35532SOL    HW1 8913   1.433   3.671   2.197 -0.6359  1.3979 -0.9020
35532SOL    HW2 8914   1.373   3.623   2.067 -0.7567 -1.8721  0.2608
35533SOL     OW 8915   0.396   9.834   4.005 -0.2334 -0.1206  0.0439
35533SOL    HW1 8916   0.328   9.767   4.006 -0.3984  0.0210 -0.6202
35533SOL    HW2 8917   0.424   9.842   4.096 -1.2258 -0.0586  0.3624
35534SOL     OW 8918   3.253   6.682  10.545 -0.1559 -0.1781 -0.7077
35534SOL    HW1 8919   3.250   6.768  10.501  0.2016 -0.2834 -0.9423
35534SOL    HW2 8920   3.161   6.662  10.563 -0.2612  0.1537 -0.8532
35535SOL     OW 8921   8.317   6.789   7.489 -0.1249  0.7642  0.1217
35535SOL    HW1 8922   8.250   6.778   7.556  0.1566  1.2688  0.4901
35535SOL    HW2 8923   8.395   6.816   7.537  0.2130  0.6523 -0.3582
35536SOL     OW 8924   7.387   6.610   5.384  0.1357  0.2143 -0.7393
35536SOL    HW1 8925   7.447   6.562   5.442  0.6063  1.8521  0.2124
35536SOL    HW2 8926   7.424   6.599   5.297  0.2607 -1.0562 -0.5578
35537SOL     OW 8927   3.505   4.441   2.536  0.2933 -0.0470  0.0644
35537SOL    HW1 8928   3.447   4.505   2.578 -0.4311 -0.7449  0.1543
35537SOL    HW2 8929   3.510   4.469   2.445  2.2517  1.7575  0.6403
35538SOL     OW 8930   8.196   6.137   9.104 -0.4404  0.4261  0.6575
35538SOL    HW1 8931   8.270   6.078   9.110 -0.3652  0.4889  0.3202
35538SOL    HW2 8932   8.159   6.122   9.018 -0.0693  1.2852  0.3325
35539SOL     OW 8933   2.104   0.528   3.691  0.2278 -0.3971  0.1632
35539SOL    HW1 8934   2.147   0.483   3.619  1.3830 -2.3156  1.9533
35539SOL    HW2 8935   2.170   0.532   3.760 -0.9289  1.0953  1.2500
35540SOL     OW 8936   8.761   0.597   8.568  0.9226  0.2379  0.2283
35540SOL    HW1 8937   8.722   0.581   8.654  0.1905  0.3293 -0.0742
35540SOL    HW2 8938   8.781   0.510   8.535  2.7419  0.2634  1.1577
35541SOL     OW 8939   4.389   2.986   0.380 -0.1358  0.1700  0.4991
35541SOL    HW1 8940   4.326   3.052   0.350 -0.6893 -0.7901 -0.4849
35541SOL    HW2 8941   4.474   3.031   0.376 -0.4523  0.7040 -0.5404
35542SOL     OW 8942   4.153  10.333  10.233 -0.5056 -0.2681  0.3777
35542SOL    HW1 8943   4.132  10.257  10.179 -2.0662 -0.8163  1.6448
35542SOL    HW2 8944   4.182  10.296  10.316  0.7495  0.5504  0.3328
35543SOL     OW 8945   2.737   0.040   7.309 -0.7819  0.0570 -0.1224
35543SOL    HW1 8946   2.719   0.010   7.399  0.8194  1.1488  0.6231
35543SOL    HW2 8947   2.833   0.041   7.304 -0.8316  1.5647 -1.3073
35544SOL     OW 8948   9.232   5.056   7.178 -0.2308  0.3739 -0.1352
35544SOL    HW1 8949   9.192   4.985   7.227 -0.1224  1.0755  1.0100
35544SOL    HW2 8950   9.251   5.123   7.244 -0.1095  1.3634 -1.1431
35545SOL     OW 8951   5.277   0.345   8.022  0.1225 -0.5832 -0.3593
35545SOL    HW1 8952   5.335   0.419   8.003 -0.0205 -0.7962 -1.7404
35545SOL    HW2 8953   5.332   0.283   8.070  1.0751 -0.7755 -1.6348
35546SOL     OW 8954   0.797   1.995   1.030  0.5046  0.3645  0.4506
35546SOL    HW1 8955   0.818   1.904   1.050 -1.0425 -0.3865 -1.0207
35546SOL    HW2 8956   0.708   1.991   0.996 -0.0391  2.6053  1.4142
35547SOL     OW 8957  10.556   0.570   0.799  0.0039  0.4467  0.7209
35547SOL    HW1 8958  10.629   0.631   0.791  1.2326 -1.1685 -0.9956
35547SOL    HW2 8959  10.483   0.614   0.754  0.5600  1.0783  0.4250
35548SOL     OW 8960   4.197   7.938   8.595 -0.5429  0.0951 -0.1019
35548SOL    HW1 8961   4.212   7.843   8.586 -0.8657  0.0787 -0.5665
35548SOL    HW2 8962   4.284   7.977   8.592 -0.4767 -0.0777 -1.5341
35549SOL     OW 8963   5.431   4.384   3.195 -0.0685  0.0340  0.4977
35549SOL    HW1 8964   5.491   4.457   3.180 -1.2247  0.9697  0.2532
35549SOL    HW2 8965   5.463   4.314   3.138  1.4770  0.0811  1.2624
35550SOL     OW 8966   5.460   3.905   4.338 -0.8527 -0.0173  0.3337
35550SOL    HW1 8967   5.426   3.885   4.250  0.0120 -0.9871  0.2006
35550SOL    HW2 8968   5.540   3.853   4.345 -1.0774 -0.2033  1.8260
35551SOL     OW 8969   3.675   3.852   9.088  0.2871  0.1650 -0.2968
35551SOL    HW1 8970   3.749   3.894   9.045  1.2474 -0.2449  0.9290
35551SOL    HW2 8971   3.709   3.769   9.120 -0.7447 -0.1001  0.1537
35552SOL     OW 8972   1.047   3.910   9.405 -0.3161  0.0640  0.0786
35552SOL    HW1 8973   1.055   3.991   9.356 -0.2510 -0.7077 -1.2340
35552SOL    HW2 8974   0.969   3.922   9.459  1.2596  2.0715  2.1114
35553SOL     OW 8975  10.038   7.012   1.722  0.0797  0.4769  0.3169
35553SOL    HW1 8976  10.004   7.102   1.720  1.1058  0.8887  0.5729
35553SOL    HW2 8977  10.108   7.012   1.657 -1.5374 -0.8562 -1.5277
35554SOL     OW 8978  10.086   5.831   0.449 -0.1341  0.1917  0.3663
35554SOL    HW1 8979  10.123   5.802   0.366 -2.7534  2.0236 -1.6068
35554SOL    HW2 8980  10.102   5.925   0.452 -0.5918  0.2476  1.6743
35555SOL     OW 8981   4.780   8.199   1.514 -0.2341  0.6730  0.0369
35555SOL    HW1 8982   4.689   8.227   1.530 -0.9150 -0.9281 -0.7764
35555SOL    HW2 8983   4.824   8.211   1.598 -1.5767  0.1888  0.8424
35556SOL     OW 8984   3.086   2.047   0.939 -0.0800  0.3059 -0.3643
35556SOL    HW1 8985   3.089   2.016   1.030 -1.1637  0.2560 -0.3306
35556SOL    HW2 8986   3.177   2.054   0.913  0.2348 -1.3132  0.1785
35557SOL     OW 8987   5.587  10.383   6.142 -0.7144 -0.6108  0.3798
35557SOL    HW1 8988   5.497  10.355   6.157  0.3413 -3.4124  2.1730
35557SOL    HW2 8989   5.612  10.339   6.060 -0.8370 -0.1523  0.0925
35558SOL     OW 8990   9.419  10.032   2.035 -0.4252  0.2910  0.0935
35558SOL    HW1 8991   9.364   9.974   1.983 -1.8766  1.0681  0.7172
35558SOL    HW2 8992   9.483   9.973   2.077 -2.2160 -0.9765  1.1798
35559SOL     OW 8993   2.792   0.839   2.022  0.0146  0.6830 -0.4608
35559SOL    HW1 8994   2.792   0.759   2.075 -0.0448 -0.1295 -1.6510
35559SOL    HW2 8995   2.700   0.865   2.017 -0.1816 -0.1094 -1.3967
35560SOL     OW 8996   5.084   6.506   8.089 -0.2763  0.2717 -0.1539
35560SOL    HW1 8997   5.000   6.547   8.107  0.1812  0.7648  1.0208
35560SOL    HW2 8998   5.143   6.579   8.069  0.1531  0.0649  0.3046
35561SOL     OW 8999   0.359   6.945   7.535  0.0813 -0.3671  0.2831
35561SOL    HW1 9000   0.288   6.933   7.599 -1.2544 -2.6709 -1.4452
35561SOL    HW2 9001   0.376   7.039   7.535 -2.0989  0.1066  1.7068
35562SOL     OW 9002   5.395   7.412   2.264 -0.5303  0.0019 -0.5617
35562SOL    HW1 9003   5.440   7.354   2.203  0.5758  2.5396 -2.3026
35562SOL    HW2 9004   5.309   7.426   2.226 -1.4778 -1.7549  0.7662
35563SOL     OW 9005   3.708   1.599   6.396 -0.4479 -0.5194 -0.4673
35563SOL    HW1 9006   3.724   1.563   6.309 -2.2525 -0.7416 -0.7540
35563SOL    HW2 9007   3.735   1.530   6.456  1.9885  0.1067 -0.7641
35564SOL     OW 9008   8.981   6.282   2.225 -0.2376 -0.6450 -0.0872
35564SOL    HW1 9009   8.999   6.279   2.131  0.3176 -2.1314  0.0274
35564SOL    HW2 9010   8.889   6.259   2.233 -0.1704 -0.9798 -0.2529
35565SOL     OW 9011   8.743   2.076  10.273 -0.2826 -0.1778 -0.0247
35565SOL    HW1 9012   8.764   2.088  10.366 -1.4483 -1.6416  0.4710
35565SOL    HW2 9013   8.825   2.094  10.228  0.4016  0.2331  1.3173
35566SOL     OW 9014  10.026   9.094   7.643 -0.3889  1.1181  0.4614
35566SOL    HW1 9015  10.089   9.046   7.697  2.0591  0.0959 -2.9555
35566SOL    HW2 9016   9.973   9.026   7.602  0.6068  1.4808 -1.5412
35567SOL     OW 9017   8.119   5.797   4.920  0.7973  0.7759  0.4387
35567SOL    HW1 9018   8.144   5.861   4.987  3.3254  0.7404 -0.3494
35567SOL    HW2 9019   8.196   5.741   4.911  0.1586  0.1606 -1.7890
35568SOL     OW 9020   9.986   1.833   1.095 -0.3215  0.3292  0.5206
35568SOL    HW1 9021   9.967   1.889   1.019 -3.5011 -1.3415 -0.0534
35568SOL    HW2 9022  10.068   1.790   1.072 -0.7808  0.4811 -1.6252
35569SOL     OW 9023  10.462   7.036   5.341  0.2428 -0.3296  0.1319
35569SOL    HW1 9024  10.481   6.955   5.292  2.0928 -0.1359  0.4544
35569SOL    HW2 9025  10.427   7.005   5.425 -0.8202 -0.7192 -0.4308
35570SOL     OW 9026   8.867   7.577   2.204  0.4873  0.4695  0.1290
35570SOL    HW1 9027   8.865   7.636   2.129 -0.3462  0.8481  0.4418
35570SOL    HW2 9028   8.826   7.496   2.173  0.3270  0.5564  0.1143
35571SOL     OW 9029  10.005   9.599   3.835 -0.2248  0.0726  0.1129
35571SOL    HW1 9030  10.067   9.527   3.847  0.1699  0.3223 -0.4144
35571SOL    HW2 9031   9.925   9.568   3.877 -0.1970 -0.8699 -0.4987
35572SOL     OW 9032   3.082   1.006   7.030 -0.2799  0.2669 -0.0734
35572SOL    HW1 9033   3.061   1.059   7.106 -1.2721 -0.1069 -0.0656
35572SOL    HW2 9034   2.997   0.979   6.995  0.1499  0.4850 -1.3526
35573SOL     OW 9035   2.083   5.929   4.951 -0.3704  0.7641 -0.2028
35573SOL    HW1 9036   2.089   5.837   4.979 -3.3552  0.2730 -0.8663
35573SOL    HW2 9037   2.140   5.934   4.874  2.5499  0.4367  1.7782
35574SOL     OW 9038   5.920   6.052   8.137  0.0758 -0.1675 -0.0108
35574SOL    HW1 9039   5.958   5.999   8.067 -0.4639 -1.5420  0.7026
35574SOL    HW2 9040   5.989   6.113   8.162  0.0982  0.7606 -2.1086
35575SOL     OW 9041   1.924   4.635   3.741  0.7702  0.2984 -0.1228
35575SOL    HW1 9042   1.886   4.550   3.762 -2.0431  1.4188 -0.2614
35575SOL    HW2 9043   1.880   4.661   3.661  1.3615  2.0295  0.0859
35576SOL     OW 9044   7.121   1.237   9.673  0.1772  0.2209  0.2955
35576SOL    HW1 9045   7.056   1.168   9.679 -0.4924  0.9157  1.3139
35576SOL    HW2 9046   7.079   1.314   9.711  0.1068  1.8216 -2.6848
35577SOL     OW 9047   0.627   4.529   6.839 -0.0295 -0.1791  0.7525
35577SOL    HW1 9048   0.657   4.592   6.905 -2.1752 -0.8735  2.5040
35577SOL    HW2 9049   0.668   4.446   6.864  0.1050 -0.2006  0.4700
35578SOL     OW 9050   0.048   7.733   0.624 -0.0228 -0.2014 -0.6258
35578SOL    HW1 9051  -0.018   7.681   0.669 -0.0226  0.4719  0.1678
35578SOL    HW2 9052   0.056   7.691   0.538 -2.8275  0.7767 -1.4884
35579SOL     OW 9053   0.280   6.894   8.364  0.1550  0.3815  0.0377
35579SOL    HW1 9054   0.362   6.920   8.321  0.0696  0.5196 -0.0448
35579SOL    HW2 9055   0.235   6.841   8.298  0.7027 -0.7016  0.5004
35580SOL     OW 9056   5.397   2.730   1.081  0.3682 -0.4405 -0.2738
35580SOL    HW1 9057   5.482   2.687   1.081  0.8357  0.4561  0.2123
35580SOL    HW2 9058   5.415   2.821   1.057 -0.2654  0.0623  1.0029
35581SOL     OW 9059   6.615   0.088   4.309 -0.7679  0.5087 -0.3436
35581SOL    HW1 9060   6.568   0.121   4.385 -1.6542  1.1886 -1.1556
35581SOL    HW2 9061   6.616   0.161   4.248  1.8333  0.7121 -0.1877
35582SOL     OW 9062   3.179  10.203   7.345 -0.5119  0.7751  0.1038
35582SOL    HW1 9063   3.120  10.146   7.295  1.0823  0.0991 -1.0867
35582SOL    HW2 9064   3.237  10.142   7.391 -1.1986  1.4094  1.9107
35583SOL     OW 9065   0.875   8.991   3.377  0.2140  0.2835  0.0437
35583SOL    HW1 9066   0.851   9.079   3.347  1.3894  0.1129 -1.5470
35583SOL    HW2 9067   0.813   8.933   3.333 -1.1100  0.3208  1.7535
35584SOL     OW 9068   7.785   0.707   3.798 -0.1067 -0.1282 -0.1260
35584SOL    HW1 9069   7.803   0.794   3.763 -1.4221  1.4744  2.8592
35584SOL    HW2 9070   7.753   0.722   3.887 -1.0987 -3.6274  0.2777
35585SOL     OW 9071   9.834   4.089   8.548 -0.5009 -0.2101 -0.1170
35585SOL    HW1 9072   9.762   4.149   8.566  0.7339  1.3459 -0.1720
35585SOL    HW2 9073   9.873   4.070   8.633 -0.7588 -0.7752 -0.1217
35586SOL     OW 9074   6.109   3.781   1.594 -0.5106 -0.4853 -0.2998
35586SOL    HW1 9075   6.183   3.767   1.653  0.1566  1.1277 -0.7156
35586SOL    HW2 9076   6.148   3.800   1.509 -1.4671 -2.7069 -1.3231
35587SOL     OW 9077   2.542   0.204   3.498 -0.0799 -0.2628 -0.0116
35587SOL    HW1 9078   2.560   0.246   3.582 -2.5807  1.3419 -0.1733
35587SOL    HW2 9079   2.610   0.136   3.490  1.1820  0.5671  2.5291
35588SOL     OW 9080   0.499  10.403   1.815 -0.6278  0.1587 -0.0620
35588SOL    HW1 9081   0.430  10.412   1.880 -0.1689 -0.0968  0.4778
35588SOL    HW2 9082   0.454  10.395   1.731 -1.2453  0.0226  0.2820
35589SOL     OW 9083   7.736   3.154   3.067  0.4784 -0.1342  0.4543
35589SOL    HW1 9084   7.807   3.113   3.115  0.0541 -1.0422  0.3189
35589SOL    HW2 9085   7.780   3.218   3.010  1.1262 -0.2486  0.8196
35590SOL     OW 9086   9.683   8.228   9.108  0.0942  0.3678  0.2479
35590SOL    HW1 9087   9.749   8.239   9.040  0.5829  1.3833  0.8643
35590SOL    HW2 9088   9.605   8.270   9.072 -0.9440 -2.6501 -1.3776
35591SOL     OW 9089   0.668   4.455   3.267  0.3342  0.2524 -0.3710
35591SOL    HW1 9090   0.675   4.425   3.358 -0.5637 -0.8223 -0.6370
35591SOL    HW2 9091   0.707   4.542   3.268 -1.6081  1.1799  1.5020
35592SOL     OW 9092   5.002   5.455  10.130  0.2888 -0.0323 -0.2323
35592SOL    HW1 9093   5.077   5.399  10.109  0.3790  0.9267 -2.9405
35592SOL    HW2 9094   4.932   5.425  10.071 -0.5846  0.8286  0.3326
35593SOL     OW 9095   8.257   2.968   5.302 -0.4569  0.4884  0.3644
35593SOL    HW1 9096   8.352   2.977   5.314 -0.0627  0.3384 -2.0540
35593SOL    HW2 9097   8.248   2.896   5.241 -2.0187  1.5590 -0.7477
35594SOL     OW 9098   4.063   7.961   7.524 -0.2833 -0.2779  0.2231
35594SOL    HW1 9099   4.043   7.886   7.580 -3.0250  1.3523  1.6637
35594SOL    HW2 9100   3.977   7.996   7.500  0.8288  0.5419 -3.1152
35595SOL     OW 9101   4.101   1.474   3.414  0.1037 -0.3714 -0.3351
35595SOL    HW1 9102   4.049   1.495   3.491  0.4953  2.2638 -0.7027
35595SOL    HW2 9103   4.040   1.483   3.341  0.4838  0.3834 -0.5696
35596SOL     OW 9104   3.403   7.957   5.259 -0.1308  0.3963 -0.3857
35596SOL    HW1 9105   3.449   8.022   5.313 -0.1615 -0.0375  0.1705
35596SOL    HW2 9106   3.453   7.953   5.178 -0.1201  1.1044 -0.4211
35597SOL     OW 9107   0.682   8.490   2.460 -0.2679  0.4718  0.0428
35597SOL    HW1 9108   0.628   8.479   2.382 -1.2013  2.1035  0.4041
35597SOL    HW2 9109   0.769   8.511   2.427 -0.3165 -0.2266 -0.5529
35598SOL     OW 9110   9.450   3.209   5.853 -0.3701  0.3896 -0.0117
35598SOL    HW1 9111   9.354   3.212   5.849 -0.4436 -1.0961  0.3880
35598SOL    HW2 9112   9.474   3.132   5.802  0.6375  0.8512 -0.2530
35599SOL     OW 9113   3.577   0.829   2.437 -0.4365  0.0044  0.1802
35599SOL    HW1 9114   3.659   0.877   2.447 -0.3004 -0.3844  1.0133
35599SOL    HW2 9115   3.551   0.844   2.346  0.6749 -0.0730 -0.1627
35600SOL     OW 9116   1.185   7.461   8.601  0.0752  0.6068  0.0991
35600SOL    HW1 9117   1.116   7.525   8.586  0.9114  1.3213 -0.8712
35600SOL    HW2 9118   1.255   7.510   8.645  0.9235  0.5263 -1.1013
35601SOL     OW 9119   3.448   7.205   9.487 -0.4153  0.1853 -0.1835
35601SOL    HW1 9120   3.504   7.170   9.556 -0.5929  1.7108  0.7695
35601SOL    HW2 9121   3.402   7.128   9.452 -1.4210 -0.4777  2.3794
35602SOL     OW 9122   0.839   6.363   9.284  0.3635  0.2958  0.6515
35602SOL    HW1 9123   0.841   6.281   9.233 -0.4861  0.7986 -0.2210
35602SOL    HW2 9124   0.928   6.372   9.317  1.4719  0.8154 -2.1865
35603SOL     OW 9125   5.201   4.856   1.703  0.0494  0.0005 -0.2434
35603SOL    HW1 9126   5.212   4.811   1.787 -1.0282 -1.2143 -0.7151
35603SOL    HW2 9127   5.288   4.851   1.661 -0.0672 -1.8257 -0.3423
35604SOL     OW 9128   0.390   4.713   7.695  0.1314  0.1926  0.1089
35604SOL    HW1 9129   0.406   4.756   7.611 -0.5236  0.4498  0.1112
35604SOL    HW2 9130   0.356   4.783   7.752  4.4587  1.1293  1.9332
35605SOL     OW 9131   5.023   2.810   1.599 -0.4650  0.3493 -0.1024
35605SOL    HW1 9132   5.014   2.861   1.679  1.9970 -0.7869  0.9900
35605SOL    HW2 9133   4.934   2.808   1.562 -2.0810 -0.3951  3.4079
35606SOL     OW 9134   6.413  10.102   6.923 -0.5744 -0.5438  0.8908
35606SOL    HW1 9135   6.469  10.046   6.977 -1.0263 -0.9119  0.9855
35606SOL    HW2 9136   6.424  10.069   6.834 -1.7936 -1.6126  1.1072
35607SOL     OW 9137   3.129   2.861   1.608 -0.3177 -0.3839  0.8888
35607SOL    HW1 9138   3.064   2.797   1.580 -0.4564  0.5176 -1.0060
35607SOL    HW2 9139   3.213   2.819   1.593 -0.4112 -0.2186 -0.1222
35608SOL     OW 9140   7.026   7.929   1.880 -0.0942  0.1128  0.1126
35608SOL    HW1 9141   7.035   7.886   1.964  0.7644  2.0331  1.0720
35608SOL    HW2 9142   7.097   7.893   1.826  0.8665  0.6104  1.0223
35609SOL     OW 9143   4.141   7.839   3.210  0.3382  0.6274 -0.5907
35609SOL    HW1 9144   4.214   7.781   3.187  0.5388  0.0508  1.3339
35609SOL    HW2 9145   4.171   7.926   3.184  1.1928  0.2364 -0.9636
35610SOL     OW 9146   0.986   4.943   7.732  0.6076  0.4487 -0.2538
35610SOL    HW1 9147   1.067   4.904   7.765  0.7613  0.3521 -0.7439
35610SOL    HW2 9148   0.918   4.883   7.760  0.4227  1.6667  2.1596
35611SOL     OW 9149   8.839   7.724   6.286  0.6114 -1.0160 -0.4115
35611SOL    HW1 9150   8.931   7.740   6.266  0.5531 -0.7669 -0.4747
35611SOL    HW2 9151   8.801   7.693   6.203  0.5473 -0.7379 -0.4851
35612SOL     OW 9152   0.633   2.305   0.958  0.1809  0.3194 -0.7870
35612SOL    HW1 9153   0.689   2.288   0.882  0.0081 -0.2467 -0.7944
35612SOL    HW2 9154   0.544   2.302   0.923  0.0456 -0.9583 -0.3983
35613SOL     OW 9155   2.265   3.543  10.110 -0.4379 -0.0432  0.7370
35613SOL    HW1 9156   2.354   3.565  10.082 -1.0509  1.3882 -0.2322
35613SOL    HW2 9157   2.236   3.476  10.048 -0.9306  1.3860 -0.6381
35614SOL     OW 9158   0.208   8.363   7.766  0.2735 -0.2473  0.0567
35614SOL    HW1 9159   0.264   8.292   7.796 -0.6073 -0.7391  0.5727
35614SOL    HW2 9160   0.244   8.441   7.808  0.5618 -0.5582  0.3966
35615SOL     OW 9161  10.438   1.111   9.629  0.1607  0.4038 -0.2175
35615SOL    HW1 9162  10.437   1.206   9.615  0.8544  0.5464  0.6068
35615SOL    HW2 9163  10.368   1.095   9.691 -1.2699  0.0925 -1.8280
35616SOL     OW 9164   6.195   1.651   3.053 -0.2080 -0.2002 -0.0023
35616SOL    HW1 9165   6.155   1.610   2.977  0.2428 -1.8522  0.5991
35616SOL    HW2 9166   6.287   1.662   3.029  0.2031 -1.8351  0.6820
35617SOL     OW 9167   0.250   6.527   8.404  0.5875 -0.2869 -0.0517
35617SOL    HW1 9168   0.254   6.474   8.325  1.0652  1.6947 -1.4254
35617SOL    HW2 9169   0.340   6.533   8.434  0.7408  0.8786 -0.7123
35618SOL     OW 9170   8.913   7.950   7.298 -0.1043 -0.4243  0.5406
35618SOL    HW1 9171   8.853   8.015   7.336 -0.1369 -1.6520  2.7374
35618SOL    HW2 9172   9.000   7.978   7.327  0.1967  0.1432 -0.8384
35619SOL     OW 9173   4.048   0.749   9.143  0.2709 -0.0205  0.0149
35619SOL    HW1 9174   4.075   0.677   9.201 -1.9628 -1.5871 -0.7244
35619SOL    HW2 9175   4.104   0.741   9.066  0.2300 -0.8277  0.0574
35620SOL     OW 9176   9.994   8.827   9.320  0.1744 -0.4014  0.2903
35620SOL    HW1 9177   9.965   8.898   9.377  1.2787  0.2040  0.1340
35620SOL    HW2 9178  10.087   8.816   9.342  0.0422 -1.7526  0.2629
35621SOL     OW 9179   3.298   2.254   9.030 -0.3461  0.6995 -0.5929
35621SOL    HW1 9180   3.332   2.190   9.093 -3.0206  0.2516  0.5380
35621SOL    HW2 9181   3.216   2.217   8.999 -1.3330  2.9485 -0.9209
35622SOL     OW 9182   8.955   0.089   2.749 -0.0739  0.5394 -0.4851
35622SOL    HW1 9183   8.884   0.128   2.801 -0.1779 -0.1853 -0.0816
35622SOL    HW2 9184   9.014   0.163   2.731 -1.4797  1.4192 -1.7970
35623SOL     OW 9185   1.863  10.193   7.075 -0.4829 -0.7141 -0.2203
35623SOL    HW1 9186   1.773  10.189   7.044 -0.0722 -1.0223 -1.4520
35623SOL    HW2 9187   1.916  10.189   6.995  0.6877 -3.0081  0.5655
35624SOL     OW 9188   2.009   1.240   0.903 -0.5477  0.5299  0.6635
35624SOL    HW1 9189   2.061   1.243   0.823 -1.2925  0.9407  0.1812
35624SOL    HW2 9190   2.023   1.152   0.937 -0.5849  0.1880 -0.1698
35625SOL     OW 9191   0.763   6.060   6.116  0.1921 -0.3612  0.3934
35625SOL    HW1 9192   0.690   6.068   6.056  0.0863 -1.2192  0.3873
35625SOL    HW2 9193   0.772   6.146   6.157 -0.6387 -0.1766  0.1890
35626SOL     OW 9194   1.280   6.270   8.498  0.2937  0.3597  0.0985
35626SOL    HW1 9195   1.221   6.299   8.429 -0.3751  0.6017  0.7605
35626SOL    HW2 9196   1.357   6.327   8.489  1.4843 -1.4378 -2.2173
35627SOL     OW 9197  10.590   9.789   9.074  0.6749  0.7449 -0.4004
35627SOL    HW1 9198  10.591   9.735   9.153  2.6843 -0.9655 -1.5058
35627SOL    HW2 9199  10.668   9.844   9.081  0.0904  1.6134 -0.5506
35628SOL     OW 9200   9.716   6.687   5.921  0.1653  0.3271 -0.1953
35628SOL    HW1 9201   9.780   6.758   5.920 -1.8383  2.2432 -0.1347
35628SOL    HW2 9202   9.641   6.723   5.969 -1.2813 -1.5167 -0.9598
35629SOL     OW 9203   2.461  10.468   0.493 -0.2090  0.5325 -0.3201
35629SOL    HW1 9204   2.472  10.557   0.460 -1.1018  0.3788 -1.0755
35629SOL    HW2 9205   2.366  10.455   0.494 -0.2402  0.4828  2.2091
35630SOL     OW 9206   3.777   3.569   4.277 -0.1335 -0.1983  0.1503
35630SOL    HW1 9207   3.824   3.582   4.195  2.5803 -3.8413  0.8421
35630SOL    HW2 9208   3.708   3.507   4.255 -1.0249  0.7556  0.2075
35631SOL     OW 9209   7.304   6.666   9.174 -0.7931  0.0047 -0.0746
35631SOL    HW1 9210   7.238   6.672   9.105 -1.0631 -0.1599  0.1679
35631SOL    HW2 9211   7.271   6.721   9.245 -0.5856  0.0626 -0.0204
35632SOL     OW 9212  10.213   9.936   2.376 -0.2319  0.0604 -0.0643
35632SOL    HW1 9213  10.185   9.898   2.459  1.5501 -1.1792  0.0384
35632SOL    HW2 9214  10.135   9.979   2.341 -1.6047 -1.2645  1.2144
35633SOL     OW 9215   9.562   3.069   7.122 -0.4109 -0.4767 -0.2866
35633SOL    HW1 9216   9.511   3.053   7.201 -0.0598  1.1724  0.3167
35633SOL    HW2 9217   9.626   3.135   7.148  1.3399 -1.6831 -1.3027
35634SOL     OW 9218  10.454   3.246  10.035 -0.4045  1.1642  0.2391
35634SOL    HW1 9219  10.378   3.288   9.996 -1.3645  0.5358  1.3955
35634SOL    HW2 9220  10.418   3.183  10.097  1.0553  2.1989  2.2387
35635SOL     OW 9221   4.102   7.924   4.793  0.5561 -0.1237  0.0475
35635SOL    HW1 9222   4.126   7.960   4.708  1.4783  0.2620  0.4601
35635SOL    HW2 9223   4.145   7.838   4.796 -0.9048 -0.9286 -0.5656
35636SOL     OW 9224   9.423   6.732   8.111 -0.1038 -0.8775 -0.9347
35636SOL    HW1 9225   9.374   6.714   8.030  0.8800 -1.8931 -1.3203
35636SOL    HW2 9226   9.513   6.746   8.082 -0.3300  2.4998 -0.4023
35637SOL     OW 9227   8.891  10.058   7.924  0.8807  0.2047  0.3300
35637SOL    HW1 9228   8.880  10.115   7.848  0.3398 -0.2685  0.0487
35637SOL    HW2 9229   8.853   9.974   7.897  0.8496 -0.0215  1.0604
35638SOL     OW 9230   3.324   2.069   5.088 -0.0353 -0.1343 -0.2205
35638SOL    HW1 9231   3.266   1.993   5.082 -0.7804  0.4713 -1.0201
35638SOL    HW2 9232   3.341   2.093   4.997  0.6062  0.3534  0.0199
35639SOL     OW 9233   5.652   9.490   4.920 -0.0389  0.4981  0.1091
35639SOL    HW1 9234   5.576   9.453   4.877 -0.3847  1.9131 -0.5604
35639SOL    HW2 9235   5.722   9.426   4.906 -0.2811  0.6609 -2.0853
35640SOL     OW 9236   9.032   3.213   6.890  0.3783 -0.2405 -0.7102
35640SOL    HW1 9237   9.101   3.277   6.905 -0.2024 -0.0862  1.6064
35640SOL    HW2 9238   8.984   3.208   6.973 -1.6160 -1.2813 -1.8389
35641SOL     OW 9239   0.099   9.788   5.272 -0.0910  0.0184 -0.0959
35641SOL    HW1 9240   0.136   9.701   5.261 -0.0768 -0.1422  1.1041
35641SOL    HW2 9241   0.037   9.779   5.344 -2.4261  0.3009 -1.9353
35642SOL     OW 9242   9.896  10.163   5.521 -0.1288  0.0923  0.0182
35642SOL    HW1 9243   9.868  10.090   5.467 -1.6571 -0.2372  1.1864
35642SOL    HW2 9244   9.882  10.241   5.467  0.4075 -0.3821 -0.8102
35643SOL     OW 9245   1.399   4.402   2.645  0.3705  0.0437 -0.1524
35643SOL    HW1 9246   1.309   4.429   2.629  0.2840 -0.3259 -0.3050
35643SOL    HW2 9247   1.391   4.322   2.697  0.6197  0.2561  0.2165
35644SOL     OW 9248   6.698   7.828   2.759  0.3740 -0.1605 -0.5234
35644SOL    HW1 9249   6.790   7.847   2.742  0.2693  1.2977  0.3892
35644SOL    HW2 9250   6.650   7.897   2.714 -0.1392  0.4842  0.9435
35645SOL     OW 9251   7.201   5.177   9.834  0.2318  0.2973  0.1788
35645SOL    HW1 9252   7.194   5.255   9.779 -0.6328 -1.8822 -3.1157
35645SOL    HW2 9253   7.288   5.142   9.816  0.1307 -0.1813  0.6001
35646SOL     OW 9254   6.255   1.542   4.536  0.1933  0.1540 -0.4003
35646SOL    HW1 9255   6.330   1.564   4.481  1.2912 -0.2951  0.8517
35646SOL    HW2 9256   6.234   1.624   4.580  1.9946 -0.3451  1.5731
35647SOL     OW 9257   1.642   8.953   4.011 -0.2734  0.5634 -0.3782
35647SOL    HW1 9258   1.721   8.981   3.966  0.8320 -0.0982  1.0985
35647SOL    HW2 9259   1.672   8.909   4.090 -2.1194  1.3703  0.8731
35648SOL     OW 9260   1.035   2.716   5.852  0.3003 -0.4990 -0.4002
35648SOL    HW1 9261   1.004   2.632   5.885 -0.4900 -0.6649 -1.5409
35648SOL    HW2 9262   0.964   2.749   5.798  1.1230  0.2946 -1.0277
35649SOL     OW 9263   2.358   7.878   9.494 -0.2388  0.3924 -0.3587
35649SOL    HW1 9264   2.421   7.898   9.425 -0.1735 -0.0354 -0.4249
35649SOL    HW2 9265   2.373   7.786   9.514 -1.4958 -0.0014 -1.0783
35650SOL     OW 9266   1.066   8.754   7.431  0.3413 -0.1819  0.6178
35650SOL    HW1 9267   1.084   8.773   7.523  0.8471  0.9103  0.3058
35650SOL    HW2 9268   1.000   8.684   7.434  0.7114 -0.5109  1.7983
35651SOL     OW 9269   5.972   8.032   3.422  0.2403  0.5822 -0.2161
35651SOL    HW1 9270   5.968   8.050   3.328  0.4823  0.1175 -0.3190
35651SOL    HW2 9271   5.881   8.021   3.448  0.2369 -0.5140 -0.6443
35652SOL     OW 9272   6.530   9.880   5.839  0.1972  0.2332  0.1538
35652SOL    HW1 9273   6.484   9.911   5.761  0.1631  1.8414  0.7740
35652SOL    HW2 9274   6.562   9.793   5.815 -1.8325 -0.3163 -0.8178
35653SOL     OW 9275   2.337   4.305   3.647 -0.6470  0.2445  0.4847
35653SOL    HW1 9276   2.365   4.311   3.738 -0.2507  0.2512  0.3637
35653SOL    HW2 9277   2.312   4.395   3.623 -1.2147  0.1586  0.7285
35654SOL     OW 9278   4.358   8.849   3.881  0.0283 -0.4110  0.6607
35654SOL    HW1 9279   4.306   8.929   3.870 -0.1814 -0.8334 -1.9031
35654SOL    HW2 9280   4.330   8.814   3.966 -2.5893  0.2903  0.1741
35655SOL     OW 9281   3.592   0.953   1.762 -0.0625 -0.2141 -0.4012
35655SOL    HW1 9282   3.593   0.864   1.796 -1.9222 -0.0483  0.2050
35655SOL    HW2 9283   3.544   0.946   1.680 -1.0524  0.3658  0.1182
35656SOL     OW 9284   5.503   6.905   4.499  0.1907 -0.0830 -0.2659
35656SOL    HW1 9285   5.488   6.953   4.417  0.7320  1.1968  0.3515
35656SOL    HW2 9286   5.415   6.894   4.536  0.1387  1.6529  0.2224
35657SOL     OW 9287  10.592   1.448   0.283  0.7181  0.0014  0.0504
35657SOL    HW1 9288  10.524   1.383   0.266 -0.7326  1.7341 -1.2069
35657SOL    HW2 9289  10.570   1.484   0.368 -0.5827  1.1994 -0.7407
35658SOL     OW 9290   0.104   2.013   3.122  0.1865  0.1035 -0.3403
35658SOL    HW1 9291   0.181   1.960   3.141  0.4819  0.7626  0.3389
35658SOL    HW2 9292   0.031   1.951   3.127  0.8511 -1.3639 -4.4633
35659SOL     OW 9293   7.126   1.350  10.430 -0.4370 -0.1960 -0.5604
35659SOL    HW1 9294   7.113   1.386  10.342  0.7280 -0.1171 -0.7157
35659SOL    HW2 9295   7.130   1.426  10.487 -0.7364 -0.2218 -0.5070
35660SOL     OW 9296   0.897   4.358   2.674 -0.5847  0.5088 -0.3357
35660SOL    HW1 9297   0.961   4.390   2.738 -1.5962  0.8552  0.5327
35660SOL    HW2 9298   0.836   4.431   2.663 -1.3022 -0.1071 -0.5194
35661SOL     OW 9299   3.337   1.838   5.952  0.4311  0.6975 -0.2773
35661SOL    HW1 9300   3.375   1.804   6.033  0.2687  0.8764 -0.1254
35661SOL    HW2 9301   3.409   1.838   5.889  0.6785  1.0090  0.0020
35662SOL     OW 9302   2.787   9.136   3.668  0.5181 -0.0529 -0.4501
35662SOL    HW1 9303   2.883   9.140   3.667  0.6145  1.0260  2.6276
35662SOL    HW2 9304   2.759   9.227   3.679 -0.8589 -0.3980 -0.9034
35663SOL     OW 9305   3.989  10.108   8.506  0.4593  0.0643  0.9441
35663SOL    HW1 9306   3.930  10.182   8.490  0.8192  0.0837 -0.4307
35663SOL    HW2 9307   4.007  10.111   8.600 -0.6340  0.8790  1.1472
35664SOL     OW 9308   8.171   5.436   2.583  0.1103 -0.0935  0.1559
35664SOL    HW1 9309   8.212   5.404   2.503 -1.8620 -0.3397 -0.8009
35664SOL    HW2 9310   8.157   5.358   2.636  3.3542  0.2644  1.8083
35665SOL     OW 9311   7.746   0.045   8.148  0.3570  0.0497 -0.3583
35665SOL    HW1 9312   7.827   0.095   8.140  1.0201 -1.0119 -0.5172
35665SOL    HW2 9313   7.773  -0.046   8.135 -0.5699 -0.5227  1.3988
35666SOL     OW 9314   6.759   8.783   3.993 -0.0321  0.1974 -0.0163
35666SOL    HW1 9315   6.740   8.689   3.994 -1.5118  0.4597  0.3310
35666SOL    HW2 9316   6.739   8.811   3.904  2.3506 -0.1192 -0.7224
35667SOL     OW 9317   5.321   9.354   0.709  0.4448  0.0709 -0.1060
35667SOL    HW1 9318   5.334   9.367   0.615  1.1759 -2.0636 -0.3549
35667SOL    HW2 9319   5.289   9.264   0.716 -1.1042  0.6991  1.6067
35668SOL     OW 9320  10.247   4.290   3.893 -0.0981 -0.6426 -0.0115
35668SOL    HW1 9321  10.325   4.298   3.839 -0.2232  2.3952  0.0756
35668SOL    HW2 9322  10.279   4.253   3.976  0.8387 -1.4099 -0.7003
35669SOL     OW 9323   5.140   4.812   7.050 -0.2479 -0.2965  0.4772
35669SOL    HW1 9324   5.092   4.834   7.129 -0.5228 -0.0686  0.2460
35669SOL    HW2 9325   5.191   4.734   7.074 -0.8058 -0.5981  0.6906
35670SOL     OW 9326   6.202  10.397   9.845  0.0584  0.6346  0.3078
35670SOL    HW1 9327   6.171  10.429   9.760 -1.3544 -2.2941 -0.3770
35670SOL    HW2 9328   6.282  10.349   9.825 -0.5128 -0.4370  0.5315
35671SOL     OW 9329   7.789   3.707   8.074  0.0180 -0.8149  0.0570
35671SOL    HW1 9330   7.724   3.766   8.035  0.9532 -0.8216 -1.6298
35671SOL    HW2 9331   7.762   3.697   8.165 -1.7296  0.0126 -0.3375
35672SOL     OW 9332   1.137   6.375   8.281 -0.6767  0.1930  0.0037
35672SOL    HW1 9333   1.206   6.391   8.217 -0.1527  1.3756  0.8424
35672SOL    HW2 9334   1.073   6.322   8.234  0.1308  0.2644 -1.2131
35673SOL     OW 9335   7.835   3.705   8.767  0.4815 -1.3498  0.0442
35673SOL    HW1 9336   7.839   3.640   8.838 -0.0285 -0.3649  0.9959
35673SOL    HW2 9337   7.752   3.749   8.779 -0.6274 -2.5476 -2.4598
35674SOL     OW 9338   0.706   5.282   4.381 -0.2131  0.4801  0.6469
35674SOL    HW1 9339   0.712   5.362   4.330  0.1416 -0.6369 -1.1268
35674SOL    HW2 9340   0.702   5.211   4.316  2.5270 -1.1981  2.0993
35675SOL     OW 9341   7.058   3.599   7.627 -0.2338 -0.6054  0.2707
35675SOL    HW1 9342   7.052   3.528   7.690 -0.3552  0.3452  1.3667
35675SOL    HW2 9343   7.124   3.658   7.664 -0.3366 -0.0087 -0.4702
35676SOL     OW 9344   4.151   3.119   4.460  0.6946  0.2941  0.2183
35676SOL    HW1 9345   4.142   3.214   4.462 -0.6774  0.1630  0.6728
35676SOL    HW2 9346   4.203   3.102   4.381 -0.5956  1.3102 -0.8998
35677SOL     OW 9347   9.006   1.457   8.215 -0.2903  0.3580 -0.4610
35677SOL    HW1 9348   8.995   1.535   8.162  3.7810  2.4988  1.4198
35677SOL    HW2 9349   8.973   1.482   8.302 -0.7035 -0.7572 -0.2745
35678SOL     OW 9350   3.047   9.576   6.849  0.1481  0.1776  0.4633
35678SOL    HW1 9351   3.063   9.571   6.755  0.7027 -2.1726  0.6198
35678SOL    HW2 9352   3.119   9.629   6.883 -0.3946  1.5594 -0.4735
35679SOL     OW 9353   9.369   4.608   7.274  0.0790  0.0092 -0.4419
35679SOL    HW1 9354   9.382   4.645   7.187 -0.3909 -1.3580 -1.1293
35679SOL    HW2 9355   9.457   4.594   7.309  0.3536 -1.7280 -1.7351
35680SOL     OW 9356   3.873   9.232   3.851  0.1330  0.2266 -0.0270
35680SOL    HW1 9357   3.867   9.168   3.780  0.9196  1.4384 -1.2381
35680SOL    HW2 9358   3.783   9.241   3.884 -0.4873  0.5333 -1.7129
35681SOL     OW 9359   3.890  10.069   3.725 -0.3779  0.3960  0.5623
35681SOL    HW1 9360   3.985  10.080   3.735  0.5166 -3.8657 -1.2603
35681SOL    HW2 9361   3.861  10.034   3.809  0.4513 -1.7296  0.0242
35682SOL     OW 9362   3.445  10.335   0.377 -0.1880  0.0077 -0.2844
35682SOL    HW1 9363   3.521  10.288   0.410 -0.4742  0.1669  0.6195
35682SOL    HW2 9364   3.393  10.356   0.454 -0.4972  1.0527 -0.7433
35683SOL     OW 9365   2.651   7.443   3.038  0.1840  0.1072 -0.5548
35683SOL    HW1 9366   2.742   7.423   3.061 -0.4373 -2.0647  0.2819
35683SOL    HW2 9367   2.599   7.398   3.104 -1.5459  2.7279  0.0259
35684SOL     OW 9368   1.972   8.685  10.274  0.5667  0.0405  0.2426
35684SOL    HW1 9369   1.889   8.698  10.320  0.6841  0.2888  0.3854
35684SOL    HW2 9370   1.947   8.649  10.189  0.2827  0.4459  0.1479
35685SOL     OW 9371   2.880   0.932   1.771  0.7540 -0.4662 -0.1637
35685SOL    HW1 9372   2.940   1.006   1.762 -0.0820  0.3074  0.3158
35685SOL    HW2 9373   2.864   0.926   1.866 -2.0755  1.2162 -0.3918
35686SOL     OW 9374   4.480   9.843   3.479 -0.0231 -0.4030  0.6302
35686SOL    HW1 9375   4.437   9.924   3.505 -0.3434 -0.6651  0.9170
35686SOL    HW2 9376   4.476   9.843   3.383  0.8274  0.3806  0.5826
35687SOL     OW 9377   6.360   9.831   3.159  0.4624  0.7133  0.2696
35687SOL    HW1 9378   6.267   9.813   3.147  0.0701  2.8974 -0.4365
35687SOL    HW2 9379   6.376   9.909   3.106  2.8521  0.0394 -0.1134
35688SOL     OW 9380   7.169  10.583   7.308 -0.4558  0.2441  0.4952
35688SOL    HW1 9381   7.154  10.587   7.214 -2.0684 -0.5840  0.6860
35688SOL    HW2 9382   7.095  10.628   7.347  0.3926  0.9264  1.3855
35689SOL     OW 9383   7.422   0.296   7.887 -0.2777 -0.6764  0.1228
35689SOL    HW1 9384   7.469   0.375   7.862 -1.0364  0.5022  2.1595
35689SOL    HW2 9385   7.329   0.320   7.882 -0.5862 -1.8972 -0.5745
35690SOL     OW 9386   4.089   9.002   8.759  0.4374  0.1420  0.6254
35690SOL    HW1 9387   4.156   9.048   8.809 -0.1393  1.0872  0.5541
35690SOL    HW2 9388   4.099   9.034   8.670  2.5449 -2.7462 -0.3131
35691SOL     OW 9389   8.896   2.596   5.170  0.0995  0.7999 -0.2974
35691SOL    HW1 9390   8.965   2.543   5.209 -0.1195  0.7338  0.0000
35691SOL    HW2 9391   8.911   2.588   5.075 -1.5005 -1.9719 -0.4178
35692SOL     OW 9392   7.362   2.256   7.994  0.3160  0.4934 -0.5554
35692SOL    HW1 9393   7.415   2.205   8.056 -2.3358 -0.7236  0.8461
35692SOL    HW2 9394   7.352   2.341   8.037  0.2870  0.3814 -0.3364
35693SOL     OW 9395   8.872   3.615   2.840  0.6968  0.1663  0.1175
35693SOL    HW1 9396   8.801   3.570   2.794  1.6166 -0.4218 -0.7908
35693SOL    HW2 9397   8.838   3.632   2.927  0.3080 -2.3586  0.5330
35694SOL     OW 9398   2.691   1.667  10.141  0.1033 -0.3772  0.1960
35694SOL    HW1 9399   2.694   1.572  10.139 -0.7121 -0.3999 -1.5376
35694SOL    HW2 9400   2.748   1.691  10.214  0.3353 -2.1730  0.6580
35695SOL     OW 9401   5.472   1.603   9.476  0.3622 -0.1116 -0.1925
35695SOL    HW1 9402   5.414   1.679   9.475  0.1882 -0.2385 -1.2459
35695SOL    HW2 9403   5.528   1.614   9.399  1.3903 -0.2616  0.5155
35696SOL     OW 9404   5.262   3.818   2.663  0.3869  0.3657 -0.1788
35696SOL    HW1 9405   5.295   3.781   2.744  1.5822  0.4725 -0.6054
35696SOL    HW2 9406   5.166   3.811   2.671  0.5214 -1.1065  0.5377
35697SOL     OW 9407   9.051   1.186   6.944 -0.4907 -0.0678  0.2646
35697SOL    HW1 9408   9.089   1.167   6.859  1.2163  0.2932  0.9066
35697SOL    HW2 9409   8.993   1.112   6.962  0.5372 -1.0746 -0.4117
35698SOL     OW 9410   2.485   0.434   9.908  0.0442  0.2257  0.1372
35698SOL    HW1 9411   2.486   0.508   9.847  0.7369 -0.1771 -0.3494
35698SOL    HW2 9412   2.575   0.429   9.942  0.3894 -1.2615 -0.9101
35699SOL     OW 9413   9.965   4.693   4.938 -0.2586  0.0523  0.3767
35699SOL    HW1 9414   9.875   4.663   4.952  0.1152 -1.2407  0.1670
35699SOL    HW2 9415  10.002   4.700   5.026 -0.4321  0.1844  0.4409
35700SOL     OW 9416   2.599   2.399  10.586  0.4420  0.0024  0.0979
35700SOL    HW1 9417   2.559   2.326  10.539  0.5844  0.3375 -0.5562
35700SOL    HW2 9418   2.580   2.382  10.678  0.5481 -0.9065 -0.0388
35701SOL     OW 9419   7.770   9.051   6.155 -0.9868 -0.1209  0.4013
35701SOL    HW1 9420   7.676   9.067   6.165 -1.0134 -0.1230  0.1625
35701SOL    HW2 9421   7.782   9.038   6.061 -0.2220  3.3786 -0.1324
35702SOL     OW 9422   9.995   2.876   9.199 -0.0506 -0.0006  0.4243
35702SOL    HW1 9423   9.911   2.843   9.228  0.0280 -1.2290 -0.6368
35702SOL    HW2 9424  10.015   2.826   9.120  1.2097  0.9614  0.0859
35703SOL     OW 9425   2.543   9.378  10.434  0.1093  0.7520  0.0109
35703SOL    HW1 9426   2.557   9.283  10.442 -1.4835  0.5026  0.2869
35703SOL    HW2 9427   2.584   9.415  10.512  1.1466  0.3520 -0.3318
35704SOL     OW 9428   5.250   3.483   7.461 -0.3581  0.2918  0.9022
35704SOL    HW1 9429   5.283   3.459   7.547  0.0562 -1.0244  0.4010
35704SOL    HW2 9430   5.216   3.572   7.472  2.5004  1.3987  1.6546
35705SOL     OW 9431   0.339   5.719   6.762  0.2426  0.2103  0.1801
35705SOL    HW1 9432   0.415   5.735   6.706 -0.5330 -0.1126 -0.9878
35705SOL    HW2 9433   0.269   5.696   6.702 -0.1158 -2.1708  1.3809
35706SOL     OW 9434   9.023   9.575   2.765 -0.1524 -0.1568  0.5382
35706SOL    HW1 9435   9.013   9.670   2.774  1.2992 -0.1503  2.6634
35706SOL    HW2 9436   8.943   9.539   2.801 -0.1536  0.2264  0.9261
35707SOL     OW 9437  10.224   8.702   6.232  0.0984  0.2523  0.1012
35707SOL    HW1 9438  10.163   8.775   6.221  0.5664  0.6082 -0.1566
35707SOL    HW2 9439  10.288   8.713   6.161 -0.6744 -1.2631 -0.8750
35708SOL     OW 9440   7.024   9.173   5.483  0.0241 -0.1917  0.2714
35708SOL    HW1 9441   7.057   9.244   5.537  0.3848  0.5310 -0.8874
35708SOL    HW2 9442   7.081   9.098   5.504  0.2388  0.1139  0.7892
35709SOL     OW 9443   5.227   5.537   2.321  0.4370 -0.0793 -0.2449
35709SOL    HW1 9444   5.156   5.602   2.318 -0.4967 -1.0871 -0.5229
35709SOL    HW2 9445   5.268   5.552   2.407 -0.3788  0.2469  0.1026
35710SOL     OW 9446   8.501   7.775   7.737  0.5558  0.4078 -0.4516
35710SOL    HW1 9447   8.595   7.771   7.722  0.8700 -0.0685  1.4524
35710SOL    HW2 9448   8.480   7.692   7.781 -0.5628  0.9588  0.1054
35711SOL     OW 9449  10.052   0.339   4.134  0.2866 -0.1764  0.2367
35711SOL    HW1 9450  10.029   0.308   4.221 -1.0286  0.8486  0.2917
35711SOL    HW2 9451  10.124   0.400   4.148 -1.4590  1.8464  0.9666
35712SOL     OW 9452   3.516   5.526   8.119 -0.2168  0.1170  0.0792
35712SOL    HW1 9453   3.552   5.445   8.083  0.0580  0.2491  0.0491
35712SOL    HW2 9454   3.593   5.576   8.147 -0.3779  0.4145 -0.0033
35713SOL     OW 9455   8.882   8.807   1.627 -0.0893  0.0858  0.1527
35713SOL    HW1 9456   8.823   8.826   1.554 -0.9775  0.9751  1.0689
35713SOL    HW2 9457   8.882   8.711   1.633 -0.8110  0.0457 -0.3561
35714SOL     OW 9458   6.314   9.871   6.444  0.1090 -0.9524  0.7392
35714SOL    HW1 9459   6.397   9.823   6.441  2.6185  3.0131 -0.5918
35714SOL    HW2 9460   6.292   9.886   6.352 -1.4172 -0.8091  1.1096
35715SOL     OW 9461   5.352   1.909   0.663  0.7767  0.0412 -0.2410
35715SOL    HW1 9462   5.389   1.828   0.630  0.7986  0.5996 -1.6476
35715SOL    HW2 9463   5.396   1.923   0.747  0.0461 -1.8883  0.5287
35716SOL     OW 9464   1.901   3.907   6.699 -0.0512  0.3644  0.1099
35716SOL    HW1 9465   1.957   3.887   6.775 -1.6765 -0.9194  1.0383
35716SOL    HW2 9466   1.812   3.891   6.731 -0.8923  1.3789 -1.6191
35717SOL     OW 9467   2.007   8.018   7.743 -0.0943 -0.0399  0.0777
35717SOL    HW1 9468   2.087   8.002   7.693 -0.7333  0.6045 -1.2114
35717SOL    HW2 9469   2.033   8.008   7.835  1.3745 -0.1854 -0.3302
35718SOL     OW 9470  10.031   6.104   6.160  0.1857 -0.1830  0.0374
35718SOL    HW1 9471  10.109   6.153   6.184  0.4851 -1.0115  0.8267
35718SOL    HW2 9472  10.004   6.060   6.241 -1.7401  0.9458  0.0847
35719SOL     OW 9473   9.997   8.862   4.421 -0.8290 -0.0832 -0.1052
35719SOL    HW1 9474   9.917   8.914   4.424  0.5039  2.1432 -0.3163
35719SOL    HW2 9475  10.023   8.854   4.513 -0.2325  1.0684 -0.1453
35720SOL     OW 9476   0.874   3.277   8.537 -0.5809  0.4165  0.3425
35720SOL    HW1 9477   0.948   3.234   8.581 -0.3655  0.7091  0.2627
35720SOL    HW2 9478   0.830   3.325   8.607 -0.2252  0.9002  0.2363
35721SOL     OW 9479   9.872   7.090   7.168  0.5333 -0.0892  0.5923
35721SOL    HW1 9480   9.823   7.062   7.245  1.4515 -0.3951  1.0693
35721SOL    HW2 9481   9.953   7.040   7.171  1.3480  1.1818  0.3931
35722SOL     OW 9482   2.622   6.624   9.590  0.0893 -0.1534 -0.3579
35722SOL    HW1 9483   2.543   6.679   9.587  0.4587  0.4380  0.5027
35722SOL    HW2 9484   2.648   6.624   9.682  1.5302  0.3030 -0.7401
35723SOL     OW 9485  10.586   4.743   1.720 -0.1594  0.1870  0.2808
35723SOL    HW1 9486  10.549   4.830   1.732 -1.7799 -0.2054 -1.4136
35723SOL    HW2 9487  10.572   4.699   1.803  0.6110  1.4955  1.1313
35724SOL     OW 9488   4.986   4.166   0.637 -0.4061 -0.0247 -0.0337
35724SOL    HW1 9489   4.905   4.203   0.673 -1.0581 -1.2182 -0.1957
35724SOL    HW2 9490   5.033   4.241   0.601 -1.1739  0.7709  0.5694
35725SOL     OW 9491   6.182   8.940   3.037  0.3745  0.6689  0.6294
35725SOL    HW1 9492   6.213   8.851   3.022  1.6094  1.0588  0.8131
35725SOL    HW2 9493   6.164   8.943   3.131  3.2058  1.4629  1.2100
35726SOL     OW 9494   0.788   1.923   0.076  0.3863 -0.1822 -0.1241
35726SOL    HW1 9495   0.807   1.919  -0.018  0.6734 -2.0846 -0.0350
35726SOL    HW2 9496   0.757   1.835   0.097  1.3336 -0.1007  1.7679
35727SOL     OW 9497   8.614   6.648   8.436 -0.0340  0.2174  0.9351
35727SOL    HW1 9498   8.686   6.594   8.470  1.9537  1.3626 -1.1147
35727SOL    HW2 9499   8.655   6.700   8.367 -2.8527  1.0641 -0.2263
35728SOL     OW 9500   7.314   2.083   5.068  0.3399 -0.3152  0.0813
35728SOL    HW1 9501   7.368   2.124   5.000 -1.9199  0.9255 -1.0628
35728SOL    HW2 9502   7.341   1.991   5.067  1.1010 -0.1172 -1.7741
35729SOL     OW 9503   8.665  10.312   2.236 -0.1820  0.3466 -0.0547
35729SOL    HW1 9504   8.588  10.364   2.216 -0.8683 -0.7638 -0.4121
35729SOL    HW2 9505   8.728  10.374   2.273 -0.9482  1.4130 -0.5064
35730SOL     OW 9506   1.489   4.156   4.677  0.4510  0.0974 -0.1572
35730SOL    HW1 9507   1.513   4.113   4.595  0.3743 -0.1531 -0.0479
35730SOL    HW2 9508   1.399   4.186   4.663 -0.5994 -2.3435  0.7812
35731SOL     OW 9509   2.679  10.590  10.081 -0.1779  0.0248  0.4389
35731SOL    HW1 9510   2.695  10.673  10.036  0.3751 -0.7108 -0.7774
35731SOL    HW2 9511   2.584  10.585  10.089 -0.3957 -0.4360 -1.9099
35732SOL     OW 9512   5.308   6.125   5.853  0.3860 -0.8061 -0.2404
35732SOL    HW1 9513   5.261   6.069   5.915  1.6755 -3.2664 -1.3327
35732SOL    HW2 9514   5.360   6.184   5.908 -0.2705 -1.3464  0.9864
35733SOL     OW 9515  10.309   7.780   3.969  0.6519  0.0260  0.0317
35733SOL    HW1 9516  10.323   7.873   3.986  0.5046  0.3555 -1.4976
35733SOL    HW2 9517  10.374   7.758   3.902  1.8881 -1.4283  1.6239
35734SOL     OW 9518   0.565   0.760   0.345 -0.5505 -0.4421  0.2762
35734SOL    HW1 9519   0.529   0.723   0.265  0.1317 -1.4952  0.4285
35734SOL    HW2 9520   0.653   0.722   0.352 -0.1684  0.5002  0.9439
35735SOL     OW 9521   2.687  10.465   6.933  0.3114 -0.3009  0.0130
35735SOL    HW1 9522   2.708  10.393   6.994 -1.0295  0.6658  1.7236
35735SOL    HW2 9523   2.611  10.434   6.884 -0.3689 -0.0384  0.8655
35736SOL     OW 9524   4.305   7.699   3.799 -0.0973  0.7493  0.0821
35736SOL    HW1 9525   4.336   7.727   3.713  0.9537  2.3025  0.9228
35736SOL    HW2 9526   4.219   7.741   3.808 -1.2029 -1.1422 -1.0282
35737SOL     OW 9527   0.358   6.929   0.567 -0.8067  0.2125  0.2836
35737SOL    HW1 9528   0.421   6.961   0.503 -1.0403  0.1011 -0.0079
35737SOL    HW2 9529   0.274   6.964   0.537 -1.1532 -1.0830 -0.3524
35738SOL     OW 9530   3.846   7.794   8.440  0.5352  0.6859 -0.5201
35738SOL    HW1 9531   3.810   7.810   8.353 -1.0345 -2.6301 -0.6517
35738SOL    HW2 9532   3.941   7.792   8.427  0.3194 -0.2767 -2.2936
35739SOL     OW 9533   2.570  10.405  10.453 -0.0237  0.1812 -0.3106
35739SOL    HW1 9534   2.655  10.446  10.440  0.1746  0.9099  2.6652
35739SOL    HW2 9535   2.512  10.476  10.479 -0.8858 -0.6938  0.2447
35740SOL     OW 9536  10.442   8.125   8.035 -0.0951  0.0150 -0.2594
35740SOL    HW1 9537  10.455   8.043   7.988 -1.3077 -1.0321  1.1427
35740SOL    HW2 9538  10.527   8.169   8.032  1.2321 -2.3340  0.8581
35741SOL     OW 9539   7.559   9.582   0.788 -0.0667  0.1775  0.1526
35741SOL    HW1 9540   7.652   9.576   0.765 -0.7211 -0.0827 -2.8359
35741SOL    HW2 9541   7.548   9.672   0.818  0.9700  0.5851 -0.6136
35742SOL     OW 9542   5.969   2.292   7.501 -0.0812 -0.0588 -0.2508
35742SOL    HW1 9543   6.004   2.322   7.585 -1.3353 -2.9064  1.4375
35742SOL    HW2 9544   6.029   2.223   7.474 -0.6957 -0.4013 -0.7593
35743SOL     OW 9545   3.199   7.524   9.612  0.4852  0.2603  0.0469
35743SOL    HW1 9546   3.261   7.496   9.680  0.0663 -0.2031  0.2492
35743SOL    HW2 9547   3.243   7.501   9.529 -0.4713 -2.5350  0.2083
35744SOL     OW 9548   7.416   9.070   2.466 -0.0723  0.4882  0.0873
35744SOL    HW1 9549   7.448   9.158   2.483 -0.6920  0.6225  0.5897
35744SOL    HW2 9550   7.329   9.083   2.428  0.5914  0.1473 -1.6608
35745SOL     OW 9551   0.550   3.649   3.833  0.6026  0.2071  0.3806
35745SOL    HW1 9552   0.595   3.612   3.757  0.6915  2.2269 -0.6071
35745SOL    HW2 9553   0.522   3.736   3.805  0.3621  0.9012  2.5684
35746SOL     OW 9554   5.552   0.036   7.594  0.6222  0.1276 -0.3759
35746SOL    HW1 9555   5.493   0.056   7.667 -0.6152 -1.0226 -1.0109
35746SOL    HW2 9556   5.605  -0.036   7.626 -0.5768 -1.0317 -0.8816
35747SOL     OW 9557   0.687   6.395   1.028  0.0756  0.0539  0.4380
35747SOL    HW1 9558   0.731   6.397   1.112  0.5652  0.8175  0.1643
35747SOL    HW2 9559   0.621   6.465   1.033  0.8153  0.8156 -0.1879
35748SOL     OW 9560   8.888   2.314   2.298  0.9450  0.0382  0.1137
35748SOL    HW1 9561   8.940   2.392   2.278  0.0055  0.9666  1.1550
35748SOL    HW2 9562   8.920   2.284   2.383  0.5741 -0.0697  0.2180
35749SOL     OW 9563   8.177   1.794   5.165 -0.2182 -0.1070  0.1447
35749SOL    HW1 9564   8.271   1.783   5.150 -0.1270 -0.2983  0.8071
35749SOL    HW2 9565   8.143   1.705   5.169 -0.4883 -0.0312 -0.4445
35750SOL     OW 9566   4.775   4.264   1.066  0.3102 -0.1107  0.4850
35750SOL    HW1 9567   4.787   4.356   1.090 -0.6489 -0.1457  1.1255
35750SOL    HW2 9568   4.811   4.258   0.978  0.5647  0.8327  0.5121
35751SOL     OW 9569   5.859   6.632   0.941 -0.1559 -0.7354  0.2362
35751SOL    HW1 9570   5.798   6.562   0.962 -0.2795 -0.8038 -0.3304
35751SOL    HW2 9571   5.815   6.684   0.874  0.5128 -0.9409 -0.3776
35752SOL     OW 9572   3.977   3.549   6.471 -0.4620 -0.5855 -0.2068
35752SOL    HW1 9573   3.993   3.526   6.562  2.2370  0.0436 -0.4333
35752SOL    HW2 9574   3.910   3.487   6.442  0.3528 -2.3955  1.5356
35753SOL     OW 9575   7.284   2.914   5.847  0.1271  0.0850 -0.0868
35753SOL    HW1 9576   7.368   2.870   5.850  1.3301  2.1357 -1.4344
35753SOL    HW2 9577   7.258   2.913   5.755 -0.6986  0.5843  0.1193
35754SOL     OW 9578   1.596   5.866   0.591  0.0885 -0.0818 -0.1663
35754SOL    HW1 9579   1.626   5.835   0.677 -1.3959 -0.8146  0.1167
35754SOL    HW2 9580   1.586   5.961   0.602 -0.1085 -0.1730  0.4909
35755SOL     OW 9581   2.662   0.874   2.330 -0.0188  0.0534  0.4582
35755SOL    HW1 9582   2.578   0.831   2.340 -0.3275  0.5469  0.0494
35755SOL    HW2 9583   2.727   0.805   2.343 -0.5191 -0.7139 -0.9444
35756SOL     OW 9584   0.604   5.040   3.432  0.2719 -0.3678 -0.2384
35756SOL    HW1 9585   0.539   5.059   3.363  1.1257  1.3833 -0.6165
35756SOL    HW2 9586   0.605   5.119   3.486  0.6350 -1.1837  0.9797
35757SOL     OW 9587   6.187   4.794   5.217 -0.2224  0.2164  0.0364
35757SOL    HW1 9588   6.259   4.849   5.185 -1.4500  0.6019 -2.2731
35757SOL    HW2 9589   6.121   4.856   5.247  0.2341 -0.1370  1.9242
35758SOL     OW 9590   4.970   1.130   9.300 -0.9681  0.0921 -0.0268
35758SOL    HW1 9591   4.919   1.193   9.352 -0.1146 -0.7411  1.9352
35758SOL    HW2 9592   5.053   1.173   9.284 -0.6353 -0.2489  0.7293
35759SOL     OW 9593   8.573   9.889   5.782 -0.4318 -0.0018  0.1163
35759SOL    HW1 9594   8.577   9.832   5.706 -0.1116  1.8342 -1.3207
35759SOL    HW2 9595   8.658   9.878   5.825 -0.1961 -0.2388 -0.4052
35760SOL     OW 9596   6.454   6.024   9.141  0.2613  0.5331 -0.1249
35760SOL    HW1 9597   6.491   5.940   9.166  0.1098  0.5612  0.2024
35760SOL    HW2 9598   6.389   6.043   9.209  1.8210  1.9522  1.0622
35761SOL     OW 9599   6.158   7.800   6.281  0.5079  0.3591 -0.4027
35761SOL    HW1 9600   6.096   7.818   6.352  1.2187  0.8432  0.1085
35761SOL    HW2 9601   6.159   7.879   6.228 -0.0661 -0.0250 -0.9958
35762SOL     OW 9602   4.926   2.855   5.356 -0.2667 -0.6989 -0.2865
35762SOL    HW1 9603   4.889   2.942   5.372 -0.0908 -0.3133 -1.8602
35762SOL    HW2 9604   4.881   2.798   5.418  0.1821  0.6258  1.3268
35763SOL     OW 9605   4.870   9.196   1.578  0.0245 -0.0747  0.6746
35763SOL    HW1 9606   4.797   9.247   1.543  0.0710  0.4908  1.3874
35763SOL    HW2 9607   4.930   9.261   1.614 -0.0472 -0.6335  1.8554
35764SOL     OW 9608   7.472   5.237   9.328  0.1711 -0.5941  0.4631
35764SOL    HW1 9609   7.387   5.209   9.294 -0.3188  0.7998  0.4785
35764SOL    HW2 9610   7.457   5.326   9.358  0.8656 -1.3614  3.3636
35765SOL     OW 9611   5.355   6.036   6.973  0.3705 -0.4775  0.0821
35765SOL    HW1 9612   5.432   6.038   7.031  0.0706 -3.0860  0.6678
35765SOL    HW2 9613   5.384   5.988   6.896  0.2092  1.3687 -1.2041
35766SOL     OW 9614   4.881   5.836  10.096  1.2381 -0.5366 -0.6376
35766SOL    HW1 9615   4.869   5.814  10.004  1.3252  1.8386 -1.2846
35766SOL    HW2 9616   4.968   5.803  10.117 -0.1047 -4.3824 -0.2360
35767SOL     OW 9617   9.011   1.510   7.570 -0.3067  0.0599  0.3753
35767SOL    HW1 9618   8.953   1.584   7.591 -0.4314 -0.3001  1.3823
35767SOL    HW2 9619   8.995   1.447   7.641  1.5673  0.0919  0.8640
35768SOL     OW 9620   4.713   9.831   4.414  0.7657  0.3285 -0.4801
35768SOL    HW1 9621   4.655   9.898   4.378 -1.0953 -0.5489  0.7162
35768SOL    HW2 9622   4.750   9.787   4.337 -0.7636  0.4254 -1.3081
35769SOL     OW 9623   2.750   8.267   0.131 -0.5305  0.6195  0.0240
35769SOL    HW1 9624   2.793   8.182   0.143  2.5693  2.0953  0.3270
35769SOL    HW2 9625   2.707   8.260   0.045 -1.2483 -1.5421  0.4952
35770SOL     OW 9626   5.650   2.049   6.759  0.6660 -0.2560  0.2803
35770SOL    HW1 9627   5.663   2.089   6.673 -1.4598  0.0865  0.0434
35770SOL    HW2 9628   5.557   2.065   6.778  0.3664 -2.8035  1.3385
35771SOL     OW 9629   1.312   2.772  10.283  0.5748 -0.0184 -0.5193
35771SOL    HW1 9630   1.306   2.844  10.221  0.6631  0.5788  0.1586
35771SOL    HW2 9631   1.221   2.746  10.298  0.4919  0.4477 -0.1964
35772SOL     OW 9632   4.320   6.181   7.672  0.0212 -0.1428  0.0038
35772SOL    HW1 9633   4.249   6.240   7.695 -1.8758 -3.1250  2.7295
35772SOL    HW2 9634   4.276   6.102   7.641  2.0862 -1.8527  1.1243
35773SOL     OW 9635   5.382   4.595   9.037  0.2412  0.2971 -0.0274
35773SOL    HW1 9636   5.452   4.539   9.070  0.4030  0.1416 -0.6246
35773SOL    HW2 9637   5.303   4.563   9.081  0.0437 -1.5305 -1.5931
35774SOL     OW 9638   9.035   0.013   3.092  0.2306 -0.1574 -0.0128
35774SOL    HW1 9639   9.118   0.033   3.136 -0.3458 -0.2683  1.1557
35774SOL    HW2 9640   8.969   0.063   3.141 -0.4614 -0.4240 -0.6482
35775SOL     OW 9641   1.564   7.326   3.428 -0.5913 -0.6205  0.0294
35775SOL    HW1 9642   1.660   7.322   3.429 -0.6091 -1.7615 -0.8222
35775SOL    HW2 9643   1.543   7.405   3.478  0.8086 -0.0202 -0.2788
35776SOL     OW 9644   2.922   9.270   2.084  0.4174  0.4014 -0.0466
35776SOL    HW1 9645   2.936   9.343   2.024 -0.6583  0.0134 -0.8084
35776SOL    HW2 9646   2.987   9.205   2.058  1.0166  0.8636  0.2751
35777SOL     OW 9647   8.747   6.988   2.454 -0.4961 -0.1914  0.4797
35777SOL    HW1 9648   8.690   6.944   2.516 -1.1063  0.3920  0.3514
35777SOL    HW2 9649   8.817   6.925   2.436 -0.8531 -0.7422  0.9874
35778SOL     OW 9650   6.935   5.854   1.692 -0.4360  0.9539 -0.3412
35778SOL    HW1 9651   6.874   5.794   1.734  0.4717  1.2842  1.5424
35778SOL    HW2 9652   6.885   5.934   1.677 -1.3811  0.1111 -1.9926
35779SOL     OW 9653   8.005   0.770   4.671 -0.1597  0.7898  0.2714
35779SOL    HW1 9654   7.928   0.824   4.654 -0.5250  0.5311  1.0872
35779SOL    HW2 9655   7.972   0.693   4.717  0.8243  1.6562  2.5509
35780SOL     OW 9656   6.235   4.338   1.074  0.1304 -0.6149 -0.3213
35780SOL    HW1 9657   6.178   4.323   0.998  0.1549 -2.2641 -0.0651
35780SOL    HW2 9658   6.298   4.403   1.044 -0.4578 -0.5173 -1.4009
35781SOL     OW 9659  10.157   9.785   5.415 -0.0423 -0.2792  0.6198
35781SOL    HW1 9660  10.062   9.772   5.416  0.0661 -1.0951  0.6383
35781SOL    HW2 9661  10.193   9.700   5.393  0.8102 -0.7693  3.4746
35782SOL     OW 9662   1.147   9.101   5.915 -0.4284  0.4532 -0.3018
35782SOL    HW1 9663   1.222   9.070   5.864  0.6830  1.1919  0.8475
35782SOL    HW2 9664   1.087   9.026   5.917  0.3035 -0.1770 -1.1622
35783SOL     OW 9665   2.808   6.418   4.714 -0.1977 -0.3716 -0.0414
35783SOL    HW1 9666   2.892   6.391   4.752  0.0029  1.1868  0.7345
35783SOL    HW2 9667   2.831   6.460   4.631 -0.2182 -0.1625  0.0564
35784SOL     OW 9668   9.226   5.237   9.084 -0.2451  0.3263  0.5300
35784SOL    HW1 9669   9.242   5.326   9.054  1.1698  0.4505  1.5845
35784SOL    HW2 9670   9.304   5.188   9.059 -0.4343 -0.3068  1.1297
35785SOL     OW 9671   7.526  10.534   2.681 -0.2654 -0.1088 -0.6637
35785SOL    HW1 9672   7.616  10.549   2.710 -0.6569  0.0434  0.5120
35785SOL    HW2 9673   7.535  10.480   2.602  0.9953  2.3534 -2.3560
35786SOL     OW 9674   4.175   6.412   8.214 -0.2207 -0.0000 -0.8129
35786SOL    HW1 9675   4.164   6.420   8.308 -2.1061  2.2146 -1.1345
35786SOL    HW2 9676   4.267   6.388   8.203 -0.2463 -1.5085  1.5815
35787SOL     OW 9677   6.129   1.868   5.646 -0.5147  0.0600 -0.0755
35787SOL    HW1 9678   6.062   1.800   5.652 -0.7513  0.1739 -1.2778
35787SOL    HW2 9679   6.082   1.950   5.657 -0.7831  0.2072 -2.0018
35788SOL     OW 9680   9.855   2.156   7.854 -0.3536  0.4208  0.2558
35788SOL    HW1 9681   9.835   2.158   7.948 -2.3174 -2.7186  0.0361
35788SOL    HW2 9682   9.777   2.192   7.812 -0.4733 -0.3526 -0.2099
35789SOL     OW 9683  10.278   3.212   8.739  0.1571 -0.6561  0.6695
35789SOL    HW1 9684  10.305   3.277   8.674 -0.2061 -1.3318 -0.1739
35789SOL    HW2 9685  10.295   3.128   8.697 -1.0502 -1.1036  1.0420
35790SOL     OW 9686   9.557   8.395  10.236  0.0709  0.8015 -0.3270
35790SOL    HW1 9687   9.488   8.341  10.276  0.7690  0.2020  0.0953
35790SOL    HW2 9688   9.559   8.475  10.288  1.3771 -0.2116  1.2903
35791SOL     OW 9689   6.039   8.644   0.770  0.0235 -0.5561  0.2293
35791SOL    HW1 9690   5.969   8.626   0.707  0.3624 -0.0388 -0.3136
35791SOL    HW2 9691   6.050   8.563   0.819 -0.5575 -0.8203 -0.0781
35792SOL     OW 9692   4.370   1.790  10.523  0.1575 -0.0773 -0.1962
35792SOL    HW1 9693   4.430   1.727  10.563  0.2660  0.6872  0.8697
35792SOL    HW2 9694   4.424   1.866  10.501  0.1876 -0.6111 -2.2256
35793SOL     OW 9695  10.132   4.758   4.714 -0.0713 -0.3834 -0.0926
35793SOL    HW1 9696  10.101   4.724   4.799 -1.1983 -0.7835 -0.6435
35793SOL    HW2 9697  10.171   4.683   4.671 -0.5082 -0.4561 -0.3741
35794SOL     OW 9698   0.810   2.968   8.939 -0.9746 -0.2189  0.2726
35794SOL    HW1 9699   0.732   2.940   8.988 -1.3256  2.1705  1.1912
35794SOL    HW2 9700   0.856   3.027   8.998 -0.2840  1.1298 -1.5141
35795SOL     OW 9701   6.363   5.719   0.230 -0.4250 -0.8712 -0.3866
35795SOL    HW1 9702   6.429   5.688   0.292 -0.7377  1.1293  1.0626
35795SOL    HW2 9703   6.280   5.689   0.266 -0.7076  1.1949  0.8919
35796SOL     OW 9704   6.310   1.368   6.313  0.2356  0.1204 -0.0424
35796SOL    HW1 9705   6.385   1.421   6.341  0.2234 -0.0788  0.3832
35796SOL    HW2 9706   6.270   1.339   6.395 -0.5338  0.5323 -0.2630
35797SOL     OW 9707   9.360   0.140   8.960  0.0233  0.3971 -0.0166
35797SOL    HW1 9708   9.331   0.228   8.937  0.5847  0.7448  0.5661
35797SOL    HW2 9709   9.449   0.134   8.924 -0.1065 -0.0211 -0.2713
35798SOL     OW 9710   9.065   3.140   9.573 -0.3452  0.1142 -0.1561
35798SOL    HW1 9711   9.126   3.117   9.644 -0.2228  1.6629  0.2837
35798SOL    HW2 9712   8.997   3.192   9.616 -1.2556 -0.4280 -0.8918
35799SOL     OW 9713   9.949   1.880   1.381 -0.0045 -0.0162 -0.0329
35799SOL    HW1 9714   9.977   1.842   1.297 -1.9320 -1.9187  0.0951
35799SOL    HW2 9715  10.029   1.885   1.433  0.9737 -0.2747 -1.4569
35800SOL     OW 9716   1.498   6.006   9.331  0.3600  0.5033 -0.0050
35800SOL    HW1 9717   1.593   6.000   9.335  0.3566  0.5780  2.9672
35800SOL    HW2 9718   1.478   6.093   9.366 -0.8172  0.5505 -0.7294
35801SOL     OW 9719   0.576   1.761   3.869  0.0388 -0.1043 -0.0417
35801SOL    HW1 9720   0.484   1.735   3.870  0.0325 -0.1016  1.3858
35801SOL    HW2 9721   0.620   1.691   3.822 -0.4658 -0.9726  0.7399
35802SOL     OW 9722   3.392   5.745   7.497  0.0580 -0.4208  0.6812
35802SOL    HW1 9723   3.394   5.706   7.584  0.2807 -0.2033  0.7725
35802SOL    HW2 9724   3.325   5.813   7.503  0.9103  0.4035  1.0247
35803SOL     OW 9725   9.236   1.875   2.800 -0.1454  0.0352 -0.6109
35803SOL    HW1 9726   9.229   1.782   2.819 -0.7140  0.1339 -0.3001
35803SOL    HW2 9727   9.285   1.880   2.718 -1.3957 -0.6116 -1.4251
35804SOL     OW 9728   7.965   2.047   6.335  0.1931  0.0818  0.2639
35804SOL    HW1 9729   7.916   1.975   6.372 -1.7806  1.8304  1.2576
35804SOL    HW2 9730   7.900   2.099   6.287  1.6547  0.8963 -0.9342
35805SOL     OW 9731   8.747   1.687   0.028  0.8403  0.2931 -0.4472
35805SOL    HW1 9732   8.685   1.750  -0.008 -0.4421 -0.2625  0.7321
35805SOL    HW2 9733   8.790   1.734   0.100 -1.0959 -0.5447  1.3340
35806SOL     OW 9734   2.207  10.374   0.561 -0.5632 -0.0668  0.0273
35806SOL    HW1 9735   2.124  10.363   0.608 -0.8966  3.8002  0.6961
35806SOL    HW2 9736   2.269  10.319   0.610 -2.3137 -1.7111  0.5541
35807SOL     OW 9737   5.644   0.704   7.119  0.2168  0.3613 -0.2761
35807SOL    HW1 9738   5.553   0.711   7.150  0.4870 -0.1758  0.6746
35807SOL    HW2 9739   5.696   0.742   7.189  0.9319 -1.8391  0.4688
35808SOL     OW 9740   2.417   6.345   6.509 -0.1109 -0.5045 -0.1371
35808SOL    HW1 9741   2.492   6.403   6.526 -0.8815  0.4338  0.1979
35808SOL    HW2 9742   2.449   6.257   6.529  0.9224 -0.1278 -0.0772
35809SOL     OW 9743   1.421   3.357   2.503 -0.1855 -0.1346 -0.4653
35809SOL    HW1 9744   1.445   3.450   2.506 -0.3186 -0.1115 -0.0731
35809SOL    HW2 9745   1.364   3.349   2.427 -1.6875  0.4733  0.5364
35810SOL     OW 9746   6.483   0.106   3.963  0.2137  0.4198  0.0072
35810SOL    HW1 9747   6.491   0.157   4.043  0.6060  1.6556 -0.7974
35810SOL    HW2 9748   6.392   0.117   3.936 -0.2128 -0.8586  0.8082
35811SOL     OW 9749   8.918   2.556   2.506  0.3914  0.3505  0.0888
35811SOL    HW1 9750   8.981   2.511   2.562 -1.0058 -1.1866  0.5250
35811SOL    HW2 9751   8.955   2.552   2.418  0.2962 -1.8135  0.0952
35812SOL     OW 9752   0.324   7.789   2.944 -0.3164  0.0075 -0.2290
35812SOL    HW1 9753   0.307   7.832   2.860 -0.2215  1.2789  0.3893
35812SOL    HW2 9754   0.248   7.808   2.998  0.1472  0.2005  0.3690
35813SOL     OW 9755  10.237   5.384  10.524  0.3692  0.2724  0.2092
35813SOL    HW1 9756  10.301   5.429  10.579  0.8624  2.3582 -1.8754
35813SOL    HW2 9757  10.192   5.324  10.583  3.3825 -0.4021  2.0353
35814SOL     OW 9758   9.946   7.555   5.893 -0.1141 -0.4522  0.1041
35814SOL    HW1 9759   9.908   7.472   5.862 -0.1103  0.0730 -1.3897
35814SOL    HW2 9760  10.007   7.580   5.824  1.1215 -0.0124  1.3077
35815SOL     OW 9761   1.500   8.806  10.124 -0.3399  0.3213 -0.5153
35815SOL    HW1 9762   1.577   8.849  10.087 -0.0331  0.4937  0.2959
35815SOL    HW2 9763   1.508   8.819  10.219 -1.7329  0.9439 -0.4569
35816SOL     OW 9764   5.741   4.994   2.564 -0.2237 -0.9586 -0.0320
35816SOL    HW1 9765   5.784   5.073   2.531 -1.4763 -0.8289 -1.4425
35816SOL    HW2 9766   5.649   5.018   2.572 -0.1514 -1.2412  2.9059
35817SOL     OW 9767   3.157   6.614   0.864  0.6492 -0.1313  0.4073
35817SOL    HW1 9768   3.124   6.690   0.817  1.3679 -0.8111 -1.2752
35817SOL    HW2 9769   3.186   6.648   0.949  0.1651  1.3057  0.0132
35818SOL     OW 9770   0.313   1.802   7.867  0.0740 -0.1201  0.1711
35818SOL    HW1 9771   0.407   1.820   7.869  0.6339 -2.6617  0.4122
35818SOL    HW2 9772   0.280   1.837   7.949  0.4717  2.1892 -0.5905
35819SOL     OW 9773   8.615   1.341   5.984 -0.1861 -0.0823 -0.5628
35819SOL    HW1 9774   8.690   1.306   6.031 -0.3782  0.9431  0.5796
35819SOL    HW2 9775   8.649   1.366   5.898  0.4929 -0.7368 -0.4881
35820SOL     OW 9776   3.201   3.834   2.314 -0.6222  0.4532  0.5381
35820SOL    HW1 9777   3.168   3.821   2.225  0.8972 -1.6595  0.1935
35820SOL    HW2 9778   3.268   3.901   2.306  1.4356 -1.5941 -0.5315
35821SOL     OW 9779   2.792   6.583   0.265 -0.1905  0.1386 -0.3094
35821SOL    HW1 9780   2.772   6.623   0.349 -0.1676  0.1699 -0.3186
35821SOL    HW2 9781   2.729   6.623   0.204 -0.7104 -0.4409 -0.1656
35822SOL     OW 9782   9.177   5.532   7.025  0.2646 -0.2557  0.8545
35822SOL    HW1 9783   9.254   5.487   7.059 -0.5115 -0.5295  2.3450
35822SOL    HW2 9784   9.210   5.615   6.991  1.4675 -1.1755 -0.3465
35823SOL     OW 9785   2.932   3.445   8.676 -0.0821  0.7645 -0.4305
35823SOL    HW1 9786   2.986   3.490   8.742 -1.4057 -0.8307  1.8931
35823SOL    HW2 9787   2.854   3.499   8.669 -0.1233  0.7129 -0.3697
35824SOL     OW 9788  10.128   0.443   2.263  0.0428 -0.0283 -0.2763
35824SOL    HW1 9789  10.219   0.444   2.231  0.8040  1.4780  1.6626
35824SOL    HW2 9790  10.121   0.362   2.313  0.3398 -0.1404 -0.4126
35825SOL     OW 9791   0.906   4.519   6.151 -0.1328 -0.0767  0.5426
35825SOL    HW1 9792   0.975   4.482   6.206  0.6158  0.5042 -0.0007
35825SOL    HW2 9793   0.906   4.612   6.171  0.3430  0.1914 -0.6389
35826SOL     OW 9794   4.293  10.262   6.484  0.3540  0.2254 -0.1929
35826SOL    HW1 9795   4.373  10.296   6.525 -1.3003  0.7256  2.9346
35826SOL    HW2 9796   4.315  10.172   6.459  2.1634  0.6648 -0.3317
35827SOL     OW 9797   9.797   0.696   2.409 -0.3728 -0.5404  0.2899
35827SOL    HW1 9798   9.747   0.616   2.392 -1.3263  0.3334 -1.2758
35827SOL    HW2 9799   9.745   0.744   2.473 -1.2631  0.0874 -0.8790
35828SOL     OW 9800   2.652   7.246   4.311  0.3281  0.0123  0.2942
35828SOL    HW1 9801   2.726   7.279   4.262 -0.1601  0.7464  0.0394
35828SOL    HW2 9802   2.578   7.298   4.281 -0.5645 -1.6025 -0.4599
35829SOL     OW 9803   4.842   3.461  10.467 -0.6020  0.4869  0.4868
35829SOL    HW1 9804   4.852   3.366  10.457 -0.8728  0.5379 -0.2802
35829SOL    HW2 9805   4.748   3.475  10.472 -0.7569  0.9769 -2.3288
35830SOL     OW 9806   2.808   6.436   6.765  0.6527 -0.3430 -1.0349
35830SOL    HW1 9807   2.767   6.388   6.694 -0.6790  0.3436 -0.7619
35830SOL    HW2 9808   2.784   6.528   6.750 -1.7858 -0.4128  1.5721
35831SOL     OW 9809   8.219   9.003   6.270 -0.4097  0.5799  0.0407
35831SOL    HW1 9810   8.214   9.066   6.198 -0.3685 -0.5952 -1.0157
35831SOL    HW2 9811   8.181   9.050   6.345 -1.4403  1.4630 -0.9964
35832SOL     OW 9812   9.134   9.085   1.704  0.1439  0.0031  0.0525
35832SOL    HW1 9813   9.168   8.995   1.710 -0.2140 -0.1939 -0.7337
35832SOL    HW2 9814   9.069   9.091   1.774  0.3236 -0.2784  0.2464
35833SOL     OW 9815   6.868   2.271   5.886 -0.0503  0.2792  0.0615
35833SOL    HW1 9816   6.781   2.311   5.884 -0.1402  0.0673 -0.4194
35833SOL    HW2 9817   6.894   2.265   5.794 -0.1589 -1.0265  0.0933
35834SOL     OW 9818   6.695   3.677   1.521  0.3597 -0.9423 -0.1508
35834SOL    HW1 9819   6.785   3.649   1.539  0.0834 -2.1219 -0.5601
35834SOL    HW2 9820   6.644   3.638   1.592  0.2502  0.2987  0.4754
35835SOL     OW 9821   5.991   0.864   1.604 -0.6628  0.2184 -0.4830
35835SOL    HW1 9822   6.002   0.776   1.640  1.7117  0.9730  0.8582
35835SOL    HW2 9823   5.932   0.852   1.529 -0.0530 -2.5519 -0.6349
35836SOL     OW 9824   3.449   2.400   1.195 -0.4189 -0.4794  0.2041
35836SOL    HW1 9825   3.466   2.353   1.276  3.2478  1.4340  0.7602
35836SOL    HW2 9826   3.437   2.332   1.129  0.1512 -2.0972  1.7166
35837SOL     OW 9827   3.477   8.635   6.936 -0.0585  0.4803  0.0158
35837SOL    HW1 9828   3.478   8.577   6.860 -0.3794 -0.7693  0.9449
35837SOL    HW2 9829   3.416   8.705   6.912  1.6729  1.4617 -1.8176
35838SOL     OW 9830   3.515   1.521   7.627  0.4612 -0.0498  0.3606
35838SOL    HW1 9831   3.608   1.504   7.608  0.2023 -1.0436 -0.1266
35838SOL    HW2 9832   3.476   1.434   7.634 -0.6358  0.3367 -0.5119
35839SOL     OW 9833   8.936   5.011   8.862 -0.0457  0.2647 -0.1507
35839SOL    HW1 9834   8.921   5.033   8.954  0.8500  0.3075 -0.0062
35839SOL    HW2 9835   8.968   4.921   8.864 -0.1654  0.2155 -0.4367
35840SOL     OW 9836  10.129   5.397   3.722  0.0080  0.0507 -0.2537
35840SOL    HW1 9837  10.161   5.374   3.809  0.1629  1.7358  0.1848
35840SOL    HW2 9838  10.099   5.315   3.684  1.1280 -0.9194  0.8849
35841SOL     OW 9839   1.569   5.120   8.661 -0.5634 -0.4101 -0.2742
35841SOL    HW1 9840   1.533   5.187   8.720 -2.2347 -0.5214 -1.1289
35841SOL    HW2 9841   1.584   5.167   8.579  0.2229 -0.6280 -0.2603
35842SOL     OW 9842   3.831   7.211   4.511  0.1857  0.6009 -0.1747
35842SOL    HW1 9843   3.901   7.149   4.491 -1.5574 -1.3298 -0.7781
35842SOL    HW2 9844   3.765   7.195   4.444 -1.8816  0.5323  1.7303
35843SOL     OW 9845   5.115  10.062   6.125  0.2849  0.2732  0.4002
35843SOL    HW1 9846   5.164  10.034   6.202 -1.1563  0.4292  1.4228
35843SOL    HW2 9847   5.080  10.148   6.149 -0.0138  0.4142 -0.5087
35844SOL     OW 9848   3.302   1.739   9.598  0.1056 -0.5334 -0.1403
35844SOL    HW1 9849   3.396   1.732   9.617  0.2602  0.7095 -0.3404
35844SOL    HW2 9850   3.263   1.662   9.639  1.1660 -0.8706  0.2673
35845SOL     OW 9851   4.304   4.706   7.800  0.3604 -0.0459 -0.1788
35845SOL    HW1 9852   4.379   4.662   7.761  0.1288  1.1209 -2.0454
35845SOL    HW2 9853   4.333   4.796   7.815  0.7665 -0.6232  3.4230
35846SOL     OW 9854   7.611   5.291   5.696 -0.6857  0.4485 -0.3506
35846SOL    HW1 9855   7.672   5.217   5.696 -0.6590  0.4695  0.0052
35846SOL    HW2 9856   7.534   5.258   5.742  0.2360  1.3865  2.0195
35847SOL     OW 9857   5.859   2.372   1.433 -0.5733 -0.0783  0.9295
35847SOL    HW1 9858   5.886   2.423   1.510 -1.1195  0.6124  0.6803
35847SOL    HW2 9859   5.779   2.416   1.403 -0.9528 -0.9859  0.5901
35848SOL     OW 9860   1.504   1.437  10.054  0.0018 -0.0357  0.1939
35848SOL    HW1 9861   1.592   1.472  10.067 -0.1320  0.1338  0.6642
35848SOL    HW2 9862   1.446   1.505  10.088 -0.2922 -0.3677  0.3609
35849SOL     OW 9863   5.978   4.540   0.358  0.1434  0.6229  0.1578
35849SOL    HW1 9864   5.999   4.616   0.413 -0.3399 -0.2317  1.5641
35849SOL    HW2 9865   6.056   4.485   0.363 -0.9130 -0.8032  2.3792
35850SOL     OW 9866  10.371   3.780   7.436 -0.0974  0.1233  0.0937
35850SOL    HW1 9867  10.448   3.781   7.379 -1.0373  0.1197 -1.2291
35850SOL    HW2 9868  10.406   3.775   7.525  1.4001 -1.6864 -0.5428
35851SOL     OW 9869   9.848   4.899   3.709 -0.0294 -0.0691 -0.3735
35851SOL    HW1 9870   9.783   4.968   3.724  0.6520  0.5097 -0.0352
35851SOL    HW2 9871   9.912   4.911   3.779 -0.3821 -1.6451  0.2504
35852SOL     OW 9872   3.654   0.924   3.671  0.6032  0.6515  0.6431
35852SOL    HW1 9873   3.589   0.948   3.736  0.0823 -2.1046  1.2907
35852SOL    HW2 9874   3.631   0.834   3.646  3.1446  0.1831 -0.3797
35853SOL     OW 9875   5.059  10.533   3.627 -0.8574 -0.2951  0.0413
35853SOL    HW1 9876   4.999  10.469   3.588 -0.5220 -0.1958 -0.6630
35853SOL    HW2 9877   5.036  10.616   3.586  0.3841 -0.4194 -0.9883
35854SOL     OW 9878   9.914   3.162   8.177  0.0599 -0.8232 -0.3907
35854SOL    HW1 9879   9.996   3.113   8.189 -0.1705 -1.1681 -0.2082
35854SOL    HW2 9880   9.893   3.194   8.265  0.0975 -0.5729 -0.4725
35855SOL     OW 9881   6.741   3.782   8.407  0.6079  0.2791 -0.1875
35855SOL    HW1 9882   6.804   3.772   8.335  1.4324 -0.9469  0.6480
35855SOL    HW2 9883   6.716   3.692   8.429 -0.6639  0.7052  0.1815
35856SOL     OW 9884   2.896   1.469   2.585  0.4744 -0.4206  0.3757
35856SOL    HW1 9885   2.856   1.460   2.672 -0.5371 -0.9262 -0.1183
35856SOL    HW2 9886   2.881   1.384   2.544  0.9930 -0.2029 -0.2736
35857SOL     OW 9887   8.805   7.467   9.516  0.1289  0.3274  1.0118
35857SOL    HW1 9888   8.730   7.522   9.490  0.8266  1.5511  1.4892
35857SOL    HW2 9889   8.781   7.433   9.602 -0.5926 -0.6883  0.4264
35858SOL     OW 9890   2.400   4.295   1.351 -0.3690  0.5004 -0.2208
35858SOL    HW1 9891   2.458   4.240   1.298 -0.2358  1.0012 -0.5975
35858SOL    HW2 9892   2.351   4.347   1.288 -0.5581  0.7514  0.1300
35859SOL     OW 9893   7.492   2.385   6.347 -0.0529 -0.1547  0.0688
35859SOL    HW1 9894   7.425   2.387   6.279  0.3379 -0.0607 -0.3187
35859SOL    HW2 9895   7.461   2.320   6.410  0.1488 -1.0937 -0.7907
35860SOL     OW 9896   9.577   1.711   2.508 -1.1507  0.2611 -0.1415
35860SOL    HW1 9897   9.587   1.616   2.509  0.8138  0.3970  1.6710
35860SOL    HW2 9898   9.565   1.733   2.416  0.2394 -1.6252 -0.8442
35861SOL     OW 9899   2.779   6.956  10.351 -0.5265 -0.2848 -0.2520
35861SOL    HW1 9900   2.782   7.014  10.275  0.4908  1.2181  0.8931
35861SOL    HW2 9901   2.852   6.983  10.406 -1.2727 -1.2768  1.3219
35862SOL     OW 9902   7.799   6.762   1.580 -0.1834 -0.4452  0.3166
35862SOL    HW1 9903   7.781   6.836   1.522  0.2387 -1.5495 -1.3179
35862SOL    HW2 9904   7.714   6.740   1.618 -0.7176 -0.3556 -0.7654
35863SOL     OW 9905   3.681   1.543   4.246 -0.4323 -0.8890  0.0841
35863SOL    HW1 9906   3.691   1.547   4.151 -1.2946 -0.9164 -0.0158
35863SOL    HW2 9907   3.767   1.570   4.280 -0.7484  1.3086 -0.6793
35864SOL     OW 9908   9.163   5.788   2.268 -0.1277  0.2200 -0.4138
35864SOL    HW1 9909   9.115   5.802   2.186 -0.8404 -0.6792 -0.1589
35864SOL    HW2 9910   9.106   5.731   2.320  0.6819  0.1237  0.3872
35865SOL     OW 9911  10.490   3.715  10.018 -0.0832 -0.0707  0.1893
35865SOL    HW1 9912  10.427   3.647  10.044 -0.4760  0.2114 -0.0149
35865SOL    HW2 9913  10.546   3.726  10.095  0.6801 -1.4000 -0.1442
35866SOL     OW 9914   2.755   1.339   6.877  0.4657 -0.1775 -0.3847
35866SOL    HW1 9915   2.754   1.434   6.879  0.9385 -0.1679 -0.4234
35866SOL    HW2 9916   2.794   1.317   6.792  0.6297 -0.3998 -0.2553
35867SOL     OW 9917   3.289   6.488   7.295  0.6894  0.1083  0.3595
35867SOL    HW1 9918   3.286   6.418   7.230 -1.2694 -0.0347  0.5297
35867SOL    HW2 9919   3.313   6.566   7.245  0.3744 -0.2170 -0.3194
35868SOL     OW 9920   2.707   1.789   6.995 -0.4951 -0.2370  0.3864
35868SOL    HW1 9921   2.673   1.728   6.930 -0.8350  0.3346  0.0178
35868SOL    HW2 9922   2.709   1.873   6.950  0.5889 -0.0881  0.6764
35869SOL     OW 9923   6.064   0.354   4.313 -0.0354 -0.1408  0.6885
35869SOL    HW1 9924   5.974   0.342   4.282  0.1134  1.1538 -0.3133
35869SOL    HW2 9925   6.107   0.271   4.294 -0.8964 -0.6302  0.8074
35870SOL     OW 9926   5.996   5.452   7.986 -0.3350 -0.0337  0.1995
35870SOL    HW1 9927   6.058   5.404   7.931  0.1640 -0.7654  1.3752
35870SOL    HW2 9928   5.947   5.507   7.924 -1.4308 -2.5547 -1.3225
35871SOL     OW 9929   3.797   5.737   2.206  0.0136  0.3676  0.0435
35871SOL    HW1 9930   3.724   5.703   2.154 -0.7263  1.2994  0.4279
35871SOL    HW2 9931   3.809   5.674   2.277  1.8761 -1.6108 -1.8807
35872SOL     OW 9932   2.932  10.550  10.536 -0.0920 -0.2867  0.3450
35872SOL    HW1 9933   2.932  10.614  10.607 -1.5955 -1.2636  1.2711
35872SOL    HW2 9934   2.877  10.590  10.468 -0.8651 -0.4894  0.8413
35873SOL     OW 9935   6.797   9.037   4.420 -0.0003  0.2635  0.7664
35873SOL    HW1 9936   6.755   9.112   4.378 -2.5762 -0.6875  1.4927
35873SOL    HW2 9937   6.809   8.974   4.349 -1.4568 -0.1280  0.8431
35874SOL     OW 9938  10.381   5.150   9.874 -0.6343  0.2441  0.1579
35874SOL    HW1 9939  10.304   5.207   9.880 -0.4906  0.5025 -0.4085
35874SOL    HW2 9940  10.363   5.093   9.799 -0.5279 -0.0837  0.3815
35875SOL     OW 9941   4.186   7.985   2.278 -0.1548 -0.1077 -0.3325
35875SOL    HW1 9942   4.145   7.994   2.364  0.6676 -0.8275  0.1599
35875SOL    HW2 9943   4.275   7.952   2.297  0.6815  1.4460 -1.3513
35876SOL     OW 9944   5.301   6.006   2.316  0.1896 -0.0161 -0.0772
35876SOL    HW1 9945   5.232   5.995   2.382  0.6102  1.1550  0.5934
35876SOL    HW2 9946   5.379   6.029   2.368  0.5769  0.7360 -0.9779
35877SOL     OW 9947   3.753   6.030   9.680 -0.0855  0.0795 -0.0130
35877SOL    HW1 9948   3.804   5.952   9.658 -0.2824  0.4778 -2.0100
35877SOL    HW2 9949   3.699   6.047   9.603 -1.7733  0.8657  1.2578
35878SOL     OW 9950   1.508   9.249   0.810  0.3147  0.4150  0.2809
35878SOL    HW1 9951   1.541   9.302   0.737 -0.4431  1.6719  0.8039
35878SOL    HW2 9952   1.570   9.263   0.881  0.5808 -0.1035  0.1524
35879SOL     OW 9953   8.195  10.061   2.707 -0.0981  0.5938 -0.7236
35879SOL    HW1 9954   8.129  10.025   2.766  0.8874  0.7861  0.5353
35879SOL    HW2 9955   8.186  10.156   2.716 -1.0576  0.6720 -2.1835
35880SOL     OW 9956  10.089   3.303   7.188  0.0945  0.1851 -0.1889
35880SOL    HW1 9957  10.173   3.259   7.176  0.0110  0.5609 -2.9549
35880SOL    HW2 9958  10.032   3.237   7.228  1.5473 -0.1995  1.3208
35881SOL     OW 9959   2.914   5.292  10.405  0.0066  0.2925  0.1958
35881SOL    HW1 9960   2.886   5.258  10.490  1.0579  0.0884  0.4748
35881SOL    HW2 9961   2.862   5.372  10.393 -2.6592 -1.4423 -0.5686
35882SOL     OW 9962   2.896   6.036   4.811 -0.3689 -0.2154 -0.6391
35882SOL    HW1 9963   2.933   6.091   4.742 -0.5031  0.5474 -0.1138
35882SOL    HW2 9964   2.841   6.095   4.862  1.5727 -0.1713  1.5521
35883SOL     OW 9965   5.929  10.469   0.760 -0.0595  0.4236  0.0578
35883SOL    HW1 9966   5.881  10.414   0.698  0.8348 -1.5113  0.9945
35883SOL    HW2 9967   5.917  10.558   0.727 -1.1118 -0.3574 -1.8486
35884SOL     OW 9968   0.441   1.470   9.190 -0.8902 -0.1653  0.3430
35884SOL    HW1 9969   0.441   1.518   9.273  1.9133 -1.1077  0.9891
35884SOL    HW2 9970   0.473   1.534   9.126 -1.0633 -0.0227  0.3982
35885SOL     OW 9971   3.762   0.353   8.557 -0.3947 -0.4690 -0.0892
35885SOL    HW1 9972   3.688   0.413   8.549 -0.1304  0.1381  1.5189
35885SOL    HW2 9973   3.744   0.303   8.636 -0.6758 -2.6767 -1.4854
35886SOL     OW 9974   1.464   7.512   1.231  0.3357  1.0985 -0.0112
35886SOL    HW1 9975   1.487   7.423   1.257  0.2917  0.6500 -1.4139
35886SOL    HW2 9976   1.543   7.545   1.188 -0.1271  1.2039 -0.7905
35887SOL     OW 9977   4.396   7.709   3.516  0.4301  0.2813  0.2926
35887SOL    HW1 9978   4.490   7.718   3.536  0.4173  0.1677  0.4092
35887SOL    HW2 9979   4.389   7.621   3.478  0.8233  1.3234 -2.3800
35888SOL     OW 9980   5.253   6.602   2.282  0.1821  0.2965 -0.0627
35888SOL    HW1 9981   5.209   6.517   2.288  0.9826 -0.1339 -0.2382
35888SOL    HW2 9982   5.244   6.640   2.370 -1.4761  0.6983 -0.3743
35889SOL     OW 9983   9.006   1.034   5.611  0.2471  0.3900 -0.3725
35889SOL    HW1 9984   8.920   0.998   5.632  0.5324 -0.1540 -0.1398
35889SOL    HW2 9985   9.008   1.119   5.655  0.5448 -0.3930  1.1952
35890SOL     OW 9986   1.906   7.006   5.559  0.3934  0.0654  0.7032
35890SOL    HW1 9987   1.811   7.000   5.565  0.3822  0.7817  1.4917
35890SOL    HW2 9988   1.937   6.916   5.561 -0.2968 -0.2034 -0.1845
35891SOL     OW 9989   2.524   9.880   7.286  0.5105 -0.6283 -0.0961
35891SOL    HW1 9990   2.585   9.936   7.237  0.1026 -0.2371 -0.1632
35891SOL    HW2 9991   2.444   9.932   7.292 -0.0417 -1.4056 -0.5875
35892SOL     OW 9992   1.198   6.830   8.977 -0.1309  0.1480  0.2723
35892SOL    HW1 9993   1.235   6.821   8.889 -1.6895 -0.2669 -0.3803
35892SOL    HW2 9994   1.126   6.768   8.979  0.0005 -0.0013  1.9426
35893SOL     OW 9995   6.364   8.058   3.973  0.1509  0.3557  0.3306
35893SOL    HW1 9996   6.342   8.042   4.064  1.4258 -1.6162  0.3421
35893SOL    HW2 9997   6.282   8.089   3.934 -0.4284  1.1567  2.0934
35894SOL     OW 9998   0.079  10.514   9.202 -0.3686  0.1230 -0.3175
35894SOL    HW1 9999  -0.010  10.542   9.182 -0.9980 -0.8997  0.9314
35894SOL    HW210000   0.099  10.554   9.286  0.0986 -0.1810 -0.2792
35895SOL     OW10001   2.806   0.023   1.897  0.4163 -0.9519  0.2531
35895SOL    HW110002   2.821  -0.028   1.977 -0.1419  0.2908  1.1692
35895SOL    HW210003   2.726   0.072   1.914  0.2897 -0.6642 -1.0818
35896SOL     OW10004   0.408   8.256   7.376  0.3960  0.2178  0.4890
35896SOL    HW110005   0.364   8.223   7.297  0.3681 -0.0100  0.6017
35896SOL    HW210006   0.343   8.313   7.417  0.5387  0.6306  0.1520
35897SOL     OW10007   7.344   2.207   5.904 -1.0438 -0.8089 -0.0519
35897SOL    HW110008   7.336   2.216   5.809  0.0914 -0.8166 -0.1626
35897SOL    HW210009   7.273   2.260   5.940  0.4777  1.9652 -0.8599
35898SOL     OW10010   1.506   5.369   1.593  0.0056 -0.1073  0.0658
35898SOL    HW110011   1.443   5.439   1.579 -0.9911 -0.3669  2.8150
35898SOL    HW210012   1.553   5.362   1.509 -2.4240  1.2423 -1.5101
35899SOL     OW10013   9.832   4.145   1.495 -0.6930  0.6454  0.1394
35899SOL    HW110014   9.896   4.082   1.528 -1.6510 -0.6254 -0.3032
35899SOL    HW210015   9.770   4.091   1.445 -0.4149  2.2359 -2.0177
35900SOL     OW10016   6.043   2.015   8.808 -0.0681 -0.3911  0.1686
35900SOL    HW110017   5.978   1.957   8.768  0.9554 -1.6145  0.2235
35900SOL    HW210018   6.069   2.074   8.737  1.1543 -2.0296 -0.8022
35901SOL     OW10019   5.109   6.189   3.778 -0.1672  0.6560 -0.7282
35901SOL    HW110020   5.138   6.106   3.816  0.9851  1.0497 -0.7193
35901SOL    HW210021   5.036   6.217   3.835  1.1060  0.9186  0.8444
35902SOL     OW10022   2.382   8.386   9.586 -0.1014  0.2229 -0.3076
35902SOL    HW110023   2.406   8.296   9.567  0.4324  0.8078 -2.7871
35902SOL    HW210024   2.366   8.388   9.680  0.6040 -2.2634 -0.0809
35903SOL     OW10025   3.436   8.297   2.639  0.0215 -0.1654  0.8034
35903SOL    HW110026   3.445   8.392   2.644 -2.4182  0.7865 -4.9284
35903SOL    HW210027   3.343   8.282   2.620  0.7348 -3.4357 -0.9227
35904SOL     OW10028   2.835   9.802   5.528  0.2775 -0.0393  0.0906
35904SOL    HW110029   2.838   9.743   5.452  1.1336 -2.2645  1.7738
35904SOL    HW210030   2.903   9.867   5.510 -0.7231  0.5571 -1.8316
35905SOL     OW10031   8.925   8.508   7.301 -0.3393 -0.4104 -0.0344
35905SOL    HW110032   8.947   8.518   7.393 -1.1216  2.3022 -0.0354
35905SOL    HW210033   8.985   8.567   7.255 -1.5084  0.1061 -0.9733
35906SOL     OW10034   9.171   6.868   3.705  0.4746 -0.1100  0.1012
35906SOL    HW110035   9.248   6.869   3.647 -0.4558  0.1566 -1.1788
35906SOL    HW210036   9.208   6.870   3.793  1.9529 -0.6561 -0.4589
35907SOL     OW10037   4.140   0.025  10.319 -0.1534 -0.2706 -0.1850
35907SOL    HW110038   4.146  -0.063  10.358 -3.4327 -0.5239  0.0570
35907SOL    HW210039   4.182   0.016  10.233  1.4677 -1.4629  0.6824
35908SOL     OW10040   6.015   5.520   2.798  0.5718  0.0056  0.0003
35908SOL    HW110041   5.925   5.548   2.780 -0.5232 -0.4252  3.8608
35908SOL    HW210042   6.068   5.566   2.733 -2.4263 -0.2886 -2.9112
35909SOL     OW10043  10.477   8.858   2.598 -0.0399  0.2719  0.0428
35909SOL    HW110044  10.469   8.878   2.505  0.6109  1.7883  0.2818
35909SOL    HW210045  10.420   8.922   2.641  0.8861  0.6214  0.7709
35910SOL     OW10046   5.142  10.290   7.315  0.0521  0.0451 -0.5674
35910SOL    HW110047   5.126  10.204   7.275 -0.3145  0.4633 -1.3489
35910SOL    HW210048   5.068  10.344   7.286 -0.0759  0.4482  0.4604
35911SOL     OW10049   6.852   3.235   3.644  0.2203  0.1264 -0.1745
35911SOL    HW110050   6.868   3.258   3.735 -0.6367  1.6979 -0.3898
35911SOL    HW210051   6.879   3.313   3.595  1.5926 -1.0349 -1.3771
35912SOL     OW10052   3.117   7.604   4.235 -0.2364  0.0027 -0.2134
35912SOL    HW110053   3.146   7.513   4.224  0.4427  0.0480  1.0059
35912SOL    HW210054   3.188   7.656   4.198 -0.4604  0.0365 -0.5888
35913SOL     OW10055   9.161   4.061   8.604 -0.0490  0.4741 -0.4761
35913SOL    HW110056   9.098   4.117   8.649 -0.1495  0.8038 -1.0293
35913SOL    HW210057   9.245   4.108   8.611 -0.0095  0.3915 -0.3940
35914SOL     OW10058   2.935   9.793   6.315  0.2895 -0.5126  0.7421
35914SOL    HW110059   2.908   9.852   6.244 -1.2777 -0.0700  1.6648
35914SOL    HW210060   3.029   9.810   6.325  0.4214 -0.1728 -0.8303
35915SOL     OW10061   2.241   9.127   6.247  0.6169  0.4039  0.2510
35915SOL    HW110062   2.222   9.144   6.339  1.7123 -1.1481  0.8085
35915SOL    HW210063   2.156   9.121   6.206  0.0687 -0.3112  1.4495
35916SOL     OW10064   2.915   6.546   2.022  0.2321  0.5912 -0.2692
35916SOL    HW110065   2.922   6.583   1.934 -1.5048 -0.1646 -0.7704
35916SOL    HW210066   2.883   6.618   2.076 -0.4400  0.5798 -0.6448
35917SOL     OW10067   4.142   5.705  10.158 -0.7351  0.1710  0.1225
35917SOL    HW110068   4.085   5.684  10.083 -1.1387 -0.2606  0.5410
35917SOL    HW210069   4.177   5.791  10.138 -1.3667  0.3507 -0.2574
35918SOL     OW10070   5.008  10.164   0.968  0.1870 -0.5059  0.4214
35918SOL    HW110071   5.047  10.159   1.055  1.3318 -0.6279 -0.0666
35918SOL    HW210072   5.050  10.093   0.919  1.7707  1.3038 -1.0403
35919SOL     OW10073  10.443   2.585   2.168  0.1426 -0.0714 -0.2765
35919SOL    HW110074  10.452   2.588   2.072  2.1882  0.9568 -0.1164
35919SOL    HW210075  10.531   2.603   2.200 -0.5143 -0.3803  1.8244
35920SOL     OW10076   2.364   3.388   6.225  0.0811 -0.0888 -0.6238
35920SOL    HW110077   2.354   3.362   6.133 -0.0915 -2.1245 -0.0923
35920SOL    HW210078   2.284   3.358   6.267  1.2752 -1.6615  0.6486
35921SOL     OW10079   9.260   0.211   5.611  0.1600 -0.0445 -0.1616
35921SOL    HW110080   9.305   0.295   5.603 -1.0176  0.6334  0.1009
35921SOL    HW210081   9.234   0.189   5.522  0.6514 -0.2370 -0.2585
35922SOL     OW10082  10.199   1.812   7.303  0.0367  0.1155  0.3496
35922SOL    HW110083  10.146   1.738   7.273 -0.0705  0.2525  0.2022
35922SOL    HW210084  10.232   1.852   7.223  0.7085 -0.2177  0.4502
35923SOL     OW10085   0.314   2.655   0.052 -0.3667 -0.1480  0.1368
35923SOL    HW110086   0.282   2.725  -0.005 -2.1381 -1.1264 -0.1482
35923SOL    HW210087   0.278   2.677   0.138  3.7495  2.3208  1.5405
35924SOL     OW10088  10.333   4.250   8.316 -0.5338 -0.3647 -0.6407
35924SOL    HW110089  10.241   4.230   8.338 -0.4077 -0.8241 -0.5156
35924SOL    HW210090  10.381   4.232   8.397 -0.3124 -0.2711 -0.7520
35925SOL     OW10091  10.511   4.707   9.540 -0.1265 -0.0411  0.1671
35925SOL    HW110092  10.522   4.711   9.445 -0.0346 -0.4931  0.1567
35925SOL    HW210093  10.416   4.702   9.553 -0.1834  0.8366  0.1350
35926SOL     OW10094   9.565   2.350   6.456  0.5336  0.3787 -0.6680
35926SOL    HW110095   9.627   2.280   6.437  0.8548  0.4503  0.0677
35926SOL    HW210096   9.595   2.424   6.404  0.0566 -0.0881 -1.6335
35927SOL     OW10097   5.446   7.469   7.328 -0.0434  0.9404 -0.0642
35927SOL    HW110098   5.354   7.448   7.316  0.2530  0.1213 -1.0277
35927SOL    HW210099   5.477   7.410   7.397 -0.4493  1.8751  0.9438
35928SOL     OW10100   5.891   3.344   4.131  0.1141  0.4980  0.2665
35928SOL    HW110101   5.878   3.315   4.041 -1.9344 -0.3160  0.7886
35928SOL    HW210102   5.890   3.264   4.183  0.8594  0.9965  1.0798
35929SOL     OW10103   5.554   4.598   5.809  0.0484  0.0116  0.4285
35929SOL    HW110104   5.533   4.519   5.858 -0.5695 -0.6081 -0.7745
35929SOL    HW210105   5.580   4.566   5.723 -2.4642  1.1668 -0.8823
35930SOL     OW10106   1.882   4.377   9.175 -0.2289  0.3690  0.3898
35930SOL    HW110107   1.879   4.473   9.173  1.3138  0.4369  0.1414
35930SOL    HW210108   1.971   4.357   9.203 -0.5779 -0.9996  0.5573
35931SOL     OW10109   5.261   4.148   7.055  0.1254 -0.5842 -0.3068
35931SOL    HW110110   5.314   4.159   6.977  0.1785 -0.1756 -0.2149
35931SOL    HW210111   5.314   4.183   7.126 -0.0964 -0.5543 -0.1533
35932SOL     OW10112   3.981   5.215   7.181 -0.3447  0.4615 -0.1565
35932SOL    HW110113   3.921   5.176   7.118 -0.8118  1.8358 -0.6056
35932SOL    HW210114   4.055   5.154   7.185 -2.3580 -2.0899  1.5666
35933SOL     OW10115   6.908   2.026  10.424 -0.2496 -0.3279  0.1589
35933SOL    HW110116   6.858   1.959  10.378  0.3191 -1.4133  1.0606
35933SOL    HW210117   6.882   2.017  10.516 -0.7391  1.2238  0.1939
35934SOL     OW10118   4.697   1.591   8.778  0.0059 -0.1714  0.3204
35934SOL    HW110119   4.661   1.505   8.800  0.4672 -0.0100  1.8182
35934SOL    HW210120   4.750   1.575   8.700 -1.7714 -0.7576 -0.8425
35935SOL     OW10121   3.669   1.426   7.233  0.6183  0.6499 -0.5672
35935SOL    HW110122   3.603   1.372   7.189  0.9861  0.0899 -0.4337
35935SOL    HW210123   3.662   1.512   7.191  0.1191  0.4626 -0.8667
35936SOL     OW10124   0.073   7.379   6.639 -0.0270 -0.0791 -0.9931
35936SOL    HW110125   0.025   7.401   6.720  1.9514  0.3033  0.1250
35936SOL    HW210126   0.058   7.454   6.582 -1.1573 -0.1907 -0.8731
35937SOL     OW10127   8.815   2.934   0.113  0.0378  0.3968  0.2171
35937SOL    HW110128   8.867   2.962   0.188 -1.9789 -1.1750  2.3339
35937SOL    HW210129   8.727   2.967   0.131 -1.2965 -2.9188  0.3618
35938SOL     OW10130   8.794   0.098   6.036 -0.2472 -0.3028 -0.0216
35938SOL    HW110131   8.860   0.084   6.104  0.1427  2.1190  0.2147
35938SOL    HW210132   8.838   0.077   5.954  0.8109  1.1115  0.1512
35939SOL     OW10133   4.635   2.314   6.188  0.3719  0.1376 -0.4817
35939SOL    HW110134   4.543   2.299   6.206  0.4175  0.6811  0.2646
35939SOL    HW210135   4.675   2.227   6.187 -0.5492 -0.3667 -3.3117
35940SOL     OW10136   5.678  10.044   3.659 -0.0749  0.0079  0.2634
35940SOL    HW110137   5.688  10.098   3.737  0.2261 -0.2415  0.4026
35940SOL    HW210138   5.623  10.096   3.600  1.3606  1.0873 -0.1877
35941SOL     OW10139   9.022   5.226   9.773 -0.7535 -0.7053 -0.4020
35941SOL    HW110140   9.015   5.316   9.741  1.6660 -1.0916 -2.3930
35941SOL    HW210141   8.982   5.173   9.704  0.1565 -1.2782 -0.5134
35942SOL     OW10142   4.852   1.025   8.409 -0.5859  0.4765  0.0613
35942SOL    HW110143   4.900   1.101   8.440  1.5735 -1.7545  2.7984
35942SOL    HW210144   4.910   0.985   8.344 -0.0108 -0.5718  1.1516
35943SOL     OW10145   2.066   0.184   5.926 -0.6733 -0.1108 -0.3224
35943SOL    HW110146   2.063   0.161   6.019  1.0793 -0.9088 -0.4292
35943SOL    HW210147   2.118   0.265   5.923 -0.3654 -0.3200 -0.6483
35944SOL     OW10148   6.849   8.372   6.341  0.2689  0.0062 -0.2938
35944SOL    HW110149   6.840   8.330   6.426 -1.7083 -0.1410 -0.5224
35944SOL    HW210150   6.855   8.466   6.361 -1.7200  0.1149  0.0019
35945SOL     OW10151   3.458   6.148   0.422 -0.1191 -0.7859 -0.2571
35945SOL    HW110152   3.451   6.180   0.512 -0.9327 -0.9156 -0.2721
35945SOL    HW210153   3.541   6.101   0.420  0.3763  0.0434  0.1624
35946SOL     OW10154   1.893  10.323   6.741 -0.7952 -0.2112  0.1872
35946SOL    HW110155   1.979  10.297   6.774  0.2330 -0.0472 -2.1864
35946SOL    HW210156   1.886  10.416   6.763 -0.8960 -0.4859  1.3844
35947SOL     OW10157   7.107   1.001   6.982  0.1261  0.3935  0.3911
35947SOL    HW110158   7.118   0.916   7.025  0.5277 -0.2154 -0.8532
35947SOL    HW210159   7.048   1.050   7.039  1.2235 -0.0811  2.0000
35948SOL     OW10160   4.171   8.119   3.164 -0.1520  0.3810  0.2969
35948SOL    HW110161   4.251   8.172   3.165  1.2270 -1.5497 -0.4567
35948SOL    HW210162   4.116   8.158   3.231  1.5834  1.5435  1.1331
35949SOL     OW10163   2.435   4.177   6.093  1.0292  0.2404 -0.3534
35949SOL    HW110164   2.410   4.119   6.021 -1.2448  1.8211 -0.9722
35949SOL    HW210165   2.428   4.266   6.057 -1.5739  1.1904  2.0464
35950SOL     OW10166   5.080   8.595   2.255  0.1206  0.0590  0.1447
35950SOL    HW110167   5.095   8.626   2.345  0.0915  0.6347 -0.0475
35950SOL    HW210168   4.985   8.585   2.249 -0.1363  2.3326 -0.5533
35951SOL     OW10169   6.390   5.167   1.530  0.2007 -0.1299  0.1891
35951SOL    HW110170   6.328   5.113   1.481 -0.3927  0.0239  0.7558
35951SOL    HW210171   6.371   5.148   1.621  1.8398 -1.0208  0.3806
35952SOL     OW10172   6.820   3.242   5.033  0.3654  0.2611  0.0287
35952SOL    HW110173   6.801   3.336   5.037 -0.0303  0.2644 -1.4437
35952SOL    HW210174   6.797   3.217   4.944  0.6351 -1.2089  0.3546
35953SOL     OW10175   0.720   0.704  10.553 -0.6548  0.0974 -0.2633
35953SOL    HW110176   0.642   0.758  10.546 -0.1306  0.8652 -0.3703
35953SOL    HW210177   0.791   0.761  10.521 -0.0879 -0.6485 -0.3583
35954SOL     OW10178   5.077   3.335   4.534 -0.4260 -0.2215 -0.7326
35954SOL    HW110179   5.083   3.323   4.629  1.2397 -0.4790 -0.8322
35954SOL    HW210180   5.054   3.427   4.522  1.4007  0.3583 -0.0738
35955SOL     OW10181   3.808   3.562   1.244 -0.1263  0.3245 -0.1308
35955SOL    HW110182   3.794   3.481   1.293 -1.5604  0.2337 -0.6205
35955SOL    HW210183   3.731   3.616   1.265 -1.8953 -0.4748 -3.6584
35956SOL     OW10184   4.613   8.273   0.169  0.4954  0.1476  0.2143
35956SOL    HW110185   4.652   8.342   0.223 -0.9133  1.2463 -0.1303
35956SOL    HW210186   4.529   8.254   0.211  1.3924 -2.3241  1.0545
35957SOL     OW10187   7.442   7.278   9.851 -0.1333  0.0839  0.2106
35957SOL    HW110188   7.529   7.240   9.856  0.0150  0.5798  2.1252
35957SOL    HW210189   7.383   7.202   9.849  0.2943 -0.3098 -2.7201
35958SOL     OW10190   4.105   1.330   4.087 -0.0552 -0.3882  0.1386
35958SOL    HW110191   4.113   1.266   4.016  0.9245 -1.4034  1.1436
35958SOL    HW210192   4.159   1.296   4.157 -1.5990  0.2039  1.7008
35959SOL     OW10193   9.014   6.154   4.595 -0.2006  0.2025 -0.1049
35959SOL    HW110194   8.920   6.155   4.578 -0.1610  0.3144 -0.3187
35959SOL    HW210195   9.032   6.067   4.630 -0.4730  0.3597  0.4352
35960SOL     OW10196  10.071   5.798   0.715 -0.5163 -0.2280 -0.3686
35960SOL    HW110197  10.092   5.883   0.753 -0.2966 -0.6433  0.4766
35960SOL    HW210198  10.104   5.802   0.626  1.7852 -0.2985  0.4227
35961SOL     OW10199   3.289   4.093   5.949  0.2898 -0.2903 -0.1219
35961SOL    HW110200   3.268   4.006   5.982  1.7168 -0.0534  1.5816
35961SOL    HW210201   3.379   4.086   5.918  0.6679  0.7198  0.6727
35962SOL     OW10202   9.555   6.552   1.725  0.3410  0.0070  0.1613
35962SOL    HW110203   9.511   6.636   1.738 -0.4095  0.0120 -2.1077
35962SOL    HW210204   9.546   6.507   1.810 -4.7880 -0.3275 -0.2384
35963SOL     OW10205   8.071   5.002   0.337 -0.4479  0.3066  0.4005
35963SOL    HW110206   8.114   4.957   0.264 -0.6705  1.4116 -0.4445
35963SOL    HW210207   7.980   5.011   0.309 -0.0470  2.9451 -0.3650
35964SOL     OW10208   8.757   1.155   0.057  0.1099  0.1188 -0.0819
35964SOL    HW110209   8.744   1.245   0.085 -0.6724  0.6290 -1.9283
35964SOL    HW210210   8.699   1.104   0.112 -0.4495  0.9157  0.0772
35965SOL     OW10211   9.397   6.376   1.300  0.3891  0.1747 -0.0343
35965SOL    HW110212   9.406   6.343   1.389  1.9330 -1.5251 -0.7531
35965SOL    HW210213   9.327   6.324   1.262 -0.0599  0.6874  0.0792
35966SOL     OW10214   2.487   5.278   3.457 -0.1526  0.2228  0.1108
35966SOL    HW110215   2.395   5.302   3.440 -0.4626 -0.0858  1.2944
35966SOL    HW210216   2.482   5.199   3.511  0.8381 -0.5557 -0.8914
35967SOL     OW10217   2.913   4.103   4.972  0.4093  0.4467 -0.2914
35967SOL    HW110218   2.846   4.038   4.948  0.8693 -1.3572  2.7983
35967SOL    HW210219   2.865   4.186   4.973 -1.6335 -0.6525  0.9239
35968SOL     OW10220   3.857   6.270   5.223  0.0246 -0.7863  0.5067
35968SOL    HW110221   3.921   6.325   5.269 -0.1895  0.9734 -1.1770
35968SOL    HW210222   3.888   6.268   5.133 -0.4925 -2.7392  0.3273
35969SOL     OW10223  10.292   5.849   6.361  0.5485  0.2560  0.2946
35969SOL    HW110224  10.336   5.764   6.357  0.1958 -0.0347  1.9097
35969SOL    HW210225  10.287   5.878   6.270 -0.2798 -1.9501 -0.4292
35970SOL     OW10226   2.516   9.235   6.637 -0.1104 -0.2671  0.1799
35970SOL    HW110227   2.433   9.246   6.685 -0.1808 -1.2745  0.3081
35970SOL    HW210228   2.531   9.320   6.596 -0.2830  0.5033  1.6212
35971SOL     OW10229   8.875  10.218   7.666  0.2178  0.3342 -0.3685
35971SOL    HW110230   8.942  10.275   7.627 -0.1740  0.6970 -0.5122
35971SOL    HW210231   8.792  10.255   7.636 -0.0693  0.2705  0.3450
35972SOL     OW10232  10.160   9.995   7.851  0.2703  0.1005  0.2323
35972SOL    HW110233  10.142  10.076   7.802  2.3598 -0.3428 -1.4319
35972SOL    HW210234  10.091   9.935   7.824  0.1522  0.5448 -0.4947
35973SOL     OW10235   2.390   1.921   2.448 -0.5433  0.0335 -0.1284
35973SOL    HW110236   2.361   2.005   2.413 -2.3761 -0.3532  0.3480
35973SOL    HW210237   2.431   1.877   2.373 -1.5644  0.4645 -0.9685
35974SOL     OW10238   3.539   8.790   4.810 -0.5664  0.1969  0.1202
35974SOL    HW110239   3.464   8.842   4.781 -0.2424  0.2993 -0.5655
35974SOL    HW210240   3.541   8.801   4.905 -1.7641 -0.2759  0.2241
35975SOL     OW10241   3.243   4.328   4.454 -0.0051 -0.5713 -0.6735
35975SOL    HW110242   3.149   4.319   4.467 -0.2564  0.7450 -1.4054
35975SOL    HW210243   3.279   4.334   4.542 -0.6100 -0.9600 -0.3928
35976SOL     OW10244   1.859   5.380   6.055  0.0222  0.1990 -0.0427
35976SOL    HW110245   1.928   5.422   6.105  0.7307  0.1837 -0.9770
35976SOL    HW210246   1.880   5.286   6.058 -0.0042  0.1846 -0.2457
35977SOL     OW10247   2.189   5.244   4.458  0.2704  0.1281  0.3743
35977SOL    HW110248   2.257   5.293   4.503  0.0231  0.8847 -0.0728
35977SOL    HW210249   2.164   5.299   4.384  0.4806 -0.9760 -0.5455
35978SOL     OW10250   0.475   5.949   1.710 -0.8130 -0.2030  0.3628
35978SOL    HW110251   0.501   5.872   1.660 -0.5674 -0.7321  1.2779
35978SOL    HW210252   0.555   5.976   1.755 -0.9295  0.5131  0.1617
35979SOL     OW10253   0.987   7.561   5.491  0.3055 -0.0429  0.2098
35979SOL    HW110254   0.962   7.547   5.399 -1.6323 -2.8529  1.0317
35979SOL    HW210255   0.954   7.648   5.512 -0.7007 -0.0036 -1.3476
35980SOL     OW10256   6.509   5.001   4.790  0.4571 -0.8023  0.3270
35980SOL    HW110257   6.603   5.008   4.806  0.1831  0.7196  1.5329
35980SOL    HW210258   6.488   5.079   4.739 -0.6905  1.0106  3.2866
35981SOL     OW10259   4.791  10.321   0.207  0.3486 -0.3197  0.3001
35981SOL    HW110260   4.810  10.236   0.167  1.6117  0.3278 -0.5475
35981SOL    HW210261   4.864  10.337   0.266  0.2873  0.3341  0.2028
35982SOL     OW10262   0.051   4.403   3.493  0.1507 -0.1355  0.0646
35982SOL    HW110263   0.066   4.313   3.463  0.7398  0.4755 -1.6281
35982SOL    HW210264   0.128   4.451   3.463 -0.4014  1.0349  0.4722
35983SOL     OW10265   7.789   9.060   5.851 -0.5026 -0.3826 -0.0910
35983SOL    HW110266   7.772   9.141   5.803 -0.6940  0.1053  0.7823
35983SOL    HW210267   7.728   8.996   5.813 -0.5422 -0.0451 -0.5955
35984SOL     OW10268   5.523   1.004   4.524  0.1000  0.3797  0.3128
35984SOL    HW110269   5.615   0.978   4.534 -0.0139  0.1242  0.7138
35984SOL    HW210270   5.525   1.073   4.458  0.5208  0.0197 -0.0610
35985SOL     OW10271   2.912   0.550   7.634 -0.1515 -0.2593  0.3841
35985SOL    HW110272   2.862   0.631   7.636 -0.8459 -0.4957 -2.6895
35985SOL    HW210273   2.968   0.558   7.556  0.7164 -2.1812  0.7547
35986SOL     OW10274   9.336   0.662   4.567  0.5881  0.7607 -0.1153
35986SOL    HW110275   9.380   0.693   4.646  2.2159  0.0948 -0.7045
35986SOL    HW210276   9.250   0.634   4.596  1.1150  0.6157  1.4036
35987SOL     OW10277   0.191   7.769   5.356 -0.1383 -0.3959 -0.3705
35987SOL    HW110278   0.266   7.754   5.299 -2.6048 -2.1805 -3.4625
35987SOL    HW210279   0.118   7.786   5.296 -2.2645  1.3976  2.4461
35988SOL     OW10280  10.079   9.121   0.617  0.1034 -0.3113 -0.4993
35988SOL    HW110281  10.137   9.076   0.678  2.0582 -0.1469 -2.1334
35988SOL    HW210282  10.133   9.138   0.541 -1.8067  0.9262 -1.6618
35989SOL     OW10283   5.740   2.198   3.420  0.3614 -0.2460 -0.0236
35989SOL    HW110284   5.807   2.195   3.489 -0.9270 -1.7427  1.2105
35989SOL    HW210285   5.741   2.290   3.392  0.8945  0.4562  2.0393
35990SOL     OW10286   9.801   8.816   3.107 -0.1067 -0.0647  0.4251
35990SOL    HW110287   9.855   8.851   3.178 -1.3012  0.6461  1.0166
35990SOL    HW210288   9.834   8.859   3.028  2.6341 -2.4038  0.1252
35991SOL     OW10289   5.510   4.819   1.306 -0.4532 -0.1814  0.2432
35991SOL    HW110290   5.461   4.750   1.261  1.0812  0.2779 -2.2741
35991SOL    HW210291   5.600   4.789   1.306 -0.0034  1.1108  0.5747
35992SOL     OW10292   6.176   4.967   3.201 -0.5424 -0.2944 -0.3570
35992SOL    HW110293   6.097   4.921   3.171 -1.9923  2.3232 -0.9125
35992SOL    HW210294   6.163   4.978   3.295 -0.4866 -0.4855 -0.3266
35993SOL     OW10295   4.109   0.428   5.834  0.2211  0.2021  0.0795
35993SOL    HW110296   4.046   0.497   5.812  1.9978  1.8342 -0.1843
35993SOL    HW210297   4.059   0.367   5.889 -2.4755 -0.3761 -2.7278
35994SOL     OW10298   1.408   6.515   3.996 -0.1906 -0.2199  0.5612
35994SOL    HW110299   1.380   6.490   3.908 -0.0847  1.5005 -0.0129
35994SOL    HW210300   1.472   6.585   3.981 -0.9781  0.8723  2.0159
35995SOL     OW10301   1.870   9.005   3.843 -0.1881 -0.3210 -0.1405
35995SOL    HW110302   1.942   8.966   3.795 -0.4540 -0.5646 -0.3388
35995SOL    HW210303   1.885   9.100   3.835  0.7241 -0.3675  0.7468
35996SOL     OW10304   2.091   9.399   8.302 -0.7810  0.1726 -0.2881
35996SOL    HW110305   2.174   9.361   8.274 -0.7368 -0.4161  0.5949
35996SOL    HW210306   2.036   9.396   8.224  0.1235  0.8916 -0.9802
35997SOL     OW10307   5.703   8.725   8.322  0.0550  0.1262 -0.0118
35997SOL    HW110308   5.693   8.683   8.407  0.1657  0.8609  0.3668
35997SOL    HW210309   5.735   8.813   8.341  0.4853  0.1605 -0.8337
35998SOL     OW10310   2.002   1.190   6.471  0.2348  0.5970 -0.2750
35998SOL    HW110311   1.995   1.141   6.389 -0.7693 -0.2016  0.2774
35998SOL    HW210312   2.081   1.155   6.513 -0.6385 -0.8044  0.2582
35999SOL     OW10313   2.933   4.221   0.322 -0.2548  0.4360  0.0293
35999SOL    HW110314   2.971   4.188   0.241  0.2646  1.5442 -0.1989
35999SOL    HW210315   2.985   4.298   0.343 -0.0074 -0.1613  1.7489
36000SOL     OW10316   2.063   2.303   2.773 -0.0359  0.3159 -0.3875
36000SOL    HW110317   2.016   2.222   2.791 -0.7706  1.0822  1.3249
36000SOL    HW210318   2.064   2.310   2.678 -3.1549  0.1158 -0.5309
36001SOL     OW10319   0.319   3.009   0.566  0.0425  0.2820 -0.3012
36001SOL    HW110320   0.401   2.969   0.537  0.3950 -0.9567  2.0969
36001SOL    HW210321   0.253   2.976   0.505  0.8227 -1.6025 -0.2059
36002SOL     OW10322   5.089   2.382   6.514 -0.5900 -0.1646  0.0647
36002SOL    HW110323   5.025   2.407   6.448 -0.2839 -1.6161 -0.8234
36002SOL    HW210324   5.168   2.431   6.490 -1.2413  1.4451  1.0260
36003SOL     OW10325   8.536   8.274   1.851  0.1061  0.0686 -0.2617
36003SOL    HW110326   8.521   8.180   1.836 -2.1637  0.3752 -0.2479
36003SOL    HW210327   8.478   8.318   1.789 -1.5799  1.4151  2.1029
36004SOL     OW10328   8.197   9.283   1.306  0.0514  0.3185 -0.9528
36004SOL    HW110329   8.275   9.250   1.352  0.3831  1.7008 -0.4632
36004SOL    HW210330   8.208   9.255   1.216  1.7589  1.4854 -1.1615
36005SOL     OW10331   5.589   8.806   6.010 -0.4724 -0.2266 -0.0011
36005SOL    HW110332   5.607   8.898   6.030  0.1734 -0.2901 -0.2693
36005SOL    HW210333   5.493   8.799   6.011 -0.4965  0.0452  1.8153
36006SOL     OW10334   4.135   2.591   9.016 -0.0141 -0.1008 -0.2694
36006SOL    HW110335   4.051   2.633   8.995 -0.1784  0.1728  0.8455
36006SOL    HW210336   4.195   2.665   9.028 -0.3246 -0.1308  1.7961
36007SOL     OW10337   7.164   7.871   6.075  0.1623 -0.1340  0.1992
36007SOL    HW110338   7.203   7.785   6.089  1.4296  0.3351 -0.3613
36007SOL    HW210339   7.238   7.931   6.069 -0.7146  1.2448  2.0062
36008SOL     OW10340   8.803   1.645   5.892 -0.2918 -0.5889  0.5251
36008SOL    HW110341   8.811   1.678   5.981  1.2908 -0.9574  0.5482
36008SOL    HW210342   8.883   1.672   5.848 -0.6117 -1.2421 -0.5168
36009SOL     OW10343   5.028   8.587   8.581  0.0576 -0.1555 -0.2032
36009SOL    HW110344   5.057   8.639   8.506  1.6489 -0.0318  0.4385
36009SOL    HW210345   5.063   8.635   8.657 -2.3999  0.2929  0.7192
36010SOL     OW10346   0.309   3.324   4.413 -0.0739  0.4748  0.2978
36010SOL    HW110347   0.385   3.307   4.358 -0.6195  0.6204 -0.5206
36010SOL    HW210348   0.313   3.418   4.431 -1.1876  0.9146 -1.5147
36011SOL     OW10349   5.313   8.987   2.470  0.6606  0.3241 -0.0908
36011SOL    HW110350   5.312   8.920   2.538 -0.9665  0.2701 -0.1336
36011SOL    HW210351   5.355   9.063   2.512 -0.0794  0.2033  0.9132
36012SOL     OW10352   5.211  10.498   2.551  0.2167  0.5109 -0.4742
36012SOL    HW110353   5.193  10.561   2.481  2.9499  2.3511  0.3158
36012SOL    HW210354   5.223  10.552   2.629  1.0495 -1.1464  0.5990
36013SOL     OW10355   1.410   7.617   5.425 -0.3377  0.2675  0.7673
36013SOL    HW110356   1.371   7.672   5.494 -2.2073 -0.5364  0.4019
36013SOL    HW210357   1.365   7.533   5.432 -1.0185  0.3290 -1.7862
36014SOL     OW10358   7.505   9.145   3.001  0.2972  0.8814  0.3472
36014SOL    HW110359   7.550   9.066   3.032  0.8554  0.7698 -0.7121
36014SOL    HW210360   7.436   9.160   3.067  0.2335 -0.4294  0.6186
36015SOL     OW10361   0.361   2.186   4.214  0.1797  0.3437  0.0877
36015SOL    HW110362   0.377   2.274   4.248  2.2245 -0.5683  1.7015
36015SOL    HW210363   0.428   2.174   4.147  0.9923 -0.5444  1.0340
36016SOL     OW10364   9.853   7.898   4.768  0.1917  0.1177  0.4538
36016SOL    HW110365   9.799   7.945   4.832  0.3504 -1.1912  1.6050
36016SOL    HW210366   9.895   7.829   4.819 -0.0864 -1.3172 -1.1714
36017SOL     OW10367   6.131   1.602   5.972  0.0325 -0.7760 -0.2556
36017SOL    HW110368   6.118   1.523   5.920  1.3707 -0.3279 -1.3140
36017SOL    HW210369   6.226   1.613   5.976 -0.1171  0.3777  0.4993
36018SOL     OW10370   3.810   1.851   4.318 -0.4161  0.7411 -0.1750
36018SOL    HW110371   3.753   1.860   4.241  0.3704 -2.2179 -1.2296
36018SOL    HW210372   3.763   1.791   4.376  1.0212 -0.8269 -0.5450
36019SOL     OW10373   8.766  10.411   4.959  0.1234  0.4129 -0.9079
36019SOL    HW110374   8.762  10.319   4.931  1.5377  0.6340 -1.9166
36019SOL    HW210375   8.839  10.414   5.020 -1.2436  0.4861  0.7953
36020SOL     OW10376   1.712   3.144   1.554  0.2137  0.0958 -0.3719
36020SOL    HW110377   1.773   3.097   1.497  2.0564  2.2464 -0.3074
36020SOL    HW210378   1.688   3.222   1.504  0.7745  1.3277  1.1849
36021SOL     OW10379   0.847   6.731   0.499  0.6322 -0.2201  0.1209
36021SOL    HW110380   0.856   6.666   0.430  1.0919 -0.3599  0.3141
36021SOL    HW210381   0.848   6.815   0.453  0.8546 -0.3175 -0.0528
36022SOL     OW10382   5.849   8.909   5.596 -0.0122  0.2134 -0.1949
36022SOL    HW110383   5.825   8.833   5.544 -0.3287 -0.5761  1.0535
36022SOL    HW210384   5.859   8.875   5.685 -2.4957  1.9753  0.9083
36023SOL     OW10385   4.137   8.815   8.359  0.1254  0.1648  0.0046
36023SOL    HW110386   4.185   8.866   8.293 -0.6263 -0.6387 -1.1993
36023SOL    HW210387   4.195   8.741   8.378 -0.5645 -0.8079 -1.4525
36024SOL     OW10388   4.281   5.887  10.480 -0.0384  0.2096 -0.1391
36024SOL    HW110389   4.333   5.810  10.501 -1.2847 -0.8685 -0.8168
36024SOL    HW210390   4.293   5.899  10.386 -0.8523  0.0340 -0.2808
36025SOL     OW10391   1.861   7.866   4.426 -0.4521  0.0913 -0.6544
36025SOL    HW110392   1.802   7.848   4.353  0.2217 -0.1714 -1.1399
36025SOL    HW210393   1.815   7.933   4.477 -0.5885  0.8476 -1.7329
36026SOL     OW10394   2.821   5.997   1.446  0.3741 -0.2415  0.4486
36026SOL    HW110395   2.816   6.090   1.423  1.2668 -0.0912  0.8024
36026SOL    HW210396   2.831   5.997   1.541  1.8559 -0.6167  0.3153
36027SOL     OW10397   0.182  10.025   3.903  0.3666 -0.1237  0.2952
36027SOL    HW110398   0.273   9.998   3.916 -0.0476 -1.2191  1.0741
36027SOL    HW210399   0.149  10.041   3.992 -1.1206 -2.9739  0.3807
36028SOL     OW10400   8.649   6.424   9.594  0.3105  0.0553 -0.0250
36028SOL    HW110401   8.685   6.421   9.506 -2.0737  0.6154 -1.1004
36028SOL    HW210402   8.707   6.483   9.642  2.3636 -1.2280 -0.8088
36029SOL     OW10403   8.748   1.427   0.106  0.0780  0.1644 -0.3024
36029SOL    HW110404   8.725   1.520   0.098 -1.2345 -0.1452 -0.4038
36029SOL    HW210405   8.839   1.423   0.077 -0.1170  1.2926 -1.1777
36030SOL     OW10406  10.427   9.146   7.186 -0.1419  0.0836 -0.0147
36030SOL    HW110407  10.494   9.200   7.228 -1.2077  1.7996 -0.4598
36030SOL    HW210408  10.436   9.060   7.228  1.3583  0.6794  0.9529
36031SOL     OW10409   5.011   3.265   8.368 -0.3305 -0.0529 -0.4346
36031SOL    HW110410   4.980   3.240   8.455  0.0218  0.1343 -0.2534
36031SOL    HW210411   5.087   3.320   8.384 -0.4317  0.2176 -0.8565
36032SOL     OW10412   2.421   1.243   7.778 -0.2095 -0.0746  0.4113
36032SOL    HW110413   2.358   1.291   7.832  1.1991  1.6027  0.6362
36032SOL    HW210414   2.492   1.220   7.838  0.7332  0.6153 -0.4096
36033SOL     OW10415   3.219   9.545  10.458 -0.2927  0.7506  0.6054
36033SOL    HW110416   3.145   9.578  10.408  0.0628 -0.8838 -1.1154
36033SOL    HW210417   3.188   9.462  10.495 -0.9301  2.4025  4.1925
36034SOL     OW10418   2.031   0.998   4.119 -0.6257 -0.6188  0.0227
36034SOL    HW110419   1.974   1.060   4.073 -0.2055 -1.0720 -1.1520
36034SOL    HW210420   2.101   1.052   4.155 -1.1100 -0.2220  0.3998
36035SOL     OW10421   5.164   2.702   5.501  0.6995  0.0872  0.0276
36035SOL    HW110422   5.169   2.732   5.410 -0.6599 -0.2074 -0.1678
36035SOL    HW210423   5.158   2.783   5.552 -0.7749  0.2355 -0.3339
36036SOL     OW10424   3.788   8.343   5.582 -0.2726  0.7918 -0.0661
36036SOL    HW110425   3.866   8.322   5.633  0.1235  3.2640  0.4938
36036SOL    HW210426   3.814   8.332   5.491  0.1422 -0.1775  0.1618
36037SOL     OW10427   1.811   5.350   0.162 -0.1939  0.0322  0.4161
36037SOL    HW110428   1.754   5.351   0.239 -0.0081 -0.3856  0.5624
36037SOL    HW210429   1.758   5.310   0.093 -0.4493  0.6404  0.2511
36038SOL     OW10430   3.151  10.355   1.650 -0.2343 -0.3263 -0.2431
36038SOL    HW110431   3.168  10.410   1.573  0.5680  0.9715  0.8052
36038SOL    HW210432   3.176  10.410   1.724 -1.5974 -1.2929  1.0000
36039SOL     OW10433   6.200  10.428   4.975 -0.0855 -0.5231 -0.3651
36039SOL    HW110434   6.127  10.448   5.033 -1.9908  1.8097 -3.2479
36039SOL    HW210435   6.185  10.338   4.947 -0.8080 -0.6703  0.4681
36040SOL     OW10436   2.349   6.374   9.271  0.0893 -0.4977  0.1986
36040SOL    HW110437   2.256   6.393   9.259 -0.1983 -2.3551 -1.0318
36040SOL    HW210438   2.385   6.377   9.183  1.5574  1.5887  0.8031
36041SOL     OW10439   3.157   8.775   7.818 -0.7857  0.0816 -0.5621
36041SOL    HW110440   3.155   8.810   7.729 -0.2909 -0.7853 -0.9234
36041SOL    HW210441   3.250   8.758   7.835 -0.8898  0.1237  0.0780
36042SOL     OW10442   8.322   8.708   8.597 -0.1726 -0.0024  0.6017
36042SOL    HW110443   8.288   8.724   8.509 -3.7355 -0.7358  1.6706
36042SOL    HW210444   8.416   8.698   8.586 -0.2914  1.5617 -2.8515
36043SOL     OW10445   2.096   3.551   1.439  0.2808  0.0063  0.5084
36043SOL    HW110446   2.079   3.542   1.533 -2.1871  1.0206  0.2400
36043SOL    HW210447   2.017   3.518   1.397  2.1372 -2.3653 -1.3671
36044SOL     OW10448   3.267   8.233   8.717  0.5114 -0.2379  0.2793
36044SOL    HW110449   3.171   8.229   8.712  0.4954 -0.6141  0.7724
36044SOL    HW210450   3.297   8.206   8.630  0.1687 -0.2997  0.1796
36045SOL     OW10451   4.380   3.844   7.910  0.2912  0.2272  0.0730
36045SOL    HW110452   4.351   3.891   7.989  0.3165  0.2089  0.0933
36045SOL    HW210453   4.459   3.890   7.883 -1.5292  2.4816 -1.9526
36046SOL     OW10454   6.337   2.126   6.534  0.0360 -0.6270 -0.4976
36046SOL    HW110455   6.398   2.199   6.522 -0.1920 -0.4160 -0.3895
36046SOL    HW210456   6.358   2.066   6.463  0.8727 -0.9162 -0.0216
36047SOL     OW10457   8.225   9.121   7.431  0.1132 -0.3389 -0.4566
36047SOL    HW110458   8.276   9.149   7.355 -0.4228 -0.4580 -0.8650
36047SOL    HW210459   8.288   9.121   7.503  0.1042  2.0986 -0.3891
36048SOL     OW10460   3.767   3.302   1.341  0.6794  0.4234  0.3120
36048SOL    HW110461   3.772   3.251   1.422  0.4497 -1.4789 -0.8178
36048SOL    HW210462   3.677   3.290   1.311  1.6903 -2.1354 -2.1437
36049SOL     OW10463   4.518  10.192   3.289 -0.6159 -0.7813 -0.2560
36049SOL    HW110464   4.459  10.164   3.219 -0.6545 -0.3168 -0.4116
36049SOL    HW210465   4.476  10.269   3.328 -1.3623 -1.9238  1.3091
36050SOL     OW10466   2.851   1.907   0.595  0.4771  0.1176  0.0523
36050SOL    HW110467   2.844   1.994   0.636  0.1557  0.0620  0.1197
36050SOL    HW210468   2.942   1.902   0.566  0.3155  0.7751 -0.6053
36051SOL     OW10469   0.175  10.402   3.153  0.4079 -0.2815 -0.1626
36051SOL    HW110470   0.270  10.416   3.161  0.3995 -0.4220  0.1702
36051SOL    HW210471   0.168  10.321   3.102  0.4971 -1.6539  1.8999
36052SOL     OW10472   0.359   8.975   1.378  0.3464  0.9746  0.0331
36052SOL    HW110473   0.451   9.000   1.367  0.5200  0.9791  1.3173
36052SOL    HW210474   0.354   8.885   1.345  0.3208  1.6868 -2.0283
36053SOL     OW10475   2.981   1.401   3.248  0.5192  0.2223  0.0347
36053SOL    HW110476   3.058   1.383   3.194  0.0436 -3.3694  0.2821
36053SOL    HW210477   2.979   1.330   3.312 -2.8927  0.2075  0.1326
36054SOL     OW10478   7.123   1.607   9.391  0.4174  0.6781 -0.5446
36054SOL    HW110479   7.175   1.557   9.329  0.5800 -1.5824  1.2773
36054SOL    HW210480   7.051   1.549   9.415 -0.7693  2.2591 -0.0868
36055SOL     OW10481   9.500   3.608  10.136 -0.1202  0.3579 -0.0069
36055SOL    HW110482   9.468   3.684  10.087 -0.7573 -0.4293 -0.8512
36055SOL    HW210483   9.501   3.637  10.227 -2.5346  0.6695 -0.0138
36056SOL     OW10484   5.520   2.882   3.185 -0.1454 -0.1574  0.1629
36056SOL    HW110485   5.575   2.805   3.197  2.0703  1.4935  1.3967
36056SOL    HW210486   5.568   2.953   3.228 -2.5899  1.7160  0.0491
36057SOL     OW10487   9.569   9.377   7.799  1.0817 -0.5142 -0.7450
36057SOL    HW110488   9.549   9.410   7.711  0.3709  0.8503 -0.0967
36057SOL    HW210489   9.493   9.325   7.824 -0.1716  1.6937  0.2767
36058SOL     OW10490   1.739   3.068   8.955 -0.4033 -0.2811  0.2435
36058SOL    HW110491   1.690   3.007   8.900  0.1695 -0.7485  0.2424
36058SOL    HW210492   1.749   3.022   9.038  2.5757 -1.4937 -0.6529
36059SOL     OW10493   3.041   7.366  10.348  0.2421 -0.2243 -0.1258
36059SOL    HW110494   3.057   7.460  10.339  2.4683 -0.1921  2.8053
36059SOL    HW210495   3.105   7.325  10.290 -1.5370 -0.0565 -2.3690
36060SOL     OW10496   6.913   9.357   5.328 -0.3220  0.1668 -0.2757
36060SOL    HW110497   6.955   9.292   5.385 -0.9607 -0.8202 -0.8925
36060SOL    HW210498   6.829   9.374   5.371 -0.0020  0.8742  0.0781
36061SOL     OW10499   4.989   8.355   0.700  0.6411 -0.0046  0.3940
36061SOL    HW110500   4.910   8.399   0.734 -1.4404 -1.1412 -2.5667
36061SOL    HW210501   5.057   8.422   0.704 -1.1104  1.8662  0.7289
36062SOL     OW10502   7.164   2.536   8.929  0.0387 -0.1032  0.1050
36062SOL    HW110503   7.164   2.532   9.025  0.5310  2.2442  0.2577
36062SOL    HW210504   7.076   2.509   8.904 -0.4707  0.3682  1.3099
36063SOL     OW10505   6.666   7.251   3.360 -0.2575  0.0477 -0.8593
36063SOL    HW110506   6.743   7.224   3.310 -0.3846  0.3353 -1.2123
36063SOL    HW210507   6.670   7.347   3.361 -0.4809  0.0573 -0.6691
36064SOL     OW10508   0.973   5.788   5.118  0.3991  0.3904  0.6535
36064SOL    HW110509   0.985   5.863   5.060 -0.6331 -1.7696 -2.6140
36064SOL    HW210510   1.049   5.732   5.102 -0.4025 -0.7109  0.5761
36065SOL     OW10511   7.880   5.641   1.501 -0.0666  0.0516  0.1499
36065SOL    HW110512   7.902   5.589   1.578  1.0212 -0.8470 -0.7236
36065SOL    HW210513   7.806   5.595   1.462  0.1052 -0.1501  0.0553
36066SOL     OW10514   4.202   5.256   7.853 -0.4772  0.3077  0.3179
36066SOL    HW110515   4.144   5.181   7.867 -0.3692  0.3496  0.9883
36066SOL    HW210516   4.164   5.326   7.906 -0.8606  0.8837 -0.6897
36067SOL     OW10517   8.088   7.198   2.230  0.0002 -0.0238  0.7471
36067SOL    HW110518   8.093   7.164   2.319  0.1884 -0.5864  0.5286
36067SOL    HW210519   7.998   7.226   2.220 -0.2292 -0.7057  0.8513
36068SOL     OW10520   4.833   3.375   6.050 -0.0700 -0.5576 -0.1031
36068SOL    HW110521   4.909   3.401   6.102 -0.9018 -1.7214  1.7749
36068SOL    HW210522   4.765   3.438   6.073 -0.1961 -0.5560 -0.4667
36069SOL     OW10523   4.479   3.402   6.514 -0.0893 -0.0802  0.3120
36069SOL    HW110524   4.516   3.314   6.513  1.1301  0.4094  0.2659
36069SOL    HW210525   4.387   3.389   6.540 -0.7846 -1.6276 -2.5161
36070SOL     OW10526   8.743   8.939   2.802  0.4137 -0.0174 -0.4221
36070SOL    HW110527   8.671   8.898   2.850  0.0331  0.1040 -0.8805
36070SOL    HW210528   8.713   9.029   2.788  0.8265  0.1428 -0.2657
36071SOL     OW10529   4.634   4.617  10.373 -0.0743  0.4971 -0.3573
36071SOL    HW110530   4.659   4.702  10.409 -1.1077  0.4730  0.4885
36071SOL    HW210531   4.652   4.624  10.280  3.6299  0.2297  0.1846
36072SOL     OW10532   6.198   2.244   5.402  0.5839 -0.1349 -0.7746
36072SOL    HW110533   6.259   2.203   5.341  0.6214  1.0160 -1.5469
36072SOL    HW210534   6.172   2.325   5.359 -0.6873 -0.0929  0.0051
36073SOL     OW10535   5.542   5.889   9.226  0.5169 -0.7064 -0.8492
36073SOL    HW110536   5.530   5.955   9.294 -1.4354  0.9850 -2.7128
36073SOL    HW210537   5.494   5.813   9.258  0.5501 -0.3303  0.1376
36074SOL     OW10538   7.740   4.569   0.489 -0.1367 -0.3043 -0.4751
36074SOL    HW110539   7.729   4.663   0.476  0.0016  0.3069  2.8970
36074SOL    HW210540   7.655   4.539   0.521  0.1943 -1.0648 -0.2844
36075SOL     OW10541   3.411   2.600   5.453 -0.1356 -0.3657  0.0176
36075SOL    HW110542   3.455   2.678   5.421 -0.9623  0.7983  1.5737
36075SOL    HW210543   3.348   2.578   5.385 -0.3242  0.7054 -0.1633
36076SOL     OW10544   0.984   5.191   7.448  1.1671  0.1305  0.2240
36076SOL    HW110545   1.057   5.149   7.494 -0.3842 -1.8588  1.0280
36076SOL    HW210546   0.917   5.204   7.516  0.1278  0.3520 -0.8159
36077SOL     OW10547   9.462   4.527  10.582 -0.2085 -0.5384  0.4239
36077SOL    HW110548   9.432   4.594  10.520 -0.4925  0.9079  2.0201
36077SOL    HW210549   9.397   4.457  10.575 -1.7173  0.7342  0.8775
36078SOL     OW10550   5.743   4.071   0.864 -0.2490  0.0541  0.2442
36078SOL    HW110551   5.837   4.066   0.883  0.5618  1.2493 -2.8610
36078SOL    HW210552   5.725   3.993   0.811 -0.6552  0.5260 -0.3353
36079SOL     OW10553  10.093   3.781  10.376  0.0960  0.0791  0.1078
36079SOL    HW110554   9.999   3.766  10.382  0.4358 -2.4575  0.3006
36079SOL    HW210555  10.123   3.717  10.311  1.7169  0.7017  0.1894
36080SOL     OW10556   8.168   6.497   1.254  0.5333 -0.0766  0.6990
36080SOL    HW110557   8.077   6.519   1.232  0.3398 -1.8418 -0.5049
36080SOL    HW210558   8.203   6.576   1.295 -1.4556  0.7409  0.9434
36081SOL     OW10559   5.046   3.569   0.401 -0.0412  0.0497 -0.1613
36081SOL    HW110560   5.125   3.613   0.433  1.0544 -1.6850 -0.3772
36081SOL    HW210561   4.999   3.544   0.480  1.3770 -1.9451  0.1140
36082SOL     OW10562   8.996   5.855   5.341  0.2451  0.2035 -0.0636
36082SOL    HW110563   8.950   5.808   5.271  1.4144 -1.4455  0.2234
36082SOL    HW210564   9.023   5.937   5.301 -1.7494  0.6374 -0.6236
36083SOL     OW10565   7.453   3.239   7.956  0.3327 -0.1692  0.7258
36083SOL    HW110566   7.409   3.257   8.039  0.9420 -0.7002  1.1730
36083SOL    HW210567   7.382   3.220   7.894 -0.1155  0.1363  1.1415
36084SOL     OW10568  10.222   7.578   3.182 -0.1943  0.4457  0.0478
36084SOL    HW110569  10.176   7.619   3.108 -0.1451  1.4216  0.5373
36084SOL    HW210570  10.235   7.650   3.244 -1.2750 -0.5782  1.5213
36085SOL     OW10571   1.766   0.814   3.535  0.3269 -0.6417 -0.5603
36085SOL    HW110572   1.792   0.723   3.524 -2.6029 -1.6192 -0.2272
36085SOL    HW210573   1.671   0.811   3.546 -0.0526  2.5615 -1.7834
36086SOL     OW10574   8.544   8.255   3.848  0.0460  0.0221  0.2541
36086SOL    HW110575   8.531   8.343   3.811  0.7752 -0.8536 -2.2275
36086SOL    HW210576   8.619   8.266   3.907  0.6695  0.9161 -0.6579
36087SOL     OW10577   9.235   7.616   2.422 -0.4037 -0.0970 -0.0743
36087SOL    HW110578   9.304   7.682   2.415  1.2861 -1.7909 -0.2408
36087SOL    HW210579   9.281   7.536   2.450 -2.5305 -0.9417  1.3030
36088SOL     OW10580   9.513   1.806   7.505 -0.4477 -0.1880 -0.7000
36088SOL    HW110581   9.566   1.764   7.437  0.8668  0.7465 -0.3076
36088SOL    HW210582   9.511   1.899   7.480  1.5346  0.5194  1.3321
36089SOL     OW10583   9.870   1.009   0.889  0.2302 -0.0859  0.0815
36089SOL    HW110584   9.851   1.079   0.951 -0.6469 -1.2876  1.2444
36089SOL    HW210585   9.899   1.053   0.810  0.3782  1.5422  1.0157
36090SOL     OW10586   9.811   0.196   9.561  0.0800 -0.3668  0.0825
36090SOL    HW110587   9.846   0.171   9.475 -0.3015  1.3601 -0.6229
36090SOL    HW210588   9.741   0.134   9.577 -0.1317 -0.4561 -1.0711
36091SOL     OW10589   8.038   0.134   8.086 -0.0844 -0.3909 -0.2901
36091SOL    HW110590   8.087   0.158   8.165  0.0165  1.0142 -0.7583
36091SOL    HW210591   8.105   0.099   8.027  0.1553  0.2933 -0.4337
36092SOL     OW10592  10.446   2.255   1.996 -0.0322  0.2267  0.0426
36092SOL    HW110593  10.524   2.243   2.051 -0.2056 -2.5630 -0.1473
36092SOL    HW210594  10.471   2.217   1.911 -1.0781  0.8075 -0.5406
36093SOL     OW10595  10.144  10.127   4.625 -0.1083  0.1886  0.2318
36093SOL    HW110596  10.060  10.173   4.617 -0.7411 -1.1408 -1.5065
36093SOL    HW210597  10.137  10.078   4.707 -0.8168  0.4926  0.3590
36094SOL     OW10598   7.135   2.607   7.029  0.1994 -0.9467  0.5743
36094SOL    HW110599   7.220   2.578   6.996  1.3523  2.1661  0.4907
36094SOL    HW210600   7.123   2.559   7.111  2.3879 -0.9566  0.9371
36095SOL     OW10601   6.907  10.543   1.664 -0.5489 -0.6233  0.1612
36095SOL    HW110602   6.856  10.580   1.736 -1.6670 -0.9279 -0.4598
36095SOL    HW210603   6.982  10.501   1.707 -0.0432  1.0250  0.9888
36096SOL     OW10604   8.260   8.934   8.701 -0.6009 -0.3739  0.1216
36096SOL    HW110605   8.279   8.845   8.672 -1.3636 -0.6994  0.5959
36096SOL    HW210606   8.266   8.929   8.797  1.1471  0.5065  0.1075
36097SOL     OW10607  10.510   9.099   3.215 -0.2174  0.1312  0.4587
36097SOL    HW110608  10.499   9.190   3.189  0.6500  0.3926  0.9587
36097SOL    HW210609  10.490   9.048   3.137 -1.7300  0.6859  0.4509
36098SOL     OW10610   9.535   2.001   5.832  0.2644  0.6536 -0.4954
36098SOL    HW110611   9.605   2.066   5.834  0.5704  0.3284 -0.3569
36098SOL    HW210612   9.475   2.032   5.764  0.9599  0.5267 -1.1844
36099SOL     OW10613   7.187   2.708   7.363 -0.0521  0.9083 -0.1155
36099SOL    HW110614   7.178   2.658   7.444 -0.9671  1.6124  0.2472
36099SOL    HW210615   7.097   2.714   7.330  0.4801 -0.6027 -1.9707
36100SOL     OW10616   2.820   4.762   2.351 -0.0619 -0.0908 -0.3647
36100SOL    HW110617   2.729   4.744   2.331 -0.4088  1.4220 -0.2095
36100SOL    HW210618   2.827   4.746   2.445 -0.3271  0.4622 -0.2526
36101SOL     OW10619   9.716   9.955   1.911 -0.1611 -0.2774 -0.3621
36101SOL    HW110620   9.674   9.900   1.978 -0.1619 -0.9911 -0.9327
36101SOL    HW210621   9.722  10.041   1.951  0.2190 -0.7933  0.7211
36102SOL     OW10622   6.332   9.864   8.195  0.2795 -0.3109  0.5377
36102SOL    HW110623   6.387   9.925   8.147 -1.3547 -0.1396 -1.2395
36102SOL    HW210624   6.261   9.918   8.230 -1.0897 -1.0707 -0.9044
36103SOL     OW10625  10.024   4.368   2.563 -0.2304  0.2826  0.0377
36103SOL    HW110626  10.064   4.349   2.478  1.2942  1.1163  0.5214
36103SOL    HW210627   9.934   4.337   2.555  0.2986 -1.0086 -1.3654
36104SOL     OW10628   5.307   3.369   3.633 -0.0048  0.5919  0.4397
36104SOL    HW110629   5.380   3.339   3.580  1.5576  0.2805  2.6384
36104SOL    HW210630   5.326   3.462   3.649 -1.3028  1.1049 -0.8049
36105SOL     OW10631   7.131   6.395   0.660 -0.2944  0.5523 -0.3097
36105SOL    HW110632   7.047   6.377   0.702 -0.3827  0.2655 -0.6078
36105SOL    HW210633   7.196   6.367   0.724 -0.4100 -1.4918 -1.0002
36106SOL     OW10634   8.377   7.494   3.935 -0.2475  0.4256 -0.3031
36106SOL    HW110635   8.452   7.490   3.876 -0.2251  1.8391 -0.3947
36106SOL    HW210636   8.347   7.403   3.942  2.0775 -0.3554  0.5535
36107SOL     OW10637   9.178   1.477   4.599 -0.2119 -0.3129 -0.1330
36107SOL    HW110638   9.235   1.442   4.668 -0.9808  1.1808  1.3137
36107SOL    HW210639   9.149   1.562   4.632  0.2035  0.9443 -2.7681
36108SOL     OW10640   1.702   8.172   3.361  0.6354 -0.2822 -0.2300
36108SOL    HW110641   1.724   8.164   3.453  2.0430  1.2130 -0.3897
36108SOL    HW210642   1.657   8.256   3.354 -0.9486 -1.1244 -0.6857
36109SOL     OW10643   3.631   4.662   8.044  0.5478 -0.7718 -0.3742
36109SOL    HW110644   3.583   4.745   8.041 -0.7553 -1.4872 -0.3556
36109SOL    HW210645   3.723   4.687   8.042  0.2505  0.7757  1.9025
36110SOL     OW10646  10.431   5.898   9.407  0.0259  0.0904 -0.5168
36110SOL    HW110647  10.515   5.941   9.393  0.3082 -0.6541 -1.1776
36110SOL    HW210648  10.408   5.862   9.321  0.2206 -1.8139  0.1852
36111SOL     OW10649   9.602   3.719   3.427  0.0279  0.4812  0.3525
36111SOL    HW110650   9.528   3.780   3.437 -1.1641 -0.8448 -0.0458
36111SOL    HW210651   9.576   3.642   3.478  2.2684  0.9071  2.2667
36112SOL     OW10652  10.553   6.857  10.319  0.0862  0.5413 -0.6586
36112SOL    HW110653  10.611   6.800  10.369  1.6455  1.7370 -1.0416
36112SOL    HW210654  10.472   6.859  10.369  0.8575 -0.0345  0.6500
36113SOL     OW10655   9.738   6.387   1.999  0.4558  0.5707 -0.0697
36113SOL    HW110656   9.811   6.448   1.987  0.7740 -0.2132 -2.7938
36113SOL    HW210657   9.660   6.441   1.987  0.6406  0.9101  0.2078
36114SOL     OW10658   8.216   2.918   8.970  0.3433 -0.4341 -0.3573
36114SOL    HW110659   8.148   2.912   9.037 -0.3256  1.3053 -0.7993
36114SOL    HW210660   8.176   2.972   8.901  2.1065  0.5283 -0.6901
36115SOL     OW10661   3.612   3.362   0.590  1.0749 -0.1273 -0.3524
36115SOL    HW110662   3.579   3.284   0.545  0.7734  0.5834 -1.3938
36115SOL    HW210663   3.702   3.339   0.614  1.2479 -0.5364 -1.3238
36116SOL     OW10664   8.044   9.579   4.175  0.5225  0.1528  0.0067
36116SOL    HW110665   8.043   9.498   4.225  1.8138 -0.8995 -1.5723
36116SOL    HW210666   8.134   9.611   4.183  0.4396  0.5857 -0.6519
36117SOL     OW10667   9.715   7.231   2.238  0.2332 -0.5285 -0.2256
36117SOL    HW110668   9.629   7.229   2.194 -0.6447  0.6368  1.3273
36117SOL    HW210669   9.770   7.284   2.181 -0.4710 -0.2125 -0.6310
36118SOL     OW10670   1.772   2.472   6.277  0.1749 -0.0252 -0.4133
36118SOL    HW110671   1.740   2.461   6.187 -0.4265  0.8887 -0.3293
36118SOL    HW210672   1.719   2.543   6.312  1.0110  0.2204  0.3815
36119SOL     OW10673   6.411   4.682   8.776 -0.2920  0.2730  0.0932
36119SOL    HW110674   6.379   4.600   8.812 -0.0402  0.4261  0.6872
36119SOL    HW210675   6.383   4.749   8.839  0.3840  0.5167  0.1431
36120SOL     OW10676   8.501   4.149   6.767  1.0853 -0.4849 -0.0589
36120SOL    HW110677   8.497   4.234   6.722 -2.4082 -0.4127  0.0676
36120SOL    HW210678   8.539   4.169   6.852  2.2659  0.5350 -0.8005
36121SOL     OW10679   4.721   3.593   3.362  0.5912  0.1567 -0.0911
36121SOL    HW110680   4.722   3.673   3.308  0.5715  1.5482  1.8411
36121SOL    HW210681   4.771   3.617   3.440  0.5265 -1.7317  0.5669
36122SOL     OW10682  10.362   2.902   1.951  0.2727 -0.1537  0.1361
36122SOL    HW110683  10.436   2.958   1.972 -0.3078  0.4159  0.7042
36122SOL    HW210684  10.286   2.960   1.952 -0.2536 -0.8203  0.0837
36123SOL     OW10685   2.058   1.743   1.433 -0.1920  0.2897 -0.8446
36123SOL    HW110686   2.150   1.736   1.459  0.2694  1.6636 -1.9909
36123SOL    HW210687   2.013   1.680   1.489  0.9295  2.0447  2.3112
36124SOL     OW10688   9.738   9.752   7.577  0.5819 -0.0209 -0.3129
36124SOL    HW110689   9.714   9.842   7.597  0.6882  0.2794 -1.4743
36124SOL    HW210690   9.666   9.699   7.611  0.1386  0.5668 -0.3379
36125SOL     OW10691   9.939   5.824   2.288 -0.0579  0.1540 -0.4972
36125SOL    HW110692   9.874   5.755   2.300 -0.1170  0.4448  1.1121
36125SOL    HW210693   9.914   5.892   2.350  1.1741  0.7292 -0.5856
36126SOL     OW10694  10.326   9.531   2.069 -0.1502  0.2110 -0.7293
36126SOL    HW110695  10.302   9.611   2.021  0.3144  1.0223  0.3348
36126SOL    HW210696  10.389   9.561   2.134 -0.8494 -0.8159  0.4720
36127SOL     OW10697   2.860  10.131   8.392  0.0444  0.7042 -0.2081
36127SOL    HW110698   2.886  10.073   8.463 -0.0007  0.8335 -0.0865
36127SOL    HW210699   2.829  10.210   8.435  0.3572  0.9234 -0.3794
36128SOL     OW10700   0.910   3.291   4.150  0.2460  0.1862 -0.0635
36128SOL    HW110701   0.865   3.374   4.164  0.8090  0.7317 -1.4097
36128SOL    HW210702   0.955   3.301   4.066  0.2345 -1.5190 -0.3046
36129SOL     OW10703   7.677   6.975   4.528  0.6733 -0.0845  0.5760
36129SOL    HW110704   7.679   6.946   4.437  0.6037  1.6014 -0.0040
36129SOL    HW210705   7.598   6.936   4.565 -1.0632  1.7297 -1.0207
36130SOL     OW10706   1.001   6.826   4.269  0.6289  0.1319  0.0912
36130SOL    HW110707   1.014   6.732   4.270 -1.1704 -0.1430  0.6686
36130SOL    HW210708   0.906   6.838   4.278  0.5749  1.9544 -2.0287
36131SOL     OW10709   4.392   7.863   9.158  0.6361 -0.4186  0.5767
36131SOL    HW110710   4.298   7.865   9.176 -0.1383  0.3344 -2.8376
36131SOL    HW210711   4.415   7.770   9.160 -1.3189 -1.1685 -2.8104
36132SOL     OW10712   5.878   4.347   8.499 -0.5126 -0.5514  0.2187
36132SOL    HW110713   5.797   4.328   8.547 -0.5013  0.3985  0.6249
36132SOL    HW210714   5.868   4.437   8.470  1.0161  0.0774  1.5134
36133SOL     OW10715   3.339   8.139   8.212  0.0102  0.5395 -0.0169
36133SOL    HW110716   3.276   8.069   8.198  0.7113  0.2269 -1.9162
36133SOL    HW210717   3.344   8.185   8.128  2.4109  0.4328 -0.0132
36134SOL     OW10718   0.258   2.238   0.470  0.1894  0.3093  0.2868
36134SOL    HW110719   0.325   2.171   0.461 -0.0911  0.1486 -0.7190
36134SOL    HW210720   0.293   2.314   0.425 -1.3509 -0.5885 -2.7046
36135SOL     OW10721   7.875   0.803   5.186 -0.1200 -1.0703 -0.2156
36135SOL    HW110722   7.924   0.725   5.158  0.7671 -0.3372 -0.7385
36135SOL    HW210723   7.895   0.869   5.120 -0.5817 -0.2819  0.4178
36136SOL     OW10724  10.143   2.260   5.964 -0.6035 -0.4093  0.3889
36136SOL    HW110725  10.190   2.177   5.964 -1.3957 -0.8652  0.0708
36136SOL    HW210726  10.109   2.268   6.054  0.5687  0.2167  0.7958
36137SOL     OW10727   3.960   4.201   9.069 -0.8935 -0.4343 -0.0578
36137SOL    HW110728   3.934   4.288   9.038  0.1231 -0.5132 -1.1951
36137SOL    HW210729   3.978   4.214   9.162  0.6750  0.9543 -0.4957
36138SOL     OW10730   8.846   2.223   1.076 -0.1234  0.4532  0.0083
36138SOL    HW110731   8.843   2.128   1.092  1.1496  0.4945  0.6097
36138SOL    HW210732   8.868   2.261   1.161  1.9890  1.0665 -0.7602
36139SOL     OW10733   2.914   4.357   6.587 -0.2212 -0.1765 -0.5494
36139SOL    HW110734   2.874   4.281   6.544 -0.6757 -0.4451  0.3300
36139SOL    HW210735   2.853   4.428   6.571 -1.0694 -0.5816  0.7755
36140SOL     OW10736   6.775   3.953   0.781  0.0245  0.7217  0.1995
36140SOL    HW110737   6.817   3.899   0.847  0.9899  1.3073  0.0764
36140SOL    HW210738   6.847   3.991   0.731 -0.6287  1.8588  0.0811
36141SOL     OW10739   0.060   3.198   0.972  0.9759 -0.3754  0.1773
36141SOL    HW110740   0.094   3.111   0.992  2.9185  0.1848 -0.4283
36141SOL    HW210741   0.126   3.258   1.006  1.7528  0.7297 -2.9129
36142SOL     OW10742   3.928   3.454   1.677  0.2657 -0.5386  0.2781
36142SOL    HW110743   3.849   3.509   1.676 -0.7301 -1.9255 -0.4111
36142SOL    HW210744   3.933   3.421   1.767 -0.7998 -1.5841 -0.0137
36143SOL     OW10745   5.884   2.950   0.090 -0.3476 -0.0669  0.0480
36143SOL    HW110746   5.970   2.909   0.085 -0.5808 -0.5341 -0.1650
36143SOL    HW210747   5.827   2.883   0.128 -0.6419  0.1992  0.0795
36144SOL     OW10748   3.646  10.447   6.088  0.2547  0.1931 -0.1428
36144SOL    HW110749   3.718  10.396   6.126 -0.4968  1.0647  2.7626
36144SOL    HW210750   3.688  10.529   6.061  0.7512 -0.3043 -0.9421
36145SOL     OW10751   9.411   5.306   0.847 -0.2070 -0.1975 -0.1661
36145SOL    HW110752   9.385   5.379   0.902  0.5212  0.1768 -0.3029
36145SOL    HW210753   9.389   5.228   0.897  0.1182  0.1341  0.4964
36146SOL     OW10754   1.162   1.956   1.423  0.7745 -0.0703  0.8243
36146SOL    HW110755   1.139   1.892   1.489 -0.8615 -0.3117  0.0591
36146SOL    HW210756   1.117   1.927   1.344  0.7889  1.4860  0.2047
36147SOL     OW10757   7.489   7.486   8.814 -0.1308 -0.4118  0.2870
36147SOL    HW110758   7.582   7.486   8.837  0.1173  0.7558 -0.6158
36147SOL    HW210759   7.462   7.577   8.824 -0.7539 -0.4265 -1.0779
36148SOL     OW10760   6.340   2.252   7.302  0.8712  0.4600  0.2257
36148SOL    HW110761   6.347   2.313   7.228  0.7507 -0.5725 -0.6620
36148SOL    HW210762   6.246   2.234   7.309  1.0754 -1.4714 -1.1157
36149SOL     OW10763   8.568   4.613   1.627 -0.5776  0.3017  0.2111
36149SOL    HW110764   8.545   4.537   1.574  2.7455  0.3633 -1.5515
36149SOL    HW210765   8.483   4.652   1.650 -2.3067 -1.2003 -2.8883
36150SOL     OW10766   0.168   7.668   7.505  0.5804  0.2435 -0.5384
36150SOL    HW110767   0.173   7.624   7.421 -0.1667  0.4726 -0.7117
36150SOL    HW210768   0.158   7.761   7.484 -0.5889  0.2101 -0.2349
36151SOL     OW10769   7.318   4.205   5.602  0.4154  0.3699  0.1597
36151SOL    HW110770   7.290   4.296   5.610  0.4449  0.7468 -2.9461
36151SOL    HW210771   7.414   4.208   5.609  0.4096  0.5653  0.1479
36152SOL     OW10772   5.741   4.433   1.563  0.3697  0.2194 -0.1234
36152SOL    HW110773   5.668   4.490   1.585  1.5517  1.5467  0.5567
36152SOL    HW210774   5.797   4.435   1.641  0.0616 -2.6107  0.2913
36153SOL     OW10775   6.809   2.966   7.673 -0.5577  0.5636  0.9194
36153SOL    HW110776   6.863   3.044   7.661 -0.7822  0.5098 -0.7934
36153SOL    HW210777   6.829   2.935   7.761 -0.8500  2.8451  1.8580
36154SOL     OW10778   1.439   4.812   9.453 -0.9878 -0.6773 -0.2361
36154SOL    HW110779   1.399   4.751   9.516  2.2991 -3.4599 -0.5829
36154SOL    HW210780   1.376   4.816   9.381 -2.7426 -1.0740  1.1904
36155SOL     OW10781   7.979   9.294   7.764  0.4757  0.0592 -0.0328
36155SOL    HW110782   7.897   9.270   7.806  1.0618  0.9899  1.7476
36155SOL    HW210783   7.960   9.376   7.719 -0.2400 -1.1035 -1.9678
36156SOL     OW10784   7.819   2.825   9.425  0.7897  0.2798 -0.4003
36156SOL    HW110785   7.815   2.797   9.516 -2.4093 -0.8324 -0.7530
36156SOL    HW210786   7.844   2.746   9.376  0.1757  0.2322 -0.6535
36157SOL     OW10787   7.256   6.086   4.072 -0.1488  0.6259 -0.5664
36157SOL    HW110788   7.322   6.021   4.048 -0.2987  0.9635 -1.9866
36157SOL    HW210789   7.225   6.058   4.158 -0.0873 -1.0884 -1.0635
36158SOL     OW10790   9.089   9.427  10.152  0.2093 -0.1814 -0.3703
36158SOL    HW110791   9.004   9.471  10.154  0.1819 -0.1887 -1.0341
36158SOL    HW210792   9.080   9.355  10.214 -0.9764 -1.4252 -1.8917
36159SOL     OW10793   2.287   6.946   1.927 -0.3973  0.1061  0.6707
36159SOL    HW110794   2.343   6.868   1.926 -2.5870 -1.5411  1.0257
36159SOL    HW210795   2.215   6.923   1.985 -2.3115  1.5521 -1.0140
36160SOL     OW10796   9.570   1.576   9.082 -0.3431  0.1183  0.3379
36160SOL    HW110797   9.613   1.491   9.091 -0.1097  0.2980  1.0312
36160SOL    HW210798   9.489   1.558   9.035  0.3847 -0.2570 -0.7870
36161SOL     OW10799   1.161   2.773   0.738 -0.5694  0.1462  0.0550
36161SOL    HW110800   1.118   2.712   0.798 -2.0224  0.7972 -0.2784
36161SOL    HW210801   1.132   2.745   0.651  0.3568  0.1111 -0.2555
36162SOL     OW10802   9.107   3.327   1.598  0.3906 -0.3289 -0.5539
36162SOL    HW110803   9.157   3.331   1.680  0.6242 -1.6576 -0.6018
36162SOL    HW210804   9.171   3.342   1.529  0.2579  0.4391 -0.5179
36163SOL     OW10805   9.530   4.598   4.357  0.4193  0.7017  0.2130
36163SOL    HW110806   9.549   4.526   4.417  0.6989  1.7666  1.4420
36163SOL    HW210807   9.606   4.603   4.300  0.2637 -0.1551 -0.0931
36164SOL     OW10808   3.660   2.705   5.611 -0.2424 -0.2819 -0.2307
36164SOL    HW110809   3.694   2.766   5.546 -2.7622  1.3221 -0.1861
36164SOL    HW210810   3.674   2.619   5.573  1.2143  0.4413 -1.4217
36165SOL     OW10811   2.045   8.801   1.741  0.1949 -0.0864  0.1593
36165SOL    HW110812   1.974   8.767   1.797 -0.1483 -0.7540 -0.6582
36165SOL    HW210813   2.072   8.726   1.689 -0.2173  0.7585 -1.3278
36166SOL     OW10814   5.471   7.697   0.006 -0.1146  0.0986  0.5079
36166SOL    HW110815   5.429   7.658   0.082 -1.4889  2.3063  0.9695
36166SOL    HW210816   5.498   7.784   0.034  2.1347 -0.1199 -0.6946
36167SOL     OW10817   1.042   9.424   3.793 -0.5132  0.1768  0.2157
36167SOL    HW110818   0.981   9.399   3.862 -0.4311 -0.8829 -0.0828
36167SOL    HW210819   1.127   9.390   3.822 -0.2086  0.9243  0.2381
36168SOL     OW10820   1.643   4.108   2.496  0.5216  0.6671 -0.1084
36168SOL    HW110821   1.653   4.201   2.515  1.0002  1.1156 -2.2509
36168SOL    HW210822   1.556   4.101   2.456  0.9927  0.4515 -1.1396
36169SOL     OW10823  10.481   4.915   1.970  0.3199  0.3515 -0.3520
36169SOL    HW110824  10.511   5.002   1.947  0.7607  0.0721 -0.8562
36169SOL    HW210825  10.411   4.929   2.033  1.6482  1.0230  1.0481
36170SOL     OW10826   2.415   9.245   2.189  0.4467 -1.0182 -0.4795
36170SOL    HW110827   2.433   9.316   2.252  2.3877 -0.4601 -1.5574
36170SOL    HW210828   2.480   9.259   2.120 -1.9632 -1.2639 -2.9164
36171SOL     OW10829   5.486   4.432   7.316 -0.0467 -0.1627  0.4435
36171SOL    HW110830   5.492   4.465   7.227  0.9443 -1.4540  0.0011
36171SOL    HW210831   5.431   4.496   7.362  1.1611  1.6654 -0.5341
36172SOL     OW10832   7.916   5.343   1.203 -0.0705 -0.6412  0.4456
36172SOL    HW110833   7.987   5.336   1.140 -0.1773 -1.2897  0.3926
36172SOL    HW210834   7.902   5.437   1.213 -1.9290 -0.4617 -2.6226
36173SOL     OW10835   6.517   7.019   0.163 -0.1126 -0.2988  0.2606
36173SOL    HW110836   6.471   6.969   0.095 -2.4168  1.3158  0.4874
36173SOL    HW210837   6.565   7.086   0.115  1.3608 -1.4483  0.0703
36174SOL     OW10838   0.691   5.604  10.424 -0.2473 -0.0369  0.2403
36174SOL    HW110839   0.735   5.650  10.496  0.1378 -1.0878  0.6962
36174SOL    HW210840   0.732   5.640  10.345 -0.4666  0.9152  0.5467
36175SOL     OW10841   7.555   6.153   1.629  0.4708  0.3192 -0.4512
36175SOL    HW110842   7.537   6.094   1.702  1.8929  0.2207 -0.1449
36175SOL    HW210843   7.650   6.164   1.630  0.7064 -0.7061 -3.0667
36176SOL     OW10844   7.923   0.011   2.506 -0.3047  0.1076  0.1750
36176SOL    HW110845   8.018   0.024   2.504 -0.1551  1.2127  4.5346
36176SOL    HW210846   7.887   0.098   2.491 -0.5859 -0.0919 -0.3149
36177SOL     OW10847   8.670   6.265   0.945 -0.5427  0.1494 -0.1416
36177SOL    HW110848   8.696   6.255   0.853  0.2191 -2.8649  0.2901
36177SOL    HW210849   8.752   6.283   0.991 -0.4819 -0.8868  0.1960
36178SOL     OW10850   4.398   9.671   1.454  0.6745 -0.7985  0.5752
36178SOL    HW110851   4.422   9.669   1.546  1.4496 -1.9127  0.3758
36178SOL    HW210852   4.325   9.732   1.449 -2.4932 -4.0363  2.6695
36179SOL     OW10853   0.936   1.071   9.564 -0.4509 -0.1211  0.3229
36179SOL    HW110854   1.026   1.062   9.534 -0.4399  0.3719  0.2058
36179SOL    HW210855   0.943   1.106   9.653 -0.5478  1.1036 -0.1330
36180SOL     OW10856   1.185   4.940   1.797  0.0859  0.2857 -0.6099
36180SOL    HW110857   1.235   4.965   1.875 -2.5789  1.4515  0.8719
36180SOL    HW210858   1.212   4.850   1.779  0.0873 -0.4159  2.3167
36181SOL     OW10859   7.861   2.690   6.434 -0.0789 -0.2290 -0.1578
36181SOL    HW110860   7.944   2.712   6.392  0.2704 -0.0190  0.6366
36181SOL    HW210861   7.882   2.617   6.492 -0.2329  0.4479  0.7747
36182SOL     OW10862   9.274   3.741   3.718 -0.4968 -0.3665  1.0009
36182SOL    HW110863   9.355   3.782   3.749 -0.5880 -0.1425  0.9436
36182SOL    HW210864   9.207   3.809   3.729 -0.2153  0.4130 -1.4324
36183SOL     OW10865   0.237   2.662   7.408 -0.6540 -0.0634 -0.1168
36183SOL    HW110866   0.166   2.670   7.472 -1.1083  0.6455 -0.7072
36183SOL    HW210867   0.218   2.581   7.361 -0.8575 -0.0722 -0.0178
36184SOL     OW10868   5.957   5.860   6.837  0.0141  0.5669  0.1964
36184SOL    HW110869   5.998   5.947   6.838  1.4411 -0.0785  0.5638
36184SOL    HW210870   5.980   5.825   6.751 -0.1559  0.3673  0.2327
36185SOL     OW10871   0.327  10.397   5.661 -0.5358 -0.8220 -0.6558
36185SOL    HW110872   0.251  10.455   5.669 -0.6502 -1.0570 -0.0329
36185SOL    HW210873   0.334  10.380   5.567  0.5603  1.5973 -1.0848
36186SOL     OW10874   5.398   0.240  10.287 -0.3072  0.4114  0.4408
36186SOL    HW110875   5.413   0.331  10.315 -2.9634  0.8913  0.5672
36186SOL    HW210876   5.416   0.241  10.193 -0.1990  1.0441  0.4634
36187SOL     OW10877   2.614   2.203   5.606 -0.4844 -0.1670 -0.3548
36187SOL    HW110878   2.639   2.111   5.613 -1.1650 -0.2721  1.1515
36187SOL    HW210879   2.682   2.243   5.551  1.1743 -1.0667  0.9660
36188SOL     OW10880   4.233   4.583   7.500 -0.7945 -0.0952  0.0227
36188SOL    HW110881   4.302   4.534   7.546 -2.5467 -1.9395  0.8129
36188SOL    HW210882   4.252   4.675   7.521 -0.0092 -0.7075  2.3658
36189SOL     OW10883   4.306   6.913   3.281  0.4841  0.2337  0.2321
36189SOL    HW110884   4.387   6.932   3.329  1.3895 -0.5811 -0.9282
36189SOL    HW210885   4.297   6.818   3.285 -0.8498  0.3676  0.9919
36190SOL     OW10886   1.917   0.705   7.013  0.1671 -0.4597  0.0751
36190SOL    HW110887   1.868   0.787   7.024 -0.9944 -1.2252  0.8990
36190SOL    HW210888   1.913   0.664   7.099 -1.8167 -2.7228 -0.9720
36191SOL     OW10889   9.919   1.448   7.485  0.4605 -0.6111 -0.2109
36191SOL    HW110890   9.862   1.446   7.408 -1.9708  1.8143  1.3479
36191SOL    HW210891   9.920   1.540   7.511 -1.5158 -1.6426  4.4828
36192SOL     OW10892   7.846   3.639   3.090  0.4562  0.4454 -0.2142
36192SOL    HW110893   7.909   3.710   3.101  0.8862  0.0991 -0.4384
36192SOL    HW210894   7.899   3.560   3.082 -0.0411 -0.0711  1.1719
36193SOL     OW10895   4.564   6.915   3.461 -0.2287 -0.2090 -0.6393
36193SOL    HW110896   4.521   6.990   3.502 -1.5008  0.2590 -2.6651
36193SOL    HW210897   4.657   6.928   3.477 -0.4163  1.9079 -1.0437
36194SOL     OW10898   4.095   1.911   5.703 -0.4166 -0.5303 -0.4036
36194SOL    HW110899   4.125   1.822   5.683  0.2420  0.0038 -1.9784
36194SOL    HW210900   4.078   1.950   5.617 -0.8448  0.8212  0.2709
36195SOL     OW10901   5.366   0.854   4.860  0.0250  0.3549 -0.0454
36195SOL    HW110902   5.419   0.785   4.820  0.1250  0.4864 -0.1400
36195SOL    HW210903   5.326   0.900   4.786  0.8323  1.0978 -0.0403
36196SOL     OW10904   1.088   9.975   8.848 -0.4238 -0.4678 -0.4634
36196SOL    HW110905   1.017   9.959   8.786 -0.6799 -1.5976  0.0981
36196SOL    HW210906   1.062   9.929   8.927  0.2873  0.2784  0.2243
36197SOL     OW10907   1.906   7.735   1.515 -0.2046  0.0699 -0.4999
36197SOL    HW110908   1.823   7.741   1.468 -0.8908 -1.1568  0.5041
36197SOL    HW210909   1.915   7.642   1.536  0.2976  0.4984  1.3497
36198SOL     OW10910   5.758   1.702   6.711 -0.2255  0.0284 -0.2448
36198SOL    HW110911   5.802   1.629   6.667  1.4018  0.1643  1.0487
36198SOL    HW210912   5.830   1.757   6.743 -1.4131  1.8556 -0.6063
36199SOL     OW10913  10.127   4.539   3.986 -0.0845  0.7011  0.1509
36199SOL    HW110914  10.166   4.621   3.956  0.5082  0.8925  1.4036
36199SOL    HW210915  10.170   4.471   3.933  1.8002  0.9269  1.2939
36200SOL     OW10916   6.396   2.255   5.849  0.1128  0.1196  0.8120
36200SOL    HW110917   6.353   2.225   5.929  2.1165 -1.0700  1.5121
36200SOL    HW210918   6.418   2.175   5.801  0.6723  0.7272  0.0196
36201SOL     OW10919   5.695   8.705   8.034  0.4536 -0.4588 -0.0680
36201SOL    HW110920   5.707   8.691   8.128  0.4546  2.6477  0.5230
36201SOL    HW210921   5.766   8.764   8.010  0.7155 -1.5504 -2.1815
36202SOL     OW10922   5.397   6.852   0.529 -0.5589 -0.0739 -0.6569
36202SOL    HW110923   5.320   6.904   0.509 -0.9496 -1.0573 -1.8466
36202SOL    HW210924   5.470   6.913   0.522 -1.2648  1.0926  1.4370
36203SOL     OW10925   0.420   2.028   6.566 -0.7705 -0.4026 -0.1546
36203SOL    HW110926   0.353   1.960   6.559 -1.9998  0.7052  0.4039
36203SOL    HW210927   0.374   2.103   6.603  0.8723  0.3065  0.5401
36204SOL     OW10928  10.076  10.172   9.257 -0.1837  0.6189  0.5492
36204SOL    HW110929  10.017  10.098   9.241 -1.2433  1.4963  0.2850
36204SOL    HW210930  10.127  10.145   9.333 -1.6337  0.2238  1.4358
36205SOL     OW10931   0.293   4.055   9.441  0.3482  0.6954 -0.3225
36205SOL    HW110932   0.229   3.984   9.433 -0.5693  1.0826  2.3758
36205SOL    HW210933   0.344   4.051   9.360 -0.7193 -1.9822 -0.9773
36206SOL     OW10934   2.069   9.274   5.385 -0.7065  0.0741 -0.4975
36206SOL    HW110935   2.072   9.210   5.314  2.2394  0.1853 -0.5947
36206SOL    HW210936   2.089   9.223   5.464  1.6460  0.7795 -0.5758
36207SOL     OW10937   3.298   9.678   3.298  0.0677  1.0989  0.5370
36207SOL    HW110938   3.222   9.671   3.240  0.8550 -0.1103 -0.4163
36207SOL    HW210939   3.291   9.764   3.338 -1.1495  1.4863 -0.4623
36208SOL     OW10940   4.934   3.468   8.767  0.3750  0.8320 -0.3753
36208SOL    HW110941   4.856   3.414   8.783  0.6991  0.6736  0.8212
36208SOL    HW210942   4.909   3.527   8.696 -0.1495 -0.5566 -1.3862
36209SOL     OW10943   1.449   9.089  10.483 -0.0759  0.2496 -0.1271
36209SOL    HW110944   1.382   9.041  10.531  0.2540  0.9276  1.0330
36209SOL    HW210945   1.401   9.138  10.416 -0.7410  0.7307  0.6911
36210SOL     OW10946   7.507   1.432   9.747 -0.4063 -0.1597 -0.4664
36210SOL    HW110947   7.467   1.509   9.706 -0.2581 -0.4750 -1.2255
36210SOL    HW210948   7.504   1.364   9.679 -0.6811 -0.8781  0.2407
36211SOL     OW10949   7.888   5.578   9.612  0.6001 -0.4016  0.5473
36211SOL    HW110950   7.853   5.667   9.615 -0.9681 -0.9137 -0.9853
36211SOL    HW210951   7.921   5.562   9.701  1.6288  1.9485  0.6619
36212SOL     OW10952   9.823  10.301   0.429 -0.6500 -0.2504 -0.3483
36212SOL    HW110953   9.728  10.299   0.433 -0.6936  1.7955  1.2725
36212SOL    HW210954   9.848  10.378   0.479  1.8788 -0.6976 -0.7604
36213SOL     OW10955   2.246   6.940   0.409 -0.0726 -0.4537  0.6849
36213SOL    HW110956   2.192   6.863   0.390 -0.3539 -0.0905 -0.0048
36213SOL    HW210957   2.289   6.960   0.325 -0.0183  0.1569  0.8572
36214SOL     OW10958   5.241   1.377   6.531  0.1649 -0.0131  0.0702
36214SOL    HW110959   5.284   1.309   6.481 -0.4881 -0.8921  0.6790
36214SOL    HW210960   5.157   1.339   6.558 -0.2126  1.0142  0.4374
36215SOL     OW10961   4.814   3.852   6.481  0.0497  0.4755  0.0873
36215SOL    HW110962   4.775   3.847   6.569  0.4225 -0.5469  0.2123
36215SOL    HW210963   4.840   3.943   6.472 -3.5269  1.6024 -0.5294
36216SOL     OW10964   7.521   3.385   9.864  0.3191  0.0985 -0.1668
36216SOL    HW110965   7.462   3.330   9.916  0.0617 -0.8634 -1.4262
36216SOL    HW210966   7.583   3.323   9.825  2.3505  1.1094  1.3052
36217SOL     OW10967   4.512   7.734   9.612 -0.5173  0.7536 -0.0011
36217SOL    HW110968   4.445   7.800   9.630  0.4821  1.6678  0.5387
36217SOL    HW210969   4.552   7.762   9.529  0.3090  1.1958  0.5293
36218SOL     OW10970   5.924   7.714   5.080  0.2297 -0.6165 -0.4284
36218SOL    HW110971   5.879   7.799   5.082  0.5190 -0.3801 -2.2448
36218SOL    HW210972   5.928   7.691   4.987  1.5178 -1.8950 -0.0937
36219SOL     OW10973   8.328   0.408   7.452 -0.3398  0.1297  0.0989
36219SOL    HW110974   8.398   0.437   7.511  0.7484 -1.2626 -0.4523
36219SOL    HW210975   8.346   0.315   7.438 -2.1316 -0.1894 -0.3184
36220SOL     OW10976   0.309   9.930   2.893 -0.2488 -0.0131 -0.7128
36220SOL    HW110977   0.245   9.895   2.830 -1.0117  2.2212 -1.2686
36220SOL    HW210978   0.288   9.887   2.975 -0.5010 -1.5468 -1.5421
36221SOL     OW10979   8.493   9.464   3.350 -0.2861  0.2434  0.8812
36221SOL    HW110980   8.554   9.537   3.356 -0.2157  0.2558  0.1490
36221SOL    HW210981   8.408   9.503   3.370 -0.4985  0.9106 -1.0788
36222SOL     OW10982   0.720   3.510   4.092  0.3476  0.4166  0.0454
36222SOL    HW110983   0.634   3.485   4.125  0.0676  1.4676  0.1374
36222SOL    HW210984   0.706   3.593   4.048  1.2743  0.4740 -0.1686
36223SOL     OW10985   1.601   4.672   1.368 -0.1125 -0.3287  0.3756
36223SOL    HW110986   1.633   4.731   1.436  0.7134 -0.8287  0.4343
36223SOL    HW210987   1.506   4.678   1.374 -0.0425  0.7390  0.5998
36224SOL     OW10988  10.447  10.261   1.313 -0.3447  0.5008 -0.0945
36224SOL    HW110989  10.501  10.321   1.262  0.9370  0.2670  0.9005
36224SOL    HW210990  10.424  10.310   1.392  1.6269 -0.5689  1.2435
36225SOL     OW10991   5.834   4.867   2.346  0.0428 -0.0381 -0.0786
36225SOL    HW110992   5.918   4.861   2.392 -0.2000  0.8039  0.4904
36225SOL    HW210993   5.774   4.904   2.410 -0.4699  0.5027 -0.8521
36226SOL     OW10994   3.716   0.667   2.738  0.1111 -0.1688  0.1962
36226SOL    HW110995   3.650   0.640   2.674  0.1085 -0.9079  0.5001
36226SOL    HW210996   3.773   0.726   2.689  0.7150 -1.5091 -0.7976
36227SOL     OW10997   7.394   7.517   9.134 -0.1007  0.0006  0.1641
36227SOL    HW110998   7.438   7.463   9.068  0.2170  0.4020  0.0459
36227SOL    HW210999   7.441   7.499   9.215  0.1533  0.2691  0.0791
36228SOL     OW11000   4.211   5.401   1.610  0.0722  0.0416 -0.2058
36228SOL    HW111001   4.118   5.390   1.592 -0.2873  2.9760 -0.6136
36228SOL    HW211002   4.254   5.332   1.561 -1.8605 -1.1657 -0.2761
36229SOL     OW11003   9.109   6.941   6.700 -0.0116 -0.8545  0.4729
36229SOL    HW111004   9.137   6.950   6.609  1.7352 -2.8092  0.7403
36229SOL    HW211005   9.142   7.020   6.743 -0.5585 -0.0745 -0.4860
36230SOL     OW11006   2.024   7.955   5.667  0.6280  0.2990  0.2341
36230SOL    HW111007   2.053   7.876   5.620  1.2505  1.2402 -1.0210
36230SOL    HW211008   2.090   7.968   5.735  1.2799  0.4778 -0.4159
36231SOL     OW11009   0.243   3.765   6.952  0.3636 -0.3651  0.5830
36231SOL    HW111010   0.307   3.701   6.920  1.9141  1.6860 -0.6301
36231SOL    HW211011   0.296   3.837   6.986 -1.3237  0.3821  1.7488
36232SOL     OW11012   8.095   2.785   3.299 -0.0318  0.6207  0.1335
36232SOL    HW111013   8.133   2.703   3.332  0.2080  0.3896 -0.6807
36232SOL    HW211014   8.148   2.806   3.222 -0.0750  1.5651  0.3435
36233SOL     OW11015   0.366  10.454   9.140  0.1471  0.2611 -0.0077
36233SOL    HW111016   0.388  10.512   9.213 -0.1662 -1.1487  1.2422
36233SOL    HW211017   0.274  10.473   9.122  0.5527  1.4928 -0.8875
36234SOL     OW11018   4.975   1.861   6.196  0.4246  0.0524 -0.3933
36234SOL    HW111019   5.048   1.820   6.149  1.9160 -0.5931  2.3203
36234SOL    HW211020   4.905   1.796   6.193  0.6858 -0.2042 -1.2137
36235SOL     OW11021   1.604  10.571   4.585  0.3811  0.5120  0.6040
36235SOL    HW111022   1.546  10.540   4.516  2.3978 -1.8377 -0.1953
36235SOL    HW211023   1.576  10.524   4.664 -0.0155  0.8697  0.6772
36236SOL     OW11024   7.338   6.835   1.759  0.4472  0.4504 -0.3937
36236SOL    HW111025   7.421   6.813   1.801  0.2360 -0.2995 -0.3455
36236SOL    HW211026   7.275   6.774   1.797 -0.3364  1.6507  0.2917
36237SOL     OW11027   5.228   5.538   3.956  0.2276 -0.1358 -0.0880
36237SOL    HW111028   5.202   5.456   4.000  0.6033 -1.4326 -2.1413
36237SOL    HW211029   5.296   5.511   3.895 -0.0325  1.6385 -1.2193
36238SOL     OW11030   7.563   8.768   5.286  0.1561  0.3449  0.0229
36238SOL    HW111031   7.654   8.789   5.262  1.0580 -0.2246  2.5863
36238SOL    HW211032   7.532   8.712   5.215  1.2277  1.8694 -1.7376
36239SOL     OW11033   9.286   2.089   6.732 -0.1703  0.1443  0.0832
36239SOL    HW111034   9.363   2.046   6.695  0.1216  0.0269  0.8233
36239SOL    HW211035   9.257   2.030   6.801 -0.9301  0.1909 -0.1879
36240SOL     OW11036   5.375   0.942   2.664  0.3790  0.0080 -0.2830
36240SOL    HW111037   5.450   0.963   2.610  0.1011 -0.6682 -0.9505
36240SOL    HW211038   5.313   1.013   2.648  1.6466  1.7560  1.9060
36241SOL     OW11039   7.160   1.917   3.002 -0.6923 -0.1662  0.1431
36241SOL    HW111040   7.166   1.961   2.918 -0.5226 -1.2561 -0.4273
36241SOL    HW211041   7.235   1.858   3.004 -0.0372  0.6635  1.5534
36242SOL     OW11042   9.467   4.974   2.096  0.1557 -0.5439  0.3126
36242SOL    HW111043   9.439   5.018   2.176 -2.0612 -0.2970 -0.5191
36242SOL    HW211044   9.395   4.989   2.035  1.0949 -2.0505 -1.2314
36243SOL     OW11045   8.031  10.244   7.043  0.1990 -0.0961  0.2066
36243SOL    HW111046   7.944  10.283   7.054 -0.1246 -0.7147 -0.0569
36243SOL    HW211047   8.085  10.313   7.006 -0.2729  0.1917  0.0523
36244SOL     OW11048   4.940   6.175   6.128  0.2284 -0.2122  0.9708
36244SOL    HW111049   4.933   6.089   6.169 -3.0783 -1.4021 -1.6532
36244SOL    HW211050   5.009   6.166   6.063 -1.3511 -1.5867 -0.5934
36245SOL     OW11051   0.361   2.590  10.343  0.6419  0.0801  0.0262
36245SOL    HW111052   0.357   2.612  10.250  1.0719 -0.3419 -0.0976
36245SOL    HW211053   0.374   2.674  10.387 -1.3373  0.5049 -0.1435
36246SOL     OW11054   6.031   5.542   2.429  0.0705 -0.0292  0.1285
36246SOL    HW111055   6.125   5.528   2.436 -0.0656 -0.1264  2.1355
36246SOL    HW211056   5.993   5.454   2.431 -0.0488 -0.0811 -1.9474
36247SOL     OW11057   5.446   5.953   6.345 -0.1189 -0.5820  0.1822
36247SOL    HW111058   5.440   5.871   6.393 -0.4923 -0.6213  0.0661
36247SOL    HW211059   5.520   5.999   6.386 -0.5876 -0.5079  0.9509
36248SOL     OW11060   1.465   2.243   4.264 -0.0498  0.0780 -0.1034
36248SOL    HW111061   1.476   2.331   4.229  0.2207  0.0797 -0.0195
36248SOL    HW211062   1.468   2.255   4.359  0.7300 -0.1087 -0.0979
36249SOL     OW11063   0.421   3.577   6.806  0.0283  0.1211 -0.1001
36249SOL    HW111064   0.419   3.576   6.710 -0.1376 -0.5204 -0.0921
36249SOL    HW211065   0.507   3.614   6.828 -0.7555  2.3602 -0.4773
36250SOL     OW11066   6.203   0.172   6.560 -0.0115  0.4270 -0.2175
36250SOL    HW111067   6.147   0.129   6.495  0.4433 -1.5625  0.6203
36250SOL    HW211068   6.235   0.251   6.516 -2.8649  1.3037 -0.9692
36251SOL     OW11069   7.814   7.224   1.347  0.2774 -0.4571 -0.3621
36251SOL    HW111070   7.852   7.254   1.430 -0.2209  0.3658 -0.4210
36251SOL    HW211071   7.826   7.298   1.287 -0.2180 -0.6893 -0.7522
36252SOL     OW11072   5.394   1.645   5.600 -0.6156 -0.2580 -0.3476
36252SOL    HW111073   5.391   1.570   5.660 -2.5021 -0.7372 -0.9869
36252SOL    HW211074   5.475   1.632   5.550 -1.4206 -2.4923 -1.1938
36253SOL     OW11075   9.504  10.539   9.779 -0.0813 -0.0012  0.8563
36253SOL    HW111076   9.559  10.468   9.811  2.8177  2.1335  0.9455
36253SOL    HW211077   9.532  10.553   9.688 -1.6056  0.1591  0.3731
36254SOL     OW11078   1.614   6.033   8.157 -1.1297  0.0296  0.3255
36254SOL    HW111079   1.531   6.015   8.112 -0.5245 -2.8516  0.1830
36254SOL    HW211080   1.599   6.003   8.247 -0.3663 -0.1070  0.4086
36255SOL     OW11081   7.856   2.370  10.076 -0.4555  0.3724 -0.2210
36255SOL    HW111082   7.763   2.351  10.082 -0.2405 -0.3738  1.4574
36255SOL    HW211083   7.896   2.311  10.140  1.2146  0.4293 -1.1462
36256SOL     OW11084   7.942   8.119   6.438 -0.3163 -0.0967  0.3448
36256SOL    HW111085   7.880   8.049   6.458 -0.3395  0.2082  1.3460
36256SOL    HW211086   7.992   8.084   6.363 -0.9824 -0.7678  0.1947
36257SOL     OW11087   0.580  10.440   5.757  0.2319  0.1111 -0.3949
36257SOL    HW111088   0.489  10.441   5.727 -0.3061 -1.2650  1.0532
36257SOL    HW211089   0.625  10.381   5.697  0.0467  0.3723 -0.7907
36258SOL     OW11090   6.816   5.047   9.595  0.8529  0.3303 -0.0192
36258SOL    HW111091   6.733   5.008   9.622  0.5737 -0.0847 -1.3737
36258SOL    HW211092   6.823   5.128   9.645  0.5245 -0.5259  1.4536
36259SOL     OW11093   4.329   2.934   2.581  0.5582 -0.3124 -0.2558
36259SOL    HW111094   4.284   2.872   2.639 -1.9917  2.9276  1.6250
36259SOL    HW211095   4.260   2.965   2.522  2.3893 -1.1380 -2.9722
36260SOL     OW11096   6.820   9.935   4.474  0.6306 -0.2085  0.7095
36260SOL    HW111097   6.790   9.981   4.396  0.3579 -2.1456 -0.4028
36260SOL    HW211098   6.788   9.988   4.547  0.4132  1.3575 -0.4707
36261SOL     OW11099   8.261   0.474   7.183  0.0871 -0.4850  0.4616
36261SOL    HW111100   8.296   0.455   7.270 -0.0167  2.4526  1.2517
36261SOL    HW211101   8.167   0.459   7.191 -0.1187  1.0899  1.3214
36262SOL     OW11102   0.548   2.458   5.451 -0.1417  0.8116 -0.5340
36262SOL    HW111103   0.509   2.472   5.364  0.6551 -3.1495 -1.7452
36262SOL    HW211104   0.642   2.469   5.437 -0.1041  1.7057  0.2802
36263SOL     OW11105   1.705   7.794   7.187 -0.7503  0.7262  0.7870
36263SOL    HW111106   1.761   7.865   7.155 -0.3293  0.5366  1.0855
36263SOL    HW211107   1.626   7.837   7.217 -0.9504  0.9557 -0.0581
36264SOL     OW11108   5.775   7.144   2.058 -0.1775  0.2450 -0.2827
36264SOL    HW111109   5.859   7.188   2.071 -0.4076  0.7175 -0.3666
36264SOL    HW211110   5.763   7.091   2.136  0.7849 -0.7993 -0.8206
36265SOL     OW11111   4.715   0.133   8.406 -0.4744 -0.0490 -0.3038
36265SOL    HW111112   4.640   0.075   8.391 -1.8490  1.3637  0.6828
36265SOL    HW211113   4.713   0.195   8.333 -0.8193  0.5059  0.1626
36266SOL     OW11114   5.692   2.042   9.206 -0.4106  0.0636 -0.2952
36266SOL    HW111115   5.629   2.020   9.137 -0.2662  1.8267 -1.0261
36266SOL    HW211116   5.776   2.047   9.160 -0.8128  5.4454 -1.0949
36267SOL     OW11117   7.559   5.777   9.395 -0.3280  0.3426  0.3660
36267SOL    HW111118   7.610   5.792   9.474  0.7663 -1.0721 -0.0369
36267SOL    HW211119   7.515   5.693   9.409  1.7752 -1.1567 -1.4178
36268SOL     OW11120   5.616   0.127   9.484  0.1898 -0.1942 -0.3760
36268SOL    HW111121   5.596   0.216   9.514  0.5143 -0.6556  1.3548
36268SOL    HW211122   5.595   0.127   9.391 -0.6601  1.4396 -0.2172
36269SOL     OW11123   3.303   9.470   9.253  0.2260  0.6299  0.1908
36269SOL    HW111124   3.307   9.511   9.339 -0.9449 -1.2686  1.2023
36269SOL    HW211125   3.382   9.416   9.248  0.1793  0.5671  0.1460
36270SOL     OW11126   7.480   0.398   1.189 -0.5771 -0.6453  0.5971
36270SOL    HW111127   7.539   0.435   1.254  0.0706 -0.1761 -0.2351
36270SOL    HW211128   7.415   0.467   1.173 -0.5835 -0.6623  0.5490
36271SOL     OW11129   1.874   3.822   4.191  0.0534 -0.0731  0.1581
36271SOL    HW111130   1.836   3.800   4.106  0.5613 -1.4972  0.2839
36271SOL    HW211131   1.805   3.800   4.254  0.4706 -1.1278  0.2645
36272SOL     OW11132   4.171   4.068   2.710  0.4178 -0.0853  0.2919
36272SOL    HW111133   4.165   4.045   2.617  0.0077 -0.7632  0.4741
36272SOL    HW211134   4.099   4.130   2.723  2.1144  2.1484 -0.4146
36273SOL     OW11135   7.762   1.040   4.134 -0.3064  0.1756  0.4685
36273SOL    HW111136   7.720   1.016   4.217 -1.3615  0.2097 -0.0400
36273SOL    HW211137   7.822   1.111   4.158  0.7257 -0.9917  1.4942
36274SOL     OW11138   2.361  10.256  10.552  0.3788 -0.0208 -0.0387
36274SOL    HW111139   2.356  10.161  10.560  1.6737 -0.1422 -0.4772
36274SOL    HW211140   2.441  10.272  10.502  0.6425  1.3392  0.7705
36275SOL     OW11141   7.838   1.845   3.043 -0.0278 -0.1194  0.5638
36275SOL    HW111142   7.826   1.769   3.099  1.3073 -0.9330 -0.1797
36275SOL    HW211143   7.850   1.808   2.955  0.1128  0.9818  0.1004
36276SOL     OW11144   8.350   7.194   5.591 -0.3808 -0.1899 -0.1880
36276SOL    HW111145   8.262   7.200   5.554 -0.9252 -3.6760  0.2059
36276SOL    HW211146   8.336   7.163   5.681  1.2351 -0.6896 -0.0706
36277SOL     OW11147   6.646   6.808   5.213  0.1354  0.7194  0.1905
36277SOL    HW111148   6.561   6.773   5.187 -0.1602  1.1269  0.5978
36277SOL    HW211149   6.682   6.846   5.132 -0.5993  1.6165  0.2705
36278SOL     OW11150   6.368   9.488   7.494  0.3262  0.1899  0.1921
36278SOL    HW111151   6.385   9.582   7.499  1.6103 -0.0776  1.1855
36278SOL    HW211152   6.276   9.482   7.466  0.2135  1.7278  0.1511
36279SOL     OW11153   5.509   6.490  10.403  0.1343 -1.1292 -0.7223
36279SOL    HW111154   5.448   6.524  10.469  0.1370 -0.9709 -0.8000
36279SOL    HW211155   5.563   6.566  10.380  0.1077 -1.1736 -0.9336
36280SOL     OW11156   8.520   2.256   0.610  0.3775  0.1527  0.7248
36280SOL    HW111157   8.428   2.229   0.608  0.1748  0.7892  1.2972
36280SOL    HW211158   8.560   2.206   0.539 -1.0273  2.0739 -1.6155
36281SOL     OW11159   1.178  10.406   4.500  0.0849  0.3413  0.2682
36281SOL    HW111160   1.205  10.341   4.565  1.7764 -0.4972 -1.1628
36281SOL    HW211161   1.236  10.481   4.516  1.1318 -0.2173 -0.8026
36282SOL     OW11162   4.439   5.851   3.321  0.3886  0.4271 -0.1831
36282SOL    HW111163   4.393   5.855   3.404  1.2482 -0.6199  0.3646
36282SOL    HW211164   4.399   5.779   3.274  0.3258  0.6116 -0.4133
36283SOL     OW11165   4.311   7.800   4.259  0.9343  0.2781 -0.1380
36283SOL    HW111166   4.269   7.733   4.204  0.7424  0.8901 -0.7422
36283SOL    HW211167   4.319   7.758   4.344  2.0242 -0.9954 -0.8343
36284SOL     OW11168   8.988   0.041   1.814 -0.0672 -0.4692 -0.0604
36284SOL    HW111169   8.958  -0.028   1.754  0.7471 -0.4693 -0.4921
36284SOL    HW211170   8.947   0.020   1.898 -0.7030 -0.8490 -0.4627
36285SOL     OW11171   4.706   2.562   2.327  0.1758 -0.2719  0.5069
36285SOL    HW111172   4.630   2.594   2.376 -1.3302 -2.7317 -0.0708
36285SOL    HW211173   4.743   2.493   2.383  0.5439 -0.7181 -0.2763
36286SOL     OW11174   5.696   2.397  10.302 -0.1428  0.0086 -0.3975
36286SOL    HW111175   5.780   2.359  10.329  0.3759  0.6924 -1.0257
36286SOL    HW211176   5.696   2.484  10.342 -0.7678 -0.1623 -0.0129
36287SOL     OW11177   2.356   5.073   5.014 -0.4212  0.4335 -0.3585
36287SOL    HW111178   2.412   5.109   5.082  0.1398  0.6587 -0.9313
36287SOL    HW211179   2.328   4.988   5.049  1.8535 -0.6029 -0.8325
36288SOL     OW11180   7.185   7.133   1.888 -0.0218 -0.3411 -0.5276
36288SOL    HW111181   7.131   7.073   1.838 -0.2866  0.3256 -1.0506
36288SOL    HW211182   7.135   7.151   1.967 -0.7973  0.6310 -1.2146
36289SOL     OW11183   7.073   0.263   7.601 -0.3081  0.4655  0.0348
36289SOL    HW111184   7.128   0.189   7.625  2.3089  2.2838  0.1182
36289SOL    HW211185   7.134   0.334   7.583 -2.6591  2.7563  0.3508
36290SOL     OW11186   4.316   7.679   2.176 -0.0983 -0.5675  0.8113
36290SOL    HW111187   4.344   7.716   2.093 -1.1241 -0.1777  0.6211
36290SOL    HW211188   4.222   7.663   2.165 -0.1632 -0.9162  1.7448
36291SOL     OW11189   3.622   3.073   5.036  0.8379  0.9756  0.1178
36291SOL    HW111190   3.598   3.166   5.038 -3.9601  0.0345 -1.2879
36291SOL    HW211191   3.601   3.045   4.947  0.3472 -1.8169  1.0368
36292SOL     OW11192   0.179   0.203   0.526 -0.0770  0.3327 -0.3675
36292SOL    HW111193   0.140   0.142   0.463 -1.6025  1.0040 -0.1059
36292SOL    HW211194   0.141   0.177   0.611  0.8209  0.3753  0.0561
36293SOL     OW11195   6.141   3.694   5.404  0.1269  0.5210 -0.5367
36293SOL    HW111196   6.066   3.693   5.345 -0.3758 -3.3376 -0.1471
36293SOL    HW211197   6.103   3.702   5.492  0.5950  2.8357 -0.4998
36294SOL     OW11198   8.553   2.506   5.003 -0.3761 -0.4677 -0.3422
36294SOL    HW111199   8.565   2.419   4.964 -0.0313 -0.3023 -0.6117
36294SOL    HW211200   8.618   2.561   4.960 -0.2264 -0.1964  0.2183
36295SOL     OW11201   3.810   0.657   6.421  0.4562  0.4374  0.0257
36295SOL    HW111202   3.805   0.564   6.442 -4.2999  0.6860  0.9354
36295SOL    HW211203   3.776   0.663   6.331 -0.6565  1.3660  0.4858
36296SOL     OW11204   4.099   9.131   6.448 -0.1090  0.6511 -0.3223
36296SOL    HW111205   4.117   9.091   6.533  1.3923  0.0983 -0.8694
36296SOL    HW211206   4.010   9.103   6.426  0.0617 -0.4724  0.3666
36297SOL     OW11207   9.678   2.555   9.725  0.2288  0.2583  0.3554
36297SOL    HW111208   9.740   2.610   9.772 -0.8173  1.6222  0.2152
36297SOL    HW211209   9.656   2.605   9.646  0.0913 -0.8774 -0.3553
36298SOL     OW11210   7.333   1.004   3.722 -0.2918 -0.2673 -0.2137
36298SOL    HW111211   7.392   0.957   3.663  0.9663 -1.5303  1.9240
36298SOL    HW211212   7.265   0.941   3.744  0.0653 -0.3259  0.7837
36299SOL     OW11213   6.912   5.532   6.280 -0.2358  0.0327 -0.0960
36299SOL    HW111214   6.869   5.616   6.293 -0.4262 -0.3595  2.2582
36299SOL    HW211215   6.979   5.549   6.214 -2.1674  1.2935 -1.8476
36300SOL     OW11216   0.625   6.598   0.230 -0.0725 -0.0213 -0.0473
36300SOL    HW111217   0.569   6.530   0.269 -0.3755 -0.1321 -0.6704
36300SOL    HW211218   0.583   6.680   0.254  0.7104  0.0092  1.3724
36301SOL     OW11219   7.127   8.757   5.267  0.2075 -0.4507 -0.0864
36301SOL    HW111220   7.200   8.749   5.206 -0.5803 -1.0301 -0.9769
36301SOL    HW211221   7.121   8.672   5.309 -0.5732 -0.7457 -0.7589
36302SOL     OW11222   1.120   4.428   5.345 -0.0749  0.2218  0.0925
36302SOL    HW111223   1.121   4.523   5.339 -0.4073  0.1802 -0.7675
36302SOL    HW211224   1.179   4.408   5.418 -2.8268  1.2579  2.8248
36303SOL     OW11225   9.452  10.032   1.579 -0.1525  0.2150  0.0487
36303SOL    HW111226   9.428  10.078   1.498 -2.2609 -1.5192 -0.4002
36303SOL    HW211227   9.530   9.982   1.556 -0.5820 -0.0627 -0.8384
36304SOL     OW11228   7.336   2.934   3.533 -0.1851  0.1217 -0.4994
36304SOL    HW111229   7.291   3.007   3.573 -1.1815  0.8084 -2.7005
36304SOL    HW211230   7.428   2.962   3.527 -0.0185  0.0121  1.1428
36305SOL     OW11231   2.857   9.868   0.832 -0.5172  0.6603  0.1573
36305SOL    HW111232   2.882   9.879   0.923 -1.2245  1.6480  0.2505
36305SOL    HW211233   2.776   9.817   0.835  1.1278 -2.1444 -0.1204
36306SOL     OW11234   2.229   7.539   7.117  0.0375 -0.3772  0.0580
36306SOL    HW111235   2.175   7.580   7.049  0.1389 -1.2309 -0.5445
36306SOL    HW211236   2.190   7.568   7.199  0.9905  2.1621 -0.2857
36307SOL     OW11237   9.762   6.286   0.947 -0.9637  0.5547 -0.0377
36307SOL    HW111238   9.758   6.330   1.031 -2.2785 -2.6927  1.8075
36307SOL    HW211239   9.852   6.256   0.940 -0.9487  0.4756  0.4496
36308SOL     OW11240   5.486   0.639   9.970  0.5465 -0.4501  0.4708
36308SOL    HW111241   5.418   0.579   9.939  0.1404  0.0865  0.3006
36308SOL    HW211242   5.495   0.619  10.063 -1.9836  1.4169  1.2496
36309SOL     OW11243   5.929   3.145   6.028 -0.1687 -0.2382 -0.6928
36309SOL    HW111244   5.882   3.178   6.104  0.7527 -0.0810 -0.1760
36309SOL    HW211245   5.911   3.051   6.027 -2.2551  0.1107 -1.7777
36310SOL     OW11246   9.803   7.153   5.178 -0.0688 -0.1042 -0.3073
36310SOL    HW111247   9.892   7.152   5.142 -0.3748 -0.3385 -1.0780
36310SOL    HW211248   9.777   7.061   5.183 -0.5608 -0.0016 -0.8422
36311SOL     OW11249   4.511   8.190   1.975 -0.0859 -0.3405  0.1610
36311SOL    HW111250   4.591   8.233   2.007 -0.7526  0.2072  1.1599
36311SOL    HW211251   4.504   8.110   2.027  0.3386 -0.9007 -0.6314
36312SOL     OW11252   1.459   8.142   0.737 -0.2718 -0.0210  0.4720
36312SOL    HW111253   1.401   8.098   0.675 -1.6191 -0.6294  2.0776
36312SOL    HW211254   1.484   8.224   0.693 -0.3078 -0.8929 -1.2598
36313SOL     OW11255   5.993   0.058   1.560 -0.2941 -0.2108 -0.3840
36313SOL    HW111256   5.972   0.147   1.589 -1.4127 -0.7935  0.6562
36313SOL    HW211257   6.041   0.020   1.633  0.7458 -0.2751 -1.0788
36314SOL     OW11258   9.423   9.271   0.458 -0.1278  0.3142  0.2926
36314SOL    HW111259   9.497   9.309   0.411 -0.0211 -1.0145 -0.6603
36314SOL    HW211260   9.405   9.189   0.412 -3.5133  1.5224 -0.8087
36315SOL     OW11261   0.407   0.400   0.207  0.0719 -0.4015 -0.3525
36315SOL    HW111262   0.500   0.424   0.216  0.2494 -1.5296  1.1523
36315SOL    HW211263   0.403   0.347   0.128  0.8606 -0.9422 -0.0436
36316SOL     OW11264   5.209   9.071   7.903  0.8479 -0.1983 -0.2133
36316SOL    HW111265   5.224   8.999   7.842 -2.9202 -0.5201 -1.0115
36316SOL    HW211266   5.152   9.033   7.971 -1.4163  1.9313 -0.7635
36317SOL     OW11267   1.417   4.598   5.715  0.2423 -0.0864 -0.1267
36317SOL    HW111268   1.485   4.542   5.751  0.0779 -0.6252 -0.6354
36317SOL    HW211269   1.339   4.578   5.767  0.4992  0.6343  0.5485
36318SOL     OW11270   6.322   6.083   1.959  0.0514 -0.5519  0.1575
36318SOL    HW111271   6.370   6.120   2.033 -2.3607  1.9610  0.6488
36318SOL    HW211272   6.310   6.157   1.899 -1.1446 -1.6529 -1.0390
36319SOL     OW11273   6.834   8.384   6.828 -0.2566 -0.3333  0.3514
36319SOL    HW111274   6.846   8.429   6.912 -0.8467 -0.7898  0.6882
36319SOL    HW211275   6.900   8.422   6.771 -1.3008  1.6360  0.3644
36320SOL     OW11276   6.624   3.069   4.034 -0.2528  1.0000 -0.1925
36320SOL    HW111277   6.676   3.064   3.954  1.2931 -0.5516  0.8180
36320SOL    HW211278   6.686   3.046   4.103 -1.5177  2.4215  1.4759
36321SOL     OW11279   2.578   5.164   4.078 -1.0438 -0.0487  0.2161
36321SOL    HW111280   2.583   5.104   4.153  1.3088 -0.2814 -0.0565
36321SOL    HW211281   2.639   5.234   4.099 -1.7614  0.8634 -0.6696
36322SOL     OW11282   7.230   6.767   9.432 -0.5001 -0.0946  0.0290
36322SOL    HW111283   7.266   6.852   9.456  0.3644 -0.0825 -1.2399
36322SOL    HW211284   7.147   6.762   9.479  0.5695  0.3908  2.0581
36323SOL     OW11285   9.237   6.618   7.707 -0.2688  0.0301  0.3918
36323SOL    HW111286   9.300   6.594   7.638  2.0855  1.7620  1.7712
36323SOL    HW211287   9.246   6.713   7.715 -0.3559 -0.1053  3.1002
36324SOL     OW11288   2.473   2.542   0.390 -0.3555  0.1639 -0.1170
36324SOL    HW111289   2.446   2.630   0.363  0.2198  0.5485  0.5369
36324SOL    HW211290   2.561   2.553   0.426 -0.0677 -0.7688 -0.4820
36325SOL     OW11291   1.229   3.317   7.378  0.3865 -0.4721  0.1933
36325SOL    HW111292   1.228   3.222   7.368  0.9129 -0.5431  0.7479
36325SOL    HW211293   1.291   3.333   7.449  1.1038  0.3437 -0.5897
36326SOL     OW11294   3.365   3.810   8.699  0.4152  0.4359  0.0084
36326SOL    HW111295   3.409   3.866   8.763 -0.9438  0.0571  1.3404
36326SOL    HW211296   3.315   3.871   8.644 -0.0294  0.6346  0.6248
36327SOL     OW11297  10.326   9.264   0.818 -0.8009 -0.5100  0.4810
36327SOL    HW111298  10.415   9.298   0.829 -1.0406  0.9890 -1.6119
36327SOL    HW211299  10.270   9.334   0.853 -1.1980 -1.1797  1.2106
36328SOL     OW11300   6.543   3.924   1.765 -0.9623  0.5709 -0.2116
36328SOL    HW111301   6.609   3.988   1.793  0.1877  0.0891 -1.6652
36328SOL    HW211302   6.538   3.935   1.670 -1.2677 -1.0022 -0.4068
36329SOL     OW11303   9.354   0.926   2.473 -0.2353 -0.0143 -0.4348
36329SOL    HW111304   9.314   0.913   2.387 -0.8669  1.6524 -0.4449
36329SOL    HW211305   9.281   0.916   2.535 -0.4489  1.7181 -0.3529
36330SOL     OW11306   5.695   8.039   4.011 -0.0834  0.1185 -0.1564
36330SOL    HW111307   5.622   8.101   4.001  1.0457  1.2073 -2.4693
36330SOL    HW211308   5.720   8.046   4.103 -1.3021  1.5720  0.1138
36331SOL     OW11309   3.152   7.474   2.500 -0.0916 -0.2131 -0.1581
36331SOL    HW111310   3.075   7.482   2.557 -0.3146 -0.1640 -0.4650
36331SOL    HW211311   3.126   7.411   2.433 -0.4199  0.9357 -1.1591
36332SOL     OW11312   4.185   2.413   7.664  0.0518 -0.0828 -0.0710
36332SOL    HW111313   4.137   2.436   7.744  1.5048  0.2208  0.7474
36332SOL    HW211314   4.138   2.336   7.630 -0.7239 -0.0888  0.9422
36333SOL     OW11315   8.280  10.052   1.172 -0.2620  0.2466 -0.3955
36333SOL    HW111316   8.238  10.130   1.209  2.1621  1.5508 -0.1803
36333SOL    HW211317   8.235   9.979   1.214 -1.8073  1.5430  0.3205
36334SOL     OW11318   6.943   4.836   2.565  0.1354  0.1306  0.2608
36334SOL    HW111319   6.901   4.752   2.585 -0.1592  0.0214 -0.7785
36334SOL    HW211320   6.972   4.827   2.474 -0.2922  1.3278 -0.0033
36335SOL     OW11321   9.479   2.701   9.437  0.2417 -0.1945 -0.4350
36335SOL    HW111322   9.519   2.764   9.496  2.1557 -1.6533 -0.1071
36335SOL    HW211323   9.386   2.723   9.438  0.6507  1.6660  0.7956
36336SOL     OW11324   2.516   4.862   2.663 -0.3835 -0.2747  0.0102
36336SOL    HW111325   2.457   4.930   2.629  0.4673  0.0633 -0.8529
36336SOL    HW211326   2.467   4.820   2.733 -1.1422  0.8763  0.1968
36337SOL     OW11327  10.081   9.455   4.510 -0.1814 -0.0694 -0.1379
36337SOL    HW111328  10.156   9.491   4.463 -1.0074  1.3194 -0.4303
36337SOL    HW211329  10.083   9.499   4.595  0.2078 -1.1795  0.4514
36338SOL     OW11330   9.494   5.532   7.781  0.3205 -0.1082 -0.6774
36338SOL    HW111331   9.400   5.518   7.773  0.1326  0.9054 -0.4059
36338SOL    HW211332   9.532   5.444   7.779 -0.6189 -0.5189 -0.9050
36339SOL     OW11333   9.070   3.348   7.789  0.0937  0.5138 -0.0133
36339SOL    HW111334   9.000   3.400   7.830 -1.4012 -0.7991 -0.7779
36339SOL    HW211335   9.143   3.409   7.780 -0.9136  1.9273  0.9006
36340SOL     OW11336   2.600   6.528   2.816 -0.3999  0.1585 -0.2420
36340SOL    HW111337   2.532   6.581   2.858 -1.5509 -1.6339  0.2979
36340SOL    HW211338   2.669   6.520   2.881 -1.3252 -0.9975  0.6592
36341SOL     OW11339   3.343   4.147   6.373  0.5053  0.2923 -0.0922
36341SOL    HW111340   3.367   4.197   6.295 -1.9746  1.6415 -0.0763
36341SOL    HW211341   3.280   4.202   6.419 -0.8040 -1.9902  1.0163
36342SOL     OW11342   4.388  10.476   2.261 -0.0713  0.2477 -0.0332
36342SOL    HW111343   4.456  10.460   2.196  0.0496 -0.0856  0.1765
36342SOL    HW211344   4.348  10.559   2.233 -0.5490 -0.2890 -0.9822
36343SOL     OW11345   7.720   6.349   8.562 -0.4233 -0.5948 -0.7328
36343SOL    HW111346   7.737   6.306   8.646  0.5800 -1.5822 -1.4039
36343SOL    HW211347   7.807   6.369   8.528 -0.8340  0.1007 -1.3835
36344SOL     OW11348   3.393   8.831   5.469  0.4444 -0.0187  0.5188
36344SOL    HW111349   3.322   8.893   5.484 -0.6470 -1.1287  0.0985
36344SOL    HW211350   3.472   8.879   5.492 -0.5028  0.9582  1.8583
36345SOL     OW11351   6.410   3.126   4.235  0.3852  0.6919  0.1015
36345SOL    HW111352   6.420   3.044   4.189  0.2705  0.6335  0.1784
36345SOL    HW211353   6.499   3.155   4.255  0.4327  0.7038 -0.1304
36346SOL     OW11354   8.901   7.182   8.937  0.1645  0.4498  0.0405
36346SOL    HW111355   8.985   7.218   8.909  0.9505 -0.2868  1.3401
36346SOL    HW211356   8.924   7.114   9.000 -1.2543 -2.1044 -1.9927
36347SOL     OW11357  10.038   7.494   2.365  0.1067 -0.5740 -0.7984
36347SOL    HW111358  10.081   7.569   2.406  0.2021 -0.8488 -0.3928
36347SOL    HW211359  10.015   7.525   2.277  0.6194 -0.2402 -0.8175
36348SOL     OW11360   4.982   0.314   6.622 -0.4604  0.3076  0.9308
36348SOL    HW111361   5.035   0.379   6.577  0.6622 -0.2375  1.3984
36348SOL    HW211362   4.924   0.278   6.555 -0.2804  0.9694  0.4149
36349SOL     OW11363   3.221   6.930   9.981 -0.5898 -0.3535  0.6865
36349SOL    HW111364   3.150   6.934   9.918  0.4849 -0.8801 -0.6145
36349SOL    HW211365   3.190   6.980  10.057 -1.2000  1.9894 -1.0081
36350SOL     OW11366   0.652   6.255   0.215 -0.0325  0.1027  0.3365
36350SOL    HW111367   0.579   6.314   0.236 -1.0848 -1.5569  1.5797
36350SOL    HW211368   0.612   6.168   0.210  1.7648 -0.7684  0.4524
36351SOL     OW11369   1.191   3.913   2.378  0.4562 -0.2096 -0.0423
36351SOL    HW111370   1.116   3.900   2.437  1.8526 -2.0922  1.4485
36351SOL    HW211371   1.153   3.910   2.290 -1.0864 -2.5583  0.6052
36352SOL     OW11372   8.193  10.565   5.606  0.3140 -0.0582 -1.0378
36352SOL    HW111373   8.230  10.518   5.531  0.0844 -0.1683 -1.0840
36352SOL    HW211374   8.248  10.541   5.680  0.0245 -0.6341 -1.0002
36353SOL     OW11375   3.626   6.568   4.613  0.0348  0.0219  0.0067
36353SOL    HW111376   3.642   6.588   4.520  0.4945  0.5055  0.1852
36353SOL    HW211377   3.534   6.594   4.627  0.8288  2.9548  0.4383
36354SOL     OW11378   5.947   5.135   1.556 -0.0234 -0.2729 -0.0882
36354SOL    HW111379   5.920   5.220   1.590  2.0249 -0.4103  2.2697
36354SOL    HW211380   5.919   5.073   1.624  1.1653 -1.0461 -0.2769
36355SOL     OW11381   9.619   2.335   4.135  0.7204  0.0651 -0.1823
36355SOL    HW111382   9.657   2.410   4.090  0.4295 -0.9087 -2.1822
36355SOL    HW211383   9.692   2.276   4.150  0.4740 -0.6522 -1.6247
36356SOL     OW11384   9.646   6.542   1.459 -0.1179  0.2893 -0.2361
36356SOL    HW111385   9.610   6.531   1.547 -0.2815  0.6428 -0.2550
36356SOL    HW211386   9.670   6.635   1.455  1.6302 -0.1165  0.0883
36357SOL     OW11387   5.285   0.339   5.394 -0.4643 -0.3897  0.5580
36357SOL    HW111388   5.332   0.330   5.478  0.5670 -0.3096  0.0080
36357SOL    HW211389   5.204   0.384   5.417 -0.4872 -0.9320  1.6102
36358SOL     OW11390   4.658   9.615   8.094  0.1194  0.0596  0.3753
36358SOL    HW111391   4.718   9.601   8.167  0.2081 -1.2888  0.0837
36358SOL    HW211392   4.652   9.710   8.085  1.0675  0.2320  1.3414
36359SOL     OW11393  10.160   5.870   5.264  0.0544 -0.3300  0.3471
36359SOL    HW111394  10.241   5.858   5.313  0.1866  0.5789  0.3669
36359SOL    HW211395  10.096   5.813   5.307 -0.0971  1.1587  2.2106
36360SOL     OW11396   3.137   6.568   5.666  0.0044  0.4735  0.2559
36360SOL    HW111397   3.194   6.523   5.728  0.6800  0.8137 -0.1153
36360SOL    HW211398   3.073   6.502   5.639  1.7685 -0.6825 -1.2910
36361SOL     OW11399  10.568   7.125  10.236 -0.1692  0.4459  0.2041
36361SOL    HW111400  10.581   7.034  10.262 -0.4207  0.0841 -0.8798
36361SOL    HW211401  10.478   7.128  10.201 -0.0741  1.0443 -0.0070
36362SOL     OW11402   7.747   0.765   7.313 -0.1771 -0.1590  0.0547
36362SOL    HW111403   7.726   0.677   7.281  0.3781 -0.2260 -0.1322
36362SOL    HW211404   7.798   0.751   7.392 -0.2453 -0.0027  0.1276
36363SOL     OW11405   2.431   5.076   1.318  0.0540  0.1304  0.1806
36363SOL    HW111406   2.511   5.126   1.333 -0.5092  1.0484  0.2079
36363SOL    HW211407   2.402   5.050   1.406  1.6632 -2.4299  0.0445
36364SOL     OW11408   8.517   7.017   3.762  0.1298 -0.1650  0.1619
36364SOL    HW111409   8.482   7.029   3.850 -0.0108  2.6299 -0.1766
36364SOL    HW211410   8.611   7.033   3.771  0.0843  0.3278 -0.2216
36365SOL     OW11411   1.183   6.279  10.540  0.3467 -0.7350 -0.3258
36365SOL    HW111412   1.195   6.187  10.517 -1.9958 -1.6085  1.5438
36365SOL    HW211413   1.117   6.311  10.478 -0.3311 -0.9231  0.2825
36366SOL     OW11414   4.936   1.360   8.786  0.1600 -0.1671  0.0010
36366SOL    HW111415   5.009   1.401   8.740  0.5963 -0.4981  0.3933
36366SOL    HW211416   4.977   1.300   8.848 -0.4330 -0.0076  0.5573
36367SOL     OW11417   1.852   2.746   4.080 -0.5560  0.2926  0.0733
36367SOL    HW111418   1.841   2.838   4.105 -0.2351  0.3069  0.1663
36367SOL    HW211419   1.817   2.697   4.155  0.2157  0.3368  0.4756
36368SOL     OW11420  10.156   7.804   1.168 -0.3230 -0.5167 -0.4153
36368SOL    HW111421  10.104   7.807   1.248 -2.3957  2.6693 -1.6478
36368SOL    HW211422  10.208   7.885   1.170  2.1652 -2.0041 -0.8186
36369SOL     OW11423   3.658   2.203   9.679  0.2035 -0.0985  0.1063
36369SOL    HW111424   3.652   2.298   9.688 -0.5441  0.1883 -2.4876
36369SOL    HW211425   3.574   2.171   9.712 -0.2963  0.3502 -0.6806
36370SOL     OW11426   6.886   7.799   8.474 -0.1092  0.7662 -0.3058
36370SOL    HW111427   6.861   7.778   8.384  0.4849  2.1708 -0.8333
36370SOL    HW211428   6.804   7.827   8.515 -0.2908  0.6129 -0.5599
36371SOL     OW11429   4.418   7.490   2.527 -0.5101  0.0670 -0.3164
36371SOL    HW111430   4.494   7.464   2.579 -0.8013 -0.6295 -0.2155
36371SOL    HW211431   4.454   7.541   2.455  0.2828 -1.7803 -1.3109
36372SOL     OW11432  10.161   6.025   3.326 -0.6393  0.2875  0.3578
36372SOL    HW111433  10.211   6.060   3.252  1.0313 -0.9068  0.8553
36372SOL    HW211434  10.156   5.931   3.309 -0.5766  0.0527  1.5558
36373SOL     OW11435   6.933   8.491   7.061  0.1534 -0.0613  0.5950
36373SOL    HW111436   6.922   8.586   7.062  0.2161 -0.0342  2.9306
36373SOL    HW211437   7.023   8.476   7.087  1.2031 -0.7660 -2.9020
36374SOL     OW11438   6.433   4.143   9.177  0.4521  0.1084  0.4801
36374SOL    HW111439   6.491   4.173   9.107  1.2491 -0.8164  0.7177
36374SOL    HW211440   6.355   4.197   9.169  1.3113  1.3274  0.0873
36375SOL     OW11441   7.857   0.105   3.799  0.0722 -0.0633  0.2263
36375SOL    HW111442   7.902   0.169   3.855  0.1596 -0.0184  0.1075
36375SOL    HW211443   7.848   0.027   3.853 -0.1149  0.0810  0.4022
36376SOL     OW11444   6.960   9.801   3.609  0.1263 -0.5643  0.3788
36376SOL    HW111445   6.994   9.747   3.680  1.4312  1.2877  1.2080
36376SOL    HW211446   6.900   9.863   3.651  0.0095 -0.1923 -0.3034
36377SOL     OW11447   4.581   9.545   8.758  0.0697  0.0500 -0.0434
36377SOL    HW111448   4.668   9.513   8.781 -0.3491 -0.4640  0.8703
36377SOL    HW211449   4.577   9.537   8.662  0.4972 -1.3388  0.0299
36378SOL     OW11450   9.088   1.530   3.334 -0.2309 -0.3665 -0.5373
36378SOL    HW111451   9.160   1.549   3.273  0.4567  0.4651  0.4820
36378SOL    HW211452   9.011   1.518   3.279 -0.5587  4.3394 -1.5315
36379SOL     OW11453   0.214   7.987   1.232  0.2094 -0.3741 -0.5623
36379SOL    HW111454   0.262   7.996   1.150  2.0159 -0.7607  0.4049
36379SOL    HW211455   0.282   7.979   1.299 -1.1981 -2.0247  0.7599
36380SOL     OW11456   9.358   6.310   7.952 -0.0246 -0.4389  0.4253
36380SOL    HW111457   9.282   6.263   7.987 -0.4606  0.4898  0.7676
36380SOL    HW211458   9.411   6.243   7.910 -0.1822 -1.3857  1.6705
36381SOL     OW11459  10.201   8.510   2.888 -0.2943 -0.1949  0.0600
36381SOL    HW111460  10.176   8.457   2.812  1.0446 -1.2310  0.3010
36381SOL    HW211461  10.266   8.571   2.854 -0.9049  0.4648  0.0515
36382SOL     OW11462   1.653   8.043   6.716  0.0707  0.5414  0.2655
36382SOL    HW111463   1.702   8.055   6.635  0.9877  0.8491  0.8491
36382SOL    HW211464   1.563   8.028   6.688  0.8708 -2.8193 -0.9998
36383SOL     OW11465   5.379   4.181   5.506  0.2724  0.1942 -0.1151
36383SOL    HW111466   5.355   4.268   5.539 -0.0045  0.4957 -1.0820
36383SOL    HW211467   5.394   4.129   5.585  3.6264  1.9315  0.6112
36384SOL     OW11468  10.542   5.467   4.522 -0.4509  0.1103  0.2850
36384SOL    HW111469  10.449   5.477   4.542 -0.4551 -0.6968  0.6783
36384SOL    HW211470  10.557   5.373   4.524  0.6678  0.2995  1.5249
36385SOL     OW11471   7.476   6.333   2.125 -0.2271 -0.0303 -0.3124
36385SOL    HW111472   7.459   6.338   2.031  0.7217  0.8549 -0.4591
36385SOL    HW211473   7.513   6.419   2.147  0.5054 -0.5852  0.6767
36386SOL     OW11474   3.220   9.786   6.850 -0.1627  0.2170  0.3167
36386SOL    HW111475   3.205   9.809   6.758  0.6448 -1.9891 -0.4109
36386SOL    HW211476   3.290   9.844   6.878 -0.7914  1.2986 -0.2597
36387SOL     OW11477   8.053   6.986   4.922 -0.5421  0.0044  0.0495
36387SOL    HW111478   8.069   7.063   4.867 -1.2426  0.0913 -0.0372
36387SOL    HW211479   8.074   6.911   4.865  0.8726  0.1273  0.3696
36388SOL     OW11480   7.293   1.651   7.162  0.4329  0.5148  0.0304
36388SOL    HW111481   7.381   1.645   7.125  0.1568  0.2869 -0.6012
36388SOL    HW211482   7.241   1.693   7.094  0.3072  1.7583  0.8657
36389SOL     OW11483   9.710   8.045  10.399 -0.3262  0.1580 -0.3518
36389SOL    HW111484   9.678   8.019  10.485 -0.4680  0.9634 -0.1529
36389SOL    HW211485   9.669   7.983  10.338  0.0876 -0.6653  0.1847
36390SOL     OW11486   2.468   6.714   6.433 -0.9200 -0.2870  0.1448
36390SOL    HW111487   2.438   6.776   6.366  1.4188  0.2518 -0.5247
36390SOL    HW211488   2.466   6.629   6.390 -1.2399 -0.2153  0.0191
36391SOL     OW11489   2.097   5.186   0.038 -0.0842  0.1742 -0.1685
36391SOL    HW111490   2.159   5.155   0.104 -1.0360 -2.1774 -0.3155
36391SOL    HW211491   2.033   5.237   0.087  0.3668  0.2101  0.3996
36392SOL     OW11492   3.992   5.344   5.004 -0.4056  0.0062  0.4694
36392SOL    HW111493   3.976   5.436   4.986  0.0488 -0.0691 -0.4186
36392SOL    HW211494   3.938   5.298   4.939  0.0265 -0.3248  0.3388
36393SOL     OW11495   7.440  10.485   3.491  0.5145  0.1536  0.4335
36393SOL    HW111496   7.414  10.576   3.504  1.9201  0.5181  0.8153
36393SOL    HW211497   7.395  10.459   3.410 -1.5098  0.5231  1.3804
36394SOL     OW11498   0.290   3.707   2.148 -0.1620 -0.1802 -0.0713
36394SOL    HW111499   0.244   3.624   2.136  1.1158 -1.1853  1.4881
36394SOL    HW211500   0.381   3.681   2.164 -0.0369  1.3833  2.2203
36395SOL     OW11501   8.735   4.969   6.016  0.3798 -0.7697 -0.2775
36395SOL    HW111502   8.640   4.967   6.019  0.3020  1.4845  1.0785
36395SOL    HW211503   8.756   4.985   5.924 -0.7575  2.1706 -0.1252
36396SOL     OW11504   9.866   6.954   5.896  0.4325 -0.3880 -0.2522
36396SOL    HW111505   9.793   7.002   5.857  1.4722  3.8223  2.3037
36396SOL    HW211506   9.931   6.949   5.826 -0.6417 -0.1949 -1.3006
36397SOL     OW11507   7.695   1.005   0.036 -0.2031  0.1120  0.1861
36397SOL    HW111508   7.610   1.045   0.017 -0.0606 -0.0939 -0.9676
36397SOL    HW211509   7.691   0.984   0.129  0.0101  3.4994  1.1152
36398SOL     OW11510   2.136   7.578   3.075  0.2391 -0.3880 -0.0165
36398SOL    HW111511   2.107   7.545   3.161 -0.0315  0.0473  0.0608
36398SOL    HW211512   2.075   7.538   3.013  0.2703 -0.4913  0.0177
36399SOL     OW11513   2.406   3.581   7.758 -0.1137  0.2566  0.7205
36399SOL    HW111514   2.446   3.560   7.842 -0.8166 -0.2191  0.9509
36399SOL    HW211515   2.466   3.545   7.693  0.9297  1.4816  0.9681
36400SOL     OW11516   2.740   1.224   5.376 -0.4609  0.0161  0.0286
36400SOL    HW111517   2.820   1.175   5.396 -0.1799  0.7599  0.7566
36400SOL    HW211518   2.680   1.202   5.448  0.5005  2.5807  1.7419
36401SOL     OW11519   1.657   6.017   4.010  0.1020 -0.3211 -0.0667
36401SOL    HW111520   1.628   6.023   3.919  0.2966  5.2743 -0.0976
36401SOL    HW211521   1.749   5.990   4.004  0.0222 -0.3267 -1.5062
36402SOL     OW11522   4.400   1.914   3.190 -0.1855  0.4182  0.1775
36402SOL    HW111523   4.434   1.995   3.153  0.9408  0.1957  0.6935
36402SOL    HW211524   4.352   1.941   3.268  1.5575  0.4704  1.2690
36403SOL     OW11525   1.933   3.876   3.727 -0.0932  0.2722 -0.0743
36403SOL    HW111526   1.975   3.956   3.758  1.2949  0.9439 -3.3112
36403SOL    HW211527   1.864   3.906   3.668  0.3949 -0.8593 -1.2804
36404SOL     OW11528   8.292   5.405   0.014  0.0780  0.4343 -0.5500
36404SOL    HW111529   8.377   5.420   0.056  1.0453  0.4173 -2.4119
36404SOL    HW211530   8.243   5.352   0.077  3.2867 -4.0138 -1.3905
36405SOL     OW11531   3.867   2.350   9.023 -0.4785  0.0898  0.0196
36405SOL    HW111532   3.847   2.380   9.112  0.2593 -0.7274  0.4715
36405SOL    HW211533   3.830   2.262   9.018 -0.1219 -0.0401 -0.3397
36406SOL     OW11534   3.372   4.037   8.003 -0.0684 -0.1705 -0.0793
36406SOL    HW111535   3.432   3.973   7.967 -0.2871 -0.5796  0.2781
36406SOL    HW211536   3.333   4.080   7.926  1.5797  0.9662 -0.3183
36407SOL     OW11537   9.244   0.346   3.020 -0.1885  0.4899  0.6956
36407SOL    HW111538   9.193   0.427   3.018 -0.0857  0.5598  0.8610
36407SOL    HW211539   9.209   0.298   3.095 -2.5862 -1.1597 -1.2802
36408SOL     OW11540   2.112   3.205   3.346  0.1447  0.9022 -0.2295
36408SOL    HW111541   2.168   3.136   3.311  1.3576  3.2187 -3.4318
36408SOL    HW211542   2.028   3.193   3.302 -0.4769  0.0689  1.1312
36409SOL     OW11543   1.948   6.935   6.586 -0.1385  0.4274  0.3085
36409SOL    HW111544   2.020   6.878   6.613 -1.1928 -0.8498  0.5336
36409SOL    HW211545   1.880   6.919   6.651 -0.5098  1.9061  0.3219
36410SOL     OW11546   4.818   4.145   4.286  0.1171 -0.0063  0.3823
36410SOL    HW111547   4.862   4.177   4.207  1.0409 -1.6521  0.2068
36410SOL    HW211548   4.728   4.130   4.258  0.2789  0.0409 -0.1798
36411SOL     OW11549   4.257   4.859   1.792 -0.7839  0.0740 -0.8004
36411SOL    HW111550   4.326   4.924   1.808 -0.2315 -0.5259 -0.6919
36411SOL    HW211551   4.211   4.852   1.875  0.6350 -1.3638 -0.0948
36412SOL     OW11552   4.985   4.880  10.490 -0.9741  0.3718  0.8641
36412SOL    HW111553   4.982   4.957  10.547  0.1923  1.5087 -0.5247
36412SOL    HW211554   5.073   4.880  10.453 -1.5998 -0.4242 -0.7671
36413SOL     OW11555   2.794   1.831   5.867 -0.3425  0.1574 -0.4026
36413SOL    HW111556   2.777   1.922   5.841 -0.4094  0.3333  0.2404
36413SOL    HW211557   2.884   1.832   5.901 -0.1968 -0.1045 -0.7717
36414SOL     OW11558   6.021   1.835   0.392  0.3505 -0.5340  0.4280
36414SOL    HW111559   6.115   1.826   0.406  0.8233  2.6664  0.1447
36414SOL    HW211560   5.981   1.804   0.473  1.6532 -1.4407  0.7491
36415SOL     OW11561   2.880   8.586   4.779 -0.4536  0.0002  0.0627
36415SOL    HW111562   2.925   8.655   4.827  1.7382 -0.1633 -1.5724
36415SOL    HW211563   2.795   8.623   4.755 -0.5406  0.9854  1.7940
36416SOL     OW11564   5.175   9.012   0.054 -0.2644 -0.3629 -0.3263
36416SOL    HW111565   5.118   9.040   0.125  0.4329 -0.1904  0.1740
36416SOL    HW211566   5.125   8.944   0.008 -0.7099 -0.4918  0.3405
36417SOL     OW11567  10.431   2.848   5.750 -0.8815  0.1291  0.5002
36417SOL    HW111568  10.352   2.900   5.763 -0.7098  0.9446 -1.4011
36417SOL    HW211569  10.400   2.763   5.719 -1.0675 -0.1458  1.4184
36418SOL     OW11570   2.372   2.321   5.551 -0.2152 -0.3897  0.2455
36418SOL    HW111571   2.463   2.292   5.561 -0.4114 -0.8877  0.6115
36418SOL    HW211572   2.335   2.262   5.486  0.5726  1.7553 -2.3330
36419SOL     OW11573   1.712   7.071   8.825  0.1545 -0.0438 -0.0271
36419SOL    HW111574   1.649   7.010   8.789 -0.7477  1.3136 -0.8141
36419SOL    HW211575   1.776   7.085   8.755 -0.6333  1.2552 -0.5184
36420SOL     OW11576   7.054   8.701   0.577 -0.1588  0.1061 -0.0312
36420SOL    HW111577   7.048   8.701   0.481  1.7265  0.7283 -0.1983
36420SOL    HW211578   7.040   8.609   0.602  0.3852 -0.2606 -1.0174
36421SOL     OW11579   8.106   8.388   7.202 -0.3493  0.5153 -0.3495
36421SOL    HW111580   8.094   8.481   7.223  2.2458  0.7330  0.5452
36421SOL    HW211581   8.080   8.342   7.281 -0.2526  0.6052 -0.2639
36422SOL     OW11582   5.211   1.453   2.248  0.5006  0.2085 -0.2844
36422SOL    HW111583   5.277   1.513   2.282  1.2002 -0.6680 -0.0695
36422SOL    HW211584   5.216   1.377   2.305 -0.3619 -0.0685 -0.5679
36423SOL     OW11585   0.076   9.733   6.412  0.2425  0.1251 -0.0510
36423SOL    HW111586   0.090   9.639   6.420 -1.9858 -0.2309  0.1262
36423SOL    HW211587   0.163   9.771   6.424  0.7261 -1.6927  3.3738
36424SOL     OW11588   7.521   8.883   2.652 -0.3112  0.4513  0.1142
36424SOL    HW111589   7.505   8.941   2.577 -0.3568  0.4727  0.1401
36424SOL    HW211590   7.607   8.910   2.685  1.0798 -1.4720 -1.6736
36425SOL     OW11591   6.509   6.199   0.370  0.1678 -0.1414  0.0395
36425SOL    HW111592   6.573   6.172   0.436 -0.6587 -0.3219  0.7962
36425SOL    HW211593   6.529   6.145   0.293  0.5985 -0.5579  0.4353
36426SOL     OW11594   4.765   4.028   1.555 -0.0253  0.1339 -0.7282
36426SOL    HW111595   4.756   4.116   1.592 -0.7761 -0.2149 -0.0450
36426SOL    HW211596   4.679   3.987   1.569  0.8567 -1.3573  0.6756
36427SOL     OW11597   2.259  10.171   4.317  0.2030  0.2908  0.3246
36427SOL    HW111598   2.253  10.127   4.233  3.5792 -0.4396  0.3423
36427SOL    HW211599   2.352  10.189   4.329 -0.4249  2.7251  2.7553
36428SOL     OW11600   3.869   3.334   5.188 -0.0344 -0.1343 -0.2178
36428SOL    HW111601   3.929   3.409   5.183 -0.7080  0.5141  1.0419
36428SOL    HW211602   3.810   3.345   5.114  0.1027  0.3831 -0.2536
36429SOL     OW11603   2.922   2.593   6.859  0.0715  0.3906 -0.0095
36429SOL    HW111604   3.004   2.625   6.822  0.6108 -1.3212 -0.3864
36429SOL    HW211605   2.871   2.564   6.783  0.0024 -0.5002  0.3639
36430SOL     OW11606   7.242   9.076   6.580  0.3083 -0.6916  0.2981
36430SOL    HW111607   7.162   9.087   6.631  0.3661  1.0565  0.0550
36430SOL    HW211608   7.215   9.093   6.490  0.4789 -2.4971 -0.1237
36431SOL     OW11609   5.339   6.005   9.505 -0.3254  0.5336  0.1762
36431SOL    HW111610   5.418   6.048   9.473 -0.1526  0.9824  1.1561
36431SOL    HW211611   5.271   6.030   9.442  0.1926  0.6009 -0.3646
36432SOL     OW11612   9.976   4.007   3.007  0.2388  0.1532 -0.8102
36432SOL    HW111613  10.008   4.097   3.014 -0.8449  0.5351 -0.5610
36432SOL    HW211614  10.033   3.957   3.066  0.3234  0.8231 -0.3107
36433SOL     OW11615   2.306  10.062   9.138  0.1268  0.0433  0.6443
36433SOL    HW111616   2.266  10.099   9.217  0.3234 -2.8190  2.2235
36433SOL    HW211617   2.390  10.028   9.167  0.1784 -1.1242 -0.7665
36434SOL     OW11618   6.726   4.698   5.580  0.0253 -0.2056 -0.2801
36434SOL    HW111619   6.663   4.687   5.510 -0.6299 -0.1347  0.2860
36434SOL    HW211620   6.758   4.609   5.599 -1.5242 -0.5630  0.8843
36435SOL     OW11621   2.593   3.523   7.057  0.0545  0.1196 -0.3725
36435SOL    HW111622   2.632   3.460   6.997 -1.4997 -1.6752  0.3836
36435SOL    HW211623   2.597   3.606   7.011 -1.9943 -1.3089 -3.4750
36436SOL     OW11624   2.946   6.687  10.545 -0.9109 -0.1962  0.3401
36436SOL    HW111625   2.871   6.697  10.487  0.0081 -1.1053 -1.0893
36436SOL    HW211626   2.954   6.771  10.590 -2.1602  0.2442 -0.2261
36437SOL     OW11627   9.260   0.449   6.397 -0.6023  0.5068 -0.5674
36437SOL    HW111628   9.350   0.443   6.429 -0.8599 -0.1917  0.0527
36437SOL    HW211629   9.207   0.405   6.464 -1.2352 -0.4430 -1.6503
36438SOL     OW11630   3.635   3.339   2.965 -0.2323 -0.0008 -0.4027
36438SOL    HW111631   3.695   3.290   2.908 -0.1024 -1.4410  0.8943
36438SOL    HW211632   3.577   3.272   3.001 -2.8451  1.3761 -1.7774
36439SOL     OW11633   2.313   4.934   8.907  0.0528  0.2228 -0.2697
36439SOL    HW111634   2.288   4.870   8.974  0.9964  0.6093  0.4768
36439SOL    HW211635   2.236   4.990   8.896 -0.5931 -0.6907 -0.5387
36440SOL     OW11636   1.565   5.291  10.562  0.3729  0.0633  0.2528
36440SOL    HW111637   1.541   5.280  10.470 -1.6967  1.5255  0.5459
36440SOL    HW211638   1.519   5.220  10.608  0.2686  0.1639  0.3056
36441SOL     OW11639   4.339   1.269   8.507 -0.4516  0.7320  0.0122
36441SOL    HW111640   4.431   1.293   8.493  0.0749 -1.7467 -1.4089
36441SOL    HW211641   4.290   1.323   8.446  0.3690  0.2855 -1.0746
36442SOL     OW11642   7.109   3.012   2.320 -0.0404  0.1187  0.3317
36442SOL    HW111643   7.135   2.998   2.229 -1.7431  2.4030 -0.5894
36442SOL    HW211644   7.030   2.959   2.331 -0.0127  0.0872  0.3792
36443SOL     OW11645   9.270   4.246   0.711 -0.6286  0.2451  0.5202
36443SOL    HW111646   9.285   4.205   0.796 -0.5765  0.8088  0.7876
36443SOL    HW211647   9.274   4.340   0.728  2.3646  0.4266 -0.6050
36444SOL     OW11648   6.831   8.538   0.961 -0.7442 -0.9659  1.1227
36444SOL    HW111649   6.821   8.609   1.024 -0.7617  0.7844 -0.7533
36444SOL    HW211650   6.925   8.516   0.965 -0.2548  0.7750  0.1257
36445SOL     OW11651   0.782   8.673   7.735  0.0843  0.3527  0.2848
36445SOL    HW111652   0.720   8.711   7.673  1.5284  0.7428 -0.9982
36445SOL    HW211653   0.790   8.582   7.707 -0.1714  0.2029  0.6855
36446SOL     OW11654   6.896   7.658   3.699  0.4729  0.0095  0.0508
36446SOL    HW111655   6.868   7.735   3.650  0.3507  0.9248  1.5141
36446SOL    HW211656   6.865   7.673   3.788 -0.0326 -1.9955  0.2528
36447SOL     OW11657   9.618   6.467   8.089  0.3328  0.3054  0.4516
36447SOL    HW111658   9.646   6.555   8.064  1.6967 -0.2653 -0.1345
36447SOL    HW211659   9.693   6.430   8.136  1.1144 -1.6704 -2.1247
36448SOL     OW11660   6.072   0.963   0.137 -0.0293  0.0096  0.1068
36448SOL    HW111661   6.157   0.959   0.181  0.5824  1.8115 -0.8256
36448SOL    HW211662   6.015   0.908   0.191  0.8177  1.5871  2.8086
36449SOL     OW11663   9.199   6.081   2.633  0.7442  0.4717 -0.6023
36449SOL    HW111664   9.216   6.045   2.546  1.0782 -0.9372  0.0223
36449SOL    HW211665   9.281   6.123   2.658  1.3292 -0.8648 -0.1721
36450SOL     OW11666   2.640   7.897   0.204  0.5291 -0.1952  0.0789
36450SOL    HW111667   2.590   7.921   0.126  1.2206 -2.0266 -1.0010
36450SOL    HW211668   2.575   7.855   0.261  0.3434 -0.3605 -0.2484
36451SOL     OW11669   7.789   5.708   2.710 -0.0807  0.0904  0.2306
36451SOL    HW111670   7.855   5.639   2.706  0.4273  0.6276 -1.5291
36451SOL    HW211671   7.837   5.786   2.736 -0.4127  0.0649  0.9401
36452SOL     OW11672   1.293   4.679   1.783 -0.3142 -0.2575  0.2461
36452SOL    HW111673   1.262   4.591   1.800  0.8283 -0.7487 -0.0897
36452SOL    HW211674   1.384   4.668   1.756  0.7862  1.2411  2.9333
36453SOL     OW11675   4.186   1.246   4.843  0.5834 -0.1916  0.3009
36453SOL    HW111676   4.125   1.306   4.886  1.2537  0.8977 -0.2333
36453SOL    HW211677   4.230   1.200   4.915 -0.3632 -0.4990  0.6994
36454SOL     OW11678   2.331   2.255   8.764 -0.5178 -0.2141 -0.2680
36454SOL    HW111679   2.407   2.253   8.823 -1.6887  0.6506  1.3550
36454SOL    HW211680   2.311   2.348   8.754 -3.1075 -0.4493  1.7731
36455SOL     OW11681   2.216  10.465  10.519  0.2867  0.1066  1.2562
36455SOL    HW111682   2.286  10.522  10.489  0.0653  0.1474  0.8183
36455SOL    HW211683   2.260  10.384  10.545  0.4207 -0.1538  0.2547
36456SOL     OW11684   0.794   4.869   4.807 -0.8811 -0.2565  0.2031
36456SOL    HW111685   0.837   4.863   4.892  0.4220 -1.0464 -0.4886
36456SOL    HW211686   0.851   4.927   4.756 -1.2589 -0.3896 -0.3720
36457SOL     OW11687   3.784   1.157   3.625 -0.3309  0.0657 -0.0791
36457SOL    HW111688   3.721   1.087   3.609 -1.1257  0.2566  1.8613
36457SOL    HW211689   3.748   1.205   3.700  2.2921 -0.0428  1.3704
36458SOL     OW11690   5.275   6.355   3.992  0.3040 -0.2954  0.3199
36458SOL    HW111691   5.271   6.269   4.033  0.4129 -0.2790  0.3657
36458SOL    HW211692   5.251   6.340   3.901 -0.0205 -0.3191  0.4082
36459SOL     OW11693   2.250   8.517   3.276  0.4435  0.1851  0.3662
36459SOL    HW111694   2.168   8.489   3.317  0.2529 -2.3082 -1.4585
36459SOL    HW211695   2.222   8.576   3.206  0.5062  1.7653  1.6276
36460SOL     OW11696   9.041   0.401   4.087  0.4457  0.7873 -0.1866
36460SOL    HW111697   9.097   0.323   4.094  1.2394  1.2107 -1.4288
36460SOL    HW211698   9.064   0.454   4.163  0.0234 -0.0971  0.5786
36461SOL     OW11699   8.698   3.762   0.195  0.0190 -0.1211 -0.3543
36461SOL    HW111700   8.615   3.739   0.238 -0.7973 -1.4803 -2.4440
36461SOL    HW211701   8.673   3.783   0.105  1.7102  1.8432 -0.4271
36462SOL     OW11702   3.674   8.897  10.038  0.3834 -0.0386  0.1549
36462SOL    HW111703   3.606   8.945  10.086 -0.2375 -0.6562 -0.0866
36462SOL    HW211704   3.710   8.962   9.978  2.0679  1.1292  2.2627
36463SOL     OW11705   5.121   7.877   4.062  0.6342 -0.0422 -0.3754
36463SOL    HW111706   5.045   7.872   4.005  1.3128  2.5460 -1.6573
36463SOL    HW211707   5.090   7.844   4.147 -1.6194  0.0900 -1.0973
36464SOL     OW11708   1.122   4.319   4.159 -0.1667 -0.3512  0.3091
36464SOL    HW111709   1.160   4.303   4.073  1.9117  1.2958  0.8250
36464SOL    HW211710   1.045   4.373   4.142  1.6965  2.2373 -0.4493
36465SOL     OW11711   8.366   5.298   7.825 -0.4961  0.2614  0.3763
36465SOL    HW111712   8.424   5.222   7.815 -0.5851  0.2631 -0.2105
36465SOL    HW211713   8.396   5.360   7.758  0.1588  1.1278  1.4291
36466SOL     OW11714   0.784   6.097   2.569  0.0140 -0.1034  0.2625
36466SOL    HW111715   0.811   6.011   2.601 -1.0450 -0.6650 -0.2990
36466SOL    HW211716   0.854   6.123   2.508 -0.6411 -1.5248 -1.1736
36467SOL     OW11717   3.727   8.136   8.680  0.1802 -0.5017 -0.0248
36467SOL    HW111718   3.755   8.174   8.763  1.0781  0.8834 -0.9353
36467SOL    HW211719   3.752   8.200   8.614  1.7371 -2.6152 -1.6424
36468SOL     OW11720   9.569   8.797   9.293 -0.3408 -0.0364 -0.0831
36468SOL    HW111721   9.591   8.878   9.248 -1.3352  0.2289 -0.1119
36468SOL    HW211722   9.482   8.774   9.261 -0.4459 -0.6296  0.5930
36469SOL     OW11723   3.850   9.845   5.551  0.5273 -0.0615  0.1309
36469SOL    HW111724   3.890   9.815   5.633  0.6209  0.2107  0.1843
36469SOL    HW211725   3.804   9.768   5.517  0.1970 -0.0790  0.6158
36470SOL     OW11726   6.459   2.412   2.665 -0.0049 -0.3558  0.0743
36470SOL    HW111727   6.390   2.472   2.691 -0.8011 -0.2103 -2.2451
36470SOL    HW211728   6.443   2.333   2.718 -0.4995  0.4986  1.2446
36471SOL     OW11729  10.085   3.371  10.117  0.4469  0.6460 -0.1376
36471SOL    HW111730  10.031   3.446  10.141  1.2485  1.1776  0.0393
36471SOL    HW211731  10.103   3.326  10.200 -1.6133 -0.8902 -0.4193
36472SOL     OW11732   6.592   8.628   7.089 -0.0590  0.1752 -0.7651
36472SOL    HW111733   6.647   8.578   7.150 -1.3324 -1.2675 -0.7313
36472SOL    HW211734   6.503   8.616   7.122 -0.6187  0.6400 -2.0450
36473SOL     OW11735   7.059   1.457   4.244 -0.3495 -0.1604  0.0986
36473SOL    HW111736   7.070   1.385   4.306  0.6297 -1.6284 -1.6983
36473SOL    HW211737   7.099   1.532   4.288 -1.8341 -0.5290  2.2290
36474SOL     OW11738   4.543   8.852   1.489 -0.9127 -0.6545  0.1209
36474SOL    HW111739   4.504   8.932   1.455  1.1828  0.3099 -0.2123
36474SOL    HW211740   4.493   8.781   1.449 -0.7651  0.4714 -2.2504
36475SOL     OW11741   1.515   1.352   0.358 -0.0323  0.8594 -0.2313
36475SOL    HW111742   1.591   1.402   0.386 -0.3305  0.0100  2.2951
36475SOL    HW211743   1.512   1.365   0.263  3.2687  0.8694 -0.4433
36476SOL     OW11744   3.230   4.424   5.063 -0.0954  0.3668 -0.0252
36476SOL    HW111745   3.168   4.444   5.134 -1.1057 -2.4078  0.0031
36476SOL    HW211746   3.272   4.507   5.044 -0.5865  1.4650  3.0684
36477SOL     OW11747   2.879   3.244   2.402 -0.0289 -0.0208 -0.9314
36477SOL    HW111748   2.943   3.313   2.385  1.1558 -0.8481 -0.0377
36477SOL    HW211749   2.818   3.281   2.465  2.1835 -0.5713  1.7280
36478SOL     OW11750   2.106   2.614   5.523  0.1643  0.0592 -0.2162
36478SOL    HW111751   2.083   2.544   5.462 -1.2144  0.5483 -0.2964
36478SOL    HW211752   2.116   2.569   5.608  2.2441 -0.6436 -0.7830
36479SOL     OW11753   5.262   6.321   9.600  0.6102  0.4909 -0.0271
36479SOL    HW111754   5.319   6.245   9.617 -1.5590 -0.9550  1.1827
36479SOL    HW211755   5.273   6.377   9.677 -0.1529 -0.1629  0.5680
36480SOL     OW11756   8.885   6.455   9.117  0.3024 -0.5007 -0.2871
36480SOL    HW111757   8.969   6.463   9.161 -0.4068 -2.0781  1.5276
36480SOL    HW211758   8.822   6.445   9.189 -1.5545  1.4193 -1.5581
36481SOL     OW11759   6.757   8.188   7.019  0.5502  0.5024  0.2729
36481SOL    HW111760   6.780   8.261   6.962 -1.9003  0.7992 -0.4636
36481SOL    HW211761   6.787   8.214   7.106 -2.0683  3.4494  0.4708
36482SOL     OW11762   1.280   1.245   1.803 -0.3722 -0.3247 -0.0847
36482SOL    HW111763   1.221   1.215   1.873 -0.9286 -0.8387 -0.7607
36482SOL    HW211764   1.314   1.164   1.765 -0.8129 -0.0716 -1.0304
36483SOL     OW11765   9.563   0.330   2.631  0.7674  0.5713  0.2334
36483SOL    HW111766   9.632   0.293   2.686  2.1686  2.9908  0.2002
36483SOL    HW211767   9.530   0.405   2.681  0.5294  1.4731 -1.2409
36484SOL     OW11768  10.554   9.933   8.663  0.8278 -0.0677 -0.0461
36484SOL    HW111769  10.610  10.003   8.694  2.8569 -1.4631 -0.3406
36484SOL    HW211770  10.577   9.858   8.719  0.7501 -1.2042 -1.4824
36485SOL     OW11771   9.477   6.102   7.785  0.1702 -0.4337  0.1619
36485SOL    HW111772   9.491   6.008   7.795  0.8076 -0.3375  0.1844
36485SOL    HW211773   9.531   6.127   7.710 -0.1540 -0.1197  0.0262
36486SOL     OW11774   9.447   6.347   7.238 -0.0133 -0.0155 -0.0177
36486SOL    HW111775   9.368   6.308   7.276  0.2191 -1.4518 -0.9155
36486SOL    HW211776   9.438   6.440   7.255 -0.9478 -0.3620  1.6040
36487SOL     OW11777   8.748   9.739   5.203  0.0536 -0.4179 -0.1430
36487SOL    HW111778   8.731   9.804   5.270 -1.7021 -1.8214  0.8545
36487SOL    HW211779   8.840   9.714   5.216  0.8954  2.0785 -0.8366
36488SOL     OW11780   8.860   9.932   7.583  0.2557  0.1407 -0.0640
36488SOL    HW111781   8.871   9.866   7.652  1.1880 -0.2128 -0.5311
36488SOL    HW211782   8.813  10.004   7.626 -0.7553 -0.7995  0.4690
36489SOL     OW11783   7.079   2.689   9.139  0.0246  0.0957  0.3140
36489SOL    HW111784   7.020   2.693   9.215  0.2972 -0.8455  0.5903
36489SOL    HW211785   7.021   2.668   9.066 -0.1363  0.2570  0.3942
36490SOL     OW11786   0.172   8.759   5.874 -0.2132  0.2904 -0.2288
36490SOL    HW111787   0.268   8.765   5.865 -0.0632 -0.3626  0.7690
36490SOL    HW211788   0.138   8.785   5.788  0.8516  0.7050 -0.5449
36491SOL     OW11789   4.111   4.140   1.516  0.4675 -0.1417 -0.2403
36491SOL    HW111790   4.130   4.167   1.426  2.0278 -2.2834 -0.6359
36491SOL    HW211791   4.022   4.170   1.532  0.8298  1.9907 -1.7831
36492SOL     OW11792   3.774   6.856   2.789 -0.0717 -0.2327  0.4716
36492SOL    HW111793   3.834   6.872   2.716  0.3256 -1.0513  0.6080
36492SOL    HW211794   3.741   6.943   2.811  1.5301  0.3456  0.7846
36493SOL     OW11795   7.727   8.597   5.579 -0.0766 -0.2370 -1.0920
36493SOL    HW111796   7.653   8.641   5.538  0.6319  1.1463 -0.9481
36493SOL    HW211797   7.708   8.600   5.673  0.7268  1.2991 -0.9395
36494SOL     OW11798   2.074   2.135   7.508  0.0378 -0.4268 -0.3675
36494SOL    HW111799   2.038   2.075   7.441 -0.0259  0.4448 -1.1371
36494SOL    HW211800   2.121   2.201   7.457  0.2083  0.1103  0.4835
36495SOL     OW11801   7.150   0.472   4.730 -0.2614 -0.0417 -0.1588
36495SOL    HW111802   7.204   0.438   4.659  0.0216  0.1983 -0.0557
36495SOL    HW211803   7.202   0.460   4.809 -0.1592  0.6266 -0.1204
36496SOL     OW11804   8.691   8.161   6.518  0.3205 -0.2726  0.2625
36496SOL    HW111805   8.685   8.228   6.585 -0.1463 -0.7816  0.7412
36496SOL    HW211806   8.715   8.081   6.565  0.2776 -0.5708 -0.2121
36497SOL     OW11807   0.378   2.815   9.503  0.3672 -0.2786  0.3945
36497SOL    HW111808   0.317   2.826   9.576  0.0610 -0.5462  0.1802
36497SOL    HW211809   0.327   2.772   9.435  0.5793  0.1956 -0.0762
36498SOL     OW11810   9.849   1.399   5.554  0.3261 -0.1235 -0.0162
36498SOL    HW111811   9.926   1.443   5.591 -0.2080  0.5700  0.2858
36498SOL    HW211812   9.830   1.446   5.473  0.4575 -0.5542 -0.3018
36499SOL     OW11813   7.580   2.272   0.395 -0.3629 -0.5768  0.2993
36499SOL    HW111814   7.564   2.178   0.400 -0.2480 -0.5752  0.6871
36499SOL    HW211815   7.643   2.289   0.465 -0.2312 -0.2453  0.1010
36500SOL     OW11816   9.913  10.501   8.531 -0.1235  0.2488 -0.2880
36500SOL    HW111817   9.821  10.522   8.545 -0.3582 -0.7029 -0.3722
36500SOL    HW211818   9.960  10.577   8.565 -0.8939  0.2796  0.7534
36501SOL     OW11819   1.923   1.039   6.193  0.7389 -0.0111  0.0608
36501SOL    HW111820   1.890   0.964   6.144  0.1772  0.6462 -0.5838
36501SOL    HW211821   1.989   1.078   6.137  0.5184  0.3940  0.0782
36502SOL     OW11822   3.133   8.324   1.557 -0.0560 -0.1935  0.1435
36502SOL    HW111823   3.074   8.388   1.518  0.9453  1.1787  0.8043
36502SOL    HW211824   3.084   8.288   1.631 -0.7183 -0.3934 -0.3831
36503SOL     OW11825   5.123   3.329   1.017 -0.0601  0.5954  0.0718
36503SOL    HW111826   5.073   3.359   0.941 -0.4805 -0.1417  0.0549
36503SOL    HW211827   5.214   3.354   0.998 -0.4102  2.0388  0.1483
36504SOL     OW11828   8.589   2.351   1.049  0.1096 -0.2026 -0.0604
36504SOL    HW111829   8.593   2.446   1.035  0.2934  0.2127  2.3199
36504SOL    HW211830   8.680   2.324   1.061 -0.0161 -0.4746  0.3133
36505SOL     OW11831   4.054   9.419   8.561  0.0127  0.2359  0.5780
36505SOL    HW111832   4.074   9.508   8.592 -0.1407  0.4803 -0.0019
36505SOL    HW211833   4.101   9.412   8.478  0.7831 -0.5700  1.0754
36506SOL     OW11834   2.790   3.228   8.676  0.2189 -0.3948  0.2851
36506SOL    HW111835   2.828   3.144   8.703  1.0428 -0.4360 -0.8783
36506SOL    HW211836   2.857   3.292   8.698 -0.5062  0.0042  1.3825
36507SOL     OW11837   5.897   8.365   6.507 -0.2715  0.1220  0.5201
36507SOL    HW111838   5.925   8.370   6.599 -0.4501  0.4369  0.5577
36507SOL    HW211839   5.939   8.440   6.465 -0.1966 -0.0186  0.3455
36508SOL     OW11840   7.395   3.634   5.949  0.1962 -0.3648  0.2530
36508SOL    HW111841   7.396   3.662   5.858 -0.3427 -2.2210 -0.3705
36508SOL    HW211842   7.454   3.559   5.952  0.3584 -0.2130  1.4852
36509SOL     OW11843   6.790   3.387   2.425 -0.3060  0.5484 -0.1870
36509SOL    HW111844   6.714   3.438   2.396 -0.4040 -0.0841 -1.0506
36509SOL    HW211845   6.755   3.301   2.447  0.3841 -0.3581 -2.3533
36510SOL     OW11846   0.317   4.844   1.947  0.1259 -0.4681 -0.0045
36510SOL    HW111847   0.293   4.825   2.038  2.4598 -1.9804  0.3918
36510SOL    HW211848   0.357   4.931   1.950  1.3380 -1.0195  0.7072
36511SOL     OW11849   6.520   3.262   1.443 -0.5434  0.0854 -0.2608
36511SOL    HW111850   6.428   3.236   1.450 -0.3968 -0.4227 -0.2168
36511SOL    HW211851   6.546   3.284   1.533 -0.8280  0.9523 -0.3803
36512SOL     OW11852   9.300   5.775   5.902  0.5951  0.2054  0.7331
36512SOL    HW111853   9.320   5.684   5.880 -0.1974  0.1041  0.4118
36512SOL    HW211854   9.316   5.823   5.821  1.3308  0.4122  0.9914
36513SOL     OW11855   0.250   7.803   7.732  0.0575  0.2771  0.0430
36513SOL    HW111856   0.274   7.732   7.791 -1.0582  0.5037  0.8087
36513SOL    HW211857   0.232   7.760   7.648  2.7117  0.0725 -0.4996
36514SOL     OW11858   1.200  10.120   2.676  0.1252 -0.5255 -0.3499
36514SOL    HW111859   1.295  10.112   2.668  0.1100 -0.2123 -0.8564
36514SOL    HW211860   1.170  10.144   2.588 -0.4667 -1.0284 -0.2934
36515SOL     OW11861   6.580   8.367   1.269  0.4014 -0.1908 -0.2795
36515SOL    HW111862   6.666   8.400   1.295 -0.1663  1.0823  0.0703
36515SOL    HW211863   6.538   8.341   1.351 -0.5592  1.7652 -0.1053
36516SOL     OW11864   9.892   2.267   3.919 -0.1639  0.1954 -0.0048
36516SOL    HW111865   9.961   2.209   3.886 -1.8662 -1.6902 -0.4349
36516SOL    HW211866   9.812   2.237   3.876 -2.2040 -1.0908  4.1188
36517SOL     OW11867   0.101   5.276   6.323  0.0534  0.3214 -0.5352
36517SOL    HW111868   0.190   5.251   6.349 -0.2783  0.3256  0.6752
36517SOL    HW211869   0.105   5.372   6.314  0.1773  0.3199 -0.4975
36518SOL     OW11870   2.449   6.417   5.268 -0.2566 -0.1721 -0.3042
36518SOL    HW111871   2.391   6.395   5.342 -1.6435  0.2866 -1.2122
36518SOL    HW211872   2.537   6.400   5.301 -0.8755 -0.5467  1.2591
36519SOL     OW11873   8.342   6.644   8.465  0.1757  0.0210 -0.3210
36519SOL    HW111874   8.434   6.652   8.440  0.3693 -0.0359  0.3560
36519SOL    HW211875   8.343   6.638   8.560 -0.4458 -1.1751 -0.3674
36520SOL     OW11876   7.772   1.629   4.876  0.0084 -0.2211 -0.2125
36520SOL    HW111877   7.685   1.589   4.873 -0.8424  1.4732  0.6864
36520SOL    HW211878   7.760   1.715   4.837  0.8551  0.7499  1.5967
36521SOL     OW11879   8.455   3.227   5.834 -0.4181  0.1776 -0.0055
36521SOL    HW111880   8.443   3.133   5.849  0.7768  0.0354  0.1824
36521SOL    HW211881   8.367   3.264   5.840 -0.9093 -0.9341 -0.1168
36522SOL     OW11882   7.975   6.477   8.442 -0.2954  0.1145  0.0258
36522SOL    HW111883   8.060   6.487   8.398  0.0351  1.6879  0.9351
36522SOL    HW211884   7.973   6.385   8.469 -0.2449 -0.7613 -2.6353
36523SOL     OW11885   8.877   7.468   6.582  0.4462 -0.6323 -0.0205
36523SOL    HW111886   8.819   7.504   6.649 -0.1243 -1.5202 -0.0055
36523SOL    HW211887   8.948   7.530   6.574  0.2157 -0.2300  0.9953
36524SOL     OW11888   3.821   0.918   9.767  0.0290 -0.5524  0.8750
36524SOL    HW111889   3.871   0.999   9.770  0.5373 -0.8577  0.6941
36524SOL    HW211890   3.786   0.908   9.855 -1.1349  0.5454  0.5641
36525SOL     OW11891   5.051   7.602   7.455 -0.2040 -0.0030 -0.5669
36525SOL    HW111892   5.094   7.561   7.380  0.7942  0.5897 -0.3298
36525SOL    HW211893   5.040   7.693   7.429 -2.0855 -0.2792 -0.9456
36526SOL     OW11894   5.375   7.810   7.521 -0.3498  0.4596 -0.0659
36526SOL    HW111895   5.416   7.793   7.436  1.7471  1.8246  0.5984
36526SOL    HW211896   5.330   7.893   7.509 -0.9624  0.1301 -0.1091
36527SOL     OW11897   2.556   3.291   2.080 -0.3930  0.0685  0.2547
36527SOL    HW111898   2.615   3.227   2.119 -0.9116 -0.5768 -0.0109
36527SOL    HW211899   2.553   3.269   1.987 -2.2260 -0.8785  0.5006
36528SOL     OW11900   0.043   8.365   5.841  0.1062  0.0063  0.1248
36528SOL    HW111901  -0.027   8.381   5.777  0.6193 -1.3420 -0.8422
36528SOL    HW211902   0.015   8.285   5.886 -0.5488  1.2771  2.0807
36529SOL     OW11903   6.228   3.856   6.758 -0.1340 -0.1633 -0.0160
36529SOL    HW111904   6.249   3.797   6.685  0.8098  0.3136 -0.1415
36529SOL    HW211905   6.310   3.865   6.806  0.0604  1.9584 -0.6553
36530SOL     OW11906   5.025   5.759   8.113  0.2371 -0.0729  0.7185
36530SOL    HW111907   5.079   5.723   8.183  0.2864 -1.5997 -0.0595
36530SOL    HW211908   4.960   5.691   8.096 -0.6343  0.8627  0.2217
36531SOL     OW11909   8.695   2.713   5.279 -0.4064 -0.0572  0.0665
36531SOL    HW111910   8.778   2.675   5.250 -0.0711 -0.6679  1.7469
36531SOL    HW211911   8.635   2.699   5.205  0.4735 -1.2921 -0.4428
36532SOL     OW11912   9.651   1.735   5.626 -0.7541  0.0591  0.2987
36532SOL    HW111913   9.746   1.751   5.625 -0.9682  1.4624 -0.0533
36532SOL    HW211914   9.640   1.658   5.681  0.4045  1.2005  2.2430
36533SOL     OW11915   4.363   3.368   5.954 -0.0739 -0.1901  0.2525
36533SOL    HW111916   4.452   3.403   5.956  0.1240 -0.7160  0.9372
36533SOL    HW211917   4.310   3.436   5.996  0.4784 -1.1106  2.6026
36534SOL     OW11918   2.967   3.695   4.759  0.1369  0.6486 -0.1525
36534SOL    HW111919   3.055   3.731   4.757 -0.1825  1.4799  0.2285
36534SOL    HW211920   2.952   3.673   4.851  0.4750 -0.8943 -0.4237
36535SOL     OW11921   1.010   8.991  10.064 -0.5169 -0.3310 -0.1581
36535SOL    HW111922   1.099   8.958  10.070  0.2478  1.6451  0.0480
36535SOL    HW211923   1.010   9.047   9.987 -1.3441  0.3854  0.3443
36536SOL     OW11924   6.080   2.813   2.828  0.2688  0.1425 -0.0822
36536SOL    HW111925   6.058   2.905   2.811 -0.5467  0.0346  0.3417
36536SOL    HW211926   6.034   2.792   2.910  1.1010 -0.4147  0.2576
36537SOL     OW11927   9.918   5.620   6.264  0.0303 -0.3127  0.1370
36537SOL    HW111928   9.925   5.576   6.349  0.2051 -0.4329  0.0618
36537SOL    HW211929  10.009   5.625   6.232  0.0032  0.0204  0.1044
36538SOL     OW11930   7.535   6.616   4.105 -0.3186 -0.1140 -0.2213
36538SOL    HW111931   7.459   6.670   4.082 -0.4733 -0.4380 -0.4812
36538SOL    HW211932   7.511   6.573   4.187 -0.1770  0.2450  0.0099
36539SOL     OW11933   0.322   7.147   8.753 -0.0809  0.3465  0.2267
36539SOL    HW111934   0.286   7.076   8.699 -0.5228  0.4754  0.3522
36539SOL    HW211935   0.370   7.103   8.822  1.2541  0.1759 -0.7770
36540SOL     OW11936  10.211   0.762  10.072  0.0300  0.0076 -0.4437
36540SOL    HW111937  10.121   0.786  10.046 -0.2643  0.4954  0.9686
36540SOL    HW211938  10.267   0.818  10.018 -0.5613  0.8975 -0.1552
36541SOL     OW11939   2.371   1.079   1.529  0.3099 -0.2102  0.0838
36541SOL    HW111940   2.428   1.012   1.492 -1.1659 -1.1408 -0.6267
36541SOL    HW211941   2.309   1.099   1.459 -0.3034  0.6852  0.8549
36542SOL     OW11942   7.194   9.495  10.514 -0.9475  0.5371 -0.2701
36542SOL    HW111943   7.252   9.503  10.589 -0.1442 -0.2349 -0.7822
36542SOL    HW211944   7.248   9.456  10.445 -2.0058  0.0008 -0.8389
36543SOL     OW11945   8.322   9.583   9.807  0.1000  0.6467 -0.2962
36543SOL    HW111946   8.353   9.527   9.736  0.7797  0.2371  0.3105
36543SOL    HW211947   8.339   9.533   9.887 -3.2534 -0.1447  0.0555
36544SOL     OW11948   9.810   8.785   1.511  0.3105  0.2575 -0.3792
36544SOL    HW111949   9.887   8.831   1.480 -0.1255  0.5840 -0.9860
36544SOL    HW211950   9.737   8.844   1.493 -0.3833 -1.0313 -2.0465
36545SOL     OW11951   2.614  10.219   5.636 -0.6236 -0.0385 -0.3473
36545SOL    HW111952   2.617  10.125   5.621 -0.5319  0.2392 -2.2640
36545SOL    HW211953   2.546  10.250   5.577 -0.3286  1.1661 -0.0750
36546SOL     OW11954   7.257   0.432   9.693  0.5249  0.3331  0.1385
36546SOL    HW111955   7.270   0.525   9.710 -0.9505  0.8474 -1.3307
36546SOL    HW211956   7.289   0.419   9.604  1.3390 -0.7315  0.5582
36547SOL     OW11957   0.076   5.562   3.594 -0.0081  0.4212  0.2659
36547SOL    HW111958   0.103   5.612   3.671  2.1583 -0.4144  0.1177
36547SOL    HW211959   0.016   5.495   3.629  0.2754  0.5877  1.1014
36548SOL     OW11960   4.299   5.394   1.133 -0.1867 -0.0782  0.3604
36548SOL    HW111961   4.347   5.449   1.194 -0.2226 -0.9645  1.2025
36548SOL    HW211962   4.208   5.397   1.162  0.1291 -2.3911  1.8802
36549SOL     OW11963   3.892   2.371   5.475 -0.3279 -0.8043  0.0301
36549SOL    HW111964   3.911   2.465   5.470 -0.3564 -0.7401  0.8826
36549SOL    HW211965   3.798   2.365   5.459 -0.1004 -0.8453 -1.4471
36550SOL     OW11966   7.979  10.169   6.437 -0.1008  0.7796 -0.0852
36550SOL    HW111967   7.900  10.138   6.394 -1.2167  1.1026  1.6279
36550SOL    HW211968   8.015  10.234   6.377 -0.6112 -0.0222 -1.3049
36551SOL     OW11969   9.342   5.221   5.938 -0.4503 -0.2635 -0.9533
36551SOL    HW111970   9.298   5.142   5.972  0.4174  0.2263  1.5150
36551SOL    HW211971   9.383   5.261   6.015  2.0796  0.7489 -2.6738
36552SOL     OW11972   4.460   6.193   3.900 -0.1782 -0.2171 -0.8023
36552SOL    HW111973   4.496   6.282   3.898 -0.8872  0.1006 -0.0087
36552SOL    HW211974   4.412   6.185   3.818 -1.4029  0.7043 -0.2061
36553SOL     OW11975   3.808   7.307   5.033 -0.1804 -0.0787 -0.0464
36553SOL    HW111976   3.812   7.247   4.959 -0.8161 -0.3700  0.1447
36553SOL    HW211977   3.794   7.393   4.994  2.5682  0.2828 -0.4435
36554SOL     OW11978   9.152   0.867   6.428 -0.1030 -0.3571 -0.3203
36554SOL    HW111979   9.139   0.804   6.499  0.4773 -0.9216 -0.7052
36554SOL    HW211980   9.243   0.894   6.436 -0.3661  0.5157 -0.1103
36555SOL     OW11981   0.766  10.572   4.454  0.0965  0.3312  0.1133
36555SOL    HW111982   0.787  10.579   4.361  1.2621  0.4274  0.3685
36555SOL    HW211983   0.739  10.660   4.480 -1.6932 -0.0144 -0.4476
36556SOL     OW11984   1.884   5.271   6.981  0.0939  0.0336  0.1502
36556SOL    HW111985   1.869   5.215   6.905 -0.4849  0.2534  0.1027
36556SOL    HW211986   1.811   5.333   6.980  0.4525  0.4653  0.4960
36557SOL     OW11987   7.747   3.921   3.461  0.2324  0.0415 -0.0472
36557SOL    HW111988   7.764   4.001   3.412 -2.0617  0.8310  0.3123
36557SOL    HW211989   7.749   3.949   3.553  1.9334 -0.8923  0.2475
36558SOL     OW11990   6.574   2.905   8.121 -0.4212 -0.1867 -0.0095
36558SOL    HW111991   6.629   2.858   8.059 -1.0699  0.9113 -1.4965
36558SOL    HW211992   6.596   2.869   8.206  1.8094 -0.4962 -0.6731
36559SOL     OW11993   7.822   9.422   6.685  0.5910  0.2943 -0.2367
36559SOL    HW111994   7.774   9.462   6.757 -0.0826 -1.0908  0.1110
36559SOL    HW211995   7.794   9.471   6.607  2.4799  2.8415  0.5314
36560SOL     OW11996   2.875   6.369  10.431  0.3131 -0.6321  0.0176
36560SOL    HW111997   2.838   6.308  10.495 -1.1768 -0.9094 -1.0472
36560SOL    HW211998   2.811   6.440  10.427  0.6240 -0.3944 -0.8227
36561SOL     OW11999   5.467   1.906  10.493 -0.4536 -0.8992 -0.3126
36561SOL    HW112000   5.466   2.000  10.474 -0.4667 -1.0841 -1.3069
36561SOL    HW212001   5.547   1.874  10.450  0.7862 -0.9967  1.8977
36562SOL     OW12002   0.174   7.507  10.063 -0.0108 -0.0785  0.2228
36562SOL    HW112003   0.217   7.575  10.114 -0.0864  0.2581 -0.1549
36562SOL    HW212004   0.243   7.475  10.004 -0.4653  1.0389 -0.9664
36563SOL     OW12005   5.140   3.952   4.374 -0.6708 -0.3573  0.0180
36563SOL    HW112006   5.144   4.028   4.317  0.7260 -1.1071 -0.9402
36563SOL    HW212007   5.217   3.901   4.351  0.3629 -0.3497  3.1044
36564SOL     OW12008   8.025   9.582   7.279  0.4320 -0.6038  0.9164
36564SOL    HW112009   7.998   9.508   7.334  0.6324 -1.7495 -0.4560
36564SOL    HW212010   8.112   9.558   7.247  0.6030  0.3447  0.6520
36565SOL     OW12011   5.755   3.168   5.779  0.4746  0.4157  0.0487
36565SOL    HW112012   5.839   3.165   5.825  0.2414  2.1340  0.6364
36565SOL    HW212013   5.776   3.203   5.692  0.3762  0.7971  0.1779
36566SOL     OW12014   4.746   7.299   6.931  0.1821  0.0181  0.6187
36566SOL    HW112015   4.742   7.227   6.995  0.4593 -1.6593 -1.1390
36566SOL    HW212016   4.668   7.287   6.876  2.5503 -2.1162 -2.7231
36567SOL     OW12017   8.830   3.862   3.325  0.0464  0.5232  0.1525
36567SOL    HW112018   8.874   3.805   3.262 -1.7537  0.0332 -0.7142
36567SOL    HW212019   8.750   3.816   3.347 -0.5400  1.8492  0.9090
36568SOL     OW12020   0.957   9.428   8.685  0.3462 -0.2670 -0.1630
36568SOL    HW112021   0.901   9.356   8.657 -1.1370  0.7445  0.0680
36568SOL    HW212022   0.997   9.397   8.766  0.6694 -1.2600 -0.6821
36569SOL     OW12023   2.390   7.617   4.515 -0.4303 -0.6449  0.1225
36569SOL    HW112024   2.307   7.569   4.515 -0.2271 -1.0299 -1.1594
36569SOL    HW212025   2.441   7.575   4.584 -1.0676 -0.8372  0.4863
36570SOL     OW12026   1.664   7.176   3.811  0.0156 -0.4385 -0.0541
36570SOL    HW112027   1.679   7.211   3.723 -0.2504  0.5450  0.2853
36570SOL    HW212028   1.671   7.252   3.869 -1.5426 -0.7657  0.6054
36571SOL     OW12029   1.776  10.586   6.909 -0.0031 -0.3701 -0.5183
36571SOL    HW112030   1.836  10.601   6.836  1.1313  1.1772  0.6742
36571SOL    HW212031   1.832  10.584   6.986 -1.3348 -0.4362  0.4774
36572SOL     OW12032   7.204   1.714   8.624 -0.3123 -0.8085 -0.0297
36572SOL    HW112033   7.235   1.652   8.690 -1.3716 -0.3239  0.9790
36572SOL    HW212034   7.119   1.743   8.658 -0.7089 -0.2527 -1.4348
36573SOL     OW12035   1.432   2.719   5.319 -0.6447  0.1495  0.6281
36573SOL    HW112036   1.418   2.677   5.235  0.2129  1.0272  0.0165
36573SOL    HW212037   1.344   2.732   5.355 -0.9555 -1.6086  0.5942
36574SOL     OW12038   9.161   4.763  10.000  0.5611 -0.2606 -0.2570
36574SOL    HW112039   9.183   4.853  10.023  2.1044 -0.7279  0.2203
36574SOL    HW212040   9.228   4.737   9.938  0.9320 -1.5007  0.6287
36575SOL     OW12041   5.193   4.589   3.523  0.0866  0.1728 -0.6229
36575SOL    HW112042   5.252   4.645   3.474 -0.2917 -1.5777 -3.3123
36575SOL    HW212043   5.155   4.531   3.457 -1.9444 -1.1162  1.5150
36576SOL     OW12044   4.164   5.270   3.530  0.3934 -0.4531 -0.2504
36576SOL    HW112045   4.207   5.226   3.457  1.9747  0.0243  0.3578
36576SOL    HW212046   4.207   5.235   3.608 -2.2273 -2.0098  0.6117
36577SOL     OW12047   6.956   3.672   1.685 -0.0902  0.4916 -0.5864
36577SOL    HW112048   6.885   3.651   1.746  0.6520  0.8062  0.4197
36577SOL    HW212049   7.031   3.623   1.718  0.8447  2.1864 -0.0521
36578SOL     OW12050   7.179   6.210   9.583  0.7297  0.4853  0.0663
36578SOL    HW112051   7.150   6.159   9.659 -1.0882  1.0460 -0.2098
36578SOL    HW212052   7.240   6.275   9.620 -2.2436  2.6382  1.6692
36579SOL     OW12053   3.755   7.511   8.475 -0.2942 -0.7209 -0.0048
36579SOL    HW112054   3.753   7.584   8.413 -0.9933 -1.1697 -0.5175
36579SOL    HW212055   3.705   7.542   8.551  1.7700  0.3823  1.0008
36580SOL     OW12056   7.819   4.978   6.219 -0.0360  0.1230 -0.0762
36580SOL    HW112057   7.819   4.944   6.130 -1.0940 -0.3234  0.0673
36580SOL    HW212058   7.907   4.961   6.252 -0.0988 -1.1742 -0.5083
36581SOL     OW12059   7.976   3.772   2.024  0.0061 -0.4714 -0.3713
36581SOL    HW112060   7.913   3.739   2.087  0.1957 -1.1989 -0.5481
36581SOL    HW212061   7.951   3.731   1.941  0.3305 -0.2711 -0.5721
36582SOL     OW12062   8.925   4.254   1.420 -0.0815 -0.0689 -0.5097
36582SOL    HW112063   8.849   4.195   1.421  1.0391 -1.5877  0.9716
36582SOL    HW212064   8.887   4.341   1.409 -1.9302 -0.8886 -1.1170
36583SOL     OW12065   7.913   1.539   2.977 -0.2032 -0.2219 -0.2210
36583SOL    HW112066   7.895   1.480   3.050  0.6287 -1.1720 -0.7596
36583SOL    HW212067   7.997   1.580   2.999  0.4838 -1.1517 -1.0090
36584SOL     OW12068   2.329   4.062   0.427 -0.9183  0.4777  0.0992
36584SOL    HW112069   2.244   4.062   0.384 -2.1301 -0.8920  2.3027
36584SOL    HW212070   2.382   4.001   0.376 -1.4392  0.8585 -0.9163
36585SOL     OW12071   9.732   9.993   3.985  0.0977  0.4443  0.2102
36585SOL    HW112072   9.766  10.028   4.067 -1.2584  1.3612  0.4152
36585SOL    HW212073   9.677  10.063   3.949 -1.6609 -0.9613 -0.0156
36586SOL     OW12074   2.957  10.503   3.878  0.3614  0.1530  0.1172
36586SOL    HW112075   2.978  10.419   3.839  0.6003  1.4052 -2.6788
36586SOL    HW212076   3.041  10.536   3.910  0.8395  0.5840 -1.5073
36587SOL     OW12077   6.130   2.824   3.120 -0.0925 -0.6208 -0.5016
36587SOL    HW112078   6.109   2.733   3.139 -0.9992 -0.2312  0.4159
36587SOL    HW212079   6.222   2.822   3.094  0.2244 -1.6354  0.6353
36588SOL     OW12080   8.680   5.603  10.384 -0.4376 -0.2138 -0.5692
36588SOL    HW112081   8.676   5.509  10.403  0.7181 -0.6065 -2.0241
36588SOL    HW212082   8.774   5.620  10.374 -0.6778  0.9715 -0.8708
36589SOL     OW12083   4.596   9.875   0.281  0.0400  0.7593  0.1788
36589SOL    HW112084   4.504   9.879   0.306 -0.3893 -0.4153 -1.0672
36589SOL    HW212085   4.622   9.967   0.270 -1.5738  1.1029 -1.3566
36590SOL     OW12086   5.541   5.505   7.139 -0.3027  0.2088 -0.0115
36590SOL    HW112087   5.557   5.550   7.056 -1.8141  1.4594  0.3074
36590SOL    HW212088   5.527   5.414   7.115 -1.7071  0.7095 -1.3030
36591SOL     OW12089   9.167   5.208   7.618 -0.0408  0.4559  0.1499
36591SOL    HW112090   9.251   5.162   7.626 -0.2919  0.1680  1.4935
36591SOL    HW212091   9.131   5.206   7.707 -0.1926  3.0273  0.2120
36592SOL     OW12092  10.241   1.713   2.849  0.1878  0.1653  0.6126
36592SOL    HW112093  10.227   1.799   2.890  1.4809  1.0214 -0.6505
36592SOL    HW212094  10.284   1.661   2.916 -0.1240  0.6751  1.2177
36593SOL     OW12095   8.433   5.566   6.440  0.4693 -0.3141  0.1939
36593SOL    HW112096   8.340   5.589   6.441  0.0712 -1.6239  2.6920
36593SOL    HW212097   8.434   5.475   6.410  0.8780 -0.4379  0.5740
36594SOL     OW12098   4.083   9.531   2.738  0.1191 -0.2731  0.2719
36594SOL    HW112099   4.001   9.483   2.728 -1.1818  2.0550 -1.0007
36594SOL    HW212100   4.148   9.477   2.692 -1.0240 -1.3300 -0.1502
36595SOL     OW12101   2.776   4.822   0.059  0.3726  0.0438  0.4911
36595SOL    HW112102   2.867   4.792   0.064  0.1551 -1.2396 -1.7365
36595SOL    HW212103   2.779   4.897  -0.000  0.0599  0.3819  0.9034
36596SOL     OW12104   9.098   1.312   7.998 -0.2926 -0.4349 -0.2212
36596SOL    HW112105   9.046   1.356   8.066 -0.4249 -1.3211  0.2648
36596SOL    HW212106   9.142   1.384   7.952  1.1491  0.1404  1.8942
36597SOL     OW12107   4.705   8.864   3.147 -0.5309  0.0182  0.2518
36597SOL    HW112108   4.748   8.922   3.210 -2.6596 -0.0501  1.8752
36597SOL    HW212109   4.762   8.788   3.142  0.6947  0.8816  0.5264
36598SOL     OW12110   5.923   9.421   7.185  0.4558 -1.0393 -0.5178
36598SOL    HW112111   5.852   9.464   7.232  1.4474 -0.4063  0.4499
36598SOL    HW212112   5.919   9.458   7.097  0.9156  0.6251  0.1357
36599SOL     OW12113   1.211   2.216   5.697  0.1647  0.2301 -0.1595
36599SOL    HW112114   1.253   2.130   5.697 -1.8288 -0.8088 -1.4333
36599SOL    HW212115   1.283   2.278   5.682  1.7184 -1.1250  1.2603
36600SOL     OW12116   3.360   0.091   4.569 -0.4075  0.3106 -0.4540
36600SOL    HW112117   3.393   0.116   4.656  1.6348 -1.6255 -0.5760
36600SOL    HW212118   3.398   0.156   4.510 -0.7510  0.8860 -0.0485
36601SOL     OW12119   6.970   3.568   4.357  0.1779  0.2304  0.5589
36601SOL    HW112120   6.952   3.522   4.439  0.4377 -1.8007 -0.4750
36601SOL    HW212121   7.039   3.631   4.380 -0.5901  0.5452  2.1318
36602SOL     OW12122   9.784   2.160   5.809  0.6203 -0.2826  0.6582
36602SOL    HW112123   9.795   2.253   5.828  3.2275 -0.3869 -0.0438
36602SOL    HW212124   9.824   2.115   5.884  2.5480 -0.7548 -0.5855
36603SOL     OW12125  10.075   3.713   8.532 -0.3487  0.0840 -0.5952
36603SOL    HW112126  10.066   3.630   8.484  0.3116  0.1196 -0.7955
36603SOL    HW212127   9.986   3.740   8.550 -0.6063 -0.0527 -1.6085
36604SOL     OW12128   4.417  10.186   1.086  0.0502  0.0700 -0.1092
36604SOL    HW112129   4.478  10.166   1.157  1.4488  1.1039 -0.9826
36604SOL    HW212130   4.346  10.235   1.129  0.1855 -0.4799  0.7803
36605SOL     OW12131   8.327   1.400   0.380 -0.0908  0.4395 -0.6922
36605SOL    HW112132   8.351   1.307   0.382  0.5631  0.4096 -4.0026
36605SOL    HW212133   8.300   1.416   0.290 -0.1434  3.4963 -0.2443
36606SOL     OW12134   2.772   5.070   5.544  0.2693  0.0837 -0.0803
36606SOL    HW112135   2.828   4.994   5.558  0.6693  0.3515 -0.1768
36606SOL    HW212136   2.821   5.143   5.582  0.4951  0.5067 -1.1323
36607SOL     OW12137   2.251   8.467   0.259 -0.3363 -0.1572  0.3988
36607SOL    HW112138   2.339   8.462   0.220 -0.3393 -0.0902  0.3829
36607SOL    HW212139   2.235   8.561   0.269 -0.8735 -0.1315 -0.6395
36608SOL     OW12140   1.229   4.936   2.429  0.4015  0.6692 -0.3355
36608SOL    HW112141   1.210   5.028   2.408 -0.4740  0.3583 -0.9286
36608SOL    HW212142   1.166   4.914   2.497 -0.8336 -0.1027 -1.6831
36609SOL     OW12143   7.117   1.020   7.484 -0.3582  0.2918 -0.2961
36609SOL    HW112144   7.101   1.110   7.456 -1.5083  0.1171 -0.2236
36609SOL    HW212145   7.212   1.009   7.476 -0.3060  1.2353 -1.1246
36610SOL     OW12146   2.184   5.467   1.608 -0.0442  0.2919 -0.7683
36610SOL    HW112147   2.173   5.560   1.589 -0.3520  0.1214 -1.4624
36610SOL    HW212148   2.269   5.445   1.570  0.6573  0.5796  0.5747
36611SOL     OW12149   8.681   1.641   8.504 -0.3467  0.0244  0.8889
36611SOL    HW112150   8.587   1.643   8.491 -0.3295 -1.7074  0.2198
36611SOL    HW212151   8.714   1.589   8.431  1.1801  0.9656  0.8666
36612SOL     OW12152   1.476   2.683   3.691 -0.2427  0.2587 -0.5333
36612SOL    HW112153   1.571   2.686   3.704 -0.2264 -2.7029  0.9342
36612SOL    HW212154   1.440   2.692   3.778 -1.0122 -3.0092 -0.3859
36613SOL     OW12155   4.793   0.833   3.587  0.1240  0.4754  0.2650
36613SOL    HW112156   4.847   0.855   3.511  2.0773  0.1835  1.5247
36613SOL    HW212157   4.739   0.760   3.557  0.4107  0.7591 -1.0231
36614SOL     OW12158   0.270   2.634   4.105  0.0317  0.1004  0.7896
36614SOL    HW112159   0.306   2.596   4.024  1.8350  2.5551  0.3375
36614SOL    HW212160   0.296   2.571   4.173 -1.7839 -2.1802 -0.4725
36615SOL     OW12161   0.941   3.768   0.334  0.1959 -0.5604 -0.1902
36615SOL    HW112162   0.970   3.695   0.278  1.7696  1.0798 -1.6539
36615SOL    HW212163   1.021   3.818   0.351 -0.8380  0.8359  0.7448
36616SOL     OW12164   3.708   8.985   5.876  0.0984  0.0717 -0.1209
36616SOL    HW112165   3.734   9.050   5.940  1.8982 -0.5731 -0.1541
36616SOL    HW212166   3.632   8.941   5.915  0.5480  0.3636  1.1162
36617SOL     OW12167   1.878   3.904   0.758 -0.0709 -0.0712  0.7169
36617SOL    HW112168   1.793   3.884   0.797 -0.0293 -0.5894  0.5375
36617SOL    HW212169   1.932   3.827   0.775  0.7467  0.7306  1.8957
36618SOL     OW12170   3.632   6.804  10.583 -0.1451 -0.7412  0.3355
36618SOL    HW112171   3.629   6.724  10.636 -1.9031 -0.8274  0.1655
36618SOL    HW212172   3.559   6.856  10.614 -1.0385 -0.6516 -1.7693
36619SOL     OW12173   3.668   6.081   5.952 -0.1260 -0.2145 -0.0675
36619SOL    HW112174   3.655   6.008   5.891 -0.7772 -1.5854  1.6361
36619SOL    HW212175   3.592   6.078   6.009  1.0135  0.2864  1.5252
36620SOL     OW12176   0.378   5.376   8.640 -0.0818 -0.0948 -0.2385
36620SOL    HW112177   0.470   5.357   8.627 -0.0335  0.2594 -0.4371
36620SOL    HW212178   0.369   5.468   8.615 -0.6694 -0.3777 -1.0867
36621SOL     OW12179   5.329   7.711   1.701 -0.0838  0.3605 -0.3902
36621SOL    HW112180   5.282   7.748   1.776 -0.0112 -0.1157 -0.1021
36621SOL    HW212181   5.287   7.749   1.624  0.6042  1.8055 -0.1034
36622SOL     OW12182   7.496   7.605   3.985 -0.1921  0.5074 -0.0325
36622SOL    HW112183   7.442   7.675   4.022 -0.8531 -0.4340  0.8231
36622SOL    HW212184   7.441   7.565   3.918 -0.3092 -0.0446  0.3950
36623SOL     OW12185   8.646   9.572   3.627  0.6138 -0.8236 -0.1904
36623SOL    HW112186   8.741   9.561   3.619  1.1784  2.5747  0.3101
36623SOL    HW212187   8.619   9.498   3.681  2.9524 -1.9168 -0.3514
36624SOL     OW12188   0.474   9.453   2.309  0.6638  0.4428 -0.1753
36624SOL    HW112189   0.441   9.412   2.229  1.0602  1.2262 -0.7534
36624SOL    HW212190   0.434   9.540   2.310  1.2933  0.7405  0.0515
36625SOL     OW12191   9.286   1.358   8.337 -0.3167  0.1851  0.1635
36625SOL    HW112192   9.196   1.391   8.343 -0.6628 -0.6297 -0.3808
36625SOL    HW212193   9.290   1.289   8.404  0.1623  0.7880  0.7596
36626SOL     OW12194  10.537   4.720   2.135 -0.0663 -0.5718 -0.3280
36626SOL    HW112195  10.520   4.785   2.066  0.2310  0.7627  0.8239
36626SOL    HW212196  10.450   4.694   2.165 -0.1816 -0.2332 -0.3628
36627SOL     OW12197   0.278   6.634   9.857 -0.0989 -0.4564 -0.1421
36627SOL    HW112198   0.370   6.627   9.828 -0.0995 -1.8374  0.1211
36627SOL    HW212199   0.284   6.655   9.950 -0.0795  1.2120 -0.4957
36628SOL     OW12200   0.042   4.975   8.946  0.0877 -0.6904  0.4463
36628SOL    HW112201   0.014   5.003   9.033 -0.6469 -0.9634  0.3023
36628SOL    HW212202   0.013   5.045   8.887  0.3079 -0.6560  0.3752
36629SOL     OW12203   6.667   4.317   4.017  0.4685  0.2647  0.3741
36629SOL    HW112204   6.704   4.386   4.072 -0.3004  0.5186  0.5743
36629SOL    HW212205   6.637   4.251   4.078  1.0839 -0.2026  0.1870
36630SOL     OW12206   5.382   9.273   6.678  0.0901  0.4075 -0.3038
36630SOL    HW112207   5.382   9.330   6.755 -2.4341  1.0627 -0.6938
36630SOL    HW212208   5.449   9.207   6.697  1.1801  1.9059  1.3699
36631SOL     OW12209   7.648   3.963   0.452 -0.1883  0.0218 -0.5382
36631SOL    HW112210   7.680   4.053   0.438 -1.3163  0.0361 -3.9754
36631SOL    HW212211   7.646   3.954   0.547  1.6979  2.9750 -0.0459
36632SOL     OW12212   0.045  10.054   3.446 -0.0125  0.6497 -0.1579
36632SOL    HW112213  -0.030  10.078   3.391  1.4854  1.2872 -2.0261
36632SOL    HW212214   0.031   9.961   3.466 -0.2494  0.1937 -2.2681
36633SOL     OW12215   2.902   8.698   9.065 -0.5139  0.4963 -0.3326
36633SOL    HW112216   2.816   8.656   9.069 -1.6356  2.7323  0.8211
36633SOL    HW212217   2.933   8.680   8.976 -2.7205  0.6372 -1.1908
36634SOL     OW12218   7.430   1.973   6.012  0.5094 -0.0974 -0.0289
36634SOL    HW112219   7.449   2.065   5.997  0.6458 -0.4443 -2.2739
36634SOL    HW212220   7.335   1.969   6.022  0.4239  0.1878 -0.7263
36635SOL     OW12221   7.871   6.409   1.613 -0.1561 -0.3451  0.3887
36635SOL    HW112222   7.835   6.454   1.537  0.6202  0.2325  0.3424
36635SOL    HW212223   7.964   6.432   1.612 -0.3316  0.6362  2.1654
36636SOL     OW12224   2.593   6.384   8.251 -0.4275  0.0850 -0.0427
36636SOL    HW112225   2.606   6.336   8.333  0.0027  0.6403  0.2166
36636SOL    HW212226   2.680   6.392   8.214 -0.5289  0.4526 -0.2075
36637SOL     OW12227   0.132   8.548   6.026  0.7613  0.7136 -0.1860
36637SOL    HW112228   0.159   8.618   5.967  2.3421  0.6486  0.3999
36637SOL    HW212229   0.097   8.480   5.969  1.9260  0.7953 -1.0411
36638SOL     OW12230   5.980   1.041   3.442 -0.0168  0.5912 -0.0301
36638SOL    HW112231   5.926   1.101   3.391  0.3191  1.7372  0.9255
36638SOL    HW212232   6.014   0.979   3.377 -1.1525  0.8301 -0.8857
36639SOL     OW12233   7.977   0.607   6.996 -0.2512  0.1786  0.0310
36639SOL    HW112234   7.916   0.677   7.020 -0.0138  0.5246 -0.3562
36639SOL    HW212235   7.940   0.570   6.915  1.5133  2.2951 -1.8853
36640SOL     OW12236   3.518   0.119   5.556  0.6000 -0.1439 -0.0581
36640SOL    HW112237   3.466   0.158   5.485  3.8840  0.8857 -2.1504
36640SOL    HW212238   3.565   0.047   5.515  1.9332 -0.0990  1.2930
36641SOL     OW12239   0.711   9.594   0.057  0.0326  0.0050 -0.8872
36641SOL    HW112240   0.748   9.682   0.050  0.1683  0.1281  1.0085
36641SOL    HW212241   0.787   9.537   0.070 -0.1944 -0.1560 -0.2536
36642SOL     OW12242   4.159   1.763   9.867 -0.1374 -0.3434 -0.6065
36642SOL    HW112243   4.144   1.806   9.783 -1.7376  0.8804  0.2482
36642SOL    HW212244   4.105   1.685   9.864 -1.1679  0.3361 -0.2798
36643SOL     OW12245   6.747   2.012   6.884  0.1784 -1.0585 -0.3788
36643SOL    HW112246   6.734   2.098   6.844 -0.5870 -1.0904 -0.2334
36643SOL    HW212247   6.762   2.031   6.977 -1.4206 -1.1125 -0.0636
36644SOL     OW12248   4.975   9.904   8.952  0.2311 -0.6268  0.5445
36644SOL    HW112249   5.021   9.826   8.922 -0.0094 -1.7391  2.7861
36644SOL    HW212250   4.886   9.873   8.972 -1.2820  1.2224 -2.6104
36645SOL     OW12251   1.423   5.206   5.812  0.1146  0.1316  0.0906
36645SOL    HW112252   1.480   5.135   5.783  0.8858  1.6306 -2.3401
36645SOL    HW212253   1.480   5.264   5.861  0.0971  0.3830 -0.1868
36646SOL     OW12254   8.221   3.745   7.523 -0.5282  0.2156 -0.0269
36646SOL    HW112255   8.176   3.662   7.505 -0.5068  0.4301 -1.1343
36646SOL    HW212256   8.165   3.790   7.586 -0.2088 -0.9135  1.0921
36647SOL     OW12257   4.590   3.169   1.668  0.1638  0.0279  0.0325
36647SOL    HW112258   4.654   3.152   1.598 -0.7053 -0.6627 -0.6250
36647SOL    HW212259   4.508   3.132   1.634 -0.2567 -0.3980  1.4558
36648SOL     OW12260   8.869   8.101  10.466  0.0654  0.1992  0.0068
36648SOL    HW112261   8.799   8.150  10.422  0.1830 -1.5123 -2.2839
36648SOL    HW212262   8.940   8.098  10.402  0.3422 -2.2212  0.3109
36649SOL     OW12263   1.331   5.775   0.013 -0.1608 -0.4533  0.1353
36649SOL    HW112264   1.398   5.750  -0.050 -0.3558 -0.3775 -0.1035
36649SOL    HW212265   1.380   5.809   0.088  0.0765 -0.6948  0.0922
36650SOL     OW12266   9.900   4.291   5.093  0.2257  0.6143  0.1942
36650SOL    HW112267   9.974   4.299   5.034  0.0641  1.7162  0.1320
36650SOL    HW212268   9.838   4.357   5.064 -0.7531 -0.2255  0.3063
36651SOL     OW12269   3.372   0.449   5.490 -0.2528 -0.3333  0.4300
36651SOL    HW112270   3.456   0.457   5.535 -0.9365  2.2107  1.3719
36651SOL    HW212271   3.395   0.417   5.403  1.6293 -0.2706  0.8641
36652SOL     OW12272   2.995   1.863   9.888  0.2779 -0.4224 -0.9508
36652SOL    HW112273   2.997   1.887   9.795 -0.7914 -1.4323 -1.2513
36652SOL    HW212274   2.925   1.799   9.895  0.2990 -0.3144  0.5795
36653SOL     OW12275   1.517   9.590   9.029 -0.0130 -0.7818  0.1476
36653SOL    HW112276   1.422   9.589   9.026 -0.0016 -0.0220 -0.9079
36653SOL    HW212277   1.543   9.652   8.962  1.2634 -1.8802 -0.4344
36654SOL     OW12278   1.019  10.162   5.557  0.2814  0.2419 -0.2312
36654SOL    HW112279   0.980  10.203   5.634  0.5987 -0.4315  0.2986
36654SOL    HW212280   1.110  10.192   5.558  0.0265  1.0858 -0.9566
36655SOL     OW12281   5.020   6.608   9.772 -0.0480  0.6707  0.3005
36655SOL    HW112282   5.011   6.550   9.847 -0.5558 -0.7427 -0.8054
36655SOL    HW212283   4.965   6.569   9.705  1.1532  1.3392 -1.1422
36656SOL     OW12284   5.392   3.898   9.073  0.3068  0.4037 -0.0953
36656SOL    HW112285   5.418   3.806   9.068 -3.5356 -1.0574  2.3825
36656SOL    HW212286   5.445   3.935   9.144 -0.4536 -0.9034  1.1860
36657SOL     OW12287   5.146   6.288   4.483  0.2221  0.3054 -0.4177
36657SOL    HW112288   5.187   6.338   4.554 -1.8226 -0.7147  1.5842
36657SOL    HW212289   5.189   6.203   4.486  0.3686  0.3693 -0.6515
36658SOL     OW12290  10.583   4.148   7.423 -0.4375 -0.3136 -0.3570
36658SOL    HW112291  10.524   4.129   7.497 -0.3138  0.3193 -0.0883
36658SOL    HW212292  10.524   4.174   7.352 -0.4730  0.9512  0.1036
36659SOL     OW12293   9.072   0.697   8.636  0.1632 -0.5784 -0.7247
36659SOL    HW112294   8.977   0.695   8.618  0.0540 -0.9131 -0.1293
36659SOL    HW212295   9.079   0.679   8.729  0.8966 -2.0826 -1.0505
36660SOL     OW12296   3.896  10.052   9.866 -0.1245 -0.0632  0.0179
36660SOL    HW112297   3.852  10.063   9.951  1.3891 -1.8556  1.1273
36660SOL    HW212298   3.830  10.076   9.801 -1.1733  1.8593  1.6959
36661SOL     OW12299  10.494   2.455   8.009  0.1806  0.2463 -0.5062
36661SOL    HW112300  10.434   2.457   7.934  0.8265 -0.0050 -1.0454
36661SOL    HW212301  10.456   2.515   8.072 -0.0479  0.9467 -1.2966
36662SOL     OW12302   2.695   9.901   3.983  0.4800 -0.0191 -0.3320
36662SOL    HW112303   2.786   9.873   3.979  0.4579 -0.0358 -0.7776
36662SOL    HW212304   2.679   9.943   3.899  0.2316  0.4727 -0.0453
36663SOL     OW12305   7.358   7.575   2.199 -0.0978 -0.3469  0.6481
36663SOL    HW112306   7.322   7.605   2.282 -1.7212  1.1774 -0.5464
36663SOL    HW212307   7.338   7.645   2.137  1.9948 -0.9696 -0.8299
36664SOL     OW12308   3.641   3.420   7.457  0.2894  0.2151 -0.1020
36664SOL    HW112309   3.628   3.458   7.370 -0.9624 -0.3871 -0.1954
36664SOL    HW212310   3.606   3.331   7.450 -3.0316  1.1992  1.9176
36665SOL     OW12311   4.183   7.006   8.481  0.1176  0.2630 -0.4611
36665SOL    HW112312   4.098   7.007   8.439  0.3179 -0.1966 -0.8893
36665SOL    HW212313   4.184   7.085   8.535 -0.3937  0.5184 -0.8146
36666SOL     OW12314   9.824   8.854   9.972  0.1164  0.5900  0.2998
36666SOL    HW112315   9.830   8.842  10.067  0.2217 -0.2877  0.1937
36666SOL    HW212316   9.754   8.794   9.945  0.9884 -0.1745 -0.3398
36667SOL     OW12317   1.644   4.978   9.869 -0.3648  0.7747  0.2259
36667SOL    HW112318   1.613   5.027   9.946 -0.5514 -1.0859  1.3847
36667SOL    HW212319   1.721   4.931   9.901 -0.0816  0.4498 -0.9074
36668SOL     OW12320   9.386   8.386   8.737  0.0839  0.7123 -0.2757
36668SOL    HW112321   9.383   8.382   8.833  0.2086  0.9376 -0.2612
36668SOL    HW212322   9.369   8.478   8.716 -2.6537  0.2055 -0.5839
36669SOL     OW12323   1.032   4.810   9.900  0.4815  0.1462 -0.3168
36669SOL    HW112324   1.033   4.894   9.854  1.3499 -0.0727 -0.7271
36669SOL    HW212325   0.981   4.826   9.979  1.5064  1.3546  0.1429
36670SOL     OW12326   2.530   6.453   2.223 -0.2650  0.3455  0.0226
36670SOL    HW112327   2.603   6.392   2.225 -0.8621 -0.4119 -0.7960
36670SOL    HW212328   2.571   6.538   2.204  0.2917 -0.2686 -1.6608
36671SOL     OW12329   3.798   0.440   1.873  0.1354 -0.4508 -0.4643
36671SOL    HW112330   3.861   0.385   1.920 -0.3949  0.4008  1.3545
36671SOL    HW212331   3.713   0.415   1.908 -0.1263  1.4062  0.3876
36672SOL     OW12332   5.245   5.047   5.208  0.7115  0.8243 -0.3481
36672SOL    HW112333   5.245   4.967   5.157  0.7473  1.1459 -0.8649
36672SOL    HW212334   5.332   5.085   5.192  0.6523  1.0230 -0.2014
36673SOL     OW12335   2.273   7.464   8.321 -0.5208  0.1568 -0.6706
36673SOL    HW112336   2.336   7.502   8.260 -0.3225  0.1699 -0.4586
36673SOL    HW212337   2.222   7.403   8.267  0.6551 -0.9906 -0.5579
36674SOL     OW12338   6.309   5.397   6.618 -0.2896  0.1018 -0.2918
36674SOL    HW112339   6.284   5.442   6.538 -0.3948  1.0722  0.2762
36674SOL    HW212340   6.254   5.318   6.620 -1.4191  0.8663 -0.3909
36675SOL     OW12341   2.014   6.210   2.729 -0.6139  0.0788  0.2472
36675SOL    HW112342   1.972   6.207   2.643 -0.0532  0.2450 -0.0372
36675SOL    HW212343   2.062   6.293   2.730 -0.1996 -0.1562  0.5163
36676SOL     OW12344   3.824   9.248   0.644 -0.2845  0.1058 -0.0807
36676SOL    HW112345   3.790   9.161   0.625  0.0687 -0.0566  0.0311
36676SOL    HW212346   3.866   9.276   0.562  0.7658 -0.3755  0.2755
36677SOL     OW12347   2.869   0.869   5.613 -0.1519  0.3531 -0.4811
36677SOL    HW112348   2.788   0.850   5.567  1.2130  1.1601 -3.4688
36677SOL    HW212349   2.903   0.948   5.571  3.1683 -1.1055 -0.8736
36678SOL     OW12350   5.160   6.479   6.578  0.0041  0.0374  0.1361
36678SOL    HW112351   5.212   6.504   6.654 -0.9869 -2.5517  1.8008
36678SOL    HW212352   5.083   6.537   6.581  1.5074  2.2123 -0.9281
36679SOL     OW12353   7.106   4.819   0.364 -0.3866 -0.0311 -0.1171
36679SOL    HW112354   7.047   4.761   0.412  0.1425  1.0096  1.8969
36679SOL    HW212355   7.048   4.881   0.321 -0.8361  0.0893  0.6400
36680SOL     OW12356   7.915   6.420   2.235 -0.6432  0.2554 -0.6341
36680SOL    HW112357   7.959   6.372   2.165 -0.5934 -0.1134 -0.3507
36680SOL    HW212358   7.830   6.378   2.243 -0.8175  0.5791 -0.7681
36681SOL     OW12359  10.443   5.997   0.702 -0.0784 -0.0764  0.2324
36681SOL    HW112360  10.412   5.978   0.613 -1.9473  0.8028  0.6358
36681SOL    HW212361  10.417   5.919   0.752 -0.1904 -0.0274  0.2518
36682SOL     OW12362   3.189   9.079   0.587  0.1379  0.0300 -0.4035
36682SOL    HW112363   3.168   9.009   0.648  0.2923  0.0968 -0.2752
36682SOL    HW212364   3.107   9.129   0.579  0.2411  0.2857  0.0936
36683SOL     OW12365   2.576   6.720   3.711  0.0216 -0.5870  0.1227
36683SOL    HW112366   2.602   6.643   3.660 -2.6999 -1.3428 -0.2769
36683SOL    HW212367   2.505   6.689   3.767 -0.8727  1.5191  0.2520
36684SOL     OW12368   6.696   1.621   2.781  0.2088  0.3925  0.4946
36684SOL    HW112369   6.771   1.611   2.721  0.0625 -2.2631  0.6121
36684SOL    HW212370   6.619   1.612   2.724 -0.0563  2.0537  0.5338
36685SOL     OW12371  10.405   6.159   5.533 -0.1814  0.1376 -0.0369
36685SOL    HW112372  10.417   6.118   5.448 -2.8206  1.4231 -1.1332
36685SOL    HW212373  10.473   6.227   5.536  1.4869 -1.4550  0.0023
36686SOL     OW12374   4.745   6.132   2.933  0.0325 -0.2015  0.0516
36686SOL    HW112375   4.780   6.117   2.846 -0.0987 -0.3021  0.0157
36686SOL    HW212376   4.666   6.078   2.937  1.0211 -1.6492  0.8725
36687SOL     OW12377   2.399   6.851   2.422 -0.3167  0.0813  0.2363
36687SOL    HW112378   2.449   6.885   2.348 -1.4970  0.7111 -0.3000
36687SOL    HW212379   2.350   6.926   2.455  0.7357 -0.0138  2.1528
36688SOL     OW12380   2.618   2.152   2.793 -0.5573  0.2845 -0.6501
36688SOL    HW112381   2.661   2.228   2.754  1.3590 -1.0668 -1.3423
36688SOL    HW212382   2.526   2.159   2.766  0.1089  0.9822 -2.9592
36689SOL     OW12383   4.270   2.654   4.673  0.3207 -0.1324  0.4570
36689SOL    HW112384   4.232   2.738   4.647  0.7391 -0.2261 -0.5093
36689SOL    HW212385   4.219   2.626   4.748  0.9411  1.5599  1.5596
36690SOL     OW12386   1.663   0.205   0.992 -0.2499 -0.1703  0.4240
36690SOL    HW112387   1.741   0.149   0.985 -0.3158 -0.3447  1.0270
36690SOL    HW212388   1.698   0.292   1.012 -0.1785 -0.1260  0.1050
36691SOL     OW12389   5.420   6.780   6.735 -0.0206  0.6003 -0.1219
36691SOL    HW112390   5.379   6.859   6.700 -1.5347 -0.3885 -0.6520
36691SOL    HW212391   5.511   6.785   6.705 -0.5234  1.2937 -1.6036
36692SOL     OW12392   9.461   4.865  10.156  0.4051  0.3502  0.7931
36692SOL    HW112393   9.504   4.898  10.235 -1.8571  1.3399  1.7039
36692SOL    HW212394   9.472   4.935  10.091  0.6760  0.3277  0.8130
36693SOL     OW12395   7.073   5.479  10.422  0.2853 -0.1194  0.2863
36693SOL    HW112396   7.141   5.526  10.375  0.3630 -0.0953  0.4234
36693SOL    HW212397   7.066   5.523  10.506  0.4026 -0.3889  0.4396
36694SOL     OW12398   0.951   0.328   5.849  0.1078  0.0056  0.2552
36694SOL    HW112399   0.985   0.416   5.835  0.6962 -0.2192  0.2148
36694SOL    HW212400   0.967   0.283   5.766  0.8831 -0.4691  0.6424
36695SOL     OW12401  10.440   0.260   6.148 -0.1138 -0.3467  0.5385
36695SOL    HW112402  10.380   0.322   6.189 -0.1603 -0.1539  0.1815
36695SOL    HW212403  10.385   0.185   6.126 -0.2737 -0.0838  0.0184
36696SOL     OW12404   0.283   6.212   0.315 -0.1054 -0.6608  0.4737
36696SOL    HW112405   0.218   6.234   0.249 -0.2479  1.1075  1.1642
36696SOL    HW212406   0.232   6.185   0.391  0.0504 -1.8715  0.1822
36697SOL     OW12407   5.912   6.976   7.038 -0.1895 -0.1381 -0.5238
36697SOL    HW112408   5.874   7.009   7.120  0.6679 -0.4223  0.0007
36697SOL    HW212409   5.918   7.054   6.982  1.8286  0.6651  0.7094
36698SOL     OW12410   2.357   3.456  10.379  0.2165  0.2496 -0.2130
36698SOL    HW112411   2.417   3.421  10.312  1.1283 -0.7432  1.0718
36698SOL    HW212412   2.296   3.510  10.330  1.1097 -0.1134 -1.8058
36699SOL     OW12413   9.394   0.536   9.875  0.5697  0.2647  0.2438
36699SOL    HW112414   9.396   0.626   9.843 -0.6543  0.2860  0.2015
36699SOL    HW212415   9.304   0.522   9.903  0.8755 -0.7781  0.7532
36700SOL     OW12416   4.471  10.034   6.410  0.1639 -0.3636 -0.0559
36700SOL    HW112417   4.510   9.998   6.490  1.1936 -0.8186 -0.7438
36700SOL    HW212418   4.517  10.117   6.397 -0.7971  0.2587  0.4272
36701SOL     OW12419   0.044   4.646   3.646  0.0853 -0.7742 -0.5079
36701SOL    HW112420   0.108   4.636   3.716  1.7549  1.6442 -1.5704
36701SOL    HW212421   0.063   4.573   3.587  1.1971 -0.6740 -0.2993
36702SOL     OW12422   0.358   7.083  10.350  0.2691  0.1984 -0.0286
36702SOL    HW112423   0.311   7.166  10.341 -1.5371 -0.6208  1.2928
36702SOL    HW212424   0.448   7.104  10.324 -0.1812  2.5074  0.0589
36703SOL     OW12425   5.707   8.925  10.293 -0.1030  0.0796 -0.2641
36703SOL    HW112426   5.700   8.898  10.385  0.3397  0.5176 -0.0954
36703SOL    HW212427   5.626   8.971  10.275  0.1595  0.7236  0.1611
36704SOL     OW12428   1.702   7.089   5.348 -0.2400  0.4955 -0.0079
36704SOL    HW112429   1.676   7.023   5.412 -3.3236 -1.3535 -2.7949
36704SOL    HW212430   1.777   7.049   5.302 -0.1461  0.3299  0.2868
36705SOL     OW12431   2.025   2.572  10.230 -0.3316  0.6206 -0.4887
36705SOL    HW112432   2.100   2.513  10.232  0.1624  1.2441 -0.3198
36705SOL    HW212433   2.031   2.615  10.145 -1.9298 -1.1184 -1.5633
36706SOL     OW12434   7.347   7.532   5.660  0.2489 -0.0910  0.2340
36706SOL    HW112435   7.279   7.593   5.689  0.8862  1.0210 -0.5285
36706SOL    HW212436   7.427   7.585   5.660  0.8121 -0.9350 -0.4716
36707SOL     OW12437   9.031   2.522   5.411 -0.2086  0.1153 -0.7395
36707SOL    HW112438   9.001   2.439   5.447  2.7880 -1.0789 -0.6976
36707SOL    HW212439   9.030   2.582   5.486 -0.4106 -0.4765 -0.2554
36708SOL     OW12440   9.678   5.281   2.729 -0.1154  0.7589  0.0181
36708SOL    HW112441   9.740   5.345   2.767  1.2770 -0.3322 -0.3272
36708SOL    HW212442   9.618   5.260   2.801  0.8330  0.7425  0.8301
36709SOL     OW12443   4.601   4.197   4.975 -0.2375 -0.6585  0.2100
36709SOL    HW112444   4.616   4.287   5.003 -1.3659 -0.2407 -0.4437
36709SOL    HW212445   4.579   4.150   5.056  1.2863 -0.5958  0.6969
36710SOL     OW12446   5.476   9.498   5.188 -0.7781 -0.1394 -0.1574
36710SOL    HW112447   5.521   9.574   5.150 -0.8198 -0.4298 -0.8025
36710SOL    HW212448   5.471   9.518   5.281  1.8640 -0.6493  0.1805
36711SOL     OW12449   3.916   5.412   7.989 -0.7722 -0.7013 -0.4358
36711SOL    HW112450   3.915   5.483   8.053  1.4171  1.1263 -2.2278
36711SOL    HW212451   3.893   5.334   8.039 -1.8005  1.0067  1.9634
36712SOL     OW12452   0.790   8.235   5.599  0.3381  0.1443 -0.3038
36712SOL    HW112453   0.719   8.177   5.573  0.6774  0.6554 -2.5923
36712SOL    HW212454   0.862   8.177   5.622  0.0579 -0.3620 -0.7005
36713SOL     OW12455   9.709  10.424   7.267 -0.3028  0.3930  0.1615
36713SOL    HW112456   9.691  10.363   7.196 -1.3298  0.4712  0.3307
36713SOL    HW212457   9.633  10.416   7.325  0.1704  0.8664  0.8642
36714SOL     OW12458   5.618   9.460   6.119 -0.4121 -0.2016  0.1526
36714SOL    HW112459   5.542   9.411   6.085 -0.7343  0.4572 -0.1093
36714SOL    HW212460   5.681   9.457   6.047 -0.3171 -0.4686  0.2445
36715SOL     OW12461   6.193  10.230   8.350 -0.3044  0.1427  0.3875
36715SOL    HW112462   6.287  10.211   8.345  0.2200  2.7328 -1.8443
36715SOL    HW212463   6.177  10.291   8.278 -3.6334  0.2011  1.0253
36716SOL     OW12464   8.621   4.196   0.850  0.7783 -0.1411 -0.2533
36716SOL    HW112465   8.686   4.260   0.879 -1.2700  1.3805  1.2565
36716SOL    HW212466   8.559   4.247   0.797 -0.9991 -0.7607  1.1233
36717SOL     OW12467  10.120   9.525  10.075  0.2926 -0.2530  0.2338
36717SOL    HW112468  10.170   9.606  10.069  0.6564 -0.4037  1.0695
36717SOL    HW212469  10.101   9.515  10.168 -2.0769  0.2531 -0.1388
36718SOL     OW12470   5.613   8.396   5.679  0.7978 -0.0214 -0.1900
36718SOL    HW112471   5.555   8.439   5.742  1.2187 -0.0390  0.2141
36718SOL    HW212472   5.578   8.307   5.672 -0.9610  0.7615 -2.1314
36719SOL     OW12473   4.049   3.739   4.572 -0.7903  0.2539 -0.2427
36719SOL    HW112474   4.020   3.762   4.660  0.4715 -2.2833  0.9339
36719SOL    HW212475   4.022   3.648   4.560  1.5147 -0.3595 -1.3139
36720SOL     OW12476   9.628   3.283   9.099 -0.0920  0.2294 -0.7917
36720SOL    HW112477   9.544   3.238   9.092 -0.4433  0.8831 -0.8420
36720SOL    HW212478   9.693   3.214   9.088 -0.6201 -0.1225 -1.8869
36721SOL     OW12479   5.481   4.470   3.574 -0.3714 -0.8942  0.3593
36721SOL    HW112480   5.512   4.554   3.609  1.4765 -1.3976  0.0065
36721SOL    HW212481   5.406   4.494   3.519  0.2986  0.5713  0.0297
36722SOL     OW12482   2.989   9.289   8.513 -0.0382 -0.1724 -0.3065
36722SOL    HW112483   3.037   9.326   8.440 -1.5433  2.8455  0.0712
36722SOL    HW212484   3.055   9.273   8.580  0.8010  1.4471 -0.7039
36723SOL     OW12485   4.646   1.797   1.370 -0.7185 -0.0366  0.3531
36723SOL    HW112486   4.731   1.841   1.358 -1.4405  1.1918 -0.4465
36723SOL    HW212487   4.653   1.756   1.456  0.7945 -0.2164  0.1784
36724SOL     OW12488   6.988   0.805   7.340 -0.2890 -0.1324 -0.1136
36724SOL    HW112489   6.895   0.823   7.352 -0.3028 -0.5420  0.4246
36724SOL    HW212490   7.032   0.870   7.395 -0.2966 -0.7794  0.6599
36725SOL     OW12491   9.219   2.238   0.974  0.3781 -0.1366  0.1195
36725SOL    HW112492   9.254   2.204   1.056 -2.2675  0.4346  1.5901
36725SOL    HW212493   9.223   2.333   0.983 -1.9896 -0.0225  0.6543
36726SOL     OW12494   3.779   0.277   4.924 -0.5449  0.1034 -0.5622
36726SOL    HW112495   3.813   0.204   4.872 -1.3055  0.0335 -0.9723
36726SOL    HW212496   3.779   0.244   5.014  1.0584  0.3272 -0.4432
36727SOL     OW12497   5.023   4.399   6.140  0.1768 -0.4933 -0.3965
36727SOL    HW112498   5.025   4.304   6.155 -2.1455 -0.7202 -1.0643
36727SOL    HW212499   4.973   4.434   6.214  0.8535  0.1799 -0.2580
36728SOL     OW12500   2.314   0.924   0.155 -0.3317 -0.2168  0.2035
36728SOL    HW112501   2.231   0.970   0.168 -0.6986 -0.4323 -1.2351
36728SOL    HW212502   2.291   0.845   0.107  0.4578 -1.3506  1.6257
36729SOL     OW12503   0.362   7.416   9.823 -0.0142 -0.0883  0.1853
36729SOL    HW112504   0.343   7.322   9.823 -0.0881 -0.0732  0.3738
36729SOL    HW212505   0.458   7.422   9.822 -0.0079 -0.1654  0.3839
36730SOL     OW12506   4.083   3.556   5.516  0.6521 -0.1177  0.0220
36730SOL    HW112507   4.070   3.503   5.595 -0.0107  0.5342  0.3568
36730SOL    HW212508   4.133   3.499   5.458  0.2097 -1.0050  0.4882
36731SOL     OW12509   9.476   6.553   7.547  0.1683 -0.0737  0.2248
36731SOL    HW112510   9.508   6.547   7.638 -0.6795 -3.7081  0.4449
36731SOL    HW212511   9.554   6.535   7.494  0.0483 -1.2623  0.4228
36732SOL     OW12512   0.567   3.277   1.829  0.6093  0.6280 -0.0680
36732SOL    HW112513   0.490   3.277   1.772 -0.6924 -2.8846  1.3748
36732SOL    HW212514   0.539   3.325   1.907 -0.6336 -1.3989  0.8399
36733SOL     OW12515   8.980   6.701   8.708 -0.5008 -0.7463 -0.0911
36733SOL    HW112516   9.027   6.649   8.644  2.1500 -0.8466  1.7696
36733SOL    HW212517   8.950   6.778   8.660  0.6101 -1.2278 -1.6184
36734SOL     OW12518   6.002   6.600   2.739 -0.2898  0.0898  0.3603
36734SOL    HW112519   6.009   6.693   2.718 -0.3620  0.1063  0.4068
36734SOL    HW212520   6.072   6.558   2.689 -1.0472  0.0068 -0.6645
36735SOL     OW12521   8.904   2.252   5.480 -0.2210 -0.3037  0.1632
36735SOL    HW112522   8.959   2.191   5.529 -0.6891 -1.1518 -0.3471
36735SOL    HW212523   8.816   2.235   5.513 -0.1863  1.2100  1.1447
36736SOL     OW12524   9.927   9.806  10.066  0.0307  0.7761 -0.1983
36736SOL    HW112525   9.925   9.793  10.161 -0.1250  2.3152  0.0358
36736SOL    HW212526   9.839   9.836  10.044  0.2229  0.9462 -0.7438
36737SOL     OW12527   2.410   7.982   1.268  0.5058  0.5719 -0.1337
36737SOL    HW112528   2.360   7.914   1.312 -1.3265  2.0906  0.2549
36737SOL    HW212529   2.463   8.023   1.336  2.1303 -0.8194 -0.4864
36738SOL     OW12530   9.130   7.046   0.216 -0.2789  0.2336 -0.2099
36738SOL    HW112531   9.189   7.010   0.150 -0.9538 -0.1276 -0.6232
36738SOL    HW212532   9.059   7.087   0.166 -0.6349  0.2328  0.2827
36739SOL     OW12533   9.601   2.636   7.310  0.6251 -0.2156  0.6206
36739SOL    HW112534   9.687   2.604   7.337  0.6961  0.7494  1.6438
36739SOL    HW212535   9.620   2.712   7.256  0.4318 -0.8928 -0.4160
36740SOL     OW12536   8.975   0.500   1.922  0.2708 -0.1252 -0.6533
36740SOL    HW112537   8.913   0.523   1.853  0.6168 -2.6292 -1.9360
36740SOL    HW212538   9.014   0.418   1.892  0.3214 -1.4447  2.6467
36741SOL     OW12539   4.851   7.028   9.919  0.5075 -0.2454  0.6384
36741SOL    HW112540   4.869   6.962   9.986  0.8619 -2.8794 -1.8651
36741SOL    HW212541   4.932   7.036   9.870 -0.4493 -0.3631 -1.0581
36742SOL     OW12542   9.672   8.293   7.732 -0.1437 -0.4964 -0.1837
36742SOL    HW112543   9.749   8.324   7.684 -0.9322  0.1095 -1.0941
36742SOL    HW212544   9.664   8.201   7.709  0.5065 -0.6489  0.1905
36743SOL     OW12545   1.158   5.537   1.282 -0.5304 -0.3329  0.3312
36743SOL    HW112546   1.237   5.517   1.233 -0.0592  1.4392  0.3075
36743SOL    HW212547   1.142   5.459   1.335  0.2277 -1.3959 -0.9512
36744SOL     OW12548   3.257   9.940   9.104  0.2350 -0.3272  0.2434
36744SOL    HW112549   3.239   9.950   9.011  0.0188  0.2577  0.3423
36744SOL    HW212550   3.185   9.986   9.148  0.4050 -0.4811  0.6956
36745SOL     OW12551   0.551   9.357   5.780  0.0010  0.0502  0.3024
36745SOL    HW112552   0.542   9.399   5.866 -0.8365 -0.8634  0.6759
36745SOL    HW212553   0.498   9.278   5.786 -0.9937  0.5299 -1.4235
36746SOL     OW12554   8.544   6.851   6.261  0.0548  0.2517  0.8549
36746SOL    HW112555   8.615   6.856   6.197 -2.0114 -0.6092 -1.6772
36746SOL    HW212556   8.588   6.850   6.346  3.2872 -3.3025 -0.5667
36747SOL     OW12557   8.903   9.784   7.859 -0.1089 -0.0774  0.0101
36747SOL    HW112558   8.930   9.791   7.951 -0.8368 -0.9121  0.3107
36747SOL    HW212559   8.913   9.690   7.839  1.6904  0.3384 -1.3045
36748SOL     OW12560   0.726   3.126   2.441  0.4352  0.0503 -0.3631
36748SOL    HW112561   0.706   3.063   2.372  0.2551  0.5512 -0.7743
36748SOL    HW212562   0.821   3.137   2.437  0.3237  0.8143 -1.1913
36749SOL     OW12563   1.253   9.746   6.093  0.1194 -0.3046 -0.2723
36749SOL    HW112564   1.234   9.827   6.139  0.9830 -0.1844 -0.1032
36749SOL    HW212565   1.294   9.774   6.011 -0.3267 -0.5517 -0.5843
36750SOL     OW12566   8.396   0.493  10.135  0.6893  0.5864  0.0866
36750SOL    HW112567   8.387   0.400  10.115  1.2268  0.6709 -0.5803
36750SOL    HW212568   8.489   0.512  10.122  0.5066  1.3160 -0.2345
36751SOL     OW12569   4.897   7.799   1.801 -0.4143 -0.3583 -0.1290
36751SOL    HW112570   4.906   7.880   1.852 -0.2219 -0.2512 -0.3293
36751SOL    HW212571   4.807   7.800   1.769  0.1998  0.9352 -2.0390
36752SOL     OW12572   8.870   2.945   9.486  0.0794  0.4239 -0.0949
36752SOL    HW112573   8.836   3.014   9.430  0.3973 -1.4521 -2.8190
36752SOL    HW212574   8.919   2.991   9.555 -0.9847  2.8748 -0.8711
36753SOL     OW12575   1.350   3.041   0.164 -0.2139  0.6605 -0.1476
36753SOL    HW112576   1.316   2.979   0.228  0.3154  3.1191  2.7790
36753SOL    HW212577   1.298   3.026   0.085 -1.1513 -2.3225  0.9098
36754SOL     OW12578   1.932   3.207   8.855 -0.0670 -0.2537 -0.2359
36754SOL    HW112579   1.974   3.146   8.795  1.3774 -0.6946  1.1606
36754SOL    HW212580   1.858   3.159   8.891  0.1676 -0.6470 -0.2776
36755SOL     OW12581   3.378   8.801   2.131 -0.1410  0.0078  0.1762
36755SOL    HW112582   3.385   8.891   2.164  0.0203 -0.0666  0.3486
36755SOL    HW212583   3.445   8.795   2.063  0.8474 -0.4021  1.1384
36756SOL     OW12584   8.568   7.844   7.475  0.4058  0.2006  0.3733
36756SOL    HW112585   8.645   7.864   7.529  1.4624  1.2514 -1.4400
36756SOL    HW212586   8.496   7.836   7.538  1.2845  2.7884  1.8367
36757SOL     OW12587   5.872   9.288   3.156 -0.3243 -0.6542  0.3044
36757SOL    HW112588   5.911   9.353   3.098  0.2361 -1.4859 -0.2676
36757SOL    HW212589   5.850   9.214   3.099 -0.3386 -1.2337  1.0453
36758SOL     OW12590   2.560   4.947   6.129 -0.1958  0.0409 -0.2731
36758SOL    HW112591   2.612   4.995   6.064 -1.7656  1.9777 -0.1594
36758SOL    HW212592   2.626   4.902   6.183  1.4368  2.7896  0.2041
36759SOL     OW12593   0.001   5.698   9.590  0.1074 -0.1632 -0.6051
36759SOL    HW112594  -0.039   5.780   9.561  1.1827  0.3072 -0.8056
36759SOL    HW212595   0.095   5.715   9.587  0.3676  0.1250  3.6332
36760SOL     OW12596   3.556   0.661   1.787  0.0972  0.0341 -0.2956
36760SOL    HW112597   3.469   0.623   1.797 -0.5789  1.4581 -0.5825
36760SOL    HW212598   3.582   0.636   1.698 -0.1260 -0.1752 -0.3045
36761SOL     OW12599   9.389  10.136   6.966  0.4734  0.0213 -0.5101
36761SOL    HW112600   9.423  10.114   7.052  1.2038 -0.1551 -0.8350
36761SOL    HW212601   9.387  10.053   6.918 -0.0029  0.1026 -0.6418
36762SOL     OW12602  10.311   4.963   5.727  0.5003  0.0577 -0.5828
36762SOL    HW112603  10.351   4.939   5.810 -0.6444 -2.3716 -0.6539
36762SOL    HW212604  10.380   4.951   5.662  0.6120 -0.7876 -0.3107
36763SOL     OW12605   1.103   0.974   7.336 -0.1698  0.2462 -0.0475
36763SOL    HW112606   1.107   0.910   7.265 -0.3519  1.7825 -1.5099
36763SOL    HW212607   1.063   1.051   7.296 -1.9517  0.5940  2.1870
36764SOL     OW12608   4.571   1.057   4.216 -0.3070  0.0133 -0.0403
36764SOL    HW112609   4.547   0.966   4.199 -1.3494  0.5585 -1.7545
36764SOL    HW212610   4.488   1.104   4.214  0.3710  1.2461 -1.0546
36765SOL     OW12611  10.097   0.662   6.237  0.1044  0.1328  0.0834
36765SOL    HW112612  10.095   0.674   6.142  1.1607  2.1139  0.2550
36765SOL    HW212613  10.140   0.577   6.249  1.8612  0.7491 -1.2212
36766SOL     OW12614   6.610   4.396   3.408  0.1705  0.0727  0.2567
36766SOL    HW112615   6.643   4.454   3.478  0.8375 -1.1672  1.0051
36766SOL    HW212616   6.527   4.436   3.382  0.0290  0.7165  1.5817
36767SOL     OW12617   7.248   0.610   8.496 -0.2731  0.3161 -0.2021
36767SOL    HW112618   7.210   0.650   8.418 -0.3603 -2.3445 -1.6458
36767SOL    HW212619   7.172   0.576   8.544 -0.0780 -0.0792 -0.1695
36768SOL     OW12620   6.898   0.061   1.942  0.1496  0.0752  0.5037
36768SOL    HW112621   6.977   0.115   1.949  0.3302 -0.1478  0.2087
36768SOL    HW212622   6.928  -0.027   1.963  0.3914 -0.3517 -1.4547
36769SOL     OW12623   0.746   9.917   4.775  0.1299  0.2997 -0.3391
36769SOL    HW112624   0.751   9.968   4.694 -0.1774  0.9468  0.0347
36769SOL    HW212625   0.822   9.946   4.826 -0.6913  1.2975  0.3729
36770SOL     OW12626   4.885   4.749   9.295  0.3150  0.0257 -0.2527
36770SOL    HW112627   4.974   4.784   9.289  0.5130 -0.5706 -0.9509
36770SOL    HW212628   4.878   4.717   9.384  0.7828  0.1280 -0.1741
36771SOL     OW12629   1.525   8.919   0.241  0.3803 -0.3623 -0.2369
36771SOL    HW112630   1.446   8.908   0.188 -0.3731  1.0052  0.5559
36771SOL    HW212631   1.495   8.915   0.332  1.6122 -2.3700  0.1396
36772SOL     OW12632   5.843   1.644   8.229  0.1139 -0.3829  0.1061
36772SOL    HW112633   5.840   1.663   8.323 -1.5277 -0.5917  0.1210
36772SOL    HW212634   5.751   1.631   8.204  0.6511 -2.0838 -1.1701
36773SOL     OW12635   6.367   0.569   9.646  0.0978  0.9754 -0.3692
36773SOL    HW112636   6.401   0.655   9.622  1.2520  0.5867 -0.1873
36773SOL    HW212637   6.284   0.587   9.690  1.2589  2.1476  1.4754
36774SOL     OW12638   4.647   0.137   7.437 -0.1606 -0.7284 -0.1860
36774SOL    HW112639   4.555   0.128   7.463 -0.6124  0.3057 -1.3184
36774SOL    HW212640   4.686   0.190   7.506 -0.0654 -2.2368  0.9737
36775SOL     OW12641   3.721   2.358   8.676 -0.6126  0.0891  0.1326
36775SOL    HW112642   3.676   2.319   8.751  0.1236  0.8756  0.9925
36775SOL    HW212643   3.792   2.409   8.714  0.8829 -0.9249 -1.1894
36776SOL     OW12644   7.016   0.814   0.223  0.0321 -0.0869 -0.3141
36776SOL    HW112645   7.056   0.727   0.226 -0.2976 -0.2547 -0.6730
36776SOL    HW212646   7.018   0.844   0.314 -0.1832 -0.6238 -0.1258
36777SOL     OW12647   8.006   2.783   4.310  0.4615  0.1225  0.1961
36777SOL    HW112648   8.096   2.790   4.343  0.3819  0.8709  0.2621
36777SOL    HW212649   8.013   2.807   4.217  0.4883 -0.7976 -0.0521
36778SOL     OW12650   3.858   1.995   3.549 -0.4664 -0.4641 -0.1444
36778SOL    HW112651   3.815   1.962   3.470  0.5894 -0.8905 -0.5617
36778SOL    HW212652   3.871   2.089   3.532  0.2156 -0.6495 -0.7140
36779SOL     OW12653   5.256   0.661   0.296 -0.5843 -0.3016 -0.0380
36779SOL    HW112654   5.291   0.600   0.230  0.5426  1.2613 -0.9424
36779SOL    HW212655   5.267   0.614   0.379  1.6868 -0.7998 -0.5306
36780SOL     OW12656   6.162   0.665   7.075  0.1383 -0.3466  0.0454
36780SOL    HW112657   6.202   0.696   7.156  1.7726 -0.5267 -0.6502
36780SOL    HW212658   6.235   0.661   7.012 -0.9569 -0.8465 -1.2463
36781SOL     OW12659   1.327   0.545   4.116  1.1028 -0.2771 -0.1193
36781SOL    HW112660   1.245   0.529   4.069  0.9692  0.5401 -0.1727
36781SOL    HW212661   1.335   0.470   4.175  0.9608 -1.0014 -1.0022
36782SOL     OW12662   5.519   2.476   6.227  0.1147  0.1268 -0.2531
36782SOL    HW112663   5.578   2.444   6.296  0.7315  0.2440 -0.7166
36782SOL    HW212664   5.543   2.425   6.150  0.0127  0.6013 -0.5995
36783SOL     OW12665   1.245   6.822   6.336  0.5039 -0.6074 -0.4244
36783SOL    HW112666   1.314   6.887   6.334  0.2619 -0.3535 -0.7500
36783SOL    HW212667   1.186   6.850   6.406 -0.0323 -0.0079 -1.0882
36784SOL     OW12668   0.536   9.284   8.174  0.2627 -0.3553 -0.4159
36784SOL    HW112669   0.488   9.366   8.172  0.5857 -0.1674 -0.5764
36784SOL    HW212670   0.580   9.279   8.089 -0.7308 -1.2937 -0.9134
36785SOL     OW12671   5.249   3.891   5.731  0.0242 -0.1261  0.4885
36785SOL    HW112672   5.237   3.972   5.780 -0.9741 -1.5495  2.7355
36785SOL    HW212673   5.160   3.865   5.705  0.3121 -0.6294 -0.0265
36786SOL     OW12674   3.677   2.182   3.281  0.3707  0.0826 -0.2436
36786SOL    HW112675   3.614   2.221   3.221 -1.1051  0.5581  1.5077
36786SOL    HW212676   3.640   2.199   3.368  2.4428 -0.4982  0.8106
36787SOL     OW12677   8.955   0.929   2.135 -0.1905  0.5270 -0.1333
36787SOL    HW112678   9.012   0.902   2.063  0.2338  0.2887  0.2852
36787SOL    HW212679   8.871   0.949   2.093  0.0615  0.4251 -0.6957
36788SOL     OW12680   8.569   0.500   4.249  0.4521  0.2921  0.3771
36788SOL    HW112681   8.631   0.489   4.178 -0.2256 -1.0710 -0.0594
36788SOL    HW212682   8.618   0.544   4.318  1.3615  0.8726 -0.6114
36789SOL     OW12683   7.703   5.685   2.294  0.3106 -0.2618 -0.1803
36789SOL    HW112684   7.783   5.719   2.254  0.0052  2.0520  1.0622
36789SOL    HW212685   7.680   5.748   2.362 -1.1457 -2.2305  1.2873
36790SOL     OW12686   7.906  10.442   9.296 -0.1426 -0.1878  0.5574
36790SOL    HW112687   7.877  10.449   9.386 -0.0147  0.6384  0.5471
36790SOL    HW212688   7.918  10.533   9.268  2.4462 -0.4520  0.5687
36791SOL     OW12689   7.166   3.229   1.193  0.0768  0.1085 -0.3907
36791SOL    HW112690   7.170   3.305   1.252  1.2123  0.3431 -0.7447
36791SOL    HW212691   7.256   3.217   1.163 -0.2658 -0.7781 -1.1152
36792SOL     OW12692   7.782   2.999   0.065  0.2575 -0.2418  0.1347
36792SOL    HW112693   7.757   3.000   0.157  0.6077 -0.4785  0.2357
36792SOL    HW212694   7.751   2.915   0.033  1.0336 -0.5962  0.2960
36793SOL     OW12695   6.295   9.156   0.404  0.0803 -0.1363 -0.3502
36793SOL    HW112696   6.279   9.184   0.314  1.5989 -0.5490 -0.7772
36793SOL    HW212697   6.334   9.232   0.447  0.0885 -0.1891 -0.2624
36794SOL     OW12698   3.359   6.800   5.913 -0.1339  0.5289 -0.8349
36794SOL    HW112699   3.296   6.865   5.940 -0.7891 -0.4751  0.1220
36794SOL    HW212700   3.337   6.781   5.822 -1.2867  0.1278 -0.4860
36795SOL     OW12701   6.811   9.324   2.885 -0.3708 -0.1814  0.2754
36795SOL    HW112702   6.772   9.260   2.945 -0.5645 -1.0084 -0.7078
36795SOL    HW212703   6.810   9.281   2.800 -1.2635  1.4346 -0.5962
36796SOL     OW12704   1.047   4.258  10.132  0.1370 -0.3501  0.3307
36796SOL    HW112705   1.082   4.347  10.120 -2.2804  0.4783 -1.1807
36796SOL    HW212706   1.098   4.204  10.072 -0.3294  0.5908 -0.9533
36797SOL     OW12707   2.170   8.341   4.096  0.3182  0.4335  0.1377
36797SOL    HW112708   2.155   8.246   4.099  1.2611  0.2952  1.9397
36797SOL    HW212709   2.085   8.378   4.071 -0.5953 -0.7976  1.2733
36798SOL     OW12710   9.543   9.301   2.287  0.4424  0.1244  0.2055
36798SOL    HW112711   9.489   9.238   2.239  0.0285  0.0502  0.7685
36798SOL    HW212712   9.615   9.321   2.227 -0.6005  0.8099 -0.8789
36799SOL     OW12713   4.005   9.845   5.091 -0.0573 -0.2803 -0.2181
36799SOL    HW112714   3.935   9.822   5.029 -0.2523  0.1798 -0.1733
36799SOL    HW212715   4.051   9.763   5.107 -0.3003 -0.4958 -0.6107
36800SOL     OW12716   9.705   9.132   7.806 -0.2774 -0.2135 -0.2613
36800SOL    HW112717   9.623   9.136   7.854 -0.1379 -1.2980  0.0863
36800SOL    HW212718   9.752   9.211   7.832 -0.4172 -0.5265  0.9928
36801SOL     OW12719   6.851   0.965   5.315  0.0008  0.2257 -0.3497
36801SOL    HW112720   6.777   0.908   5.335 -0.4102  0.6260 -0.6851
36801SOL    HW212721   6.921   0.935   5.373 -1.0923  1.2532  1.6401
36802SOL     OW12722  10.444   3.746   9.417  0.0422 -0.0494 -0.1389
36802SOL    HW112723  10.410   3.834   9.432 -0.4746 -0.1240 -0.8445
36802SOL    HW212724  10.400   3.716   9.338 -0.2129 -1.1615  0.4035
36803SOL     OW12725   3.594   3.504   7.201 -0.4068 -0.4537  0.3039
36803SOL    HW112726   3.550   3.558   7.134  0.7618 -1.4866 -1.3595
36803SOL    HW212727   3.664   3.460   7.154  0.9991 -0.6047  2.4205
36804SOL     OW12728  10.333   6.379   9.059  0.4630 -0.0037  0.5961
36804SOL    HW112729  10.282   6.373   9.140 -0.1055 -1.2752  0.1633
36804SOL    HW212730  10.416   6.417   9.086 -0.6598  2.1154  1.3276
36805SOL     OW12731   9.167   9.589   9.929  0.0849  0.0933  0.1848
36805SOL    HW112732   9.183   9.671   9.974  0.1432  0.2697 -0.1532
36805SOL    HW212733   9.159   9.524   9.999 -0.0873  0.4070  0.4584
36806SOL     OW12734  10.364   0.609   1.640  0.2333  0.1888 -0.0914
36806SOL    HW112735  10.446   0.646   1.672  0.9122 -1.4110  0.1086
36806SOL    HW212736  10.391   0.546   1.573 -0.6676 -1.6829  1.2206
36807SOL     OW12737   4.113   9.802   2.837  0.2677 -0.3683  0.6673
36807SOL    HW112738   4.123   9.721   2.787  1.4199  0.5602 -0.7001
36807SOL    HW212739   4.023   9.830   2.820  0.5657 -0.1965 -0.7407
36808SOL     OW12740   1.709   4.799   5.437 -0.5481  0.2966 -0.2716
36808SOL    HW112741   1.750   4.753   5.511 -0.7312  0.0593 -0.3131
36808SOL    HW212742   1.761   4.878   5.425 -1.3146  1.0287  0.9872
36809SOL     OW12743   5.233   3.696   5.515  0.1525  0.0194  0.5036
36809SOL    HW112744   5.144   3.678   5.547 -0.0521 -0.2269 -0.1849
36809SOL    HW212745   5.270   3.754   5.581 -0.9503  1.1372  0.1865
36810SOL     OW12746   7.651  10.204   0.780 -0.4034 -0.0643  0.4221
36810SOL    HW112747   7.591  10.278   0.782 -1.2776 -0.7523  2.6699
36810SOL    HW212748   7.684  10.197   0.870  0.4055 -1.7869  0.0327
36811SOL     OW12749   5.750   7.085   1.221 -0.0774  0.2800 -0.0843
36811SOL    HW112750   5.662   7.122   1.216 -0.1657  0.1338  0.3237
36811SOL    HW212751   5.769   7.055   1.132 -0.3811  0.4437 -0.2066
36812SOL     OW12752   9.687  10.479   5.467  0.2349  0.2604 -0.3536
36812SOL    HW112753   9.715  10.570   5.464  1.0640  0.0761  0.9183
36812SOL    HW212754   9.612  10.479   5.526 -0.9457  0.3704 -1.7967
36813SOL     OW12755   3.096   9.708   6.609  0.0161  0.4661 -0.6194
36813SOL    HW112756   3.005   9.735   6.595 -0.1174 -0.8785 -2.9102
36813SOL    HW212757   3.145   9.751   6.538  1.2536  1.4108  0.7572
36814SOL     OW12758   4.709   4.600   4.941  0.0266 -0.0451 -0.3225
36814SOL    HW112759   4.741   4.532   5.002  0.1275 -0.4591 -0.8305
36814SOL    HW212760   4.626   4.565   4.908  0.9194 -0.7564 -1.9221
36815SOL     OW12761   4.582   6.657   3.103 -0.0643 -0.1810 -0.6009
36815SOL    HW112762   4.658   6.600   3.111 -0.3566 -0.6530 -1.0791
36815SOL    HW212763   4.618   6.744   3.086  0.3732 -0.3069 -0.3354
36816SOL     OW12764   6.087   7.611   3.099  0.0461  0.2286 -0.2325
36816SOL    HW112765   6.102   7.681   3.163  0.4503  0.3171 -0.4151
36816SOL    HW212766   5.995   7.589   3.108 -0.0739  0.7529 -0.1344
36817SOL     OW12767   5.188   6.104   0.202  0.6531  0.1450 -0.4876
36817SOL    HW112768   5.201   6.012   0.180 -1.0943 -0.4750  0.8498
36817SOL    HW212769   5.133   6.138   0.131  0.8966  0.0321 -0.7318
36818SOL     OW12770   5.497   2.302   1.626 -0.3287  0.0242  0.6979
36818SOL    HW112771   5.542   2.238   1.681  1.0436 -0.4457 -0.9053
36818SOL    HW212772   5.509   2.270   1.537 -2.7263  0.6185  0.0884
36819SOL     OW12773   4.069   4.599   8.208  0.4142 -0.0571 -0.2330
36819SOL    HW112774   4.024   4.619   8.290 -0.3887 -0.8315 -0.4697
36819SOL    HW212775   4.135   4.668   8.199  1.3430 -0.6149  1.6710
36820SOL     OW12776   7.574   4.568   3.924  0.2253 -0.1993 -0.1251
36820SOL    HW112777   7.627   4.570   4.003 -0.4166  1.5923  0.3310
36820SOL    HW212778   7.604   4.644   3.873 -1.0906  0.1977 -0.3689
36821SOL     OW12779   0.976   3.563   5.668  0.6084  0.1080 -0.5420
36821SOL    HW112780   0.999   3.471   5.677  1.4682  0.2566 -1.0952
36821SOL    HW212781   0.927   3.567   5.586 -1.4535 -0.1973  0.5962
36822SOL     OW12782   4.371   3.222   8.013 -0.4884  0.2976  0.3358
36822SOL    HW112783   4.420   3.253   7.936  0.4214  1.2619  1.2698
36822SOL    HW212784   4.438   3.182   8.069 -0.8036  1.3689  1.5127
36823SOL     OW12785   0.261   0.941   2.583 -0.5257  0.1694  0.3251
36823SOL    HW112786   0.344   0.983   2.608 -0.4022  0.2402 -0.1875
36823SOL    HW212787   0.270   0.851   2.614 -0.3403  0.2300  0.4518
36824SOL     OW12788   9.591   3.665   3.972  0.1350 -0.0045 -0.1162
36824SOL    HW112789   9.583   3.609   4.049 -0.8048 -0.9572 -0.8874
36824SOL    HW212790   9.678   3.646   3.937  0.4240  0.1706  0.4989
36825SOL     OW12791   6.162  10.391   4.241  0.0900  0.5775 -0.2095
36825SOL    HW112792   6.131  10.358   4.157  1.6673  1.3802 -1.1492
36825SOL    HW212793   6.235  10.333   4.264 -0.0960  0.5904  0.4268
36826SOL     OW12794   6.173   9.681   3.634 -0.6176 -0.1136 -0.5335
36826SOL    HW112795   6.151   9.773   3.646 -1.4490  0.1899 -3.5696
36826SOL    HW212796   6.268   9.677   3.646 -0.8936  0.3478  3.1515
36827SOL     OW12797   2.053  10.372   4.662  0.5879  0.3536 -0.4770
36827SOL    HW112798   2.042  10.303   4.596  2.5030 -0.2199 -0.2704
36827SOL    HW212799   2.003  10.446   4.629 -1.3991 -1.0564 -0.8010
36828SOL     OW12800   3.851   0.564   5.677 -0.0359  0.4508  0.4377
36828SOL    HW112801   3.894   0.509   5.611 -2.2204  0.3113 -0.9590
36828SOL    HW212802   3.898   0.647   5.674  1.9457 -0.5861  1.0499
36829SOL     OW12803   3.191   8.742   9.233 -0.0621  0.0761 -0.1180
36829SOL    HW112804   3.181   8.656   9.192  0.6594  0.3871 -0.9840
36829SOL    HW212805   3.108   8.757   9.278  0.4017 -1.7865  1.4546
36830SOL     OW12806   7.484   8.849   8.609 -0.2374  0.1343 -0.7375
36830SOL    HW112807   7.419   8.814   8.548 -1.8192 -1.3441  1.6182
36830SOL    HW212808   7.483   8.788   8.683  0.3317  2.6997  1.5369
36831SOL     OW12809   0.141   5.262   8.502  0.0448 -0.3430  0.2019
36831SOL    HW112810   0.080   5.330   8.473  0.1602 -0.4985 -0.4228
36831SOL    HW212811   0.216   5.310   8.535  0.4442 -0.1483 -0.9274
36832SOL     OW12812   9.489   0.608   2.626  0.5843 -0.4307 -0.2914
36832SOL    HW112813   9.495   0.664   2.549  0.9943  1.8505  1.3060
36832SOL    HW212814   9.573   0.618   2.670  0.1335 -1.1894  0.7890
36833SOL     OW12815   8.222   0.299   8.912 -0.4419  0.5041  0.3200
36833SOL    HW112816   8.138   0.331   8.880 -0.8325  0.2383  1.0582
36833SOL    HW212817   8.227   0.330   9.002  1.2422  2.3717 -0.3443
36834SOL     OW12818   4.049   5.566   5.787  0.5364  0.5744  0.3022
36834SOL    HW112819   4.026   5.641   5.841 -0.4962  0.4262  0.0909
36834SOL    HW212820   3.968   5.515   5.782  1.7676 -1.7770  2.3630
36835SOL     OW12821   7.800   7.503   7.638 -0.3858  0.5516  0.3503
36835SOL    HW112822   7.821   7.560   7.713  1.0291  0.2396  0.2208
36835SOL    HW212823   7.851   7.424   7.654  0.4206  0.7234 -1.2516
36836SOL     OW12824   4.748   3.456   7.126  0.6447  0.4472  0.0326
36836SOL    HW112825   4.812   3.440   7.195 -0.6199  0.2542  1.2027
36836SOL    HW212826   4.681   3.512   7.167 -0.9489 -0.9702 -0.5118
36837SOL     OW12827   2.672   8.177   4.164  0.8769  0.1825 -0.2261
36837SOL    HW112828   2.658   8.227   4.244  2.5065  0.7728 -0.2717
36837SOL    HW212829   2.584   8.156   4.133  0.1436 -2.2532  2.9924
36838SOL     OW12830   4.327   9.226   9.644 -0.4949  0.4925 -0.1263
36838SOL    HW112831   4.252   9.191   9.691  0.3991 -0.4135  0.6559
36838SOL    HW212832   4.294   9.240   9.555 -1.6863  0.4823  0.2902
36839SOL     OW12833   6.321   9.285   8.861  0.2196  0.5750 -1.1400
36839SOL    HW112834   6.240   9.319   8.823 -1.2296 -0.1741  1.0706
36839SOL    HW212835   6.307   9.191   8.868 -0.4367  0.7746  2.6792
36840SOL     OW12836   0.146   9.451   8.983  0.1895 -0.7965  0.2138
36840SOL    HW112837   0.169   9.464   8.891 -0.1830 -2.9414 -0.2391
36840SOL    HW212838   0.188   9.524   9.029 -0.4255  0.8964 -1.7307
36841SOL     OW12839   8.509   4.370   5.634 -0.1382  0.2799 -0.0488
36841SOL    HW112840   8.560   4.333   5.706  1.4858  1.1932 -0.7018
36841SOL    HW212841   8.449   4.431   5.677  0.5086  0.4949  0.5661
36842SOL     OW12842   6.819   1.989   0.085  0.3141 -0.4711 -0.2264
36842SOL    HW112843   6.907   1.982   0.122  0.4046  0.1291 -0.3162
36842SOL    HW212844   6.766   2.025   0.156  0.3679  0.1555 -0.4980
36843SOL     OW12845   7.548   9.207   3.419  0.0881  0.7581 -0.2000
36843SOL    HW112846   7.454   9.192   3.423  0.1527  0.4387  0.1610
36843SOL    HW212847   7.563   9.242   3.331 -0.8831  4.4908  0.9192
36844SOL     OW12848   3.061   6.845   8.854  0.1525 -0.3418 -0.0677
36844SOL    HW112849   2.977   6.852   8.901  0.4692 -1.5312  0.7118
36844SOL    HW212850   3.127   6.855   8.921  0.7034  1.7139 -0.8407
36845SOL     OW12851   4.559   9.683   4.099  0.5434 -0.2209  0.0975
36845SOL    HW112852   4.534   9.650   4.013 -1.1820 -0.5183  0.6593
36845SOL    HW212853   4.537   9.776   4.097  0.5292 -0.2219  0.2121
36846SOL     OW12854   7.927   0.159   9.539  0.5083 -0.4061  0.1027
36846SOL    HW112855   7.894   0.078   9.579 -3.4122  0.8613 -0.1236
36846SOL    HW212856   7.855   0.189   9.484  2.4434  2.4335 -1.1087
36847SOL     OW12857   0.426   2.055   4.483  0.6314  0.5744 -0.3367
36847SOL    HW112858   0.412   2.080   4.392  1.5779  1.0808 -0.3585
36847SOL    HW212859   0.421   1.959   4.482 -0.6464  0.6297 -0.6758
36848SOL     OW12860   5.591  10.097   6.850 -0.4201  0.1338 -0.4224
36848SOL    HW112861   5.652  10.095   6.924 -1.5982  0.9909  0.6255
36848SOL    HW212862   5.644  10.122   6.775  0.3449  1.9306  0.6727
36849SOL     OW12863  10.494   0.625   8.798 -0.6295  0.2736 -0.2495
36849SOL    HW112864  10.513   0.702   8.744 -2.2694  0.7622 -0.1830
36849SOL    HW212865  10.416   0.586   8.759 -0.5682 -0.6236  0.4788
36850SOL     OW12866   3.321   2.351   2.371 -0.2551  0.4855 -0.1186
36850SOL    HW112867   3.393   2.414   2.366 -0.1573  0.3603 -0.2928
36850SOL    HW212868   3.341   2.286   2.304 -0.7373  0.6648 -0.4390
36851SOL     OW12869   0.290   9.822   0.443  0.1477  0.1592 -0.6603
36851SOL    HW112870   0.294   9.914   0.418 -0.2048  0.9151  1.7726
36851SOL    HW212871   0.306   9.774   0.362 -0.0134  2.3425 -2.0618
36852SOL     OW12872   2.164   3.284   5.060 -0.0179  0.5777  0.1896
36852SOL    HW112873   2.139   3.227   4.987  0.4155  0.5015  0.1005
36852SOL    HW212874   2.158   3.372   5.025 -0.7829  0.5999  0.3542
36853SOL     OW12875   4.458   1.501   2.425 -0.0047  0.0681  0.1607
36853SOL    HW112876   4.455   1.571   2.360  0.9193 -0.0870 -0.0668
36853SOL    HW212877   4.543   1.512   2.469 -0.6873  0.2829  1.4855
36854SOL     OW12878   3.024   6.093   1.920 -0.6740  0.4272  0.2960
36854SOL    HW112879   3.086   6.043   1.868 -0.7616  0.5670  0.0564
36854SOL    HW212880   2.989   6.159   1.860 -0.8198  0.5512  0.5133
36855SOL     OW12881   2.875   9.812  10.054 -0.3206  0.0393  0.1953
36855SOL    HW112882   2.917   9.894  10.029  0.4638 -0.6235 -0.7149
36855SOL    HW212883   2.818   9.791   9.980 -0.6235 -0.1740  0.4855
36856SOL     OW12884   9.256   5.113   0.445 -0.0679  0.6547  0.5640
36856SOL    HW112885   9.295   5.186   0.493  1.6867 -0.3185  0.6858
36856SOL    HW212886   9.311   5.038   0.466  0.7593  0.1471 -2.8612
36857SOL     OW12887   5.536   9.079   5.964  0.3755  0.3596  0.0609
36857SOL    HW112888   5.496   9.024   5.897  1.7601 -2.1411  1.1421
36857SOL    HW212889   5.463   9.128   6.002 -0.5807  1.0119 -2.4695
36858SOL     OW12890   7.438   2.216   4.840 -0.1941 -0.4152 -0.1511
36858SOL    HW112891   7.527   2.197   4.809  0.4873  1.9283  0.1791
36858SOL    HW212892   7.381   2.184   4.770  1.0139 -0.3772 -1.1951
36859SOL     OW12893   3.618   9.859   1.543  0.0508 -0.0983 -0.2570
36859SOL    HW112894   3.527   9.872   1.568  0.2029 -0.7745  0.6750
36859SOL    HW212895   3.617   9.782   1.486 -0.0389  0.3097 -0.8228
36860SOL     OW12896   9.557   0.179   3.494 -1.0987  0.3446 -0.0928
36860SOL    HW112897   9.529   0.214   3.579  0.8550  0.0620  0.7150
36860SOL    HW212898   9.583   0.088   3.512 -1.4440  0.0175 -1.1655
36861SOL     OW12899   5.464  10.035   2.994  0.4843 -0.2635  0.3283
36861SOL    HW112900   5.386   9.993   2.958  0.5320  1.1130 -1.5264
36861SOL    HW212901   5.527  10.032   2.922  1.0014  1.5552  0.6599
36862SOL     OW12902   6.302   8.251   2.063 -0.6215 -0.0471 -0.3567
36862SOL    HW112903   6.354   8.196   2.122  1.0985  1.0603 -0.7841
36862SOL    HW212904   6.321   8.341   2.091 -3.4369  0.4341  0.3871
36863SOL     OW12905   7.484   0.122   6.441  0.6818 -0.9324 -0.2595
36863SOL    HW112906   7.534   0.181   6.498 -1.5284  0.1461  0.7220
36863SOL    HW212907   7.462   0.048   6.498 -0.2158 -0.5975 -0.1582
36864SOL     OW12908   9.395   6.232   6.054 -0.0184  0.2714  0.2328
36864SOL    HW112909   9.390   6.144   6.093 -3.4488  0.7752  1.3296
36864SOL    HW212910   9.318   6.277   6.090  1.8402  3.9068  0.0617
36865SOL     OW12911   6.300   3.396   3.175  0.1532 -0.0342 -0.7267
36865SOL    HW112912   6.336   3.311   3.197 -0.9014 -0.8820 -2.0814
36865SOL    HW212913   6.376   3.453   3.166  0.9280 -0.9963 -0.4894
36866SOL     OW12914   7.377   2.385   0.092 -0.3826 -0.5059 -0.2108
36866SOL    HW112915   7.338   2.440   0.160  1.7927  0.0577  0.6859
36866SOL    HW212916   7.373   2.296   0.127  0.7320 -0.2184  0.7201
36867SOL     OW12917   4.935   9.507   6.966  0.0771 -0.2041 -0.7475
36867SOL    HW112918   5.018   9.481   7.006 -0.5981 -1.1322  0.1354
36867SOL    HW212919   4.910   9.433   6.911 -1.4141 -1.1567  1.0623
36868SOL     OW12920   8.636   7.532   5.442 -0.5897 -0.0563  0.6973
36868SOL    HW112921   8.638   7.598   5.511 -2.5004  0.7008  0.1244
36868SOL    HW212922   8.645   7.583   5.361  0.2095 -0.7712  0.3218
36869SOL     OW12923   5.268   8.275   6.766  0.0350  0.4477 -0.2370
36869SOL    HW112924   5.324   8.211   6.810 -0.6950  0.4626  0.7437
36869SOL    HW212925   5.298   8.360   6.799 -0.8031  0.4344  0.6069
36870SOL     OW12926   3.172   0.826  10.380 -0.0763 -0.9240  0.0348
36870SOL    HW112927   3.168   0.804  10.473  1.1718  1.8406  0.8703
36870SOL    HW212928   3.081   0.847  10.357 -0.3724 -1.4611  0.6892
36871SOL     OW12929   5.642   3.827  10.394  0.0773 -0.5422 -0.1927
36871SOL    HW112930   5.641   3.806  10.301  0.7630  1.0013 -0.5768
36871SOL    HW212931   5.729   3.861  10.410 -0.2094 -0.2894  0.9091
36872SOL     OW12932   5.188  10.392  10.326 -0.2248  0.5904 -0.4417
36872SOL    HW112933   5.162  10.370  10.415  0.0433 -0.1355 -0.5293
36872SOL    HW212934   5.185  10.487  10.322  0.7583  0.6879  0.6582
36873SOL     OW12935   1.059   2.336   0.366  0.0647  0.1677  0.5952
36873SOL    HW112936   0.967   2.332   0.391 -0.5036 -0.6227 -1.3864
36873SOL    HW212937   1.105   2.288   0.435 -1.2849 -1.2329  0.5793
36874SOL     OW12938   8.113   7.026   8.842  0.1032 -0.2658 -0.7851
36874SOL    HW112939   8.141   7.073   8.921 -0.8408 -0.1663 -0.4931
36874SOL    HW212940   8.194   7.012   8.792  0.5624  0.6601 -0.3336
36875SOL     OW12941   5.806   3.022   7.429 -0.1041  0.1983 -0.3825
36875SOL    HW112942   5.890   2.981   7.452  0.6297  0.8514 -1.7372
36875SOL    HW212943   5.767   2.964   7.364 -0.8733 -0.2749  0.4927
36876SOL     OW12944   3.572   1.761   2.592  0.0409  0.4939 -0.2587
36876SOL    HW112945   3.482   1.741   2.615  0.1187  0.5963  0.1314
36876SOL    HW212946   3.602   1.684   2.543 -0.5747  0.8878 -1.2793
36877SOL     OW12947   6.112   2.279   6.883  0.2507 -0.1062 -0.5246
36877SOL    HW112948   6.073   2.366   6.890 -0.8316 -0.5950 -0.1785
36877SOL    HW212949   6.047   2.227   6.835  0.6759 -0.8363 -0.3313
36878SOL     OW12950   4.363   5.998   2.832 -0.1853 -0.0591 -0.2092
36878SOL    HW112951   4.441   5.965   2.787  1.1841  2.7017 -0.0530
36878SOL    HW212952   4.301   5.925   2.828  1.8053 -1.8064 -1.7610
36879SOL     OW12953   4.655  10.122  10.203 -0.0310  0.2140  0.0373
36879SOL    HW112954   4.723  10.191  10.203  1.0708 -0.8221 -1.0492
36879SOL    HW212955   4.633  10.110  10.110  0.5696 -1.6074  0.0917
36880SOL     OW12956   8.500   3.310   7.072  0.2186  0.2146 -0.2345
36880SOL    HW112957   8.523   3.218   7.057 -0.2041  0.1194 -0.3277
36880SOL    HW212958   8.580   3.358   7.053  0.7891 -0.2305  0.9906
36881SOL     OW12959   6.280   3.234   0.792 -0.2049 -0.1462  0.0058
36881SOL    HW112960   6.330   3.310   0.763 -0.5735 -0.4002 -1.3879
36881SOL    HW212961   6.329   3.199   0.866  1.5594 -0.2369 -1.1535
36882SOL     OW12962   3.005   8.848   3.811 -0.3293  0.4022 -0.2488
36882SOL    HW112963   3.011   8.872   3.719 -0.6789  1.5960  0.0272
36882SOL    HW212964   3.083   8.886   3.851 -0.0913 -0.2557 -0.0713
36883SOL     OW12965   3.496  10.213   7.546  0.3124  0.2157  0.3980
36883SOL    HW112966   3.444  10.293   7.544  0.7957  0.5286  0.3118
36883SOL    HW212967   3.432  10.142   7.539 -0.2550  0.5464  1.8046
36884SOL     OW12968   0.491   2.942   4.360  0.4572  0.3543  0.0271
36884SOL    HW112969   0.579   2.970   4.334  0.7940 -0.2651  0.4663
36884SOL    HW212970   0.445   2.928   4.278  0.8503  0.4550 -0.2128
36885SOL     OW12971   4.578   5.606   5.393  0.4318 -0.1233  0.7478
36885SOL    HW112972   4.539   5.575   5.312  0.4662 -0.0423  0.6994
36885SOL    HW212973   4.536   5.555   5.462 -0.4060  0.5821  0.7700
36886SOL     OW12974   8.494   0.301   8.762 -0.1203 -0.1481 -0.4072
36886SOL    HW112975   8.411   0.285   8.808 -0.5457 -0.1298 -1.1612
36886SOL    HW212976   8.561   0.284   8.828 -0.6988 -0.9326 -0.0024
36887SOL     OW12977   0.767   9.160   3.630 -0.1160 -0.1245  0.1769
36887SOL    HW112978   0.801   9.108   3.703  1.6946  0.4975 -0.1790
36887SOL    HW212979   0.716   9.098   3.577  2.4388 -1.7371 -0.5468
36888SOL     OW12980   9.260   5.276   7.375  0.1574 -0.1658 -0.1552
36888SOL    HW112981   9.204   5.263   7.451  0.9363  2.2630  0.9441
36888SOL    HW212982   9.346   5.300   7.412  0.5755  0.9923 -1.7581
36889SOL     OW12983   4.846   1.058   5.229 -0.3540 -0.3125  1.0396
36889SOL    HW112984   4.925   1.051   5.282 -0.1242 -0.2873  0.6992
36889SOL    HW212985   4.830   0.968   5.198  0.8048  0.0437 -0.7206
36890SOL     OW12986   0.675   9.112   2.830  0.6719  0.0333 -0.3530
36890SOL    HW112987   0.719   9.027   2.828  0.5192 -0.0538 -0.0463
36890SOL    HW212988   0.687   9.143   2.919 -2.1715 -1.1917  0.5682
36891SOL     OW12989   2.132   8.865   5.742  0.1863  0.1924  0.4689
36891SOL    HW112990   2.087   8.899   5.820  0.5254  2.3536 -0.2084
36891SOL    HW212991   2.100   8.920   5.670  1.4699 -0.3603 -0.5659
36892SOL     OW12992   4.094   7.320   8.077 -0.2348 -0.1016 -0.6669
36892SOL    HW112993   4.154   7.260   8.121  0.9653  0.4973 -1.4527
36892SOL    HW212994   4.125   7.324   7.987 -0.0748  1.9492 -0.5600
36893SOL     OW12995  10.537  10.316   6.876 -0.0453 -0.6651 -0.5630
36893SOL    HW112996  10.598  10.330   6.948  1.6583 -2.4616 -1.5638
36893SOL    HW212997  10.559  10.383   6.811 -0.9298  0.3286  0.1235
36894SOL     OW12998   3.743   1.548   9.235 -0.0135 -0.6215 -0.2491
36894SOL    HW112999   3.679   1.541   9.306  0.9486  0.1143  0.7154
36894SOL    HW213000   3.743   1.641   9.212 -1.4468 -1.0408 -2.3420
36895SOL     OW13001   7.363   3.466   7.680  0.3242 -0.3715 -0.1177
36895SOL    HW113002   7.339   3.505   7.764 -0.1200 -0.3713 -0.2435
36895SOL    HW213003   7.457   3.483   7.672 -0.1199  2.0704 -0.8815
36896SOL     OW13004   8.263   2.758   4.404  0.5451  0.9560 -0.0959
36896SOL    HW113005   8.312   2.697   4.460 -0.1946  1.4810  1.1787
36896SOL    HW213006   8.307   2.842   4.418 -0.4805  1.3674  0.8072
36897SOL     OW13007   2.984   2.841   5.004  0.1362 -0.5449  0.1395
36897SOL    HW113008   2.964   2.788   4.927  2.6222 -2.4451  0.6646
36897SOL    HW213009   3.034   2.783   5.060  0.1145  1.4075  2.3193
36898SOL     OW13010   4.481   1.351   0.069 -0.3992 -0.4355  0.3478
36898SOL    HW113011   4.524   1.267   0.083  0.0456 -0.3267 -0.3273
36898SOL    HW213012   4.419   1.358   0.141 -2.1831 -2.4177 -0.8876
36899SOL     OW13013   6.979   1.754   0.593  0.5041  0.0042  0.2647
36899SOL    HW113014   6.969   1.673   0.544  0.6918  0.3724 -0.3956
36899SOL    HW213015   7.071   1.755   0.620  0.1766 -0.6559  1.4595
36900SOL     OW13016   1.377   6.087   0.578 -0.8713 -0.3462 -0.2050
36900SOL    HW113017   1.347   6.174   0.602  2.0072  0.6644  0.1606
36900SOL    HW213018   1.339   6.029   0.645 -2.8454  0.5505 -0.4786
36901SOL     OW13019   3.349   7.870   5.769  0.2612  0.4360 -0.0935
36901SOL    HW113020   3.281   7.899   5.709  1.5066  1.5653 -1.0300
36901SOL    HW213021   3.429   7.871   5.716  1.1475 -0.0527  1.1847
36902SOL     OW13022   6.028   9.517   2.492  0.3181  0.4143 -0.5428
36902SOL    HW113023   5.962   9.568   2.539  0.7787 -0.0160  0.6258
36902SOL    HW213024   5.978   9.449   2.447 -0.1737  1.0871 -1.0211
36903SOL     OW13025   1.889   1.087   8.770  0.0957  0.2682  0.0312
36903SOL    HW113026   1.948   1.162   8.781 -0.5203  0.9844 -1.2595
36903SOL    HW213027   1.806   1.116   8.807  0.3224 -0.4835  1.2032
36904SOL     OW13028   8.666   8.027   4.007 -0.3909  0.2355  0.1361
36904SOL    HW113029   8.701   8.109   3.972 -0.3744 -0.2481 -1.0517
36904SOL    HW213030   8.593   8.055   4.062 -0.0372  1.0795  0.2013
36905SOL     OW13031   2.938   5.871   1.237 -0.2242 -0.1517 -0.2321
36905SOL    HW113032   2.902   5.926   1.307 -0.6983 -1.2838  0.4298
36905SOL    HW213033   3.007   5.821   1.280  2.5825  2.2534 -1.5385
36906SOL     OW13034   9.375   8.664   8.049  0.1746 -0.4837  0.8125
36906SOL    HW113035   9.391   8.647   8.142  1.6699  0.5975  0.7917
36906SOL    HW213036   9.460   8.646   8.007  0.2825  1.5482  0.0442
36907SOL     OW13037   3.480   8.318   4.867  1.0206  0.0863  0.6275
36907SOL    HW113038   3.412   8.298   4.932  0.0621  1.3977  0.0716
36907SOL    HW213039   3.560   8.330   4.919  0.5661 -0.2216  1.4262
36908SOL     OW13040   2.938   5.489   2.834  0.7378  0.8673  0.3480
36908SOL    HW113041   2.932   5.467   2.741  1.0815 -1.3296  0.7925
36908SOL    HW213042   2.889   5.419   2.878  1.3567  1.3663  1.8846
36909SOL     OW13043   3.254   4.648  10.414 -0.1062  0.2057  0.3646
36909SOL    HW113044   3.168   4.690  10.412  0.2604  0.9740  0.5951
36909SOL    HW213045   3.316   4.720  10.415  0.5323 -0.3355  1.0199
36910SOL     OW13046   7.127   1.595   4.579  0.0800  0.0721  1.0709
36910SOL    HW113047   7.153   1.530   4.645  1.3507 -0.8855 -0.3009
36910SOL    HW213048   7.190   1.582   4.508 -1.2650  1.0569 -0.3433
36911SOL     OW13049   8.332   0.572   4.126 -0.0989 -0.1759 -0.5943
36911SOL    HW113050   8.260   0.509   4.125 -0.9214  0.7408 -0.5166
36911SOL    HW213051   8.405   0.525   4.166 -0.6368 -1.1331 -0.7126
36912SOL     OW13052   3.866   4.817   7.565 -0.4165 -0.1313 -0.0201
36912SOL    HW113053   3.930   4.811   7.637 -0.3222 -0.7606 -0.1554
36912SOL    HW213054   3.794   4.867   7.603 -0.6194 -0.9419  0.7062
36913SOL     OW13055   7.577   2.023   8.917 -0.2920 -0.1136 -0.3542
36913SOL    HW113056   7.515   1.958   8.884 -2.3555  1.5064  0.1295
36913SOL    HW213057   7.617   2.060   8.839  0.3796 -1.3931 -0.6594
36914SOL     OW13058   9.230   7.518   1.895 -0.2313  0.0874 -0.0807
36914SOL    HW113059   9.195   7.432   1.874  1.0691 -0.8594  1.3978
36914SOL    HW213060   9.322   7.513   1.869  0.2486  0.4622  1.4551
36915SOL     OW13061   4.971   9.440   8.021  0.4675 -0.4919  0.0985
36915SOL    HW113062   5.004   9.391   8.096  1.1666 -0.5608 -0.2482
36915SOL    HW213063   4.898   9.388   7.988  0.6249 -0.8348  0.2880
36916SOL     OW13064   8.585   4.776   7.536 -0.2570  0.5622 -0.4312
36916SOL    HW113065   8.589   4.872   7.528  1.6143  0.6160  0.7372
36916SOL    HW213066   8.578   4.745   7.446 -2.0114  1.7952 -0.7845
36917SOL     OW13067   2.358   6.393   4.752 -0.1004 -0.0544  0.4321
36917SOL    HW113068   2.441   6.346   4.762  1.1326  1.8910 -0.0817
36917SOL    HW213069   2.291   6.328   4.773  1.4790 -2.0446 -0.3264
36918SOL     OW13070   6.084   5.501   0.567 -0.1583  0.0355  0.5722
36918SOL    HW113071   6.136   5.425   0.592  1.6493  1.0663  0.1426
36918SOL    HW213072   6.050   5.535   0.650 -1.4479 -1.5114  0.7136
36919SOL     OW13073   1.842  10.291   3.604  0.3129  0.0467 -0.0941
36919SOL    HW113074   1.757  10.312   3.568 -0.8168 -2.6838  0.7118
36919SOL    HW213075   1.866  10.368   3.656 -0.9570  1.4317 -1.4612
36920SOL     OW13076   6.808   9.569   8.864  0.0977  0.3356  0.2471
36920SOL    HW113077   6.815   9.638   8.798 -2.4316  2.3068  1.8299
36920SOL    HW213078   6.811   9.487   8.814 -0.0914  1.6778 -2.1069
36921SOL     OW13079   0.517   5.001   7.506 -0.1707 -0.5731  0.4685
36921SOL    HW113080   0.602   4.965   7.481 -0.1849 -0.4985  0.3072
36921SOL    HW213081   0.535   5.093   7.528  0.2667 -1.1998  3.0753
36922SOL     OW13082   0.880   8.684   1.050  1.0955 -0.2495  0.4751
36922SOL    HW113083   0.858   8.640   1.132 -1.7997  1.0667  0.4949
36922SOL    HW213084   0.835   8.633   0.982 -0.1172  1.0987  0.2197
36923SOL     OW13085   3.712   6.088   1.730 -0.4640 -0.2905 -0.0264
36923SOL    HW113086   3.764   6.111   1.807 -0.3463  2.8179 -0.8994
36923SOL    HW213087   3.637   6.039   1.765  1.3038 -2.0255  1.5924
36924SOL     OW13088   6.899   1.372   9.216 -0.1616  0.2463 -0.7834
36924SOL    HW113089   6.994   1.357   9.211 -0.3711 -1.3840 -0.3906
36924SOL    HW213090   6.882   1.437   9.148  1.2649  0.7136 -0.7325
36925SOL     OW13091   0.860  10.491   5.029 -1.1172 -0.7538 -0.5359
36925SOL    HW113092   0.951  10.505   5.004 -1.5660 -0.4730 -2.1380
36925SOL    HW213093   0.854  10.398   5.051  0.0488 -0.3103  1.9210
36926SOL     OW13094   3.293   0.534   9.462 -0.1349  0.5663 -0.6490
36926SOL    HW113095   3.387   0.515   9.459  0.0826  1.2073  1.1631
36926SOL    HW213096   3.259   0.496   9.381  1.6736  0.3162 -1.3484
36927SOL     OW13097   7.229   8.581   8.182 -0.4700  0.0073 -0.0306
36927SOL    HW113098   7.164   8.541   8.124  0.6774 -1.2579 -0.4970
36927SOL    HW213099   7.302   8.603   8.125  0.1052  0.0617  0.7064
36928SOL     OW13100   4.632   8.504   4.449  0.1742 -0.3180  0.0458
36928SOL    HW113101   4.726   8.494   4.466  0.1990 -0.0135  0.0922
36928SOL    HW213102   4.624   8.492   4.354  0.4090  0.7261 -0.1189
36929SOL     OW13103   2.771  10.178   5.890  0.3417  0.4043 -0.1076
36929SOL    HW113104   2.683  10.193   5.925  0.2237 -2.0001  0.8083
36929SOL    HW213105   2.763  10.196   5.796 -0.9390  0.8748  0.0700
36930SOL     OW13106   5.741   0.506   6.296  0.3140  0.1229 -0.1370
36930SOL    HW113107   5.773   0.557   6.222 -0.0292 -1.4280 -1.4074
36930SOL    HW213108   5.654   0.476   6.269 -1.0611  1.8267  2.0690
36931SOL     OW13109   0.106   7.377   5.108  0.1761  0.2133  0.7822
36931SOL    HW113110   0.027   7.427   5.092  0.1098  0.5656  2.0650
36931SOL    HW213111   0.165   7.438   5.154 -0.5976 -1.2818  4.0859
36932SOL     OW13112   8.572   9.302   5.173 -0.4952  0.2371  0.2517
36932SOL    HW113113   8.537   9.302   5.262  0.3408 -0.8804  0.5915
36932SOL    HW213114   8.497   9.279   5.118 -0.1314 -3.5472  1.0844
36933SOL     OW13115   6.462   6.843  10.555  0.3417  0.1327  0.1775
36933SOL    HW113116   6.401   6.790  10.502  0.3808 -0.8787  1.1098
36933SOL    HW213117   6.518   6.779  10.598  0.6657  0.9654  1.0215
36934SOL     OW13118   1.031   8.031   7.032 -0.0063  0.1754  0.6218
36934SOL    HW113119   1.053   7.972   6.960 -0.6826  0.1911  0.3917
36934SOL    HW213120   1.019   7.973   7.107 -0.9795 -0.0301  0.3253
36935SOL     OW13121   3.064   4.317   2.992  0.1715  1.0450  0.5258
36935SOL    HW113122   3.126   4.386   3.016  1.3413 -0.7181  2.9415
36935SOL    HW213123   2.978   4.359   2.996  0.9721  2.9002 -0.4111
36936SOL     OW13124   2.022   8.886   3.417  0.2494 -0.0940 -0.7193
36936SOL    HW113125   2.041   8.970   3.377 -1.3715  1.8796  2.2951
36936SOL    HW213126   1.930   8.868   3.395  0.0145 -0.0884  0.2013
36937SOL     OW13127   8.705   0.272   0.411  0.1805  0.3648  0.2315
36937SOL    HW113128   8.709   0.349   0.468  0.5795  1.9581 -1.8348
36937SOL    HW213129   8.786   0.224   0.429  1.1533  1.7874 -0.2530
36938SOL     OW13130   6.582   5.731   9.191 -0.0863  0.0559 -0.3807
36938SOL    HW113131   6.616   5.781   9.265  1.3483 -0.6138 -0.5432
36938SOL    HW213132   6.552   5.648   9.230  0.4039 -0.1826 -0.5058
36939SOL     OW13133   4.433   2.498   5.822 -0.5473  0.1170  0.0890
36939SOL    HW113134   4.420   2.584   5.860 -2.1285 -1.3110  3.1428
36939SOL    HW213135   4.525   2.477   5.838 -0.1987  1.1517 -0.5345
36940SOL     OW13136   6.877   9.451   3.959  0.2892  0.4259  0.6208
36940SOL    HW113137   6.847   9.426   3.872  0.8353  1.6564  0.0506
36940SOL    HW213138   6.946   9.388   3.980  0.3530  0.2933  0.0283
36941SOL     OW13139   4.528   3.488  10.214 -0.5881 -0.3955 -0.3729
36941SOL    HW113140   4.521   3.583  10.204 -2.3236 -0.5650 -1.0608
36941SOL    HW213141   4.455   3.453  10.164  0.5592 -2.1622 -0.9053
36942SOL     OW13142   8.009   6.757   6.579 -0.2929 -0.1493  0.2689
36942SOL    HW113143   8.032   6.850   6.582 -2.1064  0.3276  0.5913
36942SOL    HW213144   8.052   6.724   6.500  1.8404  0.4965  1.0638
36943SOL     OW13145   3.378   6.934   4.967  0.1100  0.0908 -0.2737
36943SOL    HW113146   3.310   6.944   4.900 -0.2653 -0.2393  0.0501
36943SOL    HW213147   3.333   6.891   5.040  1.0040 -1.4953 -0.6021
36944SOL     OW13148   8.929   4.787   5.725  0.2711  0.9283 -0.0099
36944SOL    HW113149   8.898   4.696   5.726  1.4110  0.3861 -3.2794
36944SOL    HW213150   8.992   4.791   5.797 -0.5389 -0.5499  0.8402
36945SOL     OW13151   6.490   0.251   7.393 -0.5747  0.0547  0.0231
36945SOL    HW113152   6.526   0.163   7.389  0.4217  0.3769  1.1376
36945SOL    HW213153   6.396   0.240   7.380 -1.0234 -1.6578  3.4676
36946SOL     OW13154   8.362   5.889   2.069  0.1255  0.1790  0.6216
36946SOL    HW113155   8.300   5.923   2.133  0.3166  0.2995  0.7443
36946SOL    HW213156   8.343   5.939   1.989 -0.5986 -0.4804  0.3728
36947SOL     OW13157   3.289   5.460   6.008 -0.4250 -0.1080 -0.0848
36947SOL    HW113158   3.226   5.502   5.949 -0.2525  0.8339  0.3953
36947SOL    HW213159   3.252   5.472   6.095 -0.9029 -1.8874 -0.0090
36948SOL     OW13160  10.144   6.959   2.466 -0.0455 -0.2207 -0.4869
36948SOL    HW113161  10.114   6.882   2.417 -1.0361  0.9826 -1.8764
36948SOL    HW213162  10.063   7.005   2.490  0.5141  0.2536  0.5982
36949SOL     OW13163   2.744   6.632   9.178  0.0010 -0.4731 -0.0949
36949SOL    HW113164   2.789   6.657   9.259 -0.7247  2.1295 -0.4216
36949SOL    HW213165   2.732   6.537   9.186 -0.2415 -0.2850  2.9552
36950SOL     OW13166   6.479   7.554   7.936 -0.3655  0.0442  0.9226
36950SOL    HW113167   6.516   7.592   7.856 -0.8234  1.0650  1.1789
36950SOL    HW213168   6.435   7.474   7.907 -2.1271  1.3432 -0.1798
36951SOL     OW13169   3.349   7.654   2.357  0.1600  0.0110  0.7484
36951SOL    HW113170   3.304   7.569   2.360  1.2346 -0.6274 -0.2104
36951SOL    HW213171   3.434   7.634   2.317  0.3125  1.6026  0.2088
36952SOL     OW13172   9.104   1.518   4.266  0.1585 -0.1391 -0.6105
36952SOL    HW113173   9.063   1.451   4.320 -0.2755  0.0798 -0.6634
36952SOL    HW213174   9.049   1.595   4.277  0.7430  0.2536 -0.4332
36953SOL     OW13175   9.053   9.860   2.763  0.3837 -0.3400 -0.7234
36953SOL    HW113176   9.148   9.848   2.762  0.1486 -2.6320 -0.7455
36953SOL    HW213177   9.032   9.888   2.673  0.8433 -1.9978 -1.3799
36954SOL     OW13178   0.527   7.559   4.653  0.3447 -0.0242 -0.2071
36954SOL    HW113179   0.567   7.602   4.728  0.4561 -1.1640  0.4077
36954SOL    HW213180   0.455   7.508   4.690  0.6481 -0.9156 -0.8297
36955SOL     OW13181   6.083  10.367   8.762  0.0088  0.1015 -0.0335
36955SOL    HW113182   6.137  10.433   8.719  2.0260 -1.5807 -0.1771
36955SOL    HW213183   6.085  10.291   8.704 -2.5554 -0.0759 -0.0422
36956SOL     OW13184   1.437   9.294   4.418 -0.0701  0.2888  0.2488
36956SOL    HW113185   1.517   9.289   4.366 -0.0701  0.9285  0.1821
36956SOL    HW213186   1.419   9.387   4.427  0.7120  0.2874  2.5769
36957SOL     OW13187   6.657   8.690   8.248 -0.5279 -0.0285 -0.0001
36957SOL    HW113188   6.633   8.782   8.248  0.0954  0.1798 -1.6122
36957SOL    HW213189   6.625   8.657   8.164  0.2782 -0.9844  0.0388
36958SOL     OW13190   6.627   1.592   5.494  0.2928 -0.2684  0.4044
36958SOL    HW113191   6.717   1.615   5.470 -0.8712  2.6434 -1.8995
36958SOL    HW213192   6.621   1.498   5.476  2.7889 -0.5062  0.4072
36959SOL     OW13193   6.804   9.324   3.213 -0.0964  0.2370  0.1647
36959SOL    HW113194   6.781   9.411   3.181 -1.6860 -1.0170 -2.5123
36959SOL    HW213195   6.854   9.285   3.141  2.0079 -0.5624  1.9737
36960SOL     OW13196   0.195   1.903   9.483 -0.1563  0.8189  0.0684
36960SOL    HW113197   0.148   1.985   9.495  0.6494  1.1555  1.0725
36960SOL    HW213198   0.216   1.873   9.572  0.3484 -0.0022 -0.3057
36961SOL     OW13199   4.167   0.651   6.656  0.0044  0.2110  0.1025
36961SOL    HW113200   4.221   0.611   6.587 -0.1017  1.2274 -0.5936
36961SOL    HW213201   4.162   0.743   6.632 -1.2465  0.3152  0.6955
36962SOL     OW13202   7.910   3.209   7.304 -0.2658 -0.3451  0.3638
36962SOL    HW113203   7.943   3.207   7.214 -0.9453 -0.6422  0.1170
36962SOL    HW213204   7.963   3.276   7.347  0.9379 -1.0987  0.0934
36963SOL     OW13205   7.318   1.135  10.331  0.1609  0.2415  0.3166
36963SOL    HW113206   7.224   1.154  10.324 -0.2161 -1.2610  1.0567
36963SOL    HW213207   7.339   1.086  10.252  0.6516  1.7202 -0.5110
36964SOL     OW13208   6.078   0.721   6.509  0.3138  0.0985 -0.4459
36964SOL    HW113209   5.987   0.732   6.538  0.1956  0.2612 -0.8718
36964SOL    HW213210   6.071   0.677   6.424  0.6370  0.0760 -0.4615
36965SOL     OW13211   3.670   0.213   8.082 -0.7450 -0.1265  0.5896
36965SOL    HW113212   3.665   0.193   8.175 -2.3190 -4.9383 -0.2718
36965SOL    HW213213   3.757   0.182   8.055  1.2784  4.4835  0.7535
36966SOL     OW13214   5.640   2.532   3.971  0.8396  0.0332  0.2368
36966SOL    HW113215   5.689   2.614   3.984 -0.9866  1.2779 -0.2869
36966SOL    HW213216   5.629   2.525   3.877 -2.7183  1.6139  0.3688
36967SOL     OW13217   5.681   0.967   9.937  0.3747  0.4977 -0.2750
36967SOL    HW113218   5.627   0.949   9.860  0.4204 -0.0857 -0.1771
36967SOL    HW213219   5.696   1.061   9.934  1.7111  0.2859 -1.8863
36968SOL     OW13220   6.868   8.846   4.243 -0.1547  0.8032  0.6690
36968SOL    HW113221   6.958   8.870   4.223 -0.4211  0.2934 -1.4305
36968SOL    HW213222   6.825   8.839   4.157 -2.1803  0.9619  1.5946
36969SOL     OW13223   4.266   1.478   6.539  0.0384  0.4197 -0.0282
36969SOL    HW113224   4.256   1.537   6.614  0.3830 -0.8037  1.0206
36969SOL    HW213225   4.236   1.529   6.464  1.2100  2.2523  0.6805
36970SOL     OW13226   6.768   3.854   7.036  0.8996 -0.8280 -0.1305
36970SOL    HW113227   6.823   3.874   6.960  0.8351  1.5726  0.3909
36970SOL    HW213228   6.818   3.888   7.111 -0.3535 -0.4797  0.5637
36971SOL     OW13229   9.681   8.839   2.225  0.1001  0.0499 -0.3291
36971SOL    HW113230   9.749   8.870   2.284 -1.9021  2.4432  0.9013
36971SOL    HW213231   9.649   8.758   2.265  0.1305  0.5832  0.8174
36972SOL     OW13232   3.283   0.219   9.602 -0.0649  0.7560 -0.7824
36972SOL    HW113233   3.217   0.285   9.621  0.7313  1.8220 -1.6330
36972SOL    HW213234   3.235   0.150   9.556 -0.2694  2.4508 -3.2800
36973SOL     OW13235   8.346   2.471   6.484 -0.3103  0.5369 -0.0477
36973SOL    HW113236   8.351   2.393   6.539 -1.8412  0.9592  0.7403
36973SOL    HW213237   8.437   2.501   6.478  0.0108 -0.0000  1.5732
36974SOL     OW13238   6.383   5.959   8.291 -0.7187  0.0419  0.3180
36974SOL    HW113239   6.452   5.980   8.353 -1.2136  0.4027  0.7452
36974SOL    HW213240   6.308   5.935   8.345 -0.2527 -2.7626 -0.0955
36975SOL     OW13241   8.173   3.998   2.265 -0.2085  0.3372 -0.0882
36975SOL    HW113242   8.171   3.902   2.259 -0.5081  0.1227  2.3980
36975SOL    HW213243   8.126   4.027   2.188 -1.9646 -1.6213  0.1353
36976SOL     OW13244   3.760   5.304   8.874 -0.2014 -0.1831 -0.3004
36976SOL    HW113245   3.855   5.293   8.883 -0.3113 -1.0431 -0.0484
36976SOL    HW213246   3.735   5.354   8.952 -0.1544 -1.3353  0.4857
36977SOL     OW13247   5.559   5.120   0.562 -0.1659  0.3750 -0.3404
36977SOL    HW113248   5.494   5.182   0.597 -0.5285 -0.0876 -0.1810
36977SOL    HW213249   5.610   5.171   0.499 -1.1546  0.5717 -1.0074
36978SOL     OW13250   6.468   6.994   7.230 -0.2734  0.4307  0.4795
36978SOL    HW113251   6.519   6.964   7.155 -0.8622  0.9237 -0.1234
36978SOL    HW213252   6.444   7.084   7.208  1.9249  1.6387  2.4665
36979SOL     OW13253  10.457   4.802   8.272 -0.0954 -0.3057  0.1646
36979SOL    HW113254  10.491   4.775   8.357 -2.1396  1.1977  1.5596
36979SOL    HW213255  10.447   4.721   8.223  1.1063 -1.2112  1.3584
36980SOL     OW13256   7.043   7.713   8.957 -0.4204  0.2638  0.0412
36980SOL    HW113257   7.016   7.683   8.870  1.3032 -1.8461  0.1616
36980SOL    HW213258   6.996   7.656   9.018  0.1183  0.2082  0.4084
36981SOL     OW13259   7.839   0.496   6.721  0.2816 -0.2159  0.0134
36981SOL    HW113260   7.848   0.403   6.738  3.3224 -0.1399 -0.7181
36981SOL    HW213261   7.786   0.501   6.641  1.1953 -1.4109 -0.7006
36982SOL     OW13262   7.321   8.490   7.483 -0.3948  0.9122 -0.0614
36982SOL    HW113263   7.236   8.444   7.486 -1.9688  3.4582  4.6522
36982SOL    HW213264   7.383   8.427   7.520 -0.5248 -0.2860 -1.7462
36983SOL     OW13265   6.423   9.756   7.554  0.1579 -0.0001  0.1678
36983SOL    HW113266   6.373   9.797   7.625 -0.6699 -1.8158  0.6996
36983SOL    HW213267   6.396   9.803   7.475 -1.8730 -0.4250  0.5513
36984SOL     OW13268   6.955   2.370   4.806 -0.7560  0.4262  0.4194
36984SOL    HW113269   7.011   2.389   4.881  0.4895  0.4101 -0.4586
36984SOL    HW213270   6.907   2.452   4.791 -0.8045  0.5179  1.0562
36985SOL     OW13271   4.837   4.220   6.430 -0.4137 -0.4686  0.1773
36985SOL    HW113272   4.892   4.180   6.498  0.3164 -0.1115 -0.2001
36985SOL    HW213273   4.847   4.162   6.354  1.6692  1.0276 -0.8037
36986SOL     OW13274   3.485   3.548   2.896  0.0341 -0.1263 -0.1929
36986SOL    HW113275   3.549   3.477   2.902  1.2158  0.8742 -0.3400
36986SOL    HW213276   3.403   3.510   2.927  1.1887 -0.8376  2.2622
36987SOL     OW13277   8.597   4.751   5.065 -0.4375  0.4001 -0.1612
36987SOL    HW113278   8.508   4.786   5.070 -0.0512  1.4328 -0.1035
36987SOL    HW213279   8.594   4.668   5.112 -1.5342  0.0649 -0.8106
36988SOL     OW13280   2.327   9.740  10.232 -0.1205  0.2595  0.0665
36988SOL    HW113281   2.274   9.714  10.308  0.7808  1.7083  1.2636
36988SOL    HW213282   2.402   9.681  10.234 -0.6135 -0.3871 -0.3331
36989SOL     OW13283   2.002   3.053   7.538  0.3453  0.4031  0.2862
36989SOL    HW113284   2.085   3.089   7.568 -1.9457  3.4409  3.7932
36989SOL    HW213285   1.964   3.009   7.615 -0.4351 -3.0800 -1.8304
36990SOL     OW13286   5.273   3.845   3.529  0.0387 -0.0620  0.1913
36990SOL    HW113287   5.206   3.826   3.462 -1.5484 -1.6203  2.0650
36990SOL    HW213288   5.355   3.851   3.480 -1.2903  0.8183 -2.0933
36991SOL     OW13289   5.799   9.068   3.024 -0.3365 -0.5483  0.0448
36991SOL    HW113290   5.838   8.991   3.064  0.5901  0.0137  0.2476
36991SOL    HW213291   5.802   9.051   2.930  1.8181  0.1036 -0.0494
36992SOL     OW13292   0.776   2.541   8.882 -0.3860 -0.3856 -0.0202
36992SOL    HW113293   0.737   2.453   8.880  1.0485 -1.0345 -0.8934
36992SOL    HW213294   0.760   2.577   8.795 -0.7861  0.1661  0.2695
36993SOL     OW13295   5.103   8.714   0.478 -0.2166  0.2247 -0.0041
36993SOL    HW113296   5.195   8.738   0.464  0.4258  0.0754  3.1654
36993SOL    HW213297   5.053   8.778   0.427  1.6230  1.6727 -0.1074
36994SOL     OW13298   4.577  10.397   5.677  0.2974  0.0331  0.0092
36994SOL    HW113299   4.640  10.429   5.741  0.6104 -2.3894  1.0531
36994SOL    HW213300   4.617  10.317   5.642  0.2013  1.2982 -3.3847
36995SOL     OW13301   5.494   6.195  10.441 -0.3824  0.4533 -0.1565
36995SOL    HW113302   5.510   6.287  10.418  0.2369  0.3384 -0.1855
36995SOL    HW213303   5.535   6.184  10.526 -1.4470  0.4969  0.3761
36996SOL     OW13304   9.894   2.474   1.490  0.3443 -0.0545  0.0527
36996SOL    HW113305   9.890   2.481   1.395 -0.2549  0.4898  0.1148
36996SOL    HW213306   9.812   2.430   1.514 -0.8486  2.2615  0.5282
36997SOL     OW13307   5.800   9.874   3.918 -0.7283 -0.0158 -0.4415
36997SOL    HW113308   5.767   9.832   3.998 -0.3750  1.1345  0.3232
36997SOL    HW213309   5.780   9.811   3.849 -2.2224 -0.4739  0.3514
36998SOL     OW13310   6.818   9.843   1.593  0.2804  0.4797 -0.0192
36998SOL    HW113311   6.781   9.756   1.607 -0.1779  0.6788  0.0405
36998SOL    HW213312   6.840   9.845   1.500 -0.1873  0.4774 -0.1324
36999SOL     OW13313   8.156   8.807   4.593 -0.0698  0.1199  0.3162
36999SOL    HW113314   8.083   8.860   4.625  0.3394  1.2823 -0.5711
36999SOL    HW213315   8.150   8.814   4.497 -0.5518 -2.2475  0.1082
37000SOL     OW13316   1.241   1.271   3.851 -0.4024  0.1149  0.0495
37000SOL    HW113317   1.239   1.177   3.870  0.9826 -0.3191 -1.6571
37000SOL    HW213318   1.179   1.309   3.913 -0.7426 -1.8708  1.0282
37001SOL     OW13319   6.140   8.788   8.837 -0.0649 -0.0741  0.2369
37001SOL    HW113320   6.175   8.701   8.820  1.0443  0.1353  1.2543
37001SOL    HW213321   6.068   8.798   8.776  0.6479 -1.1823 -0.8222
37002SOL     OW13322   5.503   2.802   0.741  0.2396 -1.2761 -0.1696
37002SOL    HW113323   5.495   2.849   0.825  1.0315 -0.1818 -0.6766
37002SOL    HW213324   5.414   2.772   0.721 -0.5968  1.1646 -0.4510
37003SOL     OW13325   8.747   1.546   0.678 -0.0707  0.6968 -0.2209
37003SOL    HW113326   8.795   1.557   0.760 -0.1357 -1.6488  0.2215
37003SOL    HW213327   8.693   1.624   0.670  1.0082  1.6346  1.2211
37004SOL     OW13328   0.724   3.457   6.962  0.5690 -0.1668 -0.0564
37004SOL    HW113329   0.681   3.541   6.948  2.1184  0.8155  0.6975
37004SOL    HW213330   0.743   3.424   6.874  1.1903  0.9745 -0.3746
37005SOL     OW13331   7.835   9.985   8.423 -0.7970  0.8475 -1.0503
37005SOL    HW113332   7.780   9.913   8.454 -0.6640  0.8551 -0.8019
37005SOL    HW213333   7.900   9.943   8.367  0.6304  0.4804  0.7877
37006SOL     OW13334   4.629   2.753   2.124  0.4639  0.1766  0.4923
37006SOL    HW113335   4.663   2.682   2.179  0.7289  0.2493  0.4257
37006SOL    HW213336   4.687   2.827   2.143 -2.1134  1.6442  3.5763
37007SOL     OW13337   0.927   9.294   4.057 -0.1179  0.1268  0.3604
37007SOL    HW113338   0.936   9.357   4.129 -0.0268 -2.2640  2.5989
37007SOL    HW213339   0.834   9.272   4.057  0.1898 -1.2690  1.0526
37008SOL     OW13340   2.916   7.358   2.598 -0.0865 -0.2686  0.3213
37008SOL    HW113341   2.834   7.405   2.583  0.6792  0.4497 -1.9638
37008SOL    HW213342   2.891   7.284   2.653 -2.1322  0.3017  0.2420
37009SOL     OW13343   2.205   9.079   1.084  0.3670  0.6463  0.2890
37009SOL    HW113344   2.187   9.003   1.139  2.2397  0.2716  0.4637
37009SOL    HW213345   2.235   9.042   1.001  1.2211  1.1754  0.3490
37010SOL     OW13346   0.325   9.453   1.727 -0.8397  0.2204 -0.3451
37010SOL    HW113347   0.242   9.493   1.700 -0.0234  0.2669 -3.1053
37010SOL    HW213348   0.306   9.360   1.735 -1.4671  0.4123  0.4658
37011SOL     OW13349  10.077   9.293   1.753 -0.5971  1.3436 -0.7338
37011SOL    HW113350  10.042   9.346   1.681 -1.2593  0.2161 -1.2732
37011SOL    HW213351  10.000   9.262   1.800 -0.2614  0.4309 -0.7587
37012SOL     OW13352   9.719   7.544   1.836  0.0233  0.0342 -0.0757
37012SOL    HW113353   9.706   7.560   1.743 -2.9327  0.3472  0.2913
37012SOL    HW213354   9.779   7.613   1.864  0.2393  0.4971 -1.5877
37013SOL     OW13355   8.517   8.718   5.198  0.4373  0.3095  0.0775
37013SOL    HW113356   8.595   8.771   5.179  0.0784  0.6791 -0.4069
37013SOL    HW213357   8.505   8.666   5.118  0.6200 -0.2992  0.4414
37014SOL     OW13358   6.373   0.667  10.358  0.2489  0.1977  0.2544
37014SOL    HW113359   6.452   0.655  10.305 -0.4166 -0.4286 -0.6452
37014SOL    HW213360   6.393   0.626  10.442  0.9430  0.2011  0.0924
37015SOL     OW13361   6.139   7.506   5.981 -0.2567 -0.0819 -0.2697
37015SOL    HW113362   6.063   7.483   6.034 -0.2993 -0.3048 -0.4280
37015SOL    HW213363   6.122   7.597   5.954 -0.0729  0.1517  0.3728
37016SOL     OW13364   5.167   5.301   0.035 -0.0578 -0.4547  0.4664
37016SOL    HW113365   5.169   5.212   0.069  0.5223 -0.5843  0.1007
37016SOL    HW213366   5.077   5.330   0.050  0.1519 -0.5301  2.0108
37017SOL     OW13367   5.910   9.921   8.908 -0.3797 -0.4848  0.2003
37017SOL    HW113368   5.998   9.883   8.912  0.8093  2.0296 -0.0901
37017SOL    HW213369   5.877   9.915   8.998  0.9463  0.3867  0.7712
37018SOL     OW13370   7.343   0.535   5.333  0.0047 -0.0421 -0.1536
37018SOL    HW113371   7.291   0.481   5.393  0.3433 -0.4763 -0.2433
37018SOL    HW213372   7.364   0.476   5.260  1.2623 -0.0961  0.2364
37019SOL     OW13373   1.330   9.738   9.386  0.3971  0.0197  0.2167
37019SOL    HW113374   1.363   9.794   9.315 -1.1545 -1.4801 -1.7871
37019SOL    HW213375   1.409   9.712   9.434  1.3205  2.4559  0.1507
37020SOL     OW13376   5.132   8.858   9.667 -0.0834 -0.0186 -0.3259
37020SOL    HW113377   5.074   8.916   9.619 -1.3345 -0.2647  0.8282
37020SOL    HW213378   5.082   8.834   9.745  0.4656 -2.5162 -0.6843
37021SOL     OW13379   0.813   3.698   8.591 -0.0337 -0.2236 -0.1910
37021SOL    HW113380   0.844   3.725   8.504 -1.2779  0.4398 -0.4449
37021SOL    HW213381   0.767   3.775   8.625  0.3072 -0.5295  1.0031
37022SOL     OW13382  10.043   7.117   5.061  0.1838 -0.2844 -0.1755
37022SOL    HW113383  10.039   7.022   5.049  0.4357 -0.2873 -0.2394
37022SOL    HW213384  10.109   7.146   4.998  0.3773 -0.1114  0.1048
37023SOL     OW13385   4.748   4.872  10.354 -0.3280 -0.3027 -0.5033
37023SOL    HW113386   4.751   4.956  10.309  0.0411  0.9415  1.7083
37023SOL    HW213387   4.824   4.873  10.412 -0.1498 -2.3166 -0.6345
37024SOL     OW13388   6.369   3.083   7.551  0.1118  0.3661 -0.8536
37024SOL    HW113389   6.349   3.030   7.628  4.1911  0.4956  0.5533
37024SOL    HW213390   6.406   3.022   7.488  2.4870  1.0079 -0.1979
37025SOL     OW13391   3.860   5.690   7.244 -0.6336 -0.1111 -0.2047
37025SOL    HW113392   3.843   5.741   7.323 -1.1523  0.8467 -0.9167
37025SOL    HW213393   3.956   5.688   7.237 -0.5922  0.1540  0.2265
37026SOL     OW13394   6.776   6.326   4.348 -0.4407  0.7756 -0.1571
37026SOL    HW113395   6.841   6.343   4.280 -0.1992  0.9556  0.1121
37026SOL    HW213396   6.790   6.235   4.373 -2.3202 -0.1577 -2.2162
37027SOL     OW13397   5.937   0.711   2.152 -0.1515 -0.3827  0.5553
37027SOL    HW113398   5.981   0.693   2.069 -0.3500  0.5240  0.2532
37027SOL    HW213399   5.845   0.697   2.134 -0.5830  2.8205 -0.2703
37028SOL     OW13400   8.777   3.238   1.747 -0.1708  0.4028  0.2322
37028SOL    HW113401   8.790   3.303   1.678  1.1656  0.6130  0.6493
37028SOL    HW213402   8.753   3.158   1.701 -0.3033  0.7935 -0.3949
37029SOL     OW13403   6.722  10.313   5.790 -0.3014 -0.3298  0.0919
37029SOL    HW113404   6.804  10.284   5.749 -0.4565 -0.3360 -0.2161
37029SOL    HW213405   6.657  10.307   5.720 -0.6045 -0.5060  0.3870
37030SOL     OW13406   1.766   1.078   7.344  0.1223 -0.3109 -0.0537
37030SOL    HW113407   1.844   1.060   7.396 -0.0945  1.7269  1.1163
37030SOL    HW213408   1.771   1.017   7.270  2.2794 -0.9139  0.5159
37031SOL     OW13409   9.751   5.952   4.540  0.0563 -0.1177  0.5760
37031SOL    HW113410   9.815   5.956   4.611 -0.0973  2.0806  0.6504
37031SOL    HW213411   9.753   6.039   4.500 -1.3474 -0.6583 -0.8103
37032SOL     OW13412   0.609   2.604   5.875  0.0907  0.4871 -0.2827
37032SOL    HW113413   0.556   2.548   5.818  0.9648 -0.3235 -0.3261
37032SOL    HW213414   0.661   2.657   5.814  0.0163  0.6073 -0.2415
37033SOL     OW13415   4.590   4.225   7.801  0.2428 -0.6189  0.1018
37033SOL    HW113416   4.545   4.287   7.858 -1.4757  0.2915 -2.1057
37033SOL    HW213417   4.580   4.141   7.845 -1.7208 -0.0899  0.7761
37034SOL     OW13418   2.811   3.212   0.692 -0.0592  0.3608 -0.2197
37034SOL    HW113419   2.790   3.126   0.730 -2.0952  0.3036 -1.3502
37034SOL    HW213420   2.762   3.274   0.745  2.9792  1.1896  1.9137
37035SOL     OW13421   0.601   4.296   5.244 -0.1672 -0.2677  0.2508
37035SOL    HW113422   0.648   4.212   5.241  1.1333  0.4460 -1.7641
37035SOL    HW213423   0.584   4.311   5.337 -1.0744 -3.0724  0.6531
37036SOL     OW13424   0.513  10.334   1.540 -0.1763  0.0875  0.0573
37036SOL    HW113425   0.524  10.414   1.489  0.9992  0.2419  0.5226
37036SOL    HW213426   0.419  10.330   1.558 -0.1888  1.6737  0.5211
37037SOL     OW13427   2.360   2.729   9.806  0.1853  0.3328 -0.0820
37037SOL    HW113428   2.367   2.721   9.901  0.4322  0.6105 -0.0753
37037SOL    HW213429   2.432   2.677   9.771  0.4348  0.6900 -0.1004
37038SOL     OW13430   9.603   6.758   6.988  0.4931 -0.1469 -0.4268
37038SOL    HW113431   9.535   6.755   6.921  0.1881 -0.1639 -0.1153
37038SOL    HW213432   9.604   6.849   7.017  0.7708 -0.0914 -0.6006
37039SOL     OW13433   0.909   8.714   3.062  0.5107 -0.0338  0.3216
37039SOL    HW113434   0.864   8.711   3.146 -0.4093 -2.4771 -0.1811
37039SOL    HW213435   1.001   8.720   3.084  0.1934  3.5038  1.3849
37040SOL     OW13436   8.638   4.881   1.351 -0.6257 -0.5571  0.0778
37040SOL    HW113437   8.702   4.886   1.280 -1.4207 -1.8601 -0.7570
37040SOL    HW213438   8.556   4.857   1.308 -0.9581 -2.1508  1.5263
37041SOL     OW13439   1.860   9.945   7.271 -0.4196 -0.1326 -0.0763
37041SOL    HW113440   1.770   9.920   7.293  0.4995 -2.6207  1.2891
37041SOL    HW213441   1.866  10.037   7.295 -2.5570  0.0595 -0.0970
37042SOL     OW13442   2.396   4.966   3.010  0.5931 -0.2549 -0.0146
37042SOL    HW113443   2.429   5.053   2.986 -0.3759 -0.2581 -1.4326
37042SOL    HW213444   2.475   4.911   3.014  1.3263  0.8209  1.7073
37043SOL     OW13445   2.986   7.316   6.666  0.1390  0.1820  0.3296
37043SOL    HW113446   2.917   7.345   6.726  0.0586  0.3855  0.1435
37043SOL    HW213447   3.023   7.398   6.632 -0.2826  0.0726 -0.4220
37044SOL     OW13448   8.929   2.641   6.035  0.3275 -0.7440  0.4212
37044SOL    HW113449   8.901   2.578   6.102 -1.5940 -0.0657  0.3272
37044SOL    HW213450   8.876   2.620   5.958 -0.4344  0.9727  0.4124
37045SOL     OW13451   7.579   3.697   0.450  0.2770  0.2555 -0.4544
37045SOL    HW113452   7.645   3.647   0.402  2.1845  1.6912  0.5659
37045SOL    HW213453   7.606   3.788   0.440 -0.9608  0.7966  0.8773
37046SOL     OW13454   1.693  10.418   5.299  0.0679 -0.3763  0.0197
37046SOL    HW113455   1.616  10.456   5.257 -1.5798 -1.1313  2.1606
37046SOL    HW213456   1.691  10.326   5.272 -0.2997 -0.5869  0.7361
37047SOL     OW13457   2.377   6.816   6.172  0.3397  0.0895 -0.0389
37047SOL    HW113458   2.379   6.889   6.110 -0.4072  0.0657 -0.1021
37047SOL    HW213459   2.462   6.773   6.162  0.5994  0.6701 -0.3417
37048SOL     OW13460   3.196   3.381   8.573  0.3344  0.1087 -0.1059
37048SOL    HW113461   3.167   3.369   8.483 -0.4979  0.7061  0.0696
37048SOL    HW213462   3.115   3.385   8.624  0.8179 -1.7435  0.8975
37049SOL     OW13463   9.490   7.638   6.389 -0.3130 -0.0404  1.0201
37049SOL    HW113464   9.584   7.658   6.383 -0.4124  1.0084  2.4842
37049SOL    HW213465   9.470   7.596   6.305  1.4605 -0.3114  0.6808
37050SOL     OW13466   2.867  10.087  10.352 -0.0573  0.6630  0.0553
37050SOL    HW113467   2.874  10.181  10.371  0.7467  0.5168  0.4768
37050SOL    HW213468   2.954  10.062  10.321  0.2082 -0.2910  1.5228
37051SOL     OW13469   0.030   5.955   7.979  0.3866  0.1852 -0.1642
37051SOL    HW113470   0.096   5.911   8.033  0.5435 -0.4437 -0.8387
37051SOL    HW213471  -0.045   5.896   7.980 -0.0589  0.7469  0.3377
37052SOL     OW13472   5.076   0.616   1.666  0.0648 -0.0051  0.2826
37052SOL    HW113473   5.014   0.549   1.639 -0.8097  0.7493  0.3934
37052SOL    HW213474   5.160   0.587   1.630 -0.4983 -0.6176 -0.5524
37053SOL     OW13475   4.572   0.320   9.171 -0.5383 -0.0320 -0.0499
37053SOL    HW113476   4.543   0.230   9.159  1.7691 -0.6263 -2.0711
37053SOL    HW213477   4.653   0.313   9.221 -0.2633  0.8805 -0.3430
37054SOL     OW13478   7.282   2.350   8.445 -0.6654 -0.3554  0.5986
37054SOL    HW113479   7.187   2.354   8.438 -0.7819 -2.4993  0.3302
37054SOL    HW213480   7.314   2.413   8.380 -1.8995 -1.1449 -0.8329
37055SOL     OW13481   0.256   2.184   5.175 -0.5605 -0.4572  0.2418
37055SOL    HW113482   0.229   2.093   5.177 -1.5431 -0.2201 -0.9122
37055SOL    HW213483   0.276   2.202   5.083 -3.8708  1.3973 -0.2831
37056SOL     OW13484   0.768   0.604  10.309  0.6580 -0.5415  0.2970
37056SOL    HW113485   0.817   0.522  10.311  0.3267 -0.7291  2.1225
37056SOL    HW213486   0.725   0.609  10.394 -0.3081  0.9500 -0.2294
37057SOL     OW13487   9.862   1.950   0.586  0.2950 -0.0699  0.3618
37057SOL    HW113488   9.851   2.006   0.509  1.4555 -0.2372  0.0479
37057SOL    HW213489   9.797   1.881   0.576  0.1281  0.1701 -0.2348
37058SOL     OW13490   5.633   0.263   2.173 -0.2790 -0.3188 -0.2194
37058SOL    HW113491   5.631   0.170   2.150 -1.8945 -0.3494 -0.0775
37058SOL    HW213492   5.707   0.298   2.123 -0.1747 -1.5052 -0.9459
37059SOL     OW13493   7.382   3.190   6.822  0.0819 -0.4672  0.1590
37059SOL    HW113494   7.294   3.169   6.853  0.8459 -2.3896  1.2518
37059SOL    HW213495   7.387   3.151   6.735 -1.0960  2.3574 -1.2861
37060SOL     OW13496   8.786   2.287   3.076 -0.5767 -0.8528  0.3986
37060SOL    HW113497   8.708   2.329   3.113 -1.1396 -0.1246 -1.4969
37060SOL    HW213498   8.771   2.289   2.981  1.5864 -1.0516  0.0128
37061SOL     OW13499  10.369   7.784   4.780  0.4527 -0.5942  0.0232
37061SOL    HW113500  10.350   7.878   4.785 -1.5744 -0.9005 -0.8385
37061SOL    HW213501  10.343   7.750   4.865  0.4135 -0.4873  0.0540
37062SOL     OW13502   4.760   0.489   9.596 -0.4591 -0.0854 -0.0600
37062SOL    HW113503   4.781   0.544   9.520  2.2449 -2.6519 -1.3878
37062SOL    HW213504   4.830   0.424   9.598 -1.9045 -1.7615  3.1063
37063SOL     OW13505   9.817  10.045   8.003 -0.1165  0.4562 -0.1280
37063SOL    HW113506   9.806   9.950   7.995  1.3727  0.3427 -1.1183
37063SOL    HW213507   9.747  10.071   8.063  0.6462 -1.5314  1.7815
37064SOL     OW13508   7.550   7.355  10.135 -0.0341  0.2465 -0.3864
37064SOL    HW113509   7.482   7.341  10.201  1.0777 -1.2363  0.5104
37064SOL    HW213510   7.621   7.297  10.161  0.6861  0.0539 -2.5909
37065SOL     OW13511   7.161   4.764   0.705  0.3800 -0.2903 -0.1953
37065SOL    HW113512   7.123   4.700   0.645 -0.5666  0.2841 -0.2301
37065SOL    HW213513   7.242   4.723   0.736 -0.5095 -1.7773  0.2578
37066SOL     OW13514   3.527   5.318   2.040 -0.6260  0.2983 -0.7861
37066SOL    HW113515   3.487   5.237   2.070 -0.1257 -0.3508 -1.8100
37066SOL    HW213516   3.560   5.298   1.952  1.0028  1.0968 -0.3980
37067SOL     OW13517   5.903   9.513   2.092  0.0880 -0.8490  0.0152
37067SOL    HW113518   5.979   9.489   2.039  0.5828 -1.6318  1.0505
37067SOL    HW213519   5.873   9.596   2.055  1.3518 -0.6048 -0.4976
37068SOL     OW13520   9.167   0.701   6.695  0.2993 -0.5819 -0.1738
37068SOL    HW113521   9.127   0.758   6.761 -0.3166 -0.4195 -0.6758
37068SOL    HW213522   9.254   0.682   6.729 -0.1563 -0.8445  0.8916
37069SOL     OW13523   8.258   8.551   6.666 -0.3535 -0.2666  0.0402
37069SOL    HW113524   8.332   8.501   6.701 -0.2882 -0.8382 -0.8789
37069SOL    HW213525   8.209   8.487   6.614 -0.4647  0.5449 -0.8764
37070SOL     OW13526   5.553   3.302   1.141 -0.0428 -0.2698  0.0871
37070SOL    HW113527   5.517   3.213   1.146 -0.2202 -0.1447  2.2515
37070SOL    HW213528   5.482   3.358   1.172  0.0540  0.6580 -1.3061
37071SOL     OW13529   9.646   6.620   8.871 -0.3783  0.8454 -0.1939
37071SOL    HW113530   9.715   6.585   8.928 -0.9921 -0.2129 -0.0741
37071SOL    HW213531   9.666   6.586   8.784  0.7675  2.7621 -0.7372
37072SOL     OW13532   3.975   7.552   8.188 -0.1173  0.2309 -0.4272
37072SOL    HW113533   3.997   7.471   8.141  1.4203 -0.0722  0.7397
37072SOL    HW213534   4.005   7.537   8.277  0.0864  2.0500 -0.1465
37073SOL     OW13535   6.122   0.841   8.566 -0.3545 -0.1172  0.5086
37073SOL    HW113536   6.071   0.791   8.502 -0.0317  0.2030 -0.0169
37073SOL    HW213537   6.184   0.891   8.512  0.7424 -0.7490  1.1457
37074SOL     OW13538  10.329   6.737   3.380 -0.1035 -0.5474 -0.0757
37074SOL    HW113539  10.401   6.795   3.404 -0.7429  0.3780 -0.3173
37074SOL    HW213540  10.252   6.779   3.419 -0.5749 -1.2416 -0.2576
37075SOL     OW13541   0.136   3.162   0.246  0.8492  0.5651 -0.1709
37075SOL    HW113542   0.069   3.129   0.306 -0.3807  1.7820 -0.8101
37075SOL    HW213543   0.147   3.254   0.269  1.8846  0.5275 -0.4632
37076SOL     OW13544   5.274   4.287   5.011 -0.1204  0.2371  0.2577
37076SOL    HW113545   5.360   4.245   5.009 -0.0234  0.4170  0.5470
37076SOL    HW213546   5.239   4.266   5.098  0.1517  1.1754  0.6170
37077SOL     OW13547   0.532   2.634   2.478  0.3892 -0.5299 -0.7648
37077SOL    HW113548   0.527   2.728   2.463  0.2545 -0.2638  0.7881
37077SOL    HW213549   0.447   2.612   2.518  0.9459 -1.0459  0.1581
37078SOL     OW13550   5.815   5.718   8.126  0.6661 -0.8042 -0.4137
37078SOL    HW113551   5.815   5.811   8.146 -1.5511 -0.6365 -0.9842
37078SOL    HW213552   5.853   5.711   8.039  2.3147 -0.6373  0.2608
37079SOL     OW13553   3.249   8.285   5.030  0.5506  0.4334  0.0364
37079SOL    HW113554   3.213   8.214   5.082  0.7969 -0.0936 -0.5112
37079SOL    HW213555   3.197   8.286   4.950  1.9351 -0.5656 -0.9167
37080SOL     OW13556   2.807   2.438   8.409 -0.3116  0.2530 -0.4771
37080SOL    HW113557   2.777   2.469   8.324 -1.6302 -0.8419 -0.4518
37080SOL    HW213558   2.732   2.390   8.445  0.5658 -0.1985  0.8472
37081SOL     OW13559   0.903   7.097   7.179 -0.3292  0.0713 -0.6093
37081SOL    HW113560   0.863   7.090   7.093  1.3843  3.1184 -1.8073
37081SOL    HW213561   0.842   7.149   7.231  0.3886  1.6977 -1.3292
37082SOL     OW13562   8.145   0.904   8.711 -0.2365 -0.4122  0.2285
37082SOL    HW113563   8.114   0.940   8.794 -1.4048 -1.9354  0.4926
37082SOL    HW213564   8.126   0.973   8.647 -1.0398  0.0471  0.9379
37083SOL     OW13565   3.478   9.089   0.546 -0.1761 -0.3742 -0.4103
37083SOL    HW113566   3.386   9.071   0.564 -0.4649 -1.1424 -2.4089
37083SOL    HW213567   3.477   9.143   0.467  1.0846 -0.0286 -0.2168
37084SOL     OW13568   8.009   8.228   1.466  0.1887 -0.5470  0.4305
37084SOL    HW113569   8.012   8.162   1.536  0.2812  0.4080  1.3615
37084SOL    HW213570   7.918   8.259   1.467  0.2557 -0.3425  0.3290
37085SOL     OW13571   7.725   9.094   3.929  0.0709 -0.3073  0.1002
37085SOL    HW113572   7.676   9.175   3.914  1.6584  0.6285 -0.4230
37085SOL    HW213573   7.757   9.070   3.842 -0.2710 -1.4369  0.2798
37086SOL     OW13574   0.501  10.140  10.033 -0.4283 -0.0257 -0.3786
37086SOL    HW113575   0.461  10.198  10.097 -1.0285 -0.8964  0.0537
37086SOL    HW213576   0.543  10.199   9.970 -1.5473  0.8965 -0.2972
37087SOL     OW13577   7.319   3.429   4.545  0.4096  0.0881  0.5101
37087SOL    HW113578   7.377   3.366   4.588  0.3654 -0.1031  0.2845
37087SOL    HW213579   7.245   3.377   4.514  1.5242 -0.1999 -1.9021
37088SOL     OW13580   6.433   7.302   6.405 -0.0454  0.1941  0.1597
37088SOL    HW113581   6.446   7.396   6.421 -0.5475  0.2563  0.2167
37088SOL    HW213582   6.376   7.299   6.328  0.1503 -0.0685  0.0255
37089SOL     OW13583   2.849   2.943   4.779 -0.0824  0.0424  0.2621
37089SOL    HW113584   2.803   3.023   4.752 -0.5714 -0.3319 -0.0349
37089SOL    HW213585   2.878   2.961   4.868  0.3080  0.7659 -0.0057
37090SOL     OW13586   0.115   7.336   8.353  0.6627  0.4681 -0.9649
37090SOL    HW113587   0.205   7.339   8.386  0.1232  0.9681  0.5148
37090SOL    HW213588   0.113   7.400   8.282  0.7707  2.5963  0.8681
37091SOL     OW13589   6.269  10.337   6.949  0.1743 -0.5294  0.2542
37091SOL    HW113590   6.326  10.265   6.922 -0.3373 -1.2287  0.9854
37091SOL    HW213591   6.252  10.321   7.042  0.4109  0.7995  0.5457
37092SOL     OW13592   3.629   8.456   5.781  0.4264  0.0188  0.3159
37092SOL    HW113593   3.699   8.514   5.811  1.1009 -0.2526 -0.6792
37092SOL    HW213594   3.670   8.403   5.712 -1.0918  0.7507 -1.2052
37093SOL     OW13595   5.239   5.193   2.672  0.3194  0.3185 -0.7610
37093SOL    HW113596   5.276   5.267   2.720  2.7398 -0.9245 -0.5690
37093SOL    HW213597   5.173   5.232   2.615  0.4072  2.3933  0.4538
37094SOL     OW13598   9.401   0.842  10.488  0.1706 -0.0017  0.2369
37094SOL    HW113599   9.414   0.766  10.432  3.1771 -0.0820  0.8683
37094SOL    HW213600   9.446   0.820  10.570 -2.1578  1.0041  1.9172
37095SOL     OW13601   0.891   4.455   1.585 -0.2853  0.3252  0.4606
37095SOL    HW113602   0.875   4.456   1.490  0.4972 -0.8640  0.2930
37095SOL    HW213603   0.810   4.489   1.623 -1.6875 -1.7042 -0.5156
37096SOL     OW13604   0.542   2.027   1.391 -0.5101  0.7135 -0.0885
37096SOL    HW113605   0.522   1.982   1.473 -0.3786 -0.2359 -0.5610
37096SOL    HW213606   0.629   1.994   1.367 -1.0537  0.0450 -1.2111
37097SOL     OW13607   4.752   6.630   2.312  0.5438 -0.2839 -0.4362
37097SOL    HW113608   4.842   6.598   2.301  0.8056  0.1663  0.3852
37097SOL    HW213609   4.755   6.721   2.280  0.3799 -0.2644 -0.3964
37098SOL     OW13610   8.779   1.858   6.077  0.2238 -0.0862  0.2123
37098SOL    HW113611   8.868   1.890   6.083  0.1478 -0.0259  1.2455
37098SOL    HW213612   8.737   1.889   6.158 -0.7107 -0.1575 -0.2350
37099SOL     OW13613   8.312   9.370   2.031  0.8001 -0.0842 -0.6718
37099SOL    HW113614   8.381   9.431   2.058 -0.0057 -0.1427  1.6872
37099SOL    HW213615   8.250   9.425   1.982  2.3442  0.0042 -2.6552
37100SOL     OW13616   0.241   5.406   9.067  0.2858 -0.2134  0.1930
37100SOL    HW113617   0.190   5.336   9.109 -1.5917 -0.1197 -1.7778
37100SOL    HW213618   0.188   5.485   9.080  1.8235  0.6945  1.3667
37101SOL     OW13619  10.298   0.108   4.616  0.2321  0.5558  0.7066
37101SOL    HW113620  10.367   0.117   4.682 -0.0114 -0.6716  1.1452
37101SOL    HW213621  10.345   0.094   4.533  0.5665 -2.0280  1.2517
37102SOL     OW13622   0.371  10.443   8.564  0.1628  0.1554  0.2341
37102SOL    HW113623   0.458  10.470   8.594  0.1459  1.3843 -0.7281
37102SOL    HW213624   0.366  10.475   8.474 -0.8843 -0.8604 -0.0941
37103SOL     OW13625   3.617   8.101   8.333  0.4882 -0.7577 -0.1729
37103SOL    HW113626   3.650   8.093   8.423 -0.7259  0.1062  0.3793
37103SOL    HW213627   3.535   8.052   8.333 -0.1665  0.2993 -0.4424
37104SOL     OW13628   0.453   6.991   5.861 -0.0837 -0.3527  0.4550
37104SOL    HW113629   0.448   7.086   5.868  0.8754 -0.3494  1.3847
37104SOL    HW213630   0.368   6.960   5.893 -0.1826  0.1709  0.7119
37105SOL     OW13631   7.113   7.547  10.149 -0.6149 -0.7959 -0.0925
37105SOL    HW113632   7.174   7.521  10.218 -0.5544 -0.0454  0.1535
37105SOL    HW213633   7.119   7.478  10.083  0.9392 -0.4618 -0.3349
37106SOL     OW13634   7.127   8.874   8.971 -0.6513 -0.2949  0.1161
37106SOL    HW113635   7.150   8.781   8.972 -1.9191 -0.6243  0.8464
37106SOL    HW213636   7.105   8.893   8.880  1.6635 -0.1318 -0.4912
37107SOL     OW13637   9.716   9.983   4.302  0.0093 -0.1040 -0.4904
37107SOL    HW113638   9.812   9.985   4.303 -0.0005  0.2063  0.0515
37107SOL    HW213639   9.695   9.897   4.265  0.5032 -0.6451  0.4340
37108SOL     OW13640   4.109   0.874   0.861  0.3916 -0.2763 -0.7013
37108SOL    HW113641   4.097   0.794   0.810  0.1712  0.0804 -1.2176
37108SOL    HW213642   4.038   0.872   0.925 -1.8657  1.2042 -2.9516
37109SOL     OW13643   8.170   2.844   2.016 -0.6525 -0.2854 -0.0815
37109SOL    HW113644   8.210   2.815   1.934 -0.8436 -0.7056 -0.0305
37109SOL    HW213645   8.231   2.909   2.051 -0.5800 -0.0901 -0.5661
37110SOL     OW13646   1.463   1.476   9.763 -0.2256 -0.0580 -0.0739
37110SOL    HW113647   1.505   1.560   9.780  0.0807 -0.2648  0.2278
37110SOL    HW213648   1.528   1.411   9.792 -1.5387 -0.3804  2.4822
37111SOL     OW13649   9.906   0.522   6.649 -0.3355  0.3670 -0.3533
37111SOL    HW113650   9.927   0.565   6.566  2.7586 -1.0655 -0.4688
37111SOL    HW213651   9.867   0.439   6.623 -1.8994  1.0522 -0.2600
37112SOL     OW13652   3.365   0.339   3.360 -0.6110 -0.3315  0.4123
37112SOL    HW113653   3.399   0.280   3.428 -0.7883  0.7369  1.4688
37112SOL    HW213654   3.423   0.415   3.363 -0.9798 -0.0108 -0.2342
37113SOL     OW13655   9.046   0.639   6.308  0.0443 -0.4512 -0.4029
37113SOL    HW113656   9.073   0.729   6.289 -0.2621 -0.5010 -1.1134
37113SOL    HW213657   9.127   0.596   6.336  0.0405  0.2364  0.7156
37114SOL     OW13658   1.215   0.536   1.523  0.2122 -0.2100 -0.2416
37114SOL    HW113659   1.282   0.483   1.480 -0.1880 -1.4525  0.6195
37114SOL    HW213660   1.166   0.577   1.451  1.9692  0.8578 -0.8894
37115SOL     OW13661   4.277   0.839   7.589  0.3650 -0.3884  0.2503
37115SOL    HW113662   4.263   0.758   7.638  0.7889 -1.1114 -0.7877
37115SOL    HW213663   4.190   0.878   7.582 -0.1189 -1.5542 -0.5807
37116SOL     OW13664   0.996   1.473   7.773  0.3089 -0.1128 -0.1512
37116SOL    HW113665   1.054   1.397   7.766  0.2021 -0.0239 -2.7636
37116SOL    HW213666   0.936   1.465   7.699 -0.3107  2.0336  0.0530
37117SOL     OW13667   1.204   9.536   1.202  0.2927  0.7688 -0.5012
37117SOL    HW113668   1.281   9.521   1.147  1.2531  1.9929  0.4647
37117SOL    HW213669   1.230   9.507   1.289 -1.2421 -1.2153 -0.6311
37118SOL     OW13670   0.826   8.189   0.630 -0.0648 -0.2210  0.5131
37118SOL    HW113671   0.880   8.198   0.709  0.6253  0.4772 -0.0167
37118SOL    HW213672   0.736   8.193   0.662  0.2057 -0.3498  1.3089
37119SOL     OW13673   9.032   5.122   5.806  0.0107 -0.7050  0.4774
37119SOL    HW113674   9.087   5.074   5.867  0.7906 -1.9066 -1.1010
37119SOL    HW213675   9.088   5.137   5.729 -1.6804 -1.5651 -1.0004
37120SOL     OW13676   4.857   6.579   3.399 -0.3870  0.0649 -1.2310
37120SOL    HW113677   4.870   6.652   3.459  1.3773 -1.0321 -0.2030
37120SOL    HW213678   4.765   6.554   3.411 -1.2535  2.5183 -2.1596
37121SOL     OW13679   4.015   8.193   0.792 -0.0612 -0.0009  0.3761
37121SOL    HW113680   3.994   8.099   0.788 -0.0114  0.0125 -0.2676
37121SOL    HW213681   3.951   8.234   0.734  0.5953  0.2396 -0.1886
37122SOL     OW13682   4.901   4.096   9.736  0.3949 -0.1847  0.4434
37122SOL    HW113683   4.862   4.137   9.659 -0.9413  0.4849  1.4090
37122SOL    HW213684   4.959   4.164   9.772  1.1078 -0.5387 -0.0190
37123SOL     OW13685   6.986   2.749   2.006  0.0154  0.2346 -0.1193
37123SOL    HW113686   7.071   2.736   2.048  0.8778 -1.6875 -2.2433
37123SOL    HW213687   7.005   2.802   1.929 -0.6643 -0.3724 -0.7253
37124SOL     OW13688  10.581   8.760   3.721  0.5151  0.0170  0.2537
37124SOL    HW113689  10.605   8.738   3.631 -0.1780  0.0343  0.0526
37124SOL    HW213690  10.657   8.804   3.757  1.6681 -1.9881  0.4042
37125SOL     OW13691   2.422   6.651   6.687  0.3662  0.4420  0.6617
37125SOL    HW113692   2.443   6.666   6.594 -1.0419 -0.4188  0.1733
37125SOL    HW213693   2.438   6.558   6.700  1.4865  0.7426  1.5701
37126SOL     OW13694  10.367   0.753   7.025 -0.0312 -0.0392 -0.0926
37126SOL    HW113695  10.326   0.786   6.946 -1.9407 -0.4073  0.6987
37126SOL    HW213696  10.348   0.659   7.025  1.2477 -0.3199  0.0715
37127SOL     OW13697   4.016   5.456   7.046 -0.3307 -0.0916  0.5492
37127SOL    HW113698   4.024   5.373   7.093 -0.3029  0.1740  1.0132
37127SOL    HW213699   3.932   5.492   7.075 -0.2010  0.1878  0.5792
37128SOL     OW13700   9.905   9.080   4.112  0.1865  0.1734 -0.4098
37128SOL    HW113701   9.968   9.014   4.084 -0.2015 -0.4087  0.0657
37128SOL    HW213702   9.953   9.133   4.176 -0.0010 -0.7194  0.5091
37129SOL     OW13703   4.408   6.890   9.758  0.2681  0.3057  0.0619
37129SOL    HW113704   4.483   6.947   9.770  0.0600  0.2467  1.9200
37129SOL    HW213705   4.351   6.937   9.697 -0.3129  2.5513  2.1792
37130SOL     OW13706   6.369   1.024   2.521 -1.0866 -0.7923  0.5072
37130SOL    HW113707   6.384   0.929   2.528  0.2205 -0.6488 -0.0453
37130SOL    HW213708   6.274   1.034   2.527 -1.2519 -2.1529  0.4551
37131SOL     OW13709   0.434   4.089   6.255  0.5676 -0.1224  0.0371
37131SOL    HW113710   0.417   4.173   6.212  1.2281  0.1029  0.1945
37131SOL    HW213711   0.357   4.036   6.235 -0.6953  1.1044  1.4212
37132SOL     OW13712   7.839   6.307   6.501 -0.4547  0.5872 -0.3083
37132SOL    HW113713   7.796   6.274   6.580 -0.6409  0.1080 -0.6025
37132SOL    HW213714   7.790   6.267   6.429  0.7369 -0.3346 -0.6604
37133SOL     OW13715   7.732   1.218   7.406 -0.6208  0.3848  0.0377
37133SOL    HW113716   7.640   1.236   7.429 -0.2812  1.3871  0.6899
37133SOL    HW213717   7.763   1.301   7.369 -0.0499 -0.0365 -0.4285
37134SOL     OW13718   7.464   3.073   9.855  0.4603 -0.2056  0.6914
37134SOL    HW113719   7.412   3.127   9.915 -0.5979  0.6554 -0.9039
37134SOL    HW213720   7.496   3.001   9.908 -2.2677 -0.6885  1.8226
37135SOL     OW13721  10.155   0.701   8.220  0.6223  0.2372  0.1748
37135SOL    HW113722  10.205   0.688   8.300  0.9563  1.1327  0.1213
37135SOL    HW213723  10.118   0.789   8.229  1.3659  0.6882 -1.0270
37136SOL     OW13724   7.683   0.685   5.742 -0.1910 -0.2902  0.4085
37136SOL    HW113725   7.659   0.722   5.657  0.1284  0.1109  0.4923
37136SOL    HW213726   7.779   0.687   5.744 -0.1733 -0.9027  0.5145
37137SOL     OW13727   9.255   4.993   6.192 -0.0771 -0.3227  0.3703
37137SOL    HW113728   9.337   5.043   6.194 -0.3264  0.5523 -3.4132
37137SOL    HW213729   9.203   5.030   6.264  0.7679  3.1282 -0.5749
37138SOL     OW13730   3.183   1.800   3.474  0.2655 -0.0595 -0.2393
37138SOL    HW113731   3.221   1.713   3.485  1.8640  0.4123 -1.7345
37138SOL    HW213732   3.148   1.800   3.385 -2.0514  0.0135  0.6057
37139SOL     OW13733   9.135   8.046   4.130  0.5815 -0.1017  0.1059
37139SOL    HW113734   9.147   8.016   4.040 -2.4848 -2.9938  0.4479
37139SOL    HW213735   9.200   7.997   4.180 -1.1609 -2.6975  0.0092
37140SOL     OW13736   1.565   2.958   4.129 -0.0353 -0.4974  0.7325
37140SOL    HW113737   1.510   3.032   4.103  0.7081  0.1875  1.0635
37140SOL    HW213738   1.634   2.997   4.183  0.9017 -1.3120  0.1541
37141SOL     OW13739   2.751  10.000   9.109  0.3457 -0.3590 -0.6477
37141SOL    HW113740   2.752   9.996   9.013 -0.4931 -0.2919 -0.6746
37141SOL    HW213741   2.840  10.022   9.134  0.2168  1.2662 -1.4869
37142SOL     OW13742   5.973   0.325   0.106 -0.1513  0.0678 -0.1845
37142SOL    HW113743   5.957   0.275   0.027 -0.6568 -0.5053  0.2731
37142SOL    HW213744   5.906   0.296   0.168 -0.3211  1.1516  0.1657
37143SOL     OW13745   1.491   4.471   8.486  0.6507 -0.4242 -0.3115
37143SOL    HW113746   1.552   4.494   8.556  0.0927  1.2686 -0.3385
37143SOL    HW213747   1.492   4.547   8.428 -2.4081  0.2371  0.3380
37144SOL     OW13748   5.829   9.292   5.415 -0.0372 -0.1598 -0.0363
37144SOL    HW113749   5.885   9.284   5.493 -0.0929  0.4536  0.0768
37144SOL    HW213750   5.756   9.348   5.444 -1.1438 -1.5895  0.0531
37145SOL     OW13751   2.717   1.039   3.207 -0.1178 -0.1880  0.1627
37145SOL    HW113752   2.809   1.058   3.222 -0.6311  2.0661  0.8098
37145SOL    HW213753   2.680   1.030   3.295 -0.8937  1.1306  0.0017
37146SOL     OW13754   9.226   8.254   6.014 -0.4026 -0.5533  0.0916
37146SOL    HW113755   9.312   8.216   6.028  1.2346  2.2319 -1.5846
37146SOL    HW213756   9.219   8.324   6.079  0.5457  2.0217 -2.3789
37147SOL     OW13757   9.561   7.669   2.046 -0.2290  0.0086  0.2697
37147SOL    HW113758   9.550   7.659   1.951 -0.5658  0.3231  0.2747
37147SOL    HW213759   9.606   7.753   2.055 -0.5589  0.1675  0.4133
37148SOL     OW13760   6.614   0.897   8.003  0.3672 -0.0272  0.1595
37148SOL    HW113761   6.573   0.980   7.980 -3.1055 -1.2731  1.1378
37148SOL    HW213762   6.699   0.921   8.039  0.1532  2.9302 -1.0194
37149SOL     OW13763  10.356   9.881   3.300 -0.3215 -0.4232  0.0608
37149SOL    HW113764  10.385   9.955   3.248 -0.4388  0.9171  1.8178
37149SOL    HW213765  10.304   9.919   3.370 -1.0271 -2.2360  0.5897
37150SOL     OW13766   6.756   8.566   5.403  0.0883  0.0203  0.9909
37150SOL    HW113767   6.751   8.491   5.344  1.3573 -1.0098  2.1384
37150SOL    HW213768   6.671   8.609   5.393  0.7248  0.7631 -2.6555
37151SOL     OW13769   8.985   8.573   7.550 -0.3718  0.1539  0.0935
37151SOL    HW113770   9.049   8.560   7.621 -1.9747 -2.5645  1.1774
37151SOL    HW213771   8.947   8.659   7.569  1.3409  0.8244  0.7174
37152SOL     OW13772   7.852   0.399   9.687  0.5541 -0.4658 -0.0520
37152SOL    HW113773   7.847   0.401   9.782 -1.2879 -0.5353 -0.1129
37152SOL    HW213774   7.804   0.320   9.662 -0.7351  0.6108 -1.1006
37153SOL     OW13775   5.595   4.760  10.201 -0.4709 -0.0920  0.4365
37153SOL    HW113776   5.623   4.682  10.248 -0.7413  0.1180  0.9541
37153SOL    HW213777   5.512   4.785  10.242 -1.4328 -0.6807 -1.0342
37154SOL     OW13778   6.200   0.997  10.492  0.1492  0.3027 -0.0092
37154SOL    HW113779   6.183   1.073  10.437 -1.6835 -1.1349 -1.5573
37154SOL    HW213780   6.129   0.997  10.557  0.2216 -0.0232  0.0734
37155SOL     OW13781   1.043   5.228   4.825 -0.4741  0.3693  0.0333
37155SOL    HW113782   1.110   5.273   4.773 -0.5932 -0.3301 -0.7318
37155SOL    HW213783   1.010   5.296   4.884  0.2628  0.9576 -0.2035
37156SOL     OW13784   2.353   3.473   3.895  0.2563  0.2686  0.0328
37156SOL    HW113785   2.351   3.397   3.838  1.0438 -0.2030  0.6058
37156SOL    HW213786   2.411   3.535   3.851  0.0081  0.3413 -0.1940
37157SOL     OW13787   4.997   6.949  10.459 -0.0518 -0.2178 -0.4445
37157SOL    HW113788   4.981   6.903  10.542  0.3451 -0.0249 -0.2579
37157SOL    HW213789   4.979   7.041  10.478  0.1466 -0.1576 -0.5426
37158SOL     OW13790   1.815   2.335   5.794 -0.3190  0.6063  0.2494
37158SOL    HW113791   1.846   2.244   5.801  1.7575  1.3569  1.8926
37158SOL    HW213792   1.824   2.356   5.701  3.1050  0.3103  0.3949
37159SOL     OW13793   1.706   4.869   1.635 -0.0857 -0.2230 -0.0454
37159SOL    HW113794   1.650   4.930   1.586  0.1474  0.2187  0.2286
37159SOL    HW213795   1.737   4.920   1.710  0.3908 -0.5746  0.0039
37160SOL     OW13796   4.211   5.754   5.310  0.2112 -0.5077  0.2894
37160SOL    HW113797   4.284   5.811   5.330 -0.8960  0.5670  1.3875
37160SOL    HW213798   4.206   5.694   5.384 -0.5995  0.0420  0.6891
37161SOL     OW13799   0.357   7.665   9.108  0.2356  0.2612 -0.2890
37161SOL    HW113800   0.311   7.681   9.026 -0.4710  0.9784  0.2244
37161SOL    HW213801   0.295   7.693   9.176  0.5642 -0.8939  0.5181
37162SOL     OW13802   3.248   1.738   4.534  0.1215  0.3598 -0.6139
37162SOL    HW113803   3.178   1.692   4.488  0.3106 -0.1471 -0.4010
37162SOL    HW213804   3.209   1.822   4.559 -0.7640 -0.3387  0.4498
37163SOL     OW13805   6.188   2.722   2.360 -0.2443  0.0264  0.3061
37163SOL    HW113806   6.167   2.725   2.453  0.4218  0.1506  0.4579
37163SOL    HW213807   6.209   2.813   2.337 -1.1139  0.1232 -0.1375
37164SOL     OW13808   5.442   5.669   9.315 -0.0878 -0.3033 -0.1284
37164SOL    HW113809   5.484   5.624   9.388  1.7634 -2.7570 -2.5222
37164SOL    HW213810   5.386   5.603   9.275 -0.2068  0.6290 -1.5663
37165SOL     OW13811   6.836   6.696   1.920  0.5477 -0.0014  0.0820
37165SOL    HW113812   6.864   6.765   1.980  1.2854  0.5762 -0.9132
37165SOL    HW213813   6.818   6.741   1.837 -0.8684 -0.7255 -0.0440
37166SOL     OW13814   7.317   2.902   8.102  0.1010 -0.3912  0.2231
37166SOL    HW113815   7.312   2.971   8.168  0.7380 -0.7322  0.6332
37166SOL    HW213816   7.269   2.937   8.027  0.3133  0.4462  0.4695
37167SOL     OW13817   1.876   8.502   2.453 -0.4931  0.0461 -0.1929
37167SOL    HW113818   1.965   8.509   2.419  0.6727 -0.6764  2.3969
37167SOL    HW213819   1.823   8.558   2.396  1.8358  1.4882 -1.0676
37168SOL     OW13820   2.682   3.607   0.116  0.2199 -0.0379 -0.1036
37168SOL    HW113821   2.657   3.692   0.079 -0.6373 -1.2042 -2.4320
37168SOL    HW213822   2.627   3.598   0.194 -1.3381  0.6160 -1.0745
37169SOL     OW13823   3.993   3.735   5.729 -0.1194 -0.3243  0.1127
37169SOL    HW113824   4.009   3.685   5.649 -0.4365 -0.4443  0.1218
37169SOL    HW213825   4.073   3.726   5.780  0.5454  0.7031 -0.6883
37170SOL     OW13826   3.540   5.879   5.495 -1.1627  0.0079  0.1630
37170SOL    HW113827   3.514   5.943   5.429  0.3560  1.7630  1.1833
37170SOL    HW213828   3.580   5.808   5.445  0.6036  1.6194 -0.8677
37171SOL     OW13829   8.180   2.513   7.005 -0.4621 -0.3758  0.2534
37171SOL    HW113830   8.267   2.482   6.982 -0.5124 -1.3324  1.2333
37171SOL    HW213831   8.153   2.568   6.932  0.3983 -1.1882 -0.7006
37172SOL     OW13832   1.825   3.989   8.615  0.6515  0.7621  0.0279
37172SOL    HW113833   1.886   3.955   8.549 -0.1885 -0.6285 -0.0865
37172SOL    HW213834   1.738   3.969   8.579  0.1708  0.4117  1.3382
37173SOL     OW13835  10.222   7.295   2.031 -0.0100  0.3528 -0.0162
37173SOL    HW113836  10.278   7.368   2.055  2.5904 -1.7487  0.9006
37173SOL    HW213837  10.199   7.254   2.115 -0.4573 -0.5167 -0.5498
37174SOL     OW13838   6.739   5.155   6.141  0.4338 -0.8411 -0.4647
37174SOL    HW113839   6.718   5.078   6.193 -0.6375 -1.3699 -1.6275
37174SOL    HW213840   6.701   5.137   6.055  2.3078 -0.0949 -1.5173
37175SOL     OW13841   8.578   8.656   8.608  0.2980  0.6843  0.1694
37175SOL    HW113842   8.664   8.665   8.565 -0.6053  1.5694 -1.5829
37175SOL    HW213843   8.577   8.567   8.641  1.2923  0.1372 -1.1717
37176SOL     OW13844   8.680   4.168   4.347  0.3095  0.5506  0.0362
37176SOL    HW113845   8.668   4.073   4.343  0.2412  0.4892  1.1801
37176SOL    HW213846   8.723   4.182   4.432 -0.0894  1.5754  0.0766
37177SOL     OW13847   8.461   4.612   0.557  0.5394 -0.1340 -0.7306
37177SOL    HW113848   8.368   4.594   0.573  0.6708  0.4108  0.8266
37177SOL    HW213849   8.506   4.570   0.630  1.4451  0.2690 -1.0497
37178SOL     OW13850   0.316   8.316   3.309  0.3323  0.6960 -0.1730
37178SOL    HW113851   0.302   8.402   3.348  1.3061  0.5952  0.4253
37178SOL    HW213852   0.386   8.329   3.246  0.3131  0.3869 -0.2627
37179SOL     OW13853   4.916   9.588   8.591 -0.2068  0.2475 -0.4201
37179SOL    HW113854   4.920   9.680   8.564  1.1142  0.2878 -0.1671
37179SOL    HW213855   4.862   9.546   8.525  0.0611  1.0088 -1.1407
37180SOL     OW13856   4.520   0.198   4.146 -0.7123 -0.4026 -0.5006
37180SOL    HW113857   4.587   0.266   4.144 -0.5932 -0.4723  0.7096
37180SOL    HW213858   4.441   0.242   4.176 -0.3519 -0.9901  1.4517
37181SOL     OW13859   0.971   6.204   7.895 -0.0836  0.3045  0.3723
37181SOL    HW113860   0.951   6.237   7.807  1.3196  0.9767  0.2676
37181SOL    HW213861   1.053   6.155   7.883  1.0219  1.7629  1.5510
37182SOL     OW13862   1.839  10.541  10.224  0.3292  0.3387 -0.1850
37182SOL    HW113863   1.891  10.575  10.297  3.4951 -0.2541 -1.9743
37182SOL    HW213864   1.844  10.446  10.234 -1.0717  0.2653 -0.0229
37183SOL     OW13865   9.317   1.027   0.698  0.4685  1.0096 -0.3852
37183SOL    HW113866   9.270   1.098   0.742 -0.6102 -0.6935  1.3278
37183SOL    HW213867   9.289   1.034   0.606  0.7778  3.0563 -0.3675
37184SOL     OW13868   2.679   2.590   4.764 -0.0423 -0.1430 -0.2275
37184SOL    HW113869   2.760   2.622   4.805  0.1395  0.5843 -1.1076
37184SOL    HW213870   2.709   2.539   4.689 -0.3996  0.4274 -0.7631
37185SOL     OW13871   4.209   8.469   2.143  0.1350 -0.0023  0.3454
37185SOL    HW113872   4.278   8.413   2.109  0.1461 -0.1309  0.5789
37185SOL    HW213873   4.252   8.524   2.208  0.0647  0.0757  0.3274
37186SOL     OW13874   2.464   7.628   1.751 -0.0203 -0.2589  0.1057
37186SOL    HW113875   2.560   7.625   1.756  0.0884 -0.3209 -1.3766
37186SOL    HW213876   2.439   7.540   1.721 -0.2650  0.5553 -2.3442
37187SOL     OW13877   7.926   7.115   0.452 -0.1497 -0.1507 -0.1114
37187SOL    HW113878   7.859   7.143   0.514  0.2219 -1.5988  0.9874
37187SOL    HW213879   7.889   7.037   0.411 -0.0276  0.2933 -1.0909
37188SOL     OW13880   9.613   7.317   0.906  0.6007 -0.1642  0.3033
37188SOL    HW113881   9.706   7.338   0.909  0.4837  0.3611  0.2107
37188SOL    HW213882   9.602   7.266   0.825  1.0064 -1.2315  0.8919
37189SOL     OW13883   6.377   5.469   1.426 -0.2600 -0.0117  0.7315
37189SOL    HW113884   6.350   5.379   1.445 -2.2827  0.3012 -0.4025
37189SOL    HW213885   6.473   5.464   1.422 -0.3512 -2.4115 -0.6120
37190SOL     OW13886   7.100   9.863   5.391  0.4217 -0.0887 -0.1943
37190SOL    HW113887   7.010   9.840   5.368 -0.1061  1.9446 -0.3311
37190SOL    HW213888   7.130   9.916   5.318  1.3047  0.2741  0.4168
37191SOL     OW13889   5.702   7.387   5.075 -0.4265  0.1748  0.1602
37191SOL    HW113890   5.752   7.443   5.135  0.6904  1.4593 -1.8537
37191SOL    HW213891   5.768   7.354   5.014 -1.8932  1.3033 -2.1395
37192SOL     OW13892   9.661   3.447   3.268  0.4491 -0.0828 -0.1298
37192SOL    HW113893   9.578   3.487   3.243  0.2967  1.0192  1.9100
37192SOL    HW213894   9.648   3.419   3.359  1.7886 -1.3795 -0.2970
37193SOL     OW13895   4.172   2.209  10.131  0.0670 -0.7586  0.0718
37193SOL    HW113896   4.117   2.140  10.170  1.0393 -0.9634  1.1185
37193SOL    HW213897   4.109   2.272  10.096 -0.8881 -0.3827  2.2938
37194SOL     OW13898   5.631   5.910   6.588 -0.1608 -0.1151  0.1904
37194SOL    HW113899   5.623   5.823   6.549 -1.7468  0.2429 -0.3489
37194SOL    HW213900   5.573   5.908   6.664 -0.5623  0.6021 -0.0840
37195SOL     OW13901   9.748   9.550   5.545  0.2390 -0.3561  0.4959
37195SOL    HW113902   9.811   9.488   5.510 -0.4471 -0.2736 -0.9426
37195SOL    HW213903   9.665   9.527   5.503 -0.3803  0.4719  1.2164
37196SOL     OW13904  10.327   1.632   4.783  0.3951 -0.2346 -0.0957
37196SOL    HW113905  10.314   1.724   4.803 -1.7034 -0.7477  1.2266
37196SOL    HW213906  10.419   1.616   4.805  0.5651  1.3474  0.4918
37197SOL     OW13907   9.757   6.516   9.602  0.3611 -0.2575 -0.0765
37197SOL    HW113908   9.676   6.492   9.558 -0.6620  2.5616  0.1094
37197SOL    HW213909   9.823   6.459   9.563 -1.4506 -1.6741 -1.2171
37198SOL     OW13910   7.892   6.080  10.064  0.7842 -0.2211  0.4346
37198SOL    HW113911   7.890   6.008  10.000  0.5392 -0.1530  0.3641
37198SOL    HW213912   7.897   6.036  10.149 -0.4891 -0.3616  0.4601
37199SOL     OW13913   3.698   8.056   9.118 -0.1123  0.6678 -0.3635
37199SOL    HW113914   3.721   8.119   9.186 -0.1819  2.4868 -1.9491
37199SOL    HW213915   3.751   8.081   9.042 -0.7112 -0.7167 -1.2987
37200SOL     OW13916   1.420   3.820   7.108  0.7927 -0.1448 -0.1762
37200SOL    HW113917   1.342   3.766   7.120  0.0418  1.0151  0.3558
37200SOL    HW213918   1.478   3.766   7.055  0.0490 -1.4356  0.2624
37201SOL     OW13919   2.009   0.069  10.411  0.5804  0.3201  0.3458
37201SOL    HW113920   2.063   0.140  10.376  0.4679 -0.3845 -1.3667
37201SOL    HW213921   2.071   0.001  10.435  0.6922  0.9950  2.0402
37202SOL     OW13922   2.347   2.456   6.020  0.2788  0.6772 -0.2730
37202SOL    HW113923   2.377   2.423   6.105  0.2561  1.2521 -0.0332
37202SOL    HW213924   2.275   2.515   6.042  1.6130  2.4813 -0.4813
37203SOL     OW13925   0.601   9.454   4.893 -0.2588 -0.7044 -0.4002
37203SOL    HW113926   0.578   9.444   4.800 -0.5666 -0.9744 -0.2961
37203SOL    HW213927   0.647   9.373   4.915  2.3824  0.5019 -1.0582
37204SOL     OW13928   1.236   2.390   9.548  0.9395 -0.7077 -0.9530
37204SOL    HW113929   1.253   2.479   9.579  0.3965 -0.8120 -0.3313
37204SOL    HW213930   1.157   2.363   9.594  1.2704 -1.6346 -0.8990
37205SOL     OW13931   7.579   9.223   1.720 -0.2993 -0.0541 -0.4254
37205SOL    HW113932   7.577   9.274   1.802  1.9341  0.3594 -0.5476
37205SOL    HW213933   7.620   9.140   1.745 -1.6958 -0.8583 -0.7141
37206SOL     OW13934   4.084   7.846   8.286  0.7817  0.0899  0.0370
37206SOL    HW113935   4.170   7.884   8.268  0.9739  0.1681  1.0663
37206SOL    HW213936   4.102   7.753   8.301  0.6170  0.0135 -0.2363
37207SOL     OW13937   1.714   9.199   6.839 -0.1940  0.4501 -0.5381
37207SOL    HW113938   1.772   9.158   6.903 -1.0612  0.4641  0.2880
37207SOL    HW213939   1.661   9.127   6.805 -0.8757  0.6786  0.0077
37208SOL     OW13940   3.480   4.605   8.506 -0.4040  0.1280 -0.2456
37208SOL    HW113941   3.513   4.520   8.534  0.1285 -0.7201 -3.1067
37208SOL    HW213942   3.393   4.611   8.546  0.8118 -0.1978  2.6844
37209SOL     OW13943   0.337   9.253  10.109 -0.2466  0.1886  0.1037
37209SOL    HW113944   0.351   9.174  10.058 -0.8945 -0.3528  0.7389
37209SOL    HW213945   0.364   9.229  10.198 -0.9279  0.5125  0.4073
37210SOL     OW13946   4.038   3.914   9.224  0.0302 -0.0724  0.1685
37210SOL    HW113947   4.087   3.984   9.268 -0.4923  0.4835 -0.1206
37210SOL    HW213948   3.948   3.926   9.254 -0.5560  0.9851 -1.8452
37211SOL     OW13949   5.852   4.698   0.913  0.6252 -0.1089  0.3475
37211SOL    HW113950   5.784   4.764   0.903  0.6205 -0.0485  0.7526
37211SOL    HW213951   5.933   4.747   0.926  0.7080 -0.1802  0.0979
37212SOL     OW13952   0.499   2.098   7.516 -0.1287  0.1332 -0.0224
37212SOL    HW113953   0.544   2.129   7.595  0.4441  1.3291 -0.7857
37212SOL    HW213954   0.570   2.076   7.456 -0.5640 -0.2250 -0.4064
37213SOL     OW13955   5.038   2.511   6.848 -0.1321  0.5929 -0.3873
37213SOL    HW113956   5.074   2.422   6.846 -0.3991  0.4897 -0.6062
37213SOL    HW213957   4.943   2.498   6.852 -0.1664  0.8681 -0.3148
37214SOL     OW13958   1.927   9.968   5.900  0.6236 -0.1573  0.2925
37214SOL    HW113959   1.921   9.929   5.987 -1.4529  0.9639  0.7106
37214SOL    HW213960   1.893  10.057   5.911 -0.5399 -0.2775 -1.8009
37215SOL     OW13961   7.508   7.123   8.329 -0.0340 -0.2201 -0.3706
37215SOL    HW113962   7.428   7.167   8.301 -0.5761  0.4258  1.9757
37215SOL    HW213963   7.578   7.182   8.302 -0.4749  0.1235 -0.7936
37216SOL     OW13964   6.878   5.092   7.097 -0.3352 -0.3878 -0.0080
37216SOL    HW113965   6.855   5.013   7.049  0.8209 -0.6139 -0.2278
37216SOL    HW213966   6.871   5.163   7.033 -0.3510 -0.4572 -0.0828
37217SOL     OW13967   6.191   2.441   1.333  0.2276  0.3015 -0.2787
37217SOL    HW113968   6.203   2.380   1.260  0.3713 -2.3667  1.8120
37217SOL    HW213969   6.097   2.441   1.350  0.3426 -0.2640  0.4240
37218SOL     OW13970   8.738   8.371   7.587  0.1344  0.3825 -0.2371
37218SOL    HW113971   8.774   8.374   7.675 -1.3308 -2.2515  0.5592
37218SOL    HW213972   8.682   8.448   7.581 -0.1847  0.2913  1.3345
37219SOL     OW13973  10.126   0.585   0.307 -0.1119  1.0726 -0.7037
37219SOL    HW113974  10.095   0.652   0.368  0.1113 -0.3062  0.9992
37219SOL    HW213975  10.196   0.627   0.258 -0.1262  2.1505  0.1665
37220SOL     OW13976   5.382   9.789   9.936  0.1314  0.2468 -0.0416
37220SOL    HW113977   5.301   9.804   9.986 -0.2562 -0.1505 -0.5417
37220SOL    HW213978   5.391   9.867   9.882  1.3500  1.3770  1.6770
37221SOL     OW13979   0.907   6.589   5.205  0.2635 -0.0686  0.2130
37221SOL    HW113980   0.980   6.650   5.215  1.0634 -1.0206  0.2964
37221SOL    HW213981   0.944   6.514   5.160 -0.8833 -0.2083 -0.5281
37222SOL     OW13982   5.446   6.926   9.727  0.3298  0.2083  0.1773
37222SOL    HW113983   5.412   6.995   9.783 -1.2259  0.1238 -0.5866
37222SOL    HW213984   5.378   6.858   9.730  0.4524 -0.0259 -1.3277
37223SOL     OW13985   1.530   2.959   5.287 -0.3738 -0.1717  0.1794
37223SOL    HW113986   1.501   2.876   5.325 -2.3322  1.1665  1.8284
37223SOL    HW213987   1.625   2.959   5.300 -0.3693 -1.9897  0.4217
37224SOL     OW13988   0.923   6.860   2.450  0.2348  0.5384 -0.2543
37224SOL    HW113989   0.999   6.882   2.504 -1.3248  2.8454  1.1653
37224SOL    HW213990   0.891   6.777   2.485  1.4009  0.1100 -0.1472
37225SOL     OW13991   6.312   6.405   2.806  0.0446 -0.1015 -0.5300
37225SOL    HW113992   6.318   6.489   2.850 -0.2900 -0.6141  0.5265
37225SOL    HW213993   6.280   6.345   2.873  1.8806 -1.4483 -0.7764
37226SOL     OW13994   1.975   2.140   7.176 -0.0206 -0.1430  0.5674
37226SOL    HW113995   1.885   2.124   7.203 -0.4782  0.4421 -0.5689
37226SOL    HW213996   1.975   2.229   7.141  0.3927 -1.0194 -1.8702
37227SOL     OW13997   8.249  10.324   2.765  0.2574  0.0849 -0.4339
37227SOL    HW113998   8.337  10.318   2.730  1.1063  0.3018  1.5488
37227SOL    HW213999   8.223  10.415   2.750  0.7935  0.2987 -0.0986
37228SOL     OW14000  10.342   6.572   3.181  0.5968 -0.2229 -0.1271
37228SOL    HW114001  10.328   6.651   3.234  1.0761 -1.0765  1.3247
37228SOL    HW214002  10.257   6.556   3.140 -0.0845 -0.0844  1.1767
37229SOL     OW14003   5.606   4.241   7.588 -0.5312  0.7362  0.3050
37229SOL    HW114004   5.617   4.179   7.660 -0.9335 -0.2198 -0.4374
37229SOL    HW214005   5.520   4.281   7.603 -1.0199 -0.1242 -0.1212
37230SOL     OW14006   4.839   0.668   5.351  0.1609  0.0275  0.4509
37230SOL    HW114007   4.766   0.607   5.359  0.3159 -0.2830 -0.4198
37230SOL    HW214008   4.839   0.715   5.434  0.1252 -1.2411  1.1946
37231SOL     OW14009   7.090   2.434   3.698 -0.7359 -0.6133  0.6999
37231SOL    HW114010   7.097   2.406   3.789 -2.0133  1.2405  1.4122
37231SOL    HW214011   7.164   2.493   3.685  0.1108 -1.7482  0.1474
37232SOL     OW14012   1.608   0.074   5.816  0.2921  0.4329  0.4084
37232SOL    HW114013   1.597   0.039   5.904  1.3495  1.9498  1.1845
37232SOL    HW214014   1.585   0.001   5.758 -0.7507 -0.4912  1.9136
37233SOL     OW14015   2.980   3.429   6.757 -0.1301  0.2841 -0.3152
37233SOL    HW114016   3.010   3.514   6.725 -0.4940  0.5130 -0.0676
37233SOL    HW214017   3.001   3.367   6.687  2.2096  0.1712  0.4091
37234SOL     OW14018   4.011   2.824   0.738 -0.6033  0.1461  0.2715
37234SOL    HW114019   4.083   2.831   0.676 -1.0539  0.5142 -0.2164
37234SOL    HW214020   3.993   2.730   0.743 -0.4573  0.1012 -0.0351
37235SOL     OW14021   1.592   4.902   2.456  0.0513  0.3638  0.2735
37235SOL    HW114022   1.666   4.939   2.504 -0.0155  0.6884  0.1262
37235SOL    HW214023   1.566   4.970   2.394 -0.1201  0.1009  0.0511
37236SOL     OW14024   7.950   6.993   9.598 -0.1021 -0.7652  0.3550
37236SOL    HW114025   7.873   6.964   9.647 -0.3073 -1.0479 -0.1300
37236SOL    HW214026   7.974   7.076   9.639 -1.6495  0.1701 -0.5322
37237SOL     OW14027   0.653   4.931   7.082 -0.0578 -0.0355  0.1198
37237SOL    HW114028   0.659   4.967   7.170 -0.5707  1.8012 -0.5312
37237SOL    HW214029   0.712   4.985   7.030  0.6671 -1.4511 -0.5836
37238SOL     OW14030   4.298   0.359   2.512 -0.3584  0.1833 -0.5247
37238SOL    HW114031   4.255   0.316   2.437 -0.9972  0.8116 -0.5331
37238SOL    HW214032   4.335   0.439   2.475 -0.0691  0.1521 -0.3019
37239SOL     OW14033   7.697   5.032   6.451  0.0399  0.8206  0.1430
37239SOL    HW114034   7.624   5.094   6.458  1.1369  2.1327  0.1517
37239SOL    HW214035   7.726   5.040   6.360  0.0107  0.1051  0.0679
37240SOL     OW14036   0.294   3.607   4.399  0.2862  0.2046 -0.1136
37240SOL    HW114037   0.274   3.633   4.490 -0.7590  0.7097 -0.4631
37240SOL    HW214038   0.251   3.674   4.346 -0.1711 -0.7600 -1.0011
37241SOL     OW14039   6.845   6.190   3.662  0.1086 -0.2818  0.3074
37241SOL    HW114040   6.852   6.108   3.611  3.2129 -0.1719  0.3559
37241SOL    HW214041   6.892   6.254   3.609  2.4380  0.1169  2.6325
37242SOL     OW14042  10.522   4.305   7.818  0.3252 -0.5091  0.5469
37242SOL    HW114043  10.482   4.386   7.787 -0.3624 -1.1529 -0.2891
37242SOL    HW214044  10.580   4.333   7.889 -1.6043  0.4353  1.8129
37243SOL     OW14045   4.505   8.968   8.835  0.4795  0.5946  0.0645
37243SOL    HW114046   4.474   9.057   8.818 -2.3753 -0.5667 -1.5131
37243SOL    HW214047   4.458   8.942   8.914  2.1509  0.7720  1.1787
37244SOL     OW14048   0.778  10.450   1.829  0.0775  0.4597 -0.2297
37244SOL    HW114049   0.838  10.498   1.886 -1.0849  2.1665 -0.3577
37244SOL    HW214050   0.694  10.452   1.876 -0.2903 -0.3382 -0.8439
37245SOL     OW14051   5.304   2.468   7.122 -0.1201  0.3348 -0.0256
37245SOL    HW114052   5.334   2.558   7.117 -0.4830  0.5520  1.4475
37245SOL    HW214053   5.357   2.428   7.190 -0.7625 -0.2341  0.1558
37246SOL     OW14054   9.190   6.228   8.631 -0.3858 -0.6148 -0.2375
37246SOL    HW114055   9.280   6.198   8.639 -0.4916 -0.8641  0.0903
37246SOL    HW214056   9.149   6.201   8.714 -0.4946  0.4125  0.0538
37247SOL     OW14057   3.921   1.967   7.088 -0.0591 -0.2151 -0.0404
37247SOL    HW114058   3.828   1.950   7.098  0.1239 -0.7606  0.8441
37247SOL    HW214059   3.964   1.895   7.136  0.8112  0.0017 -0.4690
37248SOL     OW14060   3.346   7.193   1.455  0.5566  0.1311 -0.2448
37248SOL    HW114061   3.418   7.134   1.430  1.9854  1.2936  0.9745
37248SOL    HW214062   3.314   7.158   1.538 -0.0382 -0.1339 -0.5754
37249SOL     OW14063   8.572   6.640   4.859  0.1511 -0.0578  0.4600
37249SOL    HW114064   8.494   6.691   4.879  0.7193  0.6635  0.8966
37249SOL    HW214065   8.598   6.668   4.772 -1.0614 -1.5910 -0.4523
37250SOL     OW14066   0.228   7.935   9.423  0.0548  0.7537 -0.6405
37250SOL    HW114067   0.292   7.968   9.486 -2.4764  1.6938  1.6626
37250SOL    HW214068   0.172   7.876   9.474  0.7403 -2.4715 -3.2392
37251SOL     OW14069   3.355   2.706   4.110 -0.3489 -0.1687  0.0150
37251SOL    HW114070   3.425   2.718   4.046 -0.1343  0.9455  0.4448
37251SOL    HW214071   3.282   2.759   4.077 -1.4780 -2.2636 -1.0761
37252SOL     OW14072   8.133   3.607   4.671 -0.8526 -0.6573  0.6873
37252SOL    HW114073   8.068   3.576   4.608 -0.7454  0.8793 -0.2288
37252SOL    HW214074   8.183   3.529   4.695  0.3958 -1.0533 -2.6502
37253SOL     OW14075   3.691   6.408   8.157  0.5290 -0.0957  0.9646
37253SOL    HW114076   3.713   6.480   8.097 -0.1285 -1.1242 -0.5669
37253SOL    HW214077   3.601   6.427   8.184  1.3120  1.1695  2.8821
37254SOL     OW14078   5.162  10.105   5.196  0.3525  0.1415  0.6867
37254SOL    HW114079   5.093  10.095   5.130  0.2186 -1.2902  1.0079
37254SOL    HW214080   5.243  10.088   5.149  0.2587 -0.8547  0.8582
37255SOL     OW14081   5.095   0.328   8.690 -0.1440  0.0607  0.0309
37255SOL    HW114082   5.148   0.311   8.768 -0.7358  0.0986  0.4451
37255SOL    HW214083   5.047   0.408   8.710 -1.2719 -0.6276  0.1521
37256SOL     OW14084   0.999   7.504   4.346  0.8023 -0.0968  0.2603
37256SOL    HW114085   1.018   7.556   4.268  0.2203  0.6774  0.6164
37256SOL    HW214086   0.913   7.465   4.329 -0.6356  2.2674  1.5688
37257SOL     OW14087   1.943   4.005   7.680  0.5081 -0.2953  0.2855
37257SOL    HW114088   1.882   4.077   7.662  0.6562 -0.0222  0.8670
37257SOL    HW214089   1.970   4.018   7.770  0.4516 -1.1518  0.4357
37258SOL     OW14090   4.702   1.300   5.293  0.7151 -0.3435 -0.3553
37258SOL    HW114091   4.689   1.369   5.358  0.3868 -0.1696 -0.6003
37258SOL    HW214092   4.647   1.228   5.324  1.5388 -0.7320  0.2348
37259SOL     OW14093   9.299   0.420   4.911  0.4105  0.2503  0.2570
37259SOL    HW114094   9.360   0.451   4.844  1.4151 -0.2091  0.9220
37259SOL    HW214095   9.304   0.325   4.906 -0.9769  0.1843 -0.2910
37260SOL     OW14096   5.822   4.906   5.485  0.4826 -0.0060 -0.1306
37260SOL    HW114097   5.888   4.840   5.465  0.2114  0.0834 -1.4109
37260SOL    HW214098   5.739   4.860   5.478  0.2854  0.4709 -1.1532
37261SOL     OW14099   5.665   5.988   5.929  0.3424 -0.1620  0.0030
37261SOL    HW114100   5.719   5.996   6.007 -0.2500 -1.5717  0.6093
37261SOL    HW214101   5.656   5.893   5.917 -1.1943  0.0350 -0.6127
37262SOL     OW14102   4.053  10.434   3.125 -0.4382  0.7385  0.4651
37262SOL    HW114103   3.992  10.488   3.075 -1.7007 -1.1079 -0.0764
37262SOL    HW214104   4.114  10.399   3.060  0.0399  1.0533  0.7355
37263SOL     OW14105  10.268   1.008   2.934 -0.0349  0.3584 -0.1783
37263SOL    HW114106  10.204   0.946   2.969 -1.6127  2.4004  0.8100
37263SOL    HW214107  10.246   1.016   2.842  1.9854 -2.5160 -1.0632
37264SOL     OW14108   3.840  10.394   1.416  0.6313 -0.2988  0.0088
37264SOL    HW114109   3.779  10.409   1.488 -0.3280 -0.3229 -0.7774
37264SOL    HW214110   3.807  10.449   1.345  2.2248  0.6213 -0.0731
37265SOL     OW14111   5.407   4.782   3.915 -0.1151  0.1636 -0.5532
37265SOL    HW114112   5.314   4.804   3.929  0.0267  1.6065 -1.7041
37265SOL    HW214113   5.406   4.688   3.897 -1.4580  0.2808 -1.2800
37266SOL     OW14114   6.783   5.224   9.862 -0.0141  0.2896  0.1112
37266SOL    HW114115   6.832   5.143   9.868 -1.0026 -0.3748 -0.5912
37266SOL    HW214116   6.697   5.203   9.899 -1.0172  0.3794 -2.0312
37267SOL     OW14117  10.025   4.696  10.185  0.3383 -0.0375  0.1447
37267SOL    HW114118   9.986   4.698  10.098 -1.7456  0.3527  1.0411
37267SOL    HW214119  10.074   4.778  10.192  0.1051  0.1531 -0.4626
37268SOL     OW14120   5.853   1.320   1.577 -0.0063 -0.2448 -0.3411
37268SOL    HW114121   5.774   1.266   1.587  0.1517 -0.4518 -0.1864
37268SOL    HW214122   5.909   1.293   1.650 -0.6922  1.4901  0.8991
37269SOL     OW14123   1.648   4.408   5.052 -0.2879 -0.0313  0.2076
37269SOL    HW114124   1.661   4.477   5.117  0.3930  1.4172 -1.3918
37269SOL    HW214125   1.625   4.454   4.972 -1.0207 -1.7624 -0.6290
37270SOL     OW14126   8.907   5.684   3.788 -0.3101  0.2982 -0.1459
37270SOL    HW114127   8.955   5.617   3.837  1.0740  3.1735  2.8848
37270SOL    HW214128   8.848   5.636   3.731  2.6578 -3.4538 -0.4040
37271SOL     OW14129   9.547   4.492   3.301  0.1452 -0.1892  0.1908
37271SOL    HW114130   9.484   4.465   3.234  1.6602 -1.8941 -0.6528
37271SOL    HW214131   9.508   4.465   3.384 -1.0523  0.5013 -0.1369
37272SOL     OW14132   1.391   7.604   6.320 -0.3288 -0.5661  0.2504
37272SOL    HW114133   1.434   7.636   6.241  0.4289 -1.0492  0.4560
37272SOL    HW214134   1.414   7.511   6.324 -1.5618 -0.8937  0.2646
37273SOL     OW14135   6.654   1.711   7.472 -0.7091  0.6876 -0.3255
37273SOL    HW114136   6.720   1.774   7.501 -0.8238  0.2615  0.9451
37273SOL    HW214137   6.611   1.754   7.398  0.8974  1.0235 -1.1136
37274SOL     OW14138   0.893   2.907   6.802 -0.0000  0.2461 -0.0711
37274SOL    HW114139   0.948   2.968   6.753 -0.3881  0.2437 -0.5197
37274SOL    HW214140   0.825   2.962   6.842  0.4818  0.2874  0.7218
37275SOL     OW14141   3.436   1.665   5.328  0.2426  0.1027 -0.0182
37275SOL    HW114142   3.353   1.623   5.350  0.3833 -0.0029  0.3104
37275SOL    HW214143   3.439   1.744   5.382 -0.3950  0.9772 -1.2244
37276SOL     OW14144   3.925   3.773   1.114  0.1100 -0.0121  0.1575
37276SOL    HW114145   3.876   3.705   1.160  3.5374 -0.0260  4.4503
37276SOL    HW214146   3.908   3.853   1.165 -0.8561  1.6041 -2.5195
37277SOL     OW14147   4.814   0.531   2.580 -0.0269 -0.3364 -0.1384
37277SOL    HW114148   4.762   0.454   2.557 -0.6662 -0.1082  0.5006
37277SOL    HW214149   4.841   0.516   2.670 -1.7947  1.0245  0.6970
37278SOL     OW14150   6.888   4.466   5.602  0.6032 -0.1115 -0.3853
37278SOL    HW114151   6.837   4.385   5.610  1.7283 -0.8995 -0.9859
37278SOL    HW214152   6.918   4.467   5.511  0.5979  1.0029 -0.3953
37279SOL     OW14153   6.156   6.199   8.572  0.2395 -0.3793 -0.4191
37279SOL    HW114154   6.199   6.245   8.645  2.0925 -1.8444 -0.5059
37279SOL    HW214155   6.064   6.223   8.579  0.9024  2.2677  0.3042
37280SOL     OW14156   1.987   8.396   7.035  0.0000  0.0749  0.1413
37280SOL    HW114157   1.958   8.419   7.123 -0.4191 -0.0863  0.0484
37280SOL    HW214158   2.045   8.320   7.047  1.8662  1.4746  0.5131
37281SOL     OW14159   3.115   5.394   9.428  0.4157 -0.1248  0.1121
37281SOL    HW114160   3.022   5.399   9.403  0.7675  0.0893 -1.1953
37281SOL    HW214161   3.133   5.300   9.431 -0.4926 -0.3350  3.0531
37282SOL     OW14162   3.500   0.057   5.081 -0.2978 -0.3048  0.1241
37282SOL    HW114163   3.500   0.067   4.986 -1.4983 -0.2990  0.1132
37282SOL    HW214164   3.414   0.020   5.101 -1.1981  2.2633  1.4545
37283SOL     OW14165   9.832   6.165   0.242  0.1835 -0.4935  0.1142
37283SOL    HW114166   9.869   6.111   0.172 -0.8300  1.0465 -1.7367
37283SOL    HW214167   9.809   6.103   0.311  1.8368 -2.0204 -0.6143
37284SOL     OW14168   3.853   2.564   9.635 -0.4394  0.0702  0.4325
37284SOL    HW114169   3.775   2.519   9.666 -0.8492  0.0427 -0.6030
37284SOL    HW214170   3.921   2.496   9.632 -0.2846  0.1555  1.5995
37285SOL     OW14171   9.060   7.588   9.065 -0.5961  0.2489 -0.4851
37285SOL    HW114172   9.059   7.494   9.084 -0.3158  0.0908 -1.2342
37285SOL    HW214173   9.016   7.628   9.140 -0.3907 -0.4471  0.0171
37286SOL     OW14174   0.167   8.131   2.327  0.4429 -0.0874 -0.4697
37286SOL    HW114175   0.119   8.197   2.278  0.5785 -0.5113 -1.1891
37286SOL    HW214176   0.105   8.099   2.392  0.7705  1.6509  0.7822
37287SOL     OW14177   4.892   2.217   5.214  0.1795 -0.3936 -0.1399
37287SOL    HW114178   4.873   2.174   5.131  0.3978  0.6230 -0.7234
37287SOL    HW214179   4.983   2.193   5.233  0.3460 -0.0849 -0.5357
37288SOL     OW14180   2.470   0.733   0.769  0.0848 -0.5233 -0.7439
37288SOL    HW114181   2.437   0.696   0.687 -0.9803  3.3658 -2.3007
37288SOL    HW214182   2.391   0.753   0.819  0.7066 -2.0871  0.9605
37289SOL     OW14183   8.773   3.595   7.352 -0.3833  0.3331 -0.3991
37289SOL    HW114184   8.795   3.526   7.415  0.2138  0.9183  0.0463
37289SOL    HW214185   8.679   3.587   7.340 -0.4005 -0.2157  0.0620
37290SOL     OW14186   3.143   5.198   8.453 -0.3161 -0.1864 -0.1267
37290SOL    HW114187   3.166   5.119   8.501  0.1607  0.1846  0.2650
37290SOL    HW214188   3.179   5.185   8.365 -0.4745 -0.5134 -0.1462
37291SOL     OW14189   2.869   4.545   4.541 -0.0564  0.0064 -0.4871
37291SOL    HW114190   2.910   4.459   4.550 -0.8088 -0.2511  0.7711
37291SOL    HW214191   2.803   4.534   4.473 -0.9038 -0.7260  0.4340
37292SOL     OW14192   7.915   7.392   2.387 -0.0025  0.1490  0.4708
37292SOL    HW114193   7.940   7.397   2.480 -1.1009  0.4156  0.7634
37292SOL    HW214194   7.827   7.353   2.388 -0.4184  1.0415 -0.3891
37293SOL     OW14195   9.264   9.670   4.438  0.3927 -0.1518  0.3534
37293SOL    HW114196   9.225   9.620   4.510 -0.8429  0.8117  0.3955
37293SOL    HW214197   9.261   9.761   4.468 -1.9494  0.5328 -1.6173
37294SOL     OW14198   7.610   5.216   6.077  0.3297 -0.2014  0.6155
37294SOL    HW114199   7.591   5.130   6.038  1.4127  0.1529 -0.7837
37294SOL    HW214200   7.534   5.269   6.056  0.3797 -0.3598 -0.0021
37295SOL     OW14201   3.762  10.196   7.991  0.8897  0.1399 -0.1428
37295SOL    HW114202   3.797  10.284   8.005  0.7526  0.2599 -0.5414
37295SOL    HW214203   3.687  10.191   8.050  0.2599  0.6756 -0.8838
37296SOL     OW14204   2.763   1.632   2.331  0.5794  0.2145  0.1965
37296SOL    HW114205   2.837   1.576   2.354 -0.5457 -1.0791  0.8080
37296SOL    HW214206   2.706   1.576   2.279  1.2754  1.9972 -2.6771
37297SOL     OW14207   7.407   2.148   3.043  0.3891 -0.1408  0.3522
37297SOL    HW114208   7.381   2.093   3.117  0.5800 -0.2218  0.3583
37297SOL    HW214209   7.467   2.212   3.080 -0.1957  0.3710  0.4377
37298SOL     OW14210   1.522   6.608   2.327  0.3804 -0.5446 -0.0288
37298SOL    HW114211   1.581   6.607   2.251 -1.5236  0.2617 -1.6312
37298SOL    HW214212   1.479   6.523   2.325  0.7322 -0.7342  0.4914
37299SOL     OW14213   7.944   3.163   1.674  0.2791 -0.5491 -0.4810
37299SOL    HW114214   8.027   3.137   1.635  1.2057  1.5479 -0.0847
37299SOL    HW214215   7.961   3.165   1.768 -0.4889 -0.9123 -0.3263
37300SOL     OW14216   7.098   1.032   4.551  0.1605  0.4278 -0.2878
37300SOL    HW114217   7.112   0.993   4.638 -0.8509 -0.6723 -0.5843
37300SOL    HW214218   7.114   0.960   4.490  0.8908  1.1968 -1.0358
37301SOL     OW14219   2.146   1.913   1.691  0.3480 -0.3590  0.4360
37301SOL    HW114220   2.089   1.905   1.767  0.7102 -0.8405  0.6651
37301SOL    HW214221   2.162   1.823   1.663 -0.6876 -0.1598 -0.9031
37302SOL     OW14222   2.278   7.775   6.010  0.5762  0.5716 -0.0497
37302SOL    HW114223   2.196   7.730   5.992  1.1141 -0.3726 -0.1603
37302SOL    HW214224   2.342   7.706   6.027  1.1205  1.3180  1.1024
37303SOL     OW14225   5.125  10.094   8.784 -0.5856  0.2069  0.3361
37303SOL    HW114226   5.080  10.028   8.837  0.3673 -0.0898  0.7872
37303SOL    HW214227   5.175  10.146   8.846  3.8407 -2.6444 -0.4078
37304SOL     OW14228   9.952   7.384   6.823 -0.0569  0.2496 -0.0232
37304SOL    HW114229   9.893   7.364   6.895 -0.4267  0.5560 -0.2399
37304SOL    HW214230   9.952   7.479   6.817 -0.5189  0.2080 -0.8352
37305SOL     OW14231  10.473   8.817   4.899  0.9223 -0.3026  0.7560
37305SOL    HW114232  10.393   8.779   4.865  1.1362  0.8594 -1.2379
37305SOL    HW214233  10.541   8.751   4.882  0.5504 -0.9447  1.6949
37306SOL     OW14234   9.667   9.422   3.548  0.0709  0.7522  0.1609
37306SOL    HW114235   9.661   9.327   3.548  2.6778  0.4847 -0.6490
37306SOL    HW214236   9.633   9.449   3.463 -1.6800  0.6888  0.8114
37307SOL     OW14237   0.977   9.686   5.019  0.4418  0.0279 -0.3595
37307SOL    HW114238   0.918   9.648   4.954  0.9940 -0.7016 -0.4423
37307SOL    HW214239   0.943   9.654   5.103  0.3493  0.1223 -0.3601
37308SOL     OW14240   2.304   7.260   7.789  0.1285  0.6362 -0.0964
37308SOL    HW114241   2.278   7.205   7.863 -0.0479  0.7747 -0.0553
37308SOL    HW214242   2.228   7.315   7.772  0.6668  1.6376  0.5665
37309SOL     OW14243   5.116   1.739   9.967 -0.4131 -0.5363  0.2964
37309SOL    HW114244   5.034   1.787   9.955  0.0032  0.2264  0.4746
37309SOL    HW214245   5.088   1.651   9.993 -1.1697 -0.2612  0.4462
37310SOL     OW14246   0.707   5.024   5.823 -0.1458  0.4640 -0.6142
37310SOL    HW114247   0.642   4.966   5.862 -0.2184  0.7124 -0.3694
37310SOL    HW214248   0.710   4.997   5.731  0.0318 -0.1248 -0.4416
37311SOL     OW14249   2.395   1.805  10.364  0.0405 -0.1128  0.7257
37311SOL    HW114250   2.456   1.754  10.418  1.3541 -0.2512 -0.8541
37311SOL    HW214251   2.444   1.881  10.335 -1.0636  0.6473  0.7721
37312SOL     OW14252   7.027   4.280   0.441  0.1214  0.0531  0.7385
37312SOL    HW114253   6.968   4.210   0.415 -2.7929  2.5536  0.0500
37312SOL    HW214254   7.089   4.287   0.367  0.2969 -1.5319  0.7006
37313SOL     OW14255   4.984   3.014   9.099  0.3612 -0.0504  0.3042
37313SOL    HW114256   4.959   2.964   9.176  0.8468 -0.1807  0.3857
37313SOL    HW214257   4.982   3.106   9.128  0.3203 -0.0847  0.4099
37314SOL     OW14258   9.513   2.949   1.332 -0.3709  0.5836 -0.5907
37314SOL    HW114259   9.594   2.981   1.292 -0.0820  2.1636  1.0989
37314SOL    HW214260   9.538   2.864   1.369  0.4511  0.8967 -0.3868
37315SOL     OW14261   7.086   2.803   7.732  0.0446 -0.0588  0.0800
37315SOL    HW114262   7.073   2.870   7.799  0.5352 -1.3817  1.5710
37315SOL    HW214263   7.174   2.820   7.699  0.4174 -0.3148  0.8990
37316SOL     OW14264   3.444   1.996  10.335 -0.1288 -0.8389 -0.1790
37316SOL    HW114265   3.462   2.020  10.244  0.8156 -1.4393 -0.1704
37316SOL    HW214266   3.521   1.944  10.361 -0.3295 -0.5637  0.9988
37317SOL     OW14267   5.816   9.978   2.215 -0.0574  0.3068 -0.6483
37317SOL    HW114268   5.856   9.899   2.249 -2.3003 -0.1506  1.1360
37317SOL    HW214269   5.852   9.986   2.126  0.4299 -2.5572 -0.8137
37318SOL     OW14270   0.316   9.369   9.367  0.4039  0.7184  0.0409
37318SOL    HW114271   0.346   9.343   9.454  0.2531 -2.6074 -0.7675
37318SOL    HW214272   0.234   9.416   9.383  0.2010 -0.0980  1.7010
37319SOL     OW14273   9.127   8.763   8.306  0.8794  0.1151  0.7461
37319SOL    HW114274   9.205   8.707   8.311 -0.6052 -2.0236  1.5900
37319SOL    HW214275   9.107   8.784   8.398 -0.3016 -0.5512  0.6631
37320SOL     OW14276   1.246   7.223  10.020  0.2754  0.0966  0.2718
37320SOL    HW114277   1.194   7.194  10.095 -1.1258  1.7178 -0.0119
37320SOL    HW214278   1.327   7.171  10.026  0.0513 -0.1152  2.6467
37321SOL     OW14279   3.541  10.479   5.774  0.7918 -0.5216  0.3542
37321SOL    HW114280   3.591  10.433   5.841  0.8380 -0.6980  0.1993
37321SOL    HW214281   3.528  10.414   5.704 -1.2537 -1.0926  1.1725
37322SOL     OW14282   4.210   3.180   9.455 -0.1900 -0.3067 -0.1410
37322SOL    HW114283   4.147   3.223   9.512  0.1709  0.1029 -0.0431
37322SOL    HW214284   4.228   3.096   9.498 -1.2588 -0.7736 -0.5822
37323SOL     OW14285   2.545   3.762   2.710  0.5043 -0.1628  0.4812
37323SOL    HW114286   2.461   3.731   2.676 -0.9537  1.5534  2.2559
37323SOL    HW214287   2.555   3.717   2.794  0.0249  1.4836  1.4796
37324SOL     OW14288   3.943   1.486   3.618 -0.0179  0.2227 -0.3103
37324SOL    HW114289   3.959   1.532   3.701 -1.1753  1.3931 -0.7136
37324SOL    HW214290   3.901   1.404   3.644 -1.1608  0.9559  0.2390
37325SOL     OW14291  10.561   2.873   0.736  0.6869  0.2895  0.4339
37325SOL    HW114292  10.594   2.851   0.824  0.5579 -1.4443  0.0716
37325SOL    HW214293  10.538   2.966   0.743  0.8111  0.2369  2.1986
37326SOL     OW14294   6.772   1.994   1.689 -0.9772 -0.0104 -0.4801
37326SOL    HW114295   6.813   1.908   1.693  0.3193  0.5377 -1.4176
37326SOL    HW214296   6.720   1.992   1.609  0.1571  0.5213 -1.2548
37327SOL     OW14297   3.790   5.393   0.632  0.3898  0.3311  0.5610
37327SOL    HW114298   3.843   5.345   0.568 -0.9780 -0.7252  0.1641
37327SOL    HW214299   3.742   5.457   0.580  0.1248  0.2405  0.6948
37328SOL     OW14300   4.741   2.339   4.472 -0.0331 -0.0385 -0.1974
37328SOL    HW114301   4.754   2.428   4.439  0.3718  0.0854  0.2848
37328SOL    HW214302   4.820   2.292   4.448  1.2195  0.5914  2.3192
37329SOL     OW14303   2.002   6.849   0.287 -0.3158 -0.0073  0.3839
37329SOL    HW114304   1.914   6.835   0.251 -0.8558  0.5187  1.4723
37329SOL    HW214305   2.043   6.911   0.226 -0.8308  0.0492  0.0893
37330SOL     OW14306   3.040   7.492   8.243 -0.1502  0.2785  0.4078
37330SOL    HW114307   2.986   7.517   8.168  0.6087  0.2875 -0.1444
37330SOL    HW214308   3.119   7.455   8.204  0.1323  0.0319  1.2082
37331SOL     OW14309   2.958   0.972   4.534  0.3716 -0.0453  0.2100
37331SOL    HW114310   2.891   1.034   4.506  1.1808 -0.9828 -4.7104
37331SOL    HW214311   3.039   1.023   4.534  0.6353 -0.4008 -1.2349
37332SOL     OW14312   6.939   0.848   6.550  0.0287  0.4031 -0.2306
37332SOL    HW114313   6.968   0.865   6.460  1.8459 -1.1262  0.0086
37332SOL    HW214314   7.000   0.898   6.604  0.9584 -1.1414  0.2149
37333SOL     OW14315   3.846   2.191   5.011  0.3163  0.4323 -0.2423
37333SOL    HW114316   3.879   2.153   5.092 -0.2234 -1.0913 -0.6877
37333SOL    HW214317   3.898   2.269   4.997  2.0641 -0.5842  0.3280
37334SOL     OW14318   8.176   2.574   7.528  0.4814  0.0154 -0.5352
37334SOL    HW114319   8.143   2.593   7.616  1.0333 -1.5240  0.0235
37334SOL    HW214320   8.266   2.608   7.528  0.9543 -1.1914 -0.0304
37335SOL     OW14321   7.459   8.670   9.117 -0.0506 -0.0167 -0.0211
37335SOL    HW114322   7.377   8.634   9.084 -0.3871 -0.3095  1.0943
37335SOL    HW214323   7.527   8.627   9.066 -0.5230 -1.0251  0.1752
37336SOL     OW14324   8.507   7.798   0.725  0.0760  0.3114  0.1990
37336SOL    HW114325   8.417   7.767   0.731 -1.0371  2.6971 -2.1768
37336SOL    HW214326   8.555   7.725   0.688 -0.9050 -0.9018  1.2161
37337SOL     OW14327   9.064   8.663   5.415  0.3466  1.0198 -0.7468
37337SOL    HW114328   9.030   8.575   5.432  0.8535  1.0861  0.7253
37337SOL    HW214329   8.996   8.705   5.361  0.4650 -0.5105 -2.1496
37338SOL     OW14330   8.418   9.809   7.281 -0.2275 -0.2350 -0.2015
37338SOL    HW114331   8.345   9.858   7.245  0.6972  1.2474 -0.1330
37338SOL    HW214332   8.381   9.724   7.304 -2.0902  0.7142  0.4951
37339SOL     OW14333   1.080   6.626   8.490  0.2552 -0.3317 -0.4336
37339SOL    HW114334   1.155   6.655   8.542 -0.7442  0.0539  0.8569
37339SOL    HW214335   1.111   6.547   8.446  1.9006  0.6742 -1.1954
37340SOL     OW14336   4.699   2.770   6.398 -0.0134 -0.2506  0.6875
37340SOL    HW114337   4.620   2.823   6.397 -0.2373 -0.5856 -0.4405
37340SOL    HW214338   4.703   2.731   6.311  1.5958  0.0657  0.5869
37341SOL     OW14339   6.651   3.732   2.763 -0.3354 -0.0958 -0.2099
37341SOL    HW114340   6.625   3.778   2.843  2.3178 -0.7718  1.1553
37341SOL    HW214341   6.577   3.674   2.744 -0.9006 -0.2343  2.0396
37342SOL     OW14342   2.189   7.495   2.081 -0.9078  0.6422  0.4336
37342SOL    HW114343   2.143   7.504   2.165 -3.7533  0.7658 -1.0398
37342SOL    HW214344   2.251   7.423   2.095 -1.7915  0.2017  2.4312
37343SOL     OW14345   4.716   8.714   7.964 -0.3471 -0.0056  0.4246
37343SOL    HW114346   4.712   8.624   7.996 -2.5372 -0.3676 -0.6531
37343SOL    HW214347   4.809   8.732   7.953  0.1698 -1.8531  1.4094
37344SOL     OW14348   9.672   5.335   5.994  0.4089  0.4126  0.0176
37344SOL    HW114349   9.666   5.426   6.024  1.3086  1.0354 -1.5541
37344SOL    HW214350   9.715   5.289   6.066  1.5871  1.6240  0.1365
37345SOL     OW14351   0.492   2.370   3.353 -0.2020 -0.1545 -0.0690
37345SOL    HW114352   0.407   2.334   3.331 -0.0326 -0.6297  0.0416
37345SOL    HW214353   0.473   2.452   3.399 -0.6431 -1.0167  1.3252
37346SOL     OW14354   8.824  10.136   4.004 -0.0996 -0.4128 -0.3435
37346SOL    HW114355   8.781  10.180   3.931  0.8182 -0.1774 -0.7546
37346SOL    HW214356   8.908  10.106   3.968  0.0242 -0.9874  0.3993
37347SOL     OW14357   0.311   2.270   4.921 -0.0025  0.1849  0.4131
37347SOL    HW114358   0.324   2.201   4.856 -1.4476  1.1241 -0.9192
37347SOL    HW214359   0.387   2.327   4.912  0.6001 -0.5498  0.6975
37348SOL     OW14360   8.053   3.263   5.362  0.0139 -0.3698 -0.0709
37348SOL    HW114361   8.014   3.192   5.310  0.7676 -0.9854  0.1846
37348SOL    HW214362   8.074   3.223   5.446 -0.2659  0.3643  0.3590
37349SOL     OW14363   2.991   7.959   2.762  0.1300 -0.6203  0.1010
37349SOL    HW114364   3.076   8.003   2.761  0.0662 -0.4385 -1.9062
37349SOL    HW214365   2.986   7.919   2.849  1.2040  1.3618  1.1440
37350SOL     OW14366   5.984   5.347   7.609  0.1547  0.1227  0.3223
37350SOL    HW114367   5.960   5.413   7.543  0.1822  0.5553  0.7370
37350SOL    HW214368   5.931   5.369   7.685  0.1779 -0.3325  0.4721
37351SOL     OW14369   2.600  10.285   4.616  0.0401  0.1352  0.8219
37351SOL    HW114370   2.636  10.355   4.561  1.9906 -0.6982  0.9883
37351SOL    HW214371   2.509  10.311   4.630 -0.6637  0.2869 -2.9843
37352SOL     OW14372   0.764   2.336   9.700  0.1532 -0.5281 -0.3168
37352SOL    HW114373   0.698   2.399   9.726 -0.0524 -1.1994  0.8564
37352SOL    HW214374   0.729   2.296   9.620 -0.2017  0.0978 -0.4748
37353SOL     OW14375   7.787   3.807   9.620 -0.1870 -1.0769 -0.2990
37353SOL    HW114376   7.801   3.730   9.676  0.3631 -0.6697  0.1469
37353SOL    HW214377   7.692   3.819   9.619 -0.2088 -1.0630  0.6100
37354SOL     OW14378  10.405   7.174   1.006  0.0941  0.4454 -0.2119
37354SOL    HW114379  10.367   7.116   1.072 -1.2141 -0.7838 -1.9404
37354SOL    HW214380  10.498   7.176   1.027  0.0687 -1.7448  0.3552
37355SOL     OW14381   7.520   9.403   6.867  0.7855  0.0810  0.2723
37355SOL    HW114382   7.501   9.364   6.782 -0.2949 -1.3937  1.1238
37355SOL    HW214383   7.437   9.444   6.893  1.2764  1.0258  0.3545
37356SOL     OW14384   8.897   1.604   9.286 -0.5539  0.6177  0.5262
37356SOL    HW114385   8.871   1.690   9.321 -1.7752 -0.0718  1.3948
37356SOL    HW214386   8.868   1.605   9.195 -0.4185  1.1742  0.4829
37357SOL     OW14387   4.163   4.837   0.176  0.8745 -0.0702 -0.4537
37357SOL    HW114388   4.088   4.846   0.235  0.2611 -1.0934 -1.0443
37357SOL    HW214389   4.237   4.821   0.234  0.9805  2.5901  0.2502
37358SOL     OW14390   2.206   0.838  10.155 -0.0436  0.4707 -0.1281
37358SOL    HW114391   2.265   0.896  10.202 -0.9355  1.1992  0.1255
37358SOL    HW214392   2.118   0.867  10.180 -0.5200 -0.5668 -0.5086
37359SOL     OW14393   6.917   6.941   3.342 -0.1731  0.4839  0.8329
37359SOL    HW114394   6.993   6.943   3.401 -0.0471  1.9434  0.6540
37359SOL    HW214395   6.937   7.005   3.274 -1.1984  0.2659  0.3040
37360SOL     OW14396   0.464   8.582   2.592 -0.3436  0.3445 -0.2018
37360SOL    HW114397   0.408   8.593   2.516  0.6380  0.9979 -0.8594
37360SOL    HW214398   0.548   8.554   2.556  0.2014  0.8763  0.6150
37361SOL     OW14399   0.970   3.283   2.873 -0.3975 -0.1726 -0.3814
37361SOL    HW114400   0.972   3.328   2.788 -2.8488 -1.7727 -1.3752
37361SOL    HW214401   0.891   3.229   2.870  0.1610 -1.2993  2.4286
37362SOL     OW14402   8.059   4.184   9.964 -0.2535 -0.1508  0.4915
37362SOL    HW114403   8.103   4.099   9.969  0.0685 -0.0048  0.1853
37362SOL    HW214404   8.129   4.248   9.979 -0.5193  0.0551  0.8461
37363SOL     OW14405   5.758   8.480   1.727  0.3726  0.1295 -0.2326
37363SOL    HW114406   5.797   8.416   1.668  0.3220 -0.0570 -0.0642
37363SOL    HW214407   5.697   8.529   1.673  2.4007  1.9007 -1.0540
37364SOL     OW14408   2.999   7.677  10.527  0.3654 -0.0770  0.0939
37364SOL    HW114409   3.036   7.685  10.439  0.2296 -1.1824 -0.0825
37364SOL    HW214410   3.016   7.586  10.551 -1.3930 -0.3633  0.3858
37365SOL     OW14411   6.665   2.256   8.472  0.2709 -0.4499  0.6934
37365SOL    HW114412   6.573   2.282   8.475 -0.7065 -3.2414 -0.6602
37365SOL    HW214413   6.704   2.312   8.405 -0.9676 -0.5092 -0.1093
37366SOL     OW14414   7.510   8.157   4.873  0.3029 -0.1849  0.5261
37366SOL    HW114415   7.578   8.162   4.805 -0.8890 -1.3673 -0.8049
37366SOL    HW214416   7.557   8.175   4.955  2.5931 -2.6314 -0.1205
37367SOL     OW14417   4.710   1.494   7.092 -0.2336 -0.2154  0.0888
37367SOL    HW114418   4.745   1.408   7.069 -0.6875 -0.4823  0.3796
37367SOL    HW214419   4.750   1.553   7.029  0.7329 -0.5054  0.4031
37368SOL     OW14420   1.281   8.151   8.076 -0.0369 -0.1348 -0.5211
37368SOL    HW114421   1.265   8.130   7.984  0.6542 -2.6959 -0.1252
37368SOL    HW214422   1.376   8.146   8.086 -0.1200 -0.0281  0.3707
37369SOL     OW14423   8.252   3.412   5.955  0.2270 -0.3819  0.2684
37369SOL    HW114424   8.286   3.497   5.983 -0.5360 -0.3691  1.2108
37369SOL    HW214425   8.179   3.434   5.897 -0.3070 -0.3669  0.9256
37370SOL     OW14426   8.160   7.972   6.831 -0.4648  0.7742 -0.0622
37370SOL    HW114427   8.070   8.005   6.825 -0.5579  0.8215  1.1690
37370SOL    HW214428   8.158   7.914   6.907  0.3546  0.1173 -0.5356
37371SOL     OW14429   0.776   5.691   4.627  0.5554 -0.1248 -0.0521
37371SOL    HW114430   0.846   5.678   4.691  0.7394 -1.0540 -0.4265
37371SOL    HW214431   0.725   5.764   4.662 -0.5061 -1.8134  2.2101
37372SOL     OW14432   5.784   0.955   4.460 -0.7386 -0.3680  0.3471
37372SOL    HW114433   5.852   0.944   4.527 -0.9296 -0.2785  0.5549
37372SOL    HW214434   5.833   0.962   4.378 -0.5756 -2.3894  0.2249
37373SOL     OW14435   0.632   2.846   1.911 -0.2834 -0.2380 -0.2584
37373SOL    HW114436   0.671   2.769   1.869  0.3976  0.6825 -1.3427
37373SOL    HW214437   0.702   2.911   1.914 -1.0274  0.5731  0.0776
37374SOL     OW14438   1.384   4.047   5.281  0.5035 -0.8166  0.6493
37374SOL    HW114439   1.292   4.052   5.307  0.3403 -1.5665  0.2102
37374SOL    HW214440   1.417   3.967   5.323  0.0089 -2.5937 -2.0912
37375SOL     OW14441   0.588  10.049   8.385 -0.0837  0.2231  0.2829
37375SOL    HW114442   0.545  10.038   8.470 -1.2925 -1.0430 -0.4581
37375SOL    HW214443   0.671  10.091   8.406  0.5468 -1.8714  2.3271
37376SOL     OW14444   8.406   1.386   6.999  0.2362 -0.6571 -0.2697
37376SOL    HW114445   8.467   1.399   7.072 -0.6374  0.2653  0.3314
37376SOL    HW214446   8.461   1.391   6.921  0.9270  0.2608  0.2467
37377SOL     OW14447   0.030   1.956   3.494  0.1504  0.1842  0.1313
37377SOL    HW114448   0.002   1.921   3.578  1.5070 -3.5888 -0.7705
37377SOL    HW214449   0.119   1.989   3.509 -0.4443  1.6487  0.5912
37378SOL     OW14450   1.484   9.731  10.192  0.0767  0.0212  0.2783
37378SOL    HW114451   1.545   9.661  10.215  0.5580  0.4160  0.2329
37378SOL    HW214452   1.414   9.725  10.256  0.3494 -0.2129  0.5533
37379SOL     OW14453   7.262   1.296   7.828  0.0948 -0.0473 -0.3774
37379SOL    HW114454   7.218   1.359   7.771 -0.3940  1.6547  1.7537
37379SOL    HW214455   7.356   1.310   7.811  0.0263  1.8730  0.6202
37380SOL     OW14456   0.378   7.495   6.894 -0.3683  0.2058  0.0720
37380SOL    HW114457   0.347   7.584   6.906  0.1541  0.5258 -0.8338
37380SOL    HW214458   0.467   7.496   6.929  0.4195  0.6199 -1.8157
37381SOL     OW14459   1.241   5.435   7.658 -0.1894  0.1716  0.3392
37381SOL    HW114460   1.153   5.431   7.621 -0.3382 -0.4033  0.7442
37381SOL    HW214461   1.278   5.348   7.643  0.0525  0.1896  0.7996
37382SOL     OW14462   5.980   5.592   4.006 -0.0846 -0.2421 -0.0599
37382SOL    HW114463   6.037   5.522   3.977  3.3341  2.3524 -0.1410
37382SOL    HW214464   5.967   5.647   3.929 -0.0377  0.9171  0.7379
37383SOL     OW14465   2.239   2.060   7.247  0.2057  0.1261  0.0233
37383SOL    HW114466   2.264   2.137   7.298 -2.4383  0.7663  0.4645
37383SOL    HW214467   2.153   2.081   7.211 -0.1824 -2.2502 -0.6359
37384SOL     OW14468   2.807   3.784   5.705 -0.5837  0.0644  0.0490
37384SOL    HW114469   2.801   3.873   5.672 -1.5307 -0.1321 -0.3221
37384SOL    HW214470   2.856   3.737   5.638  2.5058  0.8871  1.5111
37385SOL     OW14471   4.443   3.371   9.563  0.3521 -0.2195 -0.2479
37385SOL    HW114472   4.459   3.278   9.548 -0.0297 -0.3537  0.1350
37385SOL    HW214473   4.529   3.412   9.561  0.4078 -0.3687 -1.7961
37386SOL     OW14474   3.566   9.097   4.332  0.2328 -0.6273  0.3821
37386SOL    HW114475   3.579   9.041   4.408  1.4111  1.3591  1.7458
37386SOL    HW214476   3.654   9.129   4.310 -0.4116  0.9118 -0.1166
37387SOL     OW14477   9.610   9.792  10.594 -0.5270  0.2614 -0.1205
37387SOL    HW114478   9.595   9.739  10.516 -1.4128 -0.1542  0.3162
37387SOL    HW214479   9.686   9.846  10.573  1.2860 -2.1453 -0.0834
37388SOL     OW14480   0.317   4.319   2.704 -0.1635 -0.0562 -0.1907
37388SOL    HW114481   0.280   4.247   2.754 -1.9089  1.2569  0.4923
37388SOL    HW214482   0.288   4.398   2.749  0.7669  1.1265 -1.5472
37389SOL     OW14483   8.110   1.048   7.659 -0.1212  0.1354  0.1966
37389SOL    HW114484   8.114   1.103   7.581 -1.5421  1.2525  0.8726
37389SOL    HW214485   8.164   0.972   7.637 -0.8290  0.2037 -2.0281
37390SOL     OW14486   3.129   4.112   2.710 -0.4305  0.5584 -0.0987
37390SOL    HW114487   3.170   4.138   2.793 -1.5277 -0.8877  0.9485
37390SOL    HW214488   3.182   4.155   2.643  2.2936 -0.5184  1.2020
37391SOL     OW14489   7.920   2.931   1.936  0.4132  0.0390 -0.0242
37391SOL    HW114490   7.894   3.023   1.929 -1.6074 -0.4085  0.8075
37391SOL    HW214491   8.011   2.935   1.966  0.2851  1.7736  0.2786
37392SOL     OW14492   1.763   8.704   4.409  0.6104 -0.4247  0.1713
37392SOL    HW114493   1.800   8.678   4.325  0.4226  0.1260 -0.0841
37392SOL    HW214494   1.673   8.728   4.389  0.7752  0.4066  0.4070
37393SOL     OW14495   8.997   2.816   7.518 -0.2527 -0.5282 -0.6306
37393SOL    HW114496   8.937   2.788   7.587 -2.0687 -0.1543 -1.9805
37393SOL    HW214497   9.008   2.910   7.532  0.8683 -0.7579  0.2012
37394SOL     OW14498   2.775  10.240   0.121  0.4592 -0.3470  0.4207
37394SOL    HW114499   2.809  10.150   0.124  1.6434  0.1004  0.8137
37394SOL    HW214500   2.732  10.252   0.206 -0.9950 -1.0191 -0.1970
37395SOL     OW14501   3.962  10.110   9.203 -0.1497  0.2545 -0.5614
37395SOL    HW114502   4.056  10.092   9.202 -0.2758 -0.8138  1.0662
37395SOL    HW214503   3.930  10.079   9.119  1.1934  2.4098 -1.9566
37396SOL     OW14504   8.467   0.504   4.926 -0.6496 -0.2462  0.2450
37396SOL    HW114505   8.460   0.599   4.924 -0.0863 -0.1624  1.3486
37396SOL    HW214506   8.452   0.476   4.836  1.1169  1.0185 -0.4757
37397SOL     OW14507   1.277   7.425   1.996  0.5784  0.4163  0.4904
37397SOL    HW114508   1.222   7.373   2.054  0.0484  1.0392  0.5564
37397SOL    HW214509   1.215   7.469   1.938  1.0261  0.8691  0.3508
37398SOL     OW14510   8.708   1.164   6.746 -0.3970 -0.3291  0.1051
37398SOL    HW114511   8.709   1.069   6.759  0.3479 -0.2875  0.4375
37398SOL    HW214512   8.785   1.181   6.691  0.3695  0.2310  1.2985
37399SOL     OW14513   6.504   6.393   5.936 -0.0236  0.2297 -0.4554
37399SOL    HW114514   6.525   6.476   5.979  1.6298  0.1811 -1.1043
37399SOL    HW214515   6.490   6.332   6.009  0.0751  0.7671  0.0266
37400SOL     OW14516   9.124   3.152   9.051  0.2882  0.2494  0.2473
37400SOL    HW114517   9.116   3.083   9.117  1.6356 -0.3101 -0.1221
37400SOL    HW214518   9.077   3.118   8.975  1.4940 -0.6070 -0.1558
37401SOL     OW14519   8.711  10.283   2.958  0.9211 -0.2303 -0.2284
37401SOL    HW114520   8.795  10.326   2.945  0.5611  0.3327 -0.7919
37401SOL    HW214521   8.664  10.297   2.876  0.1189 -0.1655  0.2252
37402SOL     OW14522   4.258   3.674   5.863 -0.0941  0.1249  0.4610
37402SOL    HW114523   4.324   3.730   5.904  0.1328 -0.4232  0.8611
37402SOL    HW214524   4.216   3.629   5.937  1.1494 -1.8092  0.0546
37403SOL     OW14525   0.938   5.282   3.365  0.2517  0.2078  0.0613
37403SOL    HW114526   0.892   5.223   3.306  1.5294 -0.4148 -0.3627
37403SOL    HW214527   1.001   5.328   3.308  0.7326  0.4125  0.7417
37404SOL     OW14528   0.755   6.692   8.316 -0.2048  0.6392  0.0700
37404SOL    HW114529   0.722   6.689   8.227 -0.9380  1.0275  0.3154
37404SOL    HW214530   0.834   6.745   8.312  0.2251 -0.0348 -0.4794
37405SOL     OW14531   3.868   4.706   0.781  0.5279  0.3080 -0.2537
37405SOL    HW114532   3.865   4.744   0.694 -2.1554 -0.2414 -0.4705
37405SOL    HW214533   3.803   4.755   0.831  1.5183  0.1405  1.2766
37406SOL     OW14534   3.283   9.621   8.571 -0.6452 -0.6774  0.0377
37406SOL    HW114535   3.244   9.679   8.506  2.1751  2.7367  1.0387
37406SOL    HW214536   3.222   9.621   8.644 -2.3082 -1.9183 -1.2768
37407SOL     OW14537   1.226   5.804   1.080  0.3815 -0.6145 -0.0653
37407SOL    HW114538   1.257   5.894   1.090  1.6970 -0.9105 -1.2539
37407SOL    HW214539   1.193   5.781   1.167  0.2073  0.9343  0.3122
37408SOL     OW14540   2.563   9.764   6.304  0.1796 -0.5691  0.7863
37408SOL    HW114541   2.533   9.709   6.376  2.6778 -0.8275  1.7474
37408SOL    HW214542   2.597   9.843   6.346  1.8596 -0.8045 -0.0092
37409SOL     OW14543   8.632   0.396   5.935  0.6505  0.8417  0.1840
37409SOL    HW114544   8.589   0.417   5.852  2.2710  1.3527 -0.5652
37409SOL    HW214545   8.635   0.479   5.982  1.6639  1.0432 -0.2015
37410SOL     OW14546   4.763   9.737   6.595  0.3132  0.6631 -0.4372
37410SOL    HW114547   4.784   9.707   6.684  2.8853  0.0871 -1.1557
37410SOL    HW214548   4.697   9.674   6.564  0.2656  0.1554  0.6328
37411SOL     OW14549   9.976   9.096   0.927 -0.3067 -0.6278  0.0513
37411SOL    HW114550   9.927   9.027   0.883 -0.0053  0.5164 -2.2400
37411SOL    HW214551   9.954   9.176   0.879  1.1867  0.4804  1.0892
37412SOL     OW14552   9.568   1.239   5.843 -0.2849  0.3477 -0.1779
37412SOL    HW114553   9.536   1.270   5.928  0.4209  0.1772  0.1591
37412SOL    HW214554   9.497   1.186   5.808 -0.9420  1.1537 -0.1048
37413SOL     OW14555   0.845   9.080   8.331 -0.0141 -0.3032 -0.6118
37413SOL    HW114556   0.904   9.020   8.285 -0.2666 -1.5953  0.6490
37413SOL    HW214557   0.759   9.065   8.292  0.1010 -0.0166 -0.9783
37414SOL     OW14558   3.943   3.289   4.212  0.3083  0.0619  0.1828
37414SOL    HW114559   3.891   3.288   4.292 -0.2103 -0.1241 -0.1551
37414SOL    HW214560   4.028   3.323   4.240 -0.0213  0.4701  0.7185
37415SOL     OW14561   0.151   0.392   3.504 -0.1258  0.4134 -0.5110
37415SOL    HW114562   0.090   0.363   3.572  0.9028 -0.6337 -0.0038
37415SOL    HW214563   0.109   0.366   3.422 -1.2333  1.4082 -0.2880
37416SOL     OW14564   0.423   0.216   8.578  0.1183  0.1647 -0.2002
37416SOL    HW114565   0.436   0.193   8.486 -1.0357 -0.5231 -0.2098
37416SOL    HW214566   0.328   0.229   8.587  0.3708  1.6680  0.5757
37417SOL     OW14567   5.426   9.592   8.416  0.7031  0.2625  0.0108
37417SOL    HW114568   5.380   9.508   8.422  0.3005  0.6012  3.1841
37417SOL    HW214569   5.423   9.614   8.323 -2.5854 -1.3544 -0.4139
37418SOL     OW14570   7.138   9.179   2.782 -0.5700  0.0315 -0.0807
37418SOL    HW114571   7.183   9.102   2.816 -1.5919 -1.1087 -1.1976
37418SOL    HW214572   7.197   9.252   2.801  1.5204 -1.3162 -1.0200
37419SOL     OW14573   4.142   7.330   3.308 -0.5561  0.2871 -0.4036
37419SOL    HW114574   4.112   7.246   3.273 -0.8760  0.5088 -0.6708
37419SOL    HW214575   4.123   7.326   3.401  1.6507 -0.9005  0.0622
37420SOL     OW14576   9.327   8.326   2.339 -0.1975 -0.2583 -0.3169
37420SOL    HW114577   9.271   8.259   2.300  0.3097  0.5550 -2.6304
37420SOL    HW214578   9.408   8.322   2.288 -0.1791  2.1275 -0.5980
37421SOL     OW14579   7.744   0.047   6.332 -0.2683 -1.0314  0.0758
37421SOL    HW114580   7.660   0.092   6.329  0.7796  1.0016 -1.0990
37421SOL    HW214581   7.788   0.083   6.409 -0.4495 -2.1263  0.7168
37422SOL     OW14582   3.845   6.763   8.617  0.1195  0.5056 -0.2879
37422SOL    HW114583   3.889   6.847   8.627 -0.0824  0.4637  1.1336
37422SOL    HW214584   3.812   6.742   8.705 -2.9184  0.6296 -1.2743
37423SOL     OW14585   3.745   7.891   1.905 -0.1886 -0.1331 -0.2824
37423SOL    HW114586   3.814   7.929   1.852  1.3202  0.2525  1.8495
37423SOL    HW214587   3.786   7.871   1.989 -2.2934 -1.3331  0.5629
37424SOL     OW14588   9.748   8.629   9.429  0.2114  0.0030  0.3011
37424SOL    HW114589   9.794   8.566   9.374  0.5997 -0.3427  0.9995
37424SOL    HW214590   9.695   8.681   9.368 -1.0418 -1.7491 -0.1864
37425SOL     OW14591   2.177   9.360   0.940  0.3356 -0.3070 -0.0971
37425SOL    HW114592   2.134   9.300   1.002  0.1307  0.6806  0.7528
37425SOL    HW214593   2.252   9.310   0.908 -0.5214 -1.4762 -0.3879
37426SOL     OW14594   9.860   5.590   2.754  0.2353 -0.0371  0.1170
37426SOL    HW114595   9.809   5.659   2.714 -0.3296 -1.4679 -1.7806
37426SOL    HW214596   9.899   5.542   2.681  1.8878 -0.8055  1.4038
37427SOL     OW14597   9.893   9.778   5.487 -0.3758  0.3467 -0.0632
37427SOL    HW114598   9.866   9.687   5.499  0.8044  0.0868  0.8011
37427SOL    HW214599   9.813   9.829   5.498 -0.4843 -0.3179  3.1451
37428SOL     OW14600   9.632   0.583   6.848 -0.0659 -0.2558  0.0253
37428SOL    HW114601   9.658   0.607   6.937  2.4930 -0.9894 -0.4231
37428SOL    HW214602   9.617   0.489   6.852  1.8979 -0.6433 -0.6297
37429SOL     OW14603   3.849   5.785   3.424 -0.5653  0.1667  0.9483
37429SOL    HW114604   3.781   5.828   3.477 -1.0576  1.0388 -0.3426
37429SOL    HW214605   3.801   5.747   3.350  0.3733  1.2126 -0.2431
37430SOL     OW14606   3.904   9.617   7.909  0.1142  0.0689 -0.6554
37430SOL    HW114607   3.875   9.682   7.845  2.8426  1.7149 -0.3814
37430SOL    HW214608   3.885   9.657   7.994  0.6955 -0.0489 -0.4687
37431SOL     OW14609   8.701   4.026   5.311 -0.0788  0.2005 -0.0449
37431SOL    HW114610   8.625   3.980   5.274 -1.3809  1.0781  1.4214
37431SOL    HW214611   8.750   3.957   5.357 -1.0178 -0.0785  0.5760
37432SOL     OW14612   9.602   3.946   6.956 -0.1056 -0.5043 -0.2273
37432SOL    HW114613   9.662   3.930   7.029  0.3783  0.3802 -0.4199
37432SOL    HW214614   9.526   3.892   6.975 -0.0399 -0.1874  0.9955
37433SOL     OW14615   6.018   5.831   6.574  0.1270 -0.1823 -0.0745
37433SOL    HW114616   6.106   5.861   6.598 -0.1412  0.6193 -0.0668
37433SOL    HW214617   5.975   5.908   6.537  0.0742 -1.0511 -1.9243
37434SOL     OW14618   6.828   3.289   3.231  0.2085  0.2504 -0.1377
37434SOL    HW114619   6.815   3.373   3.187 -1.0658  0.3113  0.3023
37434SOL    HW214620   6.879   3.237   3.169  0.4233  1.1110 -0.7026
37435SOL     OW14621   9.760   3.232   1.293 -0.0314  0.4045 -0.4870
37435SOL    HW114622   9.825   3.267   1.232  0.5202  1.9449  0.9120
37435SOL    HW214623   9.677   3.272   1.266 -0.3004 -0.9263 -1.7652
37436SOL     OW14624   6.765   0.623   2.708  0.4743 -0.1666 -0.0083
37436SOL    HW114625   6.799   0.586   2.626  1.5203 -0.1129  0.3920
37436SOL    HW214626   6.728   0.548   2.754  0.0702 -0.2323 -0.4358
37437SOL     OW14627   1.202   8.872   4.254 -0.0933  0.1841 -0.7350
37437SOL    HW114628   1.161   8.912   4.331  1.3819 -0.5859  0.5308
37437SOL    HW214629   1.256   8.941   4.216 -1.0807  0.6610 -1.2827
37438SOL     OW14630  10.051   8.013   7.023  0.4030  0.4698 -0.0874
37438SOL    HW114631  10.027   8.104   7.037 -0.7546 -0.0047  1.1817
37438SOL    HW214632  10.134   8.002   7.069 -0.5884  0.3412  1.7375
37439SOL     OW14633   7.875   5.136   2.429  0.0808 -0.0215 -0.2312
37439SOL    HW114634   7.848   5.178   2.347 -0.0817 -0.6806 -0.5185
37439SOL    HW214635   7.797   5.090   2.459  0.5982 -1.1766 -0.5898
37440SOL     OW14636   1.394   5.403   0.443 -0.1826  0.2245 -0.4789
37440SOL    HW114637   1.305   5.436   0.431 -0.5818 -0.8504 -0.5308
37440SOL    HW214638   1.394   5.364   0.530  0.3321  0.4915 -0.3536
37441SOL     OW14639   2.867   8.935   5.965  0.2138 -0.1545  0.1989
37441SOL    HW114640   2.857   9.012   5.910  1.5816 -0.3739 -0.4159
37441SOL    HW214641   2.958   8.908   5.952 -0.2455 -1.9147  0.3397
37442SOL     OW14642   2.581   9.577   2.348  0.3045 -0.3462 -0.5393
37442SOL    HW114643   2.663   9.575   2.398 -0.8042  0.2418  1.4113
37442SOL    HW214644   2.535   9.497   2.374 -0.3830  0.0752 -0.4474
37443SOL     OW14645   6.090   3.885   8.854  0.0055 -0.4925 -0.6686
37443SOL    HW114646   6.065   3.804   8.810  0.2207 -0.4029 -0.9569
37443SOL    HW214647   6.014   3.943   8.844 -0.0195 -0.5403 -0.7539
37444SOL     OW14648   3.229   1.835   1.384 -0.5941 -0.5468  0.1357
37444SOL    HW114649   3.213   1.793   1.469  0.8523 -0.8964  0.2481
37444SOL    HW214650   3.317   1.871   1.391 -1.6203  2.2576 -0.0869
37445SOL     OW14651   8.182   2.828   6.937  0.3602 -0.3582  0.1705
37445SOL    HW114652   8.223   2.880   7.006  1.7696  2.2511 -2.4628
37445SOL    HW214653   8.089   2.851   6.942  0.1134 -1.4502  2.0871
37446SOL     OW14654   7.759   9.728   7.939 -0.1430  0.1065 -0.0441
37446SOL    HW114655   7.733   9.784   7.866 -0.8109  0.1916  0.2576
37446SOL    HW214656   7.737   9.778   8.017  1.8961  0.6370  0.2436
37447SOL     OW14657   8.386   9.144   3.555 -0.2142  0.6187  0.4466
37447SOL    HW114658   8.391   9.190   3.472 -2.1911 -0.8497 -0.5696
37447SOL    HW214659   8.398   9.211   3.621  0.4801  1.9739 -1.0005
37448SOL     OW14660  10.459   4.275   9.171  0.5608  0.0793  0.6025
37448SOL    HW114661  10.535   4.310   9.218  0.0925 -0.0472  1.4735
37448SOL    HW214662  10.386   4.284   9.232  0.0450 -0.6253  0.1171
37449SOL     OW14663   6.425   3.351   8.368  0.0913 -0.0257 -0.2297
37449SOL    HW114664   6.436   3.288   8.297 -0.8835 -0.3067 -0.1370
37449SOL    HW214665   6.341   3.329   8.409  0.7187  0.0181  1.1396
37450SOL     OW14666   1.586   9.300   1.975  0.2139  0.5695  0.2519
37450SOL    HW114667   1.494   9.272   1.967  0.5698 -0.5666 -0.0304
37450SOL    HW214668   1.593   9.333   2.064  0.6593 -3.9245  2.1336
37451SOL     OW14669   4.285   8.336   1.888  0.0532 -0.5346 -0.2686
37451SOL    HW114670   4.316   8.392   1.816  2.7276 -2.3413 -0.6807
37451SOL    HW214671   4.361   8.282   1.910 -0.5666 -0.0088  4.0825
37452SOL     OW14672   8.520   2.076   4.445  0.3027  0.4164 -0.5384
37452SOL    HW114673   8.450   2.042   4.390 -0.7725  1.4700  0.1510
37452SOL    HW214674   8.600   2.061   4.393 -0.6029  0.7791 -2.1015
37453SOL     OW14675   8.519   8.617   9.885 -0.4503 -0.1328  0.7161
37453SOL    HW114676   8.505   8.650   9.974 -0.7282  1.6843  0.0288
37453SOL    HW214677   8.461   8.670   9.831  0.8296 -0.1855 -0.7504
37454SOL     OW14678   8.796  10.574   7.555  0.5091  0.5146 -0.1435
37454SOL    HW114679   8.729  10.629   7.515  0.6458  1.0042  0.2917
37454SOL    HW214680   8.759  10.548   7.639 -0.4152 -1.7600 -1.1704
37455SOL     OW14681   0.402   1.757   1.833 -0.0930  0.1513 -0.5690
37455SOL    HW114682   0.323   1.704   1.843 -0.1356  0.4924  1.3733
37455SOL    HW214683   0.461   1.724   1.901  0.0982  2.1709  0.3134
37456SOL     OW14684   3.321   3.569   1.552  0.1129  0.0110  0.2854
37456SOL    HW114685   3.258   3.627   1.594 -0.6723 -0.1612 -0.6086
37456SOL    HW214686   3.289   3.561   1.462  1.1469 -0.4735 -0.0465
37457SOL     OW14687   8.267   4.746   0.878  0.6394 -0.0037 -0.2780
37457SOL    HW114688   8.362   4.743   0.878  0.7041 -1.7490 -3.4497
37457SOL    HW214689   8.246   4.839   0.867  2.1970  0.1319 -3.3045
37458SOL     OW14690   8.502   5.410   1.446 -0.0831  0.2517 -0.4037
37458SOL    HW114691   8.576   5.471   1.446 -0.5938  0.8973  0.4149
37458SOL    HW214692   8.447   5.440   1.519 -1.9650  0.7850 -1.9497
37459SOL     OW14693   6.656   9.530   5.187 -0.3707 -0.0474  0.1528
37459SOL    HW114694   6.614   9.453   5.225  1.0604 -0.7716  0.3356
37459SOL    HW214695   6.620   9.535   5.098 -0.8694 -0.6259  0.3170
37460SOL     OW14696   8.291   1.441   0.098  0.7084  0.0291 -0.7276
37460SOL    HW114697   8.245   1.363   0.068 -0.4951 -0.1222  1.3342
37460SOL    HW214698   8.362   1.453   0.035  1.0649 -2.8288 -0.9723
37461SOL     OW14699   1.584   2.211  10.366 -0.3749  0.2324  0.1228
37461SOL    HW114700   1.642   2.286  10.349 -0.9196  0.1888 -2.2372
37461SOL    HW214701   1.617   2.142  10.308 -1.0234 -0.7553  0.9078
37462SOL     OW14702  10.565   2.779   6.011  0.5718 -0.1046 -0.0305
37462SOL    HW114703  10.601   2.868   6.012 -1.8325  0.9481 -0.7193
37462SOL    HW214704  10.530   2.769   5.923  1.1393 -1.9228 -0.0804
37463SOL     OW14705   4.223   7.348   4.513 -0.0320  0.2770 -0.2104
37463SOL    HW114706   4.189   7.415   4.572  1.0813 -0.6319  1.5698
37463SOL    HW214707   4.192   7.373   4.426 -2.4693  1.2307  0.8552
37464SOL     OW14708   3.103   9.684   8.792 -0.1822 -0.2846  0.2297
37464SOL    HW114709   3.008   9.686   8.784 -0.1445 -0.3184 -0.3022
37464SOL    HW214710   3.126   9.768   8.831 -0.4376 -0.3073  0.4265
37465SOL     OW14711   1.970   3.558   1.939 -0.3384 -0.7522  0.1912
37465SOL    HW114712   2.003   3.477   1.978 -0.0975 -1.5210 -1.5030
37465SOL    HW214713   2.045   3.618   1.942 -0.0529 -1.0997  0.0923
37466SOL     OW14714   6.423   1.054   4.791 -0.2080  0.2169 -0.4562
37466SOL    HW114715   6.375   1.050   4.874  0.6409  0.8742  0.0898
37466SOL    HW214716   6.507   1.092   4.814 -0.7691  2.6131 -1.9636
37467SOL     OW14717   4.307   0.321   0.249  0.2772 -0.2940 -0.4188
37467SOL    HW114718   4.245   0.344   0.180  0.6383  1.5661 -0.1791
37467SOL    HW214719   4.270   0.243   0.290 -1.7175  0.5278 -0.5511
37468SOL     OW14720   3.344   2.776   9.968  0.2615 -0.1712 -0.3524
37468SOL    HW114721   3.308   2.700   9.921  1.2069 -0.0619 -1.2959
37468SOL    HW214722   3.359   2.841   9.899 -0.9588  1.0532  0.5080
37469SOL     OW14723   5.262   4.736   5.618 -0.0708 -0.2123  0.4739
37469SOL    HW114724   5.210   4.775   5.547  0.2084  0.4359  0.6180
37469SOL    HW214725   5.322   4.676   5.574 -0.1381 -0.0779  0.1959
37470SOL     OW14726   7.949   5.960   9.032  0.2668 -0.1397 -0.4172
37470SOL    HW114727   7.961   5.959   9.127  1.7593 -0.8515 -0.5892
37470SOL    HW214728   7.862   5.923   9.019  0.7615 -1.7410  0.6046
37471SOL     OW14729  10.511   6.181   6.080 -0.0093 -0.2675 -0.6590
37471SOL    HW114730  10.522   6.205   6.172  1.0358  0.2686 -0.9083
37471SOL    HW214731  10.419   6.197   6.062 -0.6315 -1.9355  0.7175
37472SOL     OW14732   0.116   6.940   9.793  0.0407  0.0700 -0.0680
37472SOL    HW114733   0.129   6.852   9.828  0.6298 -0.7921 -2.2790
37472SOL    HW214734   0.033   6.969   9.831  0.6619 -0.7239  2.0103
37473SOL     OW14735   4.200   3.021  10.287 -0.2341  0.2278 -0.0808
37473SOL    HW114736   4.277   3.067  10.254 -0.7420  1.0388 -0.1760
37473SOL    HW214737   4.219   3.009  10.380 -0.8900  2.4171  0.4046
37474SOL     OW14738   7.097   1.097   3.094 -0.4655  0.1018 -0.0548
37474SOL    HW114739   7.016   1.136   3.127 -0.7511  0.6151 -1.3313
37474SOL    HW214740   7.070   1.041   3.022  0.3527  0.6492 -0.8081
37475SOL     OW14741   6.114   4.344   7.299  0.6383 -0.3936 -0.0645
37475SOL    HW114742   6.115   4.250   7.280 -1.2209 -0.4568 -0.0443
37475SOL    HW214743   6.133   4.349   7.393  2.5005 -0.5906 -0.3908
37476SOL     OW14744   4.707   7.095   1.564 -0.3613 -0.4253 -0.4633
37476SOL    HW114745   4.677   7.153   1.494 -0.9159  0.6783  0.6435
37476SOL    HW214746   4.650   7.115   1.638  1.9276  0.4652  1.1807
37477SOL     OW14747   7.189   6.583   2.695  0.4621 -0.0519 -0.1149
37477SOL    HW114748   7.168   6.628   2.613 -0.5418  0.0619  0.1903
37477SOL    HW214749   7.206   6.493   2.668  0.5280  0.0684 -0.4909
37478SOL     OW14750   3.946   8.845   3.811 -0.1441  0.4258  0.0862
37478SOL    HW114751   3.975   8.893   3.889  1.2452  1.2007 -0.8856
37478SOL    HW214752   3.921   8.913   3.749  2.8391  0.0599 -1.7078
37479SOL     OW14753  10.587   1.586   0.530  0.3242 -0.3677 -0.0564
37479SOL    HW114754  10.516   1.645   0.557 -0.2476 -1.0790  0.0362
37479SOL    HW214755  10.665   1.622   0.572 -0.3777 -0.8703  1.7598
37480SOL     OW14756   1.069   4.466   3.436 -0.2099 -0.8011 -0.0921
37480SOL    HW114757   1.000   4.508   3.385  0.0251 -0.3073 -0.0120
37480SOL    HW214758   1.024   4.398   3.486 -0.5532 -0.8196 -0.4200
37481SOL     OW14759   4.611   7.230   2.019 -0.1641 -0.3689  0.2858
37481SOL    HW114760   4.532   7.284   2.029  0.1822  0.2837 -0.3688
37481SOL    HW214761   4.683   7.290   2.037  0.2143 -0.7324  0.0041
37482SOL     OW14762   3.524   9.830   3.030 -0.2692  0.2300  0.3113
37482SOL    HW114763   3.551   9.871   3.112 -0.8300  1.5593 -0.1519
37482SOL    HW214764   3.606   9.805   2.988  0.1934  2.3389 -0.1240
37483SOL     OW14765   7.921   9.519   2.354  0.3078  0.0982 -0.1491
37483SOL    HW114766   7.934   9.428   2.380 -0.7017  0.0528  0.2363
37483SOL    HW214767   8.007   9.548   2.325  0.9907 -0.5092  1.1899
37484SOL     OW14768   4.501   5.655   1.722  0.3989  0.2889  0.1073
37484SOL    HW114769   4.434   5.666   1.790 -0.9601  1.2759 -1.3189
37484SOL    HW214770   4.524   5.562   1.727 -0.7375  0.0168  0.9582
37485SOL     OW14771   4.455   4.083   2.666 -0.3888  0.3018  0.3483
37485SOL    HW114772   4.480   4.063   2.756 -1.3263  3.0348  1.3285
37485SOL    HW214773   4.359   4.082   2.667 -0.4144  0.5227 -0.5607
37486SOL     OW14774   7.714   9.889   3.364  0.1593  0.3814  0.0297
37486SOL    HW114775   7.724   9.968   3.415  0.2056 -1.0969  2.4725
37486SOL    HW214776   7.683   9.823   3.427 -1.1456 -1.2373 -2.1350
37487SOL     OW14777   6.424   0.760   5.533 -0.2863 -0.6108  0.2415
37487SOL    HW114778   6.385   0.717   5.609  1.0855 -0.8290  0.8392
37487SOL    HW214779   6.376   0.843   5.526 -0.7351 -0.7863  1.0709
37488SOL     OW14780   0.801   5.944   8.059 -0.1533  0.5167 -0.5041
37488SOL    HW114781   0.813   5.964   7.966 -1.0607  0.5773 -0.6134
37488SOL    HW214782   0.887   5.959   8.098  0.1022  1.0146 -1.2407
37489SOL     OW14783   8.959   4.674   2.189  0.3776  0.1013 -0.1546
37489SOL    HW114784   9.011   4.677   2.269  1.8079 -1.7953 -0.9467
37489SOL    HW214785   9.012   4.625   2.127 -1.9466 -1.1150 -1.3259
37490SOL     OW14786   3.973   1.924   6.551  0.1342  0.0783 -0.1762
37490SOL    HW114787   3.947   1.908   6.642 -1.6777  0.5410 -0.5536
37490SOL    HW214788   4.038   1.994   6.557  1.0743 -0.8510  0.8349
37491SOL     OW14789   3.234   3.429   9.570  0.6083 -0.2023 -0.8751
37491SOL    HW114790   3.150   3.406   9.610  1.7688 -1.6571  0.8645
37491SOL    HW214791   3.249   3.520   9.598  0.6375 -0.6706  0.7543
37492SOL     OW14792   2.202   2.342   6.864 -0.1233  0.3835 -0.1414
37492SOL    HW114793   2.130   2.369   6.921 -0.3862  0.6150 -0.5709
37492SOL    HW214794   2.166   2.350   6.775  0.6830  1.2993 -0.4071
37493SOL     OW14795   3.040   5.495   3.839 -0.5767  0.5577 -0.1336
37493SOL    HW114796   2.975   5.435   3.875 -0.8115  1.5042  1.0819
37493SOL    HW214797   3.019   5.499   3.745 -3.6142  2.3318  0.4694
37494SOL     OW14798   8.429   0.187   2.818  0.2489 -0.2560  0.3255
37494SOL    HW114799   8.403   0.250   2.751 -2.5386 -2.0916 -0.4847
37494SOL    HW214800   8.503   0.140   2.780  0.0205  0.0990 -0.5831
37495SOL     OW14801   9.572   3.493   4.189 -0.2147  0.0783 -0.1306
37495SOL    HW114802   9.662   3.474   4.217 -0.0296 -1.2246 -1.4812
37495SOL    HW214803   9.524   3.412   4.209 -0.7806  0.2914 -0.6162
37496SOL     OW14804  10.058  10.545  10.105 -0.8019  0.3472 -0.0620
37496SOL    HW114805  10.102  10.470  10.145 -1.1014 -1.4016 -2.7096
37496SOL    HW214806   9.968  10.540  10.138 -0.9178 -0.7381 -0.4949
37497SOL     OW14807   5.893   9.326   4.919 -0.1671  0.7289  0.0287
37497SOL    HW114808   5.983   9.358   4.921  0.4087 -0.7999  0.0651
37497SOL    HW214809   5.901   9.232   4.937 -1.7254  0.4813 -0.4487
37498SOL     OW14810   9.746   3.775   6.607  0.3261  0.3473 -0.5161
37498SOL    HW114811   9.783   3.760   6.520 -0.4110 -0.1052 -0.7608
37498SOL    HW214812   9.678   3.841   6.594  0.6002  0.7056 -0.1787
37499SOL     OW14813   2.078   6.997   0.067 -0.2707  0.2347 -0.2155
37499SOL    HW114814   1.986   7.006   0.043  0.2196  0.4465 -2.2128
37499SOL    HW214815   2.121   6.971  -0.014  1.4923  0.5051  0.5934
37500SOL     OW14816   1.430   6.558   7.481 -0.2444  0.2318 -0.4281
37500SOL    HW114817   1.394   6.616   7.414  2.6624  0.8776 -1.5889
37500SOL    HW214818   1.466   6.617   7.547  0.0845 -0.3239 -0.1067
37501SOL     OW14819   5.516   9.319   7.331 -0.4703  0.2150  0.4152
37501SOL    HW114820   5.549   9.260   7.264  0.0689 -2.0056  2.5181
37501SOL    HW214821   5.592   9.371   7.357  0.5773 -2.1117  2.4173
37502SOL     OW14822   5.780   2.103   1.066  1.1858  0.0411  0.0288
37502SOL    HW114823   5.805   2.185   1.024  1.6599 -0.2645 -0.3019
37502SOL    HW214824   5.809   2.035   1.005  1.2731 -0.3892  0.5373
37503SOL     OW14825   4.690   8.744   9.627  0.3376 -0.0491 -0.3368
37503SOL    HW114826   4.755   8.687   9.585  0.3875  1.3162 -2.2316
37503SOL    HW214827   4.615   8.687   9.643  0.1535 -0.5939 -2.7486
37504SOL     OW14828   3.535   2.384   7.826  0.6561  0.1392  0.4095
37504SOL    HW114829   3.628   2.364   7.837  0.3582 -0.1740  3.1318
37504SOL    HW214830   3.491   2.300   7.835  0.0310  0.4563  0.4058
37505SOL     OW14831   4.946   2.926   8.852  0.2364 -1.1295 -0.3352
37505SOL    HW114832   4.853   2.909   8.866  0.1513 -1.8489 -1.6255
37505SOL    HW214833   4.981   2.941   8.940 -0.5362 -3.7936  0.5128
37506SOL     OW14834   5.382   7.318   3.448 -0.4814  0.5466  0.1146
37506SOL    HW114835   5.467   7.334   3.489 -1.1370  0.1549  1.6881
37506SOL    HW214836   5.339   7.255   3.505 -0.7926 -1.3597 -2.0979
37507SOL     OW14837   9.707   0.276   7.365 -0.3974 -0.5208  0.1723
37507SOL    HW114838   9.717   0.212   7.436 -1.0988 -0.7242  0.1016
37507SOL    HW214839   9.791   0.321   7.361  0.2183 -1.6243  0.0546
37508SOL     OW14840   1.855   0.260   8.580  0.2056 -0.2091  0.4500
37508SOL    HW114841   1.932   0.317   8.584 -0.5344  0.8119  3.6336
37508SOL    HW214842   1.847   0.226   8.669 -4.0955  1.3647  0.9048
37509SOL     OW14843   5.457   6.580   0.835  0.3931  0.4646  0.4616
37509SOL    HW114844   5.409   6.662   0.820 -1.5260 -0.5076  1.1051
37509SOL    HW214845   5.491   6.557   0.749 -0.6071  1.0010 -0.0973
37510SOL     OW14846   2.607   1.511   5.539  0.0409  0.2025  1.0852
37510SOL    HW114847   2.559   1.452   5.482  0.4434  0.8573  0.0487
37510SOL    HW214848   2.541   1.573   5.570 -0.5663 -1.2372  2.8655
37511SOL     OW14849   4.268   3.567   4.997 -0.2639 -0.6395 -0.3176
37511SOL    HW114850   4.322   3.501   5.039 -0.2214 -1.0080 -0.9363
37511SOL    HW214851   4.330   3.628   4.956 -0.3035 -0.2546  0.1812
37512SOL     OW14852   5.783   5.921   2.200  0.5968  0.2915  0.0921
37512SOL    HW114853   5.780   5.925   2.104 -0.8025  0.9937  0.1427
37512SOL    HW214854   5.833   5.842   2.219 -2.3923 -2.1537 -1.2821
37513SOL     OW14855   1.273   8.069   7.822 -0.0267  0.8334 -0.0910
37513SOL    HW114856   1.315   8.139   7.771  2.0319 -0.6516 -0.5959
37513SOL    HW214857   1.211   8.029   7.761  1.5228 -0.1289 -1.1267
37514SOL     OW14858   7.579   8.054   6.403  0.1819  0.3725 -0.2704
37514SOL    HW114859   7.655   8.006   6.369  0.7069  0.8966  0.1404
37514SOL    HW214860   7.554   8.006   6.481 -0.7600 -0.5837 -1.1316
37515SOL     OW14861  10.094   1.862   4.364  0.2434  0.4337 -0.1866
37515SOL    HW114862  10.090   1.814   4.447  1.0101 -0.0049 -0.3962
37515SOL    HW214863  10.167   1.823   4.316  1.4639  2.3642 -0.0257
37516SOL     OW14864  10.027   4.054   3.367  0.0924 -0.8760 -0.1180
37516SOL    HW114865  10.033   3.988   3.436 -0.0701 -0.7590  0.0090
37516SOL    HW214866  10.080   4.127   3.398  1.7905 -1.6355 -1.0640
37517SOL     OW14867   2.554   6.279   1.567  0.1283  0.0446 -0.1133
37517SOL    HW114868   2.578   6.197   1.610  1.8979  0.0622 -0.9803
37517SOL    HW214869   2.620   6.290   1.498 -0.4716  1.8602 -0.4426
37518SOL     OW14870   7.762   2.680   0.312  0.0023  0.1664  0.4084
37518SOL    HW114871   7.666   2.675   0.309 -0.1955  2.1185  1.7553
37518SOL    HW214872   7.780   2.772   0.330  2.1219 -0.3754  1.2784
37519SOL     OW14873   9.062   7.451   2.795  0.3830 -0.0224  0.1726
37519SOL    HW114874   9.002   7.433   2.868 -1.2015  1.0815 -0.7849
37519SOL    HW214875   9.127   7.510   2.832  0.2369 -0.3311  0.9556
37520SOL     OW14876   9.671   4.504   8.478  0.3139 -0.4736  0.0776
37520SOL    HW114877   9.661   4.566   8.550  0.1576  0.6339 -0.8667
37520SOL    HW214878   9.735   4.545   8.420  0.0718 -1.1114 -0.6554
37521SOL     OW14879   4.416   2.673   6.913 -0.3642 -0.4370  0.4863
37521SOL    HW114880   4.326   2.655   6.937 -0.7804 -1.1109 -1.3643
37521SOL    HW214881   4.411   2.701   6.821  1.3942 -1.6748 -0.0461
37522SOL     OW14882   2.471   1.317   6.578 -0.5971 -0.0273  0.2408
37522SOL    HW114883   2.535   1.275   6.520  0.0042 -0.7458  1.3848
37522SOL    HW214884   2.473   1.409   6.553 -1.7794 -0.5768 -2.1897
37523SOL     OW14885   2.679   4.970   0.817 -0.3314  0.1573  0.6377
37523SOL    HW114886   2.695   4.879   0.795 -2.6804 -0.3417  0.6920
37523SOL    HW214887   2.628   4.966   0.899 -1.1697  1.4443  0.2160
37524SOL     OW14888   4.632   4.495   8.342 -0.1786 -0.7880 -0.4120
37524SOL    HW114889   4.607   4.530   8.257 -0.4335  0.6126  0.2181
37524SOL    HW214890   4.564   4.525   8.402 -0.4144 -2.3874  0.1827
37525SOL     OW14891   2.431   3.727   0.973  0.1629 -0.2984  0.3489
37525SOL    HW114892   2.411   3.798   0.912  1.7911  0.5213  0.7059
37525SOL    HW214893   2.425   3.767   1.059  1.3838 -0.4951  0.5408
37526SOL     OW14894   1.789   6.508   2.354  0.0622 -0.1155 -0.1933
37526SOL    HW114895   1.780   6.413   2.344  0.1950 -0.4168  1.9678
37526SOL    HW214896   1.746   6.527   2.437  0.2926  1.6878 -0.4591
37527SOL     OW14897   1.456   1.376   8.512 -0.2567  0.0359 -0.2810
37527SOL    HW114898   1.527   1.438   8.495 -0.6724  0.3199 -1.0359
37527SOL    HW214899   1.377   1.423   8.484 -0.7961 -0.1266  0.8846
37528SOL     OW14900   4.664   6.711   2.838 -0.1741  0.1459 -0.2295
37528SOL    HW114901   4.609   6.640   2.804 -0.5698 -0.1940  1.0909
37528SOL    HW214902   4.603   6.781   2.860  0.0938  0.4088 -0.3187
37529SOL     OW14903   9.432   5.100   9.672  0.1582  0.4463 -0.4531
37529SOL    HW114904   9.384   5.162   9.726  0.0889 -0.2203  0.2693
37529SOL    HW214905   9.524   5.115   9.694  0.1796  0.6725 -0.6943
37530SOL     OW14906   9.898   9.772   6.398  0.4045 -0.0397  0.0168
37530SOL    HW114907   9.815   9.803   6.361 -0.2234 -0.8837  0.6822
37530SOL    HW214908   9.963   9.793   6.331 -0.1902  1.4930 -0.1261
37531SOL     OW14909   2.881   4.395   0.105 -0.0129 -0.2233  0.0334
37531SOL    HW114910   2.815   4.369   0.170  1.3816 -1.7436  0.9215
37531SOL    HW214911   2.901   4.314   0.057 -0.6031  0.7618 -1.9533
37532SOL     OW14912   3.087   5.124   5.231  0.1631 -0.5841  0.6449
37532SOL    HW114913   3.140   5.161   5.302  0.8819  0.5454 -0.4288
37532SOL    HW214914   3.019   5.190   5.216  0.6267 -0.3333 -0.3808
37533SOL     OW14915   7.163   0.887   2.018  0.0758  0.0463  0.3261
37533SOL    HW114916   7.112   0.860   2.095 -0.0417 -0.5250  0.0481
37533SOL    HW214917   7.220   0.812   2.000 -0.0292  0.1087 -0.2597
37534SOL     OW14918   9.616   3.057   7.840  0.1991  0.2307  0.0410
37534SOL    HW114919   9.535   3.025   7.881 -0.2730  0.3631 -0.7657
37534SOL    HW214920   9.683   3.046   7.907 -0.1231 -1.6014  0.0965
37535SOL     OW14921   0.097   9.772   7.436  0.4254 -0.0510 -0.3002
37535SOL    HW114922   0.088   9.677   7.425  0.9061 -0.0574 -0.6768
37535SOL    HW214923   0.063   9.808   7.355  1.9824  0.0026 -0.9694
37536SOL     OW14924   9.610   9.128   9.643 -0.4451 -0.2596 -0.6533
37536SOL    HW114925   9.625   9.115   9.550  0.1963 -1.2569 -0.4240
37536SOL    HW214926   9.698   9.125   9.682 -0.5901  1.2187 -0.1247
37537SOL     OW14927   0.280   5.685   0.568 -0.1123 -0.1752 -0.3867
37537SOL    HW114928   0.235   5.726   0.495 -0.3079 -1.1353 -0.8212
37537SOL    HW214929   0.337   5.754   0.602  0.5275  0.0876 -1.8982
37538SOL     OW14930   7.809   2.433   8.038  0.0196 -0.1335  0.7375
37538SOL    HW114931   7.787   2.472   8.122  0.4035  0.3776  0.6000
37538SOL    HW214932   7.770   2.345   8.042 -0.4973  0.1115  1.1975
37539SOL     OW14933   5.646   8.617   7.220 -0.4880  0.2541 -0.4909
37539SOL    HW114934   5.650   8.575   7.306 -0.7221  2.6353  0.7519
37539SOL    HW214935   5.648   8.544   7.158  0.2406 -1.5127  1.4961
37540SOL     OW14936   8.723   0.279   9.230  0.2546  0.0480  0.3485
37540SOL    HW114937   8.817   0.289   9.213  0.5846 -0.4366  1.7440
37540SOL    HW214938   8.714   0.189   9.259 -0.5323  0.2721  0.8282
37541SOL     OW14939   1.788   2.843  10.078 -0.5867  0.1359  0.3375
37541SOL    HW114940   1.724   2.913  10.068 -1.5779 -0.5943  1.2820
37541SOL    HW214941   1.863   2.885  10.121 -0.5733  0.9130 -0.4200
37542SOL     OW14942   6.824   3.950   7.813 -0.4459  0.2574  0.0950
37542SOL    HW114943   6.883   4.024   7.823  0.6510 -0.6607  0.6143
37542SOL    HW214944   6.817   3.912   7.901  1.8945 -2.3701 -0.7299
37543SOL     OW14945   9.107  10.133   9.371 -0.2122  0.2188 -0.0761
37543SOL    HW114946   9.200  10.132   9.394  0.2983  0.0850 -1.9641
37543SOL    HW214947   9.064  10.173   9.446  1.1977 -0.8997  1.4068
37544SOL     OW14948   9.082   8.700   4.760  1.1432  0.1795  0.2726
37544SOL    HW114949   8.990   8.676   4.759  1.1750  0.0576  0.0808
37544SOL    HW214950   9.124   8.632   4.813  1.1811  0.0137  0.0292
37545SOL     OW14951   4.474   7.227   7.010 -0.3194  0.3750 -0.3413
37545SOL    HW114952   4.388   7.269   7.000 -0.2152  0.2343 -2.0737
37545SOL    HW214953   4.482   7.170   6.934  0.7912 -0.5833  0.4601
37546SOL     OW14954   6.665   2.317   7.427  0.2392  0.0875  0.0501
37546SOL    HW114955   6.621   2.352   7.349  0.8661 -0.3235 -0.5056
37546SOL    HW214956   6.613   2.241   7.452 -1.1637  1.3926  1.2993
37547SOL     OW14957   1.394   8.870   8.256  0.2069  0.1690 -0.7303
37547SOL    HW114958   1.394   8.778   8.283  0.9100  0.3904  0.0856
37547SOL    HW214959   1.307   8.902   8.279  0.5859  0.1906  0.7788
37548SOL     OW14960   4.529   1.382   3.685 -0.0200 -0.4239 -0.4059
37548SOL    HW114961   4.587   1.437   3.736  0.7405 -2.0326  0.5409
37548SOL    HW214962   4.586   1.316   3.646 -1.0585 -1.4514 -0.2558
37549SOL     OW14963   9.642   4.275   8.621  0.2996  0.3305 -0.6892
37549SOL    HW114964   9.653   4.303   8.712 -1.3713 -0.4084 -0.2289
37549SOL    HW214965   9.645   4.356   8.571  0.2146  0.8570  0.1318
37550SOL     OW14966   2.545   7.056   3.086  0.4237 -0.2308 -0.3662
37550SOL    HW114967   2.546   6.965   3.115 -1.0324  0.0832  0.7994
37550SOL    HW214968   2.620   7.096   3.129 -0.7271 -0.1834  1.6950
37551SOL     OW14969   9.976   1.449   0.391 -0.0732  0.0870 -0.3920
37551SOL    HW114970   9.994   1.541   0.410 -1.0794  0.0500  0.9290
37551SOL    HW214971   9.890   1.434   0.429  0.0983 -1.4153 -0.5544
37552SOL     OW14972   0.461  10.042   9.354 -0.1264 -0.0845 -0.5367
37552SOL    HW114973   0.406  10.090   9.291 -1.4859 -0.8081  0.0648
37552SOL    HW214974   0.467   9.954   9.317  0.4323 -0.0824 -0.4589
37553SOL     OW14975   8.816   0.888   8.999 -0.8131  0.1581  0.2762
37553SOL    HW114976   8.821   0.809   9.052  0.3318 -1.5900 -2.2312
37553SOL    HW214977   8.899   0.891   8.951 -3.0841 -0.6895 -4.2973
37554SOL     OW14978   7.277   4.587   3.239 -0.4107  0.4460 -0.4882
37554SOL    HW114979   7.332   4.512   3.262 -0.4693 -0.1606 -2.1443
37554SOL    HW214980   7.337   4.660   3.232 -0.2486  0.4075  0.4990
37555SOL     OW14981   6.317   6.033   8.880 -0.0448 -0.3582 -0.2095
37555SOL    HW114982   6.374   6.002   8.950  0.4477  2.3636  0.7045
37555SOL    HW214983   6.228   6.018   8.914  0.1844  1.1387  1.1823
37556SOL     OW14984   8.384   8.320   3.444 -0.2406 -0.1207 -0.0287
37556SOL    HW114985   8.410   8.369   3.522 -0.9369  0.9130 -0.4368
37556SOL    HW214986   8.346   8.239   3.479 -0.1714  0.1448  0.6899
37557SOL     OW14987   9.375  10.235   8.273 -0.2116 -0.5839  0.0981
37557SOL    HW114988   9.391  10.252   8.366 -1.0582  1.5124 -0.0736
37557SOL    HW214989   9.280  10.238   8.265 -0.1147  1.7266 -1.1663
37558SOL     OW14990   7.144   9.623   5.567  0.3237  0.3765  0.0296
37558SOL    HW114991   7.237   9.613   5.546  1.0970  1.3385  2.5794
37558SOL    HW214992   7.110   9.682   5.499  1.5311 -0.0966 -1.0222
37559SOL     OW14993   5.703   6.761   8.477  0.2400  0.1961  0.3756
37559SOL    HW114994   5.752   6.734   8.399 -0.0712 -0.7710  0.4915
37559SOL    HW214995   5.638   6.824   8.445  0.8004  0.5975  0.0310
37560SOL     OW14996   2.091   7.196   5.604 -0.1016 -0.3511  0.3693
37560SOL    HW114997   2.081   7.235   5.518 -0.9159  0.8946  1.0065
37560SOL    HW214998   2.027   7.125   5.606 -0.3215 -0.1607  0.0749
37561SOL     OW14999   3.186   2.722   3.143 -0.4941  1.4594 -0.3411
37561SOL    HW115000   3.111   2.688   3.191 -0.0251  3.3009  1.8594
37561SOL    HW215001   3.225   2.645   3.101 -1.9028  0.0188  0.8673
37562SOL     OW15002   0.455   5.001   6.300  0.0936 -0.1049 -0.0070
37562SOL    HW115003   0.481   5.025   6.389 -0.9459 -2.0703  0.8817
37562SOL    HW215004   0.530   5.026   6.245  1.2615  0.0075  1.5853
37563SOL     OW15005  10.186   5.654   3.671  0.2370 -0.4572  0.0176
37563SOL    HW115006  10.125   5.658   3.598  0.2175 -0.7159  0.0192
37563SOL    HW215007  10.170   5.569   3.711  0.1121 -0.2378  0.4415
37564SOL     OW15008   4.899  10.398   1.269 -0.2444  0.1833 -0.1542
37564SOL    HW115009   4.953  10.353   1.334  1.5547  1.5553 -0.5960
37564SOL    HW215010   4.931  10.488   1.271 -0.6326  0.4158 -2.4143
37565SOL     OW15011   8.575   9.150   9.008  0.3256 -0.0534 -0.4022
37565SOL    HW115012   8.488   9.188   9.018  0.5800  0.2631  0.6474
37565SOL    HW215013   8.566   9.091   8.933 -1.0568 -0.8028  0.3150
37566SOL     OW15014   4.974   6.221   5.384  0.0480 -0.1372  0.4126
37566SOL    HW115015   4.953   6.299   5.436 -1.1247 -0.2952  0.2125
37566SOL    HW215016   4.951   6.246   5.294  0.7704 -0.3262  0.1689
37567SOL     OW15017   6.355   4.257   3.904 -0.1431  0.0900 -0.2650
37567SOL    HW115018   6.314   4.171   3.890  1.5487 -0.5919 -1.4830
37567SOL    HW215019   6.355   4.269   3.998 -0.4293 -1.2633 -0.0691
37568SOL     OW15020   1.791   3.242   6.203  0.0250  0.0533  0.5076
37568SOL    HW115021   1.863   3.302   6.223  0.9547 -1.1555  0.9702
37568SOL    HW215022   1.833   3.156   6.202 -1.2094 -0.5540 -0.4476
37569SOL     OW15023   1.198  10.042   3.077 -0.5386 -0.6207 -0.1109
37569SOL    HW115024   1.256  10.006   3.144  0.0397  0.2556 -0.1248
37569SOL    HW215025   1.223   9.997   2.996  0.6615  0.2678 -0.2671
37570SOL     OW15026   5.359   5.630   6.713  0.6247  0.6458 -0.1344
37570SOL    HW115027   5.264   5.622   6.722  0.5556 -0.2052 -1.4681
37570SOL    HW215028   5.376   5.628   6.619  2.0565 -0.5592  0.0937
37571SOL     OW15029   6.677   3.686   4.543 -0.0972 -0.1208  0.2563
37571SOL    HW115030   6.742   3.702   4.611 -0.3543 -0.7155  0.6506
37571SOL    HW215031   6.711   3.732   4.466  0.3336  0.3270  0.7078
37572SOL     OW15032   1.186   8.809   9.048  0.3797 -0.6441  0.1374
37572SOL    HW115033   1.270   8.846   9.076  0.2382  0.7345 -1.0999
37572SOL    HW215034   1.208   8.758   8.970 -0.0802  0.8624 -1.0198
37573SOL     OW15035   8.120   9.615   2.203  0.0920  0.2996  0.3402
37573SOL    HW115036   8.132   9.615   2.108  1.0396 -2.4810  0.3784
37573SOL    HW215037   8.198   9.657   2.237  0.2108  0.4366 -0.0945
37574SOL     OW15038   0.331   5.474   9.525 -0.1036 -0.0989  0.1211
37574SOL    HW115039   0.411   5.476   9.472 -0.8114 -2.5417 -1.2194
37574SOL    HW215040   0.360   5.441   9.610  0.9398  3.2653  1.2197
37575SOL     OW15041   4.374   3.639   5.622 -0.0891  0.2102  0.3218
37575SOL    HW115042   4.462   3.674   5.637  0.1040 -0.7499  1.6881
37575SOL    HW215043   4.324   3.664   5.700 -1.4883  1.9470 -1.0376
37576SOL     OW15044   3.577   7.290   0.988 -0.6697 -0.0797  0.0705
37576SOL    HW115045   3.602   7.374   1.028 -0.4503 -0.0697 -0.0820
37576SOL    HW215046   3.488   7.274   1.019 -0.6661  0.1478  0.2034
37577SOL     OW15047   9.963   8.558   4.405 -0.4037  0.0042 -0.6095
37577SOL    HW115048   9.867   8.563   4.394 -0.4147  0.6630 -0.2578
37577SOL    HW215049   9.991   8.650   4.406  0.1221 -0.1629  0.2756
37578SOL     OW15050   1.129   4.699   5.352  0.0916 -0.0858 -0.5051
37578SOL    HW115051   1.125   4.761   5.279  1.1178 -1.1720 -1.5370
37578SOL    HW215052   1.193   4.737   5.412  0.0091  0.3106 -0.6641
37579SOL     OW15053  10.045   9.246   8.098  0.4751  0.3200 -0.3861
37579SOL    HW115054  10.103   9.177   8.129  0.6304  0.3909 -0.5157
37579SOL    HW215055  10.044   9.235   8.002  2.1683  1.7821 -0.6235
37580SOL     OW15056   6.175   2.960   4.972  0.0735 -0.7717 -0.3437
37580SOL    HW115057   6.148   2.886   5.027 -1.0511 -0.4777 -0.4985
37580SOL    HW215058   6.224   3.017   5.031  1.7308 -2.0369 -0.4081
37581SOL     OW15059   0.703   9.047   1.622  0.1274 -0.0522 -0.2438
37581SOL    HW115060   0.674   9.029   1.712  0.9314  0.1909  0.0694
37581SOL    HW215061   0.798   9.045   1.626  0.1859  0.7379 -0.9343
37582SOL     OW15062   3.608   9.033   7.595  0.3347 -0.2760 -0.5323
37582SOL    HW115063   3.699   9.004   7.588  0.5493  0.5882 -1.4661
37582SOL    HW215064   3.584   9.059   7.506 -0.0608  1.7405  0.1228
37583SOL     OW15065   7.888   1.836   5.115  0.5932 -0.6497  0.6078
37583SOL    HW115066   7.847   1.777   5.051  0.8862  0.4526 -0.6367
37583SOL    HW215067   7.980   1.811   5.114  0.6398 -0.4781  0.4051
37584SOL     OW15068   7.477   1.658   8.855 -0.3067 -0.2638  0.4147
37584SOL    HW115069   7.481   1.563   8.866  0.1549 -0.0896  1.8689
37584SOL    HW215070   7.538   1.693   8.919 -2.4641  1.1321  1.8422
37585SOL     OW15071   5.758   1.210   2.946 -0.3115 -0.4042 -0.1331
37585SOL    HW115072   5.853   1.216   2.954  0.2652 -3.4846 -2.6916
37585SOL    HW215073   5.740   1.116   2.948 -3.0629 -0.0142 -1.7838
37586SOL     OW15074   9.988   5.217   6.698 -0.1563 -0.2235  0.0231
37586SOL    HW115075   9.919   5.281   6.683 -0.9615 -1.2895 -0.9193
37586SOL    HW215076   9.966   5.143   6.642  2.0869 -0.3503 -0.8150
37587SOL     OW15077   4.323  10.085   3.114  0.1572  0.0799  0.5179
37587SOL    HW115078   4.264  10.089   3.039  0.4136  1.6158  0.3546
37587SOL    HW215079   4.277  10.033   3.179 -0.1232 -1.1801 -0.6528
37588SOL     OW15080   8.258   7.879   7.577  0.0523 -1.0406 -0.0643
37588SOL    HW115081   8.267   7.973   7.593 -2.5644 -0.9473  1.4402
37588SOL    HW215082   8.177   7.870   7.527  0.6124 -2.4737 -0.7783
37589SOL     OW15083   4.271   0.636   7.775  0.2965 -0.5280  0.5501
37589SOL    HW115084   4.322   0.672   7.848  0.1258 -1.4784  1.1461
37589SOL    HW215085   4.326   0.567   7.739 -0.0796 -0.7935  0.4748
37590SOL     OW15086   6.154   5.193   6.692 -0.4177 -0.3030  0.1119
37590SOL    HW115087   6.084   5.145   6.647  1.1167 -1.6592 -0.9583
37590SOL    HW215088   6.212   5.125   6.726  0.4289  0.7784  0.8931
37591SOL     OW15089   3.681   1.289   1.908 -0.1243  0.3075  0.0681
37591SOL    HW115090   3.773   1.313   1.918  0.4856 -1.9071  0.4003
37591SOL    HW215091   3.670   1.277   1.814  0.3805 -0.9510  0.1565
37592SOL     OW15092   8.388   0.795   2.577  0.2768  0.2174 -0.4111
37592SOL    HW115093   8.399   0.889   2.561  2.5855  0.0443 -0.2433
37592SOL    HW215094   8.300   0.775   2.546 -1.5248  2.9985  2.3749
37593SOL     OW15095   0.029   6.008   1.556 -0.8514 -0.1437 -0.3976
37593SOL    HW115096   0.115   5.997   1.516 -1.7469  0.1250 -2.5703
37593SOL    HW215097   0.001   5.920   1.579  1.1397 -0.0150  3.1113
37594SOL     OW15098   9.319   0.724   2.838  0.2022  0.3178  0.6149
37594SOL    HW115099   9.260   0.741   2.764  0.1846  1.6986  0.9185
37594SOL    HW215100   9.394   0.680   2.799  0.9632  2.5220 -0.5744
37595SOL     OW15101   4.634   1.182   0.830 -0.2350  0.1166 -1.0642
37595SOL    HW115102   4.686   1.114   0.873 -0.1333  0.3200 -0.8590
37595SOL    HW215103   4.629   1.155   0.739  0.8995  0.4897 -1.2521
37596SOL     OW15104   0.532   1.284   8.411 -0.2978  0.0843 -0.9025
37596SOL    HW115105   0.517   1.378   8.403 -0.4932  0.0307 -1.1841
37596SOL    HW215106   0.485   1.259   8.491  0.3059  0.3374 -0.4601
37597SOL     OW15107   1.275   7.072   5.100 -0.0730 -0.3036 -0.3506
37597SOL    HW115108   1.319   6.987   5.110  0.8462 -0.0953 -2.2218
37597SOL    HW215109   1.322   7.130   5.161  1.6583 -0.3380 -1.5669
37598SOL     OW15110   3.274   2.388  10.272  0.3431 -0.7280  0.0575
37598SOL    HW115111   3.350   2.379  10.215  0.5340  1.0805 -0.0263
37598SOL    HW215112   3.221   2.456  10.232 -1.3959 -1.9876  0.0826
37599SOL     OW15113   5.589   0.443   7.244  0.3218  0.4123  0.0878
37599SOL    HW115114   5.587   0.536   7.222  0.7153  0.5576  0.6409
37599SOL    HW215115   5.550   0.399   7.168 -1.9353  1.1919  0.7107
37600SOL     OW15116   6.747   0.459   1.715 -0.4077  0.0470  0.9321
37600SOL    HW115117   6.745   0.382   1.772 -0.0276  1.0105  2.2872
37600SOL    HW215118   6.766   0.423   1.628 -1.1485 -1.4723  1.3490
37601SOL     OW15119   8.407   6.189   6.342  0.3260  0.8506 -0.8229
37601SOL    HW115120   8.462   6.151   6.274 -0.8185  0.6442 -1.6645
37601SOL    HW215121   8.464   6.194   6.419  0.8566 -1.5700 -0.9631
37602SOL     OW15122   2.710   6.656   2.555  0.4102 -0.2364 -0.7268
37602SOL    HW115123   2.677   6.635   2.643 -0.7692  0.5958 -0.9357
37602SOL    HW215124   2.782   6.595   2.540  0.3041 -0.7180  0.6216
37603SOL     OW15125   9.060   9.086   1.285 -0.2540  0.0383 -0.0742
37603SOL    HW115126   9.078   9.107   1.193 -1.5128  0.4202 -0.2608
37603SOL    HW215127   9.146   9.080   1.326  0.2994  1.5788 -0.9120
37604SOL     OW15128   1.801   3.289   6.505 -0.1029  0.8098  0.1305
37604SOL    HW115129   1.729   3.258   6.560  0.0122 -0.1143 -0.2218
37604SOL    HW215130   1.778   3.261   6.417  1.2213 -0.5039  0.1736
37605SOL     OW15131   2.198   8.042   4.055 -0.2534  0.4480  0.2481
37605SOL    HW115132   2.183   8.053   3.961 -1.4449 -2.3675  0.0165
37605SOL    HW215133   2.292   8.056   4.066  0.0446  0.0727 -1.4927
37606SOL     OW15134   1.241   1.744   9.985 -0.2246 -0.1544  0.0776
37606SOL    HW115135   1.217   1.723   9.895  1.5293  3.2188 -1.3408
37606SOL    HW215136   1.330   1.777   9.980 -0.4838  1.2996  2.8705
37607SOL     OW15137   7.151   8.477   5.296  0.0886  0.3627  0.1290
37607SOL    HW115138   7.114   8.406   5.349  0.3058 -1.0516 -1.4986
37607SOL    HW215139   7.242   8.450   5.281 -0.1253  0.3751 -1.4194
37608SOL     OW15140   1.030   4.889   3.735 -0.2146  0.1402 -0.4140
37608SOL    HW115141   1.062   4.971   3.772 -1.7700  0.8232 -0.5078
37608SOL    HW215142   1.091   4.870   3.663  1.7892 -0.2751  1.2701
37609SOL     OW15143   1.489   6.396   8.405 -0.5284 -0.0934 -0.1657
37609SOL    HW115144   1.581   6.370   8.406 -0.7153 -0.8463 -0.9001
37609SOL    HW215145   1.467   6.401   8.312 -1.7193 -1.8203 -0.0408
37610SOL     OW15146   5.858   2.248   9.362 -0.3558 -0.1639 -0.3841
37610SOL    HW115147   5.823   2.258   9.451  2.1942 -0.0301  0.6754
37610SOL    HW215148   5.785   2.212   9.312 -1.2615 -2.3890  2.2819
37611SOL     OW15149   2.286   4.165   2.165  0.4445  0.0617  0.7381
37611SOL    HW115150   2.210   4.202   2.209  0.3986  0.8923 -0.0165
37611SOL    HW215151   2.250   4.114   2.093  0.5855  0.1469  0.6058
37612SOL     OW15152   7.140   8.892   8.144 -0.0836 -0.1342 -0.0032
37612SOL    HW115153   7.202   8.821   8.127 -0.2230 -0.5202  1.0733
37612SOL    HW215154   7.079   8.856   8.208 -1.6931  0.0938 -1.3551
37613SOL     OW15155   9.076   1.028   7.458 -0.0401 -0.4764  0.0250
37613SOL    HW115156   9.116   1.051   7.373  0.2573  1.4256  0.6323
37613SOL    HW215157   9.145   0.981   7.504 -0.5111 -2.3931 -1.0850
37614SOL     OW15158   2.430   0.262   1.437 -0.4512 -0.2420 -0.0637
37614SOL    HW115159   2.440   0.246   1.343  1.5090  0.4558 -0.0259
37614SOL    HW215160   2.497   0.207   1.478 -0.0248  0.8566  0.7591
37615SOL     OW15161   0.261   4.079   8.131 -0.3049 -0.3062 -0.3801
37615SOL    HW115162   0.205   4.037   8.195  2.3588 -1.7545  1.1727
37615SOL    HW215163   0.295   4.007   8.078  0.5040  0.4663 -0.9441
37616SOL     OW15164   9.197   3.936   7.519  0.2374 -0.2127 -0.3430
37616SOL    HW115165   9.203   3.945   7.614  0.7937 -1.5927 -0.2331
37616SOL    HW215166   9.136   3.864   7.505  0.6212 -0.4207 -1.0123
37617SOL     OW15167   7.421   9.130  10.505 -0.5582 -0.3344 -0.6786
37617SOL    HW115168   7.376   9.069  10.563 -1.0687 -0.4624 -1.1985
37617SOL    HW215169   7.483   9.076  10.456  0.4159 -0.1042  0.2763
37618SOL     OW15170  10.560   7.005   7.782  0.2365  0.3131 -0.1313
37618SOL    HW115171  10.474   7.041   7.760 -0.2507 -0.8980 -0.2769
37618SOL    HW215172  10.550   6.974   7.873  0.0487 -1.1384 -0.6178
37619SOL     OW15173   0.447   5.171   3.756  0.7085  0.6314 -0.0042
37619SOL    HW115174   0.460   5.215   3.839 -0.7837  1.5378 -0.2063
37619SOL    HW215175   0.493   5.226   3.692 -1.3679  2.1418 -0.2947
37620SOL     OW15176   7.298   6.698  10.277  0.1859 -0.3593 -0.1687
37620SOL    HW115177   7.327   6.698  10.368  1.4636  0.8658 -0.5492
37620SOL    HW215178   7.276   6.790  10.259  0.4826 -0.4954 -1.2652
37621SOL     OW15179  10.240   9.299   8.997  0.3861  0.6972  0.3017
37621SOL    HW115180  10.286   9.380   9.018 -0.2203  0.8668  1.0482
37621SOL    HW215181  10.307   9.241   8.960  1.3540  0.6868  1.9675
37622SOL     OW15182   0.787   1.164  10.384  0.1682 -0.5103 -0.2125
37622SOL    HW115183   0.729   1.222  10.434 -0.8484 -2.3204  0.8207
37622SOL    HW215184   0.728   1.106  10.336  1.1448 -0.9172 -0.9508
37623SOL     OW15185  10.511  10.043   0.728  0.7781 -0.2054  0.1760
37623SOL    HW115186  10.499   9.971   0.666  0.8920 -0.5385  0.5284
37623SOL    HW215187  10.522  10.121   0.674  3.1464 -0.7995 -0.3182
37624SOL     OW15188   3.860   2.210   6.087  0.4122 -0.0272 -0.1240
37624SOL    HW115189   3.836   2.300   6.110 -0.8051 -0.4471  0.3384
37624SOL    HW215190   3.861   2.209   5.992 -0.0465  0.3675 -0.1361
37625SOL     OW15191   2.352   8.403   8.420 -0.0812  0.2048 -0.1902
37625SOL    HW115192   2.414   8.463   8.378  0.2315 -0.7183 -1.0894
37625SOL    HW215193   2.282   8.392   8.356  0.8436 -1.9322 -0.9055
37626SOL     OW15194   6.472  10.379   8.035  0.0832 -0.4739 -0.0048
37626SOL    HW115195   6.559  10.416   8.052  0.4358 -2.0114  2.0014
37626SOL    HW215196   6.465  10.377   7.940  1.0261  2.3449 -0.2284
37627SOL     OW15197   9.570   8.678   8.955 -0.5628  0.1439  0.4483
37627SOL    HW115198   9.661   8.666   8.983 -1.4639 -2.8901  2.6552
37627SOL    HW215199   9.570   8.648   8.864  0.6250  0.0858  0.4409
37628SOL     OW15200   9.965   9.200   8.879  0.3694 -0.4222  0.4407
37628SOL    HW115201   9.996   9.113   8.908  0.1844 -0.9084 -0.7561
37628SOL    HW215202   9.871   9.190   8.868  0.2544  0.1196  0.8929
37629SOL     OW15203   6.146   6.272   9.349 -0.0336 -0.3418  0.1299
37629SOL    HW115204   6.202   6.196   9.364 -0.5890 -0.5728  1.1327
37629SOL    HW215205   6.097   6.251   9.270  0.1727 -0.8099  0.1234
37630SOL     OW15206   1.470   7.492  10.387  0.3686 -0.3834 -0.2527
37630SOL    HW115207   1.488   7.585  10.368  1.8528 -0.4235  0.7700
37630SOL    HW215208   1.377   7.489  10.407  0.5481  1.1486  1.0021
37631SOL     OW15209   4.825   2.948   2.088  0.2350 -0.2688 -0.0498
37631SOL    HW115210   4.803   3.012   2.020  0.9414 -0.7137 -0.7051
37631SOL    HW215211   4.839   3.001   2.166  0.1004  0.3123 -0.4127
37632SOL     OW15212   7.385   7.741   7.578 -0.2181  0.0191  0.3631
37632SOL    HW115213   7.442   7.762   7.652 -0.9394 -1.9071  1.5581
37632SOL    HW215214   7.432   7.672   7.531 -0.9325 -0.6385  0.5894
37633SOL     OW15215   7.659   5.403   1.561 -0.1153 -0.2189  0.5173
37633SOL    HW115216   7.699   5.327   1.519  0.3362  0.6022 -0.6147
37633SOL    HW215217   7.611   5.446   1.490 -2.3108 -0.6824  1.6427
37634SOL     OW15218   8.395   7.729   7.084  0.4875 -0.5827 -0.7778
37634SOL    HW115219   8.301   7.739   7.074  0.3820  0.8524  1.1128
37634SOL    HW215220   8.429   7.818   7.088  1.6859 -1.0526  0.3937
37635SOL     OW15221   0.583   8.972   7.315  0.7146  0.2723  0.3969
37635SOL    HW115222   0.634   8.992   7.236  0.7718 -0.0045  0.3609
37635SOL    HW215223   0.573   9.056   7.360 -0.8142  0.7532 -0.7712
37636SOL     OW15224   3.137   5.105   9.423  0.5165 -0.1317 -0.0504
37636SOL    HW115225   3.144   5.029   9.480 -0.5363 -0.1054  0.1327
37636SOL    HW215226   3.043   5.116   9.408  0.7130  0.4289 -1.0243
37637SOL     OW15227   5.907   6.340   1.817  0.2492 -0.3950 -0.3318
37637SOL    HW115228   5.921   6.339   1.723  0.6449  3.2109 -0.4504
37637SOL    HW215229   5.812   6.346   1.828  0.1567 -1.4891 -0.4331
37638SOL     OW15230   9.005   3.635   3.309  0.2486 -0.0937 -0.3757
37638SOL    HW115231   9.042   3.581   3.379  0.1102  0.3757  0.0711
37638SOL    HW215232   9.055   3.611   3.231  1.8313  0.8311  0.2929
37639SOL     OW15233   6.934   0.113   7.383  0.2833 -0.2867  1.0744
37639SOL    HW115234   6.898   0.145   7.301 -0.4144 -1.0627  1.0612
37639SOL    HW215235   6.938   0.191   7.439  0.7805  0.2480  0.3082
37640SOL     OW15236   1.252   6.126   1.844 -0.5824 -0.0788  0.2769
37640SOL    HW115237   1.305   6.140   1.766 -0.6366  1.4066  0.4793
37640SOL    HW215238   1.306   6.160   1.916 -0.9865 -0.4146  0.7467
37641SOL     OW15239   0.905   3.212   0.351  0.1186 -0.2824  0.5912
37641SOL    HW115240   0.866   3.230   0.436 -0.6413  0.2598  0.1420
37641SOL    HW215241   0.998   3.202   0.369  0.6709  3.8088  0.9834
37642SOL     OW15242  10.505   0.446  10.386  0.5907  0.1636  0.6083
37642SOL    HW115243  10.459   0.496  10.454 -2.9944 -1.1561 -0.6511
37642SOL    HW215244  10.476   0.484  10.304  0.9679 -1.4131 -0.2950
37643SOL     OW15245   2.985   7.091   6.095  0.2946  0.4589 -0.7188
37643SOL    HW115246   2.918   7.076   6.028 -1.0222 -0.5502  0.7373
37643SOL    HW215247   2.944   7.155   6.155  1.4881  1.4316 -0.9017
37644SOL     OW15248   1.805   9.245   2.573 -0.0221  0.5041  0.2849
37644SOL    HW115249   1.825   9.329   2.531  2.6545 -0.7268 -1.1830
37644SOL    HW215250   1.729   9.212   2.526  0.0339  1.2982 -0.3952
37645SOL     OW15251   3.842   7.245   1.845 -0.1651  0.2550  0.2595
37645SOL    HW115252   3.752   7.279   1.836 -0.1425  0.3666  0.4396
37645SOL    HW215253   3.832   7.167   1.899 -0.2132 -0.0078 -0.1307
37646SOL     OW15254   7.927   0.690   7.515  0.2028 -0.6684 -1.1589
37646SOL    HW115255   7.953   0.602   7.541  1.0704  0.5818  2.9931
37646SOL    HW215256   7.844   0.705   7.561  1.1276  1.3318 -0.0156
37647SOL     OW15257   9.949   0.092   4.033  0.6652  0.7953  0.3375
37647SOL    HW115258  10.009   0.166   4.023  0.9620  0.5726  0.4530
37647SOL    HW215259   9.870   0.118   3.985  0.3566  1.6475  1.2721
37648SOL     OW15260   8.400   8.262   0.969 -0.0775 -0.3243 -0.6446
37648SOL    HW115261   8.431   8.280   0.880  1.1152  1.4031  0.0508
37648SOL    HW215262   8.400   8.167   0.976  3.9121 -0.5314 -1.2197
37649SOL     OW15263   7.871   9.848   7.287  0.0929  0.0599 -0.8186
37649SOL    HW115264   7.872   9.753   7.271  1.7317 -0.1697  0.4316
37649SOL    HW215265   7.888   9.887   7.201 -0.7889 -0.7458 -1.3822
37650SOL     OW15266   3.794   6.414   1.539  0.0384  0.8883 -0.1800
37650SOL    HW115267   3.723   6.415   1.474  0.0197 -0.5406 -0.2161
37650SOL    HW215268   3.868   6.456   1.494 -0.3219  0.9901 -0.6919
37651SOL     OW15269   5.958   9.884   6.301 -0.2630  0.3508 -0.1605
37651SOL    HW115270   5.944   9.971   6.264 -1.3021  0.2804  0.0401
37651SOL    HW215271   5.880   9.868   6.355 -0.5429 -1.1014 -0.9595
37652SOL     OW15272   6.463   1.948   5.382  0.9765 -0.3120  0.2241
37652SOL    HW115273   6.372   1.970   5.402  0.5191 -1.2461 -0.7614
37652SOL    HW215274   6.485   2.003   5.307  1.7523  1.0494  1.4017
37653SOL     OW15275   7.636   2.608   3.520  0.0232 -0.0142 -0.5828
37653SOL    HW115276   7.686   2.580   3.596 -2.5899  2.0153  2.1216
37653SOL    HW215277   7.699   2.655   3.466  2.0895 -1.9877 -0.0652
37654SOL     OW15278   5.515   6.648   3.761  0.0669  0.3523  0.1474
37654SOL    HW115279   5.529   6.714   3.693  0.4977 -0.3835 -0.4933
37654SOL    HW215280   5.452   6.587   3.723  0.2357 -0.0133  0.4445
37655SOL     OW15281   4.106   9.298   4.569  0.3415  0.1089  0.5774
37655SOL    HW115282   4.095   9.334   4.482  0.8015  0.4065  0.6385
37655SOL    HW215283   4.051   9.220   4.570  0.3705  0.0780  0.0064
37656SOL     OW15284   0.097   1.796   4.183 -0.1547 -0.3361 -0.5178
37656SOL    HW115285   0.028   1.857   4.158  1.6266  1.9643 -0.1115
37656SOL    HW215286   0.106   1.809   4.278  0.2804 -1.2368 -0.4286
37657SOL     OW15287  10.482   4.318   3.717 -0.2425 -0.6161 -0.2078
37657SOL    HW115288  10.483   4.372   3.639 -0.2422 -0.5144 -0.1373
37657SOL    HW215289  10.560   4.263   3.710 -0.1003 -0.4228 -0.1479
37658SOL     OW15290   7.554   3.518   5.225  0.2665 -0.2955  0.1116
37658SOL    HW115291   7.488   3.463   5.183 -0.4308  0.2159  0.5295
37658SOL    HW215292   7.504   3.587   5.268  1.0785  0.1278  0.3881
37659SOL     OW15293   7.102   4.190   4.974  0.2675 -0.4746 -0.3397
37659SOL    HW115294   7.024   4.244   4.989  0.3378 -0.3883 -0.2808
37659SOL    HW215295   7.101   4.125   5.044  1.4504  0.9054  1.0497
37660SOL     OW15296   2.858   3.800  10.432  0.4157  0.0354 -0.5791
37660SOL    HW115297   2.844   3.887  10.470  1.3182 -0.8306  1.9493
37660SOL    HW215298   2.953   3.793  10.424  0.5007 -1.4000  1.1345
37661SOL     OW15299   2.999   4.051   3.047 -0.1665 -1.1825  0.2364
37661SOL    HW115300   3.046   4.131   3.023 -0.5036 -1.6019 -2.0176
37661SOL    HW215301   2.908   4.067   3.019 -0.0618 -2.6481 -1.1016
37662SOL     OW15302   5.995   4.508   6.881  0.0080 -0.0276 -0.1160
37662SOL    HW115303   6.027   4.479   6.795 -0.0314  1.4891 -0.6722
37662SOL    HW215304   5.900   4.516   6.870  0.0590  0.6262 -0.0690
37663SOL     OW15305   1.282   5.605   6.329  0.5216  0.1846  0.0400
37663SOL    HW115306   1.309   5.684   6.282  0.5217  0.6719  0.8406
37663SOL    HW215307   1.202   5.576   6.285  1.1293 -0.0120 -0.9597
37664SOL     OW15308   5.379   9.133   1.274 -0.1513  0.0817  0.4437
37664SOL    HW115309   5.362   9.066   1.339 -0.0876  0.1050  0.4838
37664SOL    HW215310   5.336   9.211   1.308  0.0244  0.1374  0.5405
37665SOL     OW15311   6.884   5.626   5.980  0.2241  0.0157 -0.2890
37665SOL    HW115312   6.861   5.712   5.943 -0.1890 -0.0627 -0.2074
37665SOL    HW215313   6.801   5.584   5.998  0.4214 -0.8179 -1.2743
37666SOL     OW15314   4.372   3.675   8.772 -0.5504  0.1227  0.2849
37666SOL    HW115315   4.358   3.586   8.738  0.9936  0.1844 -0.6020
37666SOL    HW215316   4.456   3.670   8.818 -0.0541  1.2952 -0.4555
37667SOL     OW15317   4.579   9.155   1.758 -0.4785 -0.1619 -0.0356
37667SOL    HW115318   4.614   9.239   1.790 -1.0054  0.1656 -0.3105
37667SOL    HW215319   4.549   9.174   1.669  1.1900 -1.1174 -0.8500
37668SOL     OW15320   0.914   3.326   7.421  0.0380 -0.0826  0.2298
37668SOL    HW115321   0.904   3.417   7.393 -4.1994 -0.7054 -0.9833
37668SOL    HW215322   0.936   3.278   7.341 -2.4706 -0.5828 -0.2793
37669SOL     OW15323   6.170   8.039   2.962  0.3124  0.4891 -0.8776
37669SOL    HW115324   6.237   7.975   2.936 -0.6572 -0.6375 -0.6750
37669SOL    HW215325   6.219   8.120   2.975  1.4343  0.0650 -2.1511
37670SOL     OW15326   0.113  10.239   7.105  0.3510  0.5752 -0.3122
37670SOL    HW115327   0.071  10.157   7.081  1.9438 -0.1361 -0.8168
37670SOL    HW215328   0.094  10.250   7.198  0.7303 -0.7806 -0.0520
37671SOL     OW15329   4.952   3.388   6.724  0.1103  0.0457 -0.6808
37671SOL    HW115330   4.960   3.371   6.630 -1.5008 -1.2596 -0.6149
37671SOL    HW215331   4.859   3.407   6.737  0.4558  1.0251  0.5411
37672SOL     OW15332   7.601   6.725   8.670 -0.0740 -0.2428  0.3717
37672SOL    HW115333   7.665   6.676   8.618 -0.7686 -0.5447 -0.2043
37672SOL    HW215334   7.544   6.767   8.605  0.4505  1.2818  0.8437
37673SOL     OW15335   0.282   5.235   6.907  0.1539  0.0043 -0.7305
37673SOL    HW115336   0.341   5.165   6.933  0.6096  0.3254 -0.8945
37673SOL    HW215337   0.196   5.207   6.940  0.8279  0.7992  2.0236
37674SOL     OW15338   0.735   0.552   1.101 -0.1906 -0.1496 -0.1191
37674SOL    HW115339   0.711   0.515   1.016  0.4382  1.4982 -1.0663
37674SOL    HW215340   0.660   0.536   1.157 -0.4421 -1.6614 -0.8452
37675SOL     OW15341   0.516  10.312   6.655  0.4532  0.0299  0.3721
37675SOL    HW115342   0.539  10.271   6.572  0.2607  0.2984  0.1849
37675SOL    HW215343   0.558  10.398   6.652 -2.5759  1.6118 -1.0881
37676SOL     OW15344   2.020   3.825   7.138  0.1629 -0.5454  0.0929
37676SOL    HW115345   2.048   3.916   7.139  0.6832 -0.6953 -0.3590
37676SOL    HW215346   2.033   3.796   7.048 -1.5614 -0.6059 -0.1755
37677SOL     OW15347   7.771   4.826   4.568  0.2004  0.8150 -0.0152
37677SOL    HW115348   7.815   4.911   4.570  0.4564  0.6815  0.0607
37677SOL    HW215349   7.753   4.811   4.475 -1.5369  1.8128  0.1290
37678SOL     OW15350   9.001   6.280   0.518  0.4533 -0.4262 -0.0966
37678SOL    HW115351   9.055   6.217   0.565  0.8708 -1.4414 -1.8416
37678SOL    HW215352   9.064   6.341   0.480  0.2540 -0.5419 -0.6181
37679SOL     OW15353   4.801   1.910   7.129  0.1826 -0.0850 -0.5904
37679SOL    HW115354   4.862   1.916   7.055  0.0906 -0.3865 -0.6935
37679SOL    HW215355   4.849   1.948   7.203  0.3975 -0.0789 -0.7318
37680SOL     OW15356   3.336   1.110   8.965 -0.0262  0.0239 -0.1575
37680SOL    HW115357   3.290   1.187   8.931  0.0297  0.3098  0.4011
37680SOL    HW215358   3.428   1.130   8.954  0.0986  1.1952  2.3631
37681SOL     OW15359  10.551   9.687   7.010 -0.1966 -0.4661  0.0753
37681SOL    HW115360  10.512   9.600   7.019  0.3671 -0.9839 -1.9890
37681SOL    HW215361  10.625   9.675   6.951  0.1721  1.3487  0.0918
37682SOL     OW15362   8.196   8.753   7.477 -0.2433  0.2009  0.3149
37682SOL    HW115363   8.277   8.798   7.454  0.2020 -0.9988 -0.5584
37682SOL    HW215364   8.216   8.711   7.560 -0.6739  1.5808  1.1564
37683SOL     OW15365   1.537   3.152  10.507 -0.1540  0.3560  0.1002
37683SOL    HW115366   1.484   3.196  10.573  0.9530  0.4635  0.9414
37683SOL    HW215367   1.476   3.092  10.463 -1.1341  1.0227  0.5137
37684SOL     OW15368   2.442   3.192   9.170 -0.3252 -0.2897 -1.3293
37684SOL    HW115369   2.427   3.186   9.076  0.9925  0.0801 -1.5741
37684SOL    HW215370   2.528   3.233   9.179  0.9287 -2.9883 -0.0061
37685SOL     OW15371   8.406   0.459   0.683  0.7799  0.1076 -0.5717
37685SOL    HW115372   8.339   0.486   0.620 -0.1365 -0.6274  0.0556
37685SOL    HW215373   8.466   0.534   0.689 -0.4173  1.0986 -0.5688
37686SOL     OW15374   2.493   6.469   7.929  0.2130  0.3156  0.3568
37686SOL    HW115375   2.551   6.394   7.943 -0.6492 -0.2371  1.1263
37686SOL    HW215376   2.439   6.443   7.854 -0.8056 -0.3194  1.2782
37687SOL     OW15377   1.896   1.977   2.474 -0.3274 -0.5899  0.3591
37687SOL    HW115378   1.912   1.909   2.409 -1.8200  0.8224 -1.6361
37687SOL    HW215379   1.810   1.956   2.510 -0.3998 -0.2444  0.3906
37688SOL     OW15380   7.019   2.381   3.418 -0.4002  0.2393 -0.3817
37688SOL    HW115381   6.948   2.428   3.374 -0.8591 -0.0380  0.0594
37688SOL    HW215382   7.012   2.406   3.510 -0.8885 -0.9711 -0.0680
37689SOL     OW15383   6.962   4.585   3.912 -0.5664  0.0259 -0.2177
37689SOL    HW115384   6.973   4.675   3.882 -1.2350 -0.6785 -2.8073
37689SOL    HW215385   6.869   4.576   3.929 -0.3871  0.0157  0.8446
37690SOL     OW15386   5.323   9.210   3.952 -0.1645 -0.3312 -0.2483
37690SOL    HW115387   5.277   9.164   3.882 -0.2602 -1.7597  0.6993
37690SOL    HW215388   5.409   9.231   3.915 -0.9940  1.0015 -1.5256
37691SOL     OW15389   4.700   0.947   3.178 -0.3373 -0.1457 -0.3933
37691SOL    HW115390   4.617   0.994   3.168 -0.4590  0.0603  1.2095
37691SOL    HW215391   4.684   0.861   3.141 -1.0157  0.1670 -0.8380
37692SOL     OW15392   9.322   2.506   0.116  0.1418 -0.0017  0.0067
37692SOL    HW115393   9.402   2.457   0.100 -0.4893 -0.6375 -1.3638
37692SOL    HW215394   9.313   2.564   0.039 -1.2518 -0.7217 -0.4114
37693SOL     OW15395   7.364   0.597   8.061 -0.2032  0.5060  0.5717
37693SOL    HW115396   7.368   0.619   7.968  0.3507  0.2873  0.5423
37693SOL    HW215397   7.348   0.680   8.105 -2.5407  0.3561  0.1498
37694SOL     OW15398  10.457   3.208   2.011 -0.5630  0.3442 -0.7991
37694SOL    HW115399  10.367   3.203   1.978 -0.5889  3.3514 -1.4547
37694SOL    HW215400  10.496   3.281   1.964  2.2843 -0.8767 -0.5185
37695SOL     OW15401  10.367   9.953   2.130  0.0720  0.0933 -1.1247
37695SOL    HW115402  10.309   9.893   2.083  0.0565  0.8387 -2.0917
37695SOL    HW215403  10.321   9.972   2.211 -0.1970 -0.7339 -1.0731
37696SOL     OW15404   5.934   8.834   4.452 -0.0885  0.2656 -0.0846
37696SOL    HW115405   5.874   8.881   4.395  0.7986 -1.1037 -2.2801
37696SOL    HW215406   6.020   8.872   4.434  0.2671 -0.4738  0.0078
37697SOL     OW15407   0.198   8.447   9.519 -0.0184 -0.2299 -0.8662
37697SOL    HW115408   0.197   8.453   9.614  0.2286  2.8446 -0.9672
37697SOL    HW215409   0.160   8.361   9.500 -1.4723 -0.3137  1.9461
37698SOL     OW15410   3.338   2.335   8.620  0.0314 -0.3918  0.4200
37698SOL    HW115411   3.285   2.324   8.699  2.0248  2.3823  2.3280
37698SOL    HW215412   3.361   2.246   8.593 -1.2548 -1.4490  2.5670
37699SOL     OW15413   2.380   3.587   5.880  0.5546 -0.2482  0.2856
37699SOL    HW115414   2.415   3.606   5.793  1.0894 -0.5737  0.4267
37699SOL    HW215415   2.369   3.673   5.921 -2.2675  0.1520 -1.0509
37700SOL     OW15416   2.062   1.839   7.646 -0.2791 -0.6428 -0.2320
37700SOL    HW115417   2.084   1.794   7.728  0.0775 -2.8679 -1.4660
37700SOL    HW215418   2.145   1.843   7.599 -0.8308 -1.1456 -1.2662
37701SOL     OW15419   7.751   4.989   4.007  0.1981  0.0136  0.1292
37701SOL    HW115420   7.710   5.044   4.073  1.0756  2.1686 -1.0424
37701SOL    HW215421   7.817   4.938   4.054 -1.8264 -1.4745  1.5416
37702SOL     OW15422   6.963   6.503   0.338 -0.0778 -0.2857 -0.2354
37702SOL    HW115423   6.959   6.419   0.383  0.1382 -1.1616 -1.7933
37702SOL    HW215424   6.905   6.560   0.388 -0.7387 -1.5353  0.4620
37703SOL     OW15425   1.772   5.788   5.629 -0.1085 -0.1267  0.2875
37703SOL    HW115426   1.809   5.714   5.581 -2.1386 -0.7034 -0.5158
37703SOL    HW215427   1.677   5.779   5.617 -0.5853  0.9036  2.6990
37704SOL     OW15428   7.675  10.171   5.971 -0.0892  0.5180  0.6653
37704SOL    HW115429   7.745  10.233   5.953 -0.3543  0.9687  1.1638
37704SOL    HW215430   7.700  10.092   5.923 -0.1738  1.2841 -0.6726
37705SOL     OW15431   8.142   2.286   7.549  0.0585 -0.0827  0.2024
37705SOL    HW115432   8.111   2.270   7.459 -3.4748  1.0570  1.0446
37705SOL    HW215433   8.177   2.376   7.546 -2.2394  0.8830  0.3515
37706SOL     OW15434   5.452   3.263   6.353 -0.2107 -0.9896 -0.3412
37706SOL    HW115435   5.470   3.356   6.371 -1.7094 -1.0052  1.6149
37706SOL    HW215436   5.485   3.249   6.265  1.1314  1.1016 -0.2527
37707SOL     OW15437   5.294  10.456   8.375  0.1655  0.2470 -0.6039
37707SOL    HW115438   5.263  10.368   8.393  1.6751  0.1832  2.2419
37707SOL    HW215439   5.225  10.514   8.409  0.0034  0.1491 -0.7682
37708SOL     OW15440   6.139   5.140  10.192 -0.2021  0.2760  0.3584
37708SOL    HW115441   6.094   5.117  10.111 -1.2351  2.2848  0.3013
37708SOL    HW215442   6.075   5.124  10.261 -0.5955  1.9169  0.4050
37709SOL     OW15443   2.135   0.070   4.769  0.5000 -0.2722 -0.4651
37709SOL    HW115444   2.194   0.102   4.701  0.7376  0.8214  0.2159
37709SOL    HW215445   2.058   0.126   4.762  0.2058 -0.6606 -0.3331
37710SOL     OW15446   4.824   8.720   5.423 -0.4007 -0.4677 -0.0730
37710SOL    HW115447   4.904   8.698   5.470  0.1928 -0.0866 -0.8965
37710SOL    HW215448   4.838   8.809   5.391 -0.8244 -0.6856 -0.9006
37711SOL     OW15449   8.683   4.277  10.547 -0.3116 -0.7384 -0.2916
37711SOL    HW115450   8.663   4.206  10.608  0.8894 -1.1253 -0.3198
37711SOL    HW215451   8.767   4.252  10.508  0.8073  1.2992  0.6387
37712SOL     OW15452  10.304   0.454   8.641  0.1587  0.1137  0.3032
37712SOL    HW115453  10.252   0.430   8.565  1.2110  0.4872 -0.5640
37712SOL    HW215454  10.394   0.460   8.608  0.5701  0.7672  1.4642
37713SOL     OW15455   5.777   4.577   5.491  0.2624  0.1677 -0.0556
37713SOL    HW115456   5.730   4.495   5.507 -0.2541 -0.1790 -2.9467
37713SOL    HW215457   5.714   4.633   5.447  1.3274  1.2868 -0.2065
37714SOL     OW15458   5.370   1.374  10.438  0.1608 -0.1889  0.0864
37714SOL    HW115459   5.416   1.292  10.420  1.5386  0.5930 -0.1603
37714SOL    HW215460   5.435   1.442  10.417 -0.7978  0.9437  0.6974
37715SOL     OW15461   4.577   9.655   0.442  0.6323  0.2297  0.5766
37715SOL    HW115462   4.592   9.738   0.397  0.9930 -0.6742 -1.0886
37715SOL    HW215463   4.580   9.676   0.535 -1.1914  2.4029  0.2209
37716SOL     OW15464   4.867   0.711   3.821 -0.7564 -0.3394 -0.4146
37716SOL    HW115465   4.912   0.631   3.792 -0.4762 -0.5462  0.5517
37716SOL    HW215466   4.862   0.766   3.742 -0.6513 -1.1669 -1.0109
37717SOL     OW15467   4.797   5.764  10.595  0.2531 -0.0973  0.1470
37717SOL    HW115468   4.860   5.691  10.588  0.4097  0.0214  0.3041
37717SOL    HW215469   4.787   5.796  10.506 -0.0021 -0.4688  0.0407
37718SOL     OW15470   1.604   0.570   9.075 -0.2928 -0.8858 -0.5757
37718SOL    HW115471   1.624   0.621   8.997  0.9148  3.1135  2.0656
37718SOL    HW215472   1.689   0.541   9.107 -0.3958  0.3027  0.8829
37719SOL     OW15473   0.381   4.899   3.804 -0.1612  0.7597  0.0697
37719SOL    HW115474   0.395   4.992   3.787  0.5460  0.8638  1.1181
37719SOL    HW215475   0.421   4.854   3.730 -0.9921  1.2958 -0.7202
37720SOL     OW15476   7.494   4.463  10.329  0.8012 -0.1231  0.3483
37720SOL    HW115477   7.499   4.370  10.307 -0.5546 -0.3652  0.9865
37720SOL    HW215478   7.401   4.481  10.337  0.8603  1.8794 -2.1722
37721SOL     OW15479   4.579   8.829   2.430  0.2725  1.0131 -0.0518
37721SOL    HW115480   4.654   8.838   2.371  1.5077  0.3057  1.3338
37721SOL    HW215481   4.522   8.902   2.408 -0.0288  0.0045 -3.0725
37722SOL     OW15482  10.579   8.358   2.477 -0.4631  0.5831 -0.2385
37722SOL    HW115483  10.505   8.330   2.531 -0.8687 -0.3594 -1.2588
37722SOL    HW215484  10.655   8.341   2.532 -0.9006  0.1722  0.2605
37723SOL     OW15485   7.438   1.417   8.554  0.1220  0.5938  0.3522
37723SOL    HW115486   7.473   1.491   8.504 -1.1569  0.0799 -1.3940
37723SOL    HW215487   7.514   1.382   8.601  1.6869  0.3956 -2.1316
37724SOL     OW15488   5.546  10.082   5.822  0.3692 -0.1826 -0.8031
37724SOL    HW115489   5.606  10.043   5.886  0.0628 -1.1299 -1.0729
37724SOL    HW215490   5.546  10.175   5.843  2.0698 -0.1217 -0.9120
37725SOL     OW15491   1.735   2.132   6.386 -0.5942 -0.0317 -0.4081
37725SOL    HW115492   1.676   2.200   6.419  1.0611  1.8400 -1.1046
37725SOL    HW215493   1.717   2.129   6.292  0.9288  1.1757 -0.7805
37726SOL     OW15494   9.017   2.092  10.161  0.2003  0.5848 -0.4375
37726SOL    HW115495   8.941   2.091  10.102 -1.0035  2.2178  0.9979
37726SOL    HW215496   9.086   2.133  10.109 -0.5272  1.0142 -1.0973
37727SOL     OW15497   2.151   1.497   2.919  0.2673 -0.6022  0.2988
37727SOL    HW115498   2.175   1.525   3.007 -0.2499  1.6599 -0.2247
37727SOL    HW215499   2.060   1.468   2.927 -0.7032  2.1474  0.0705
37728SOL     OW15500   3.061   8.382   0.136  0.4056 -0.0333  0.0325
37728SOL    HW115501   3.055   8.447   0.206  1.1009 -0.9710  0.9794
37728SOL    HW215502   2.971   8.351   0.124  0.1561  0.7115 -0.0676
37729SOL     OW15503   3.299   5.362   2.397  0.3257 -0.2308 -0.1220
37729SOL    HW115504   3.304   5.322   2.310  2.0137  0.9488 -0.6270
37729SOL    HW215505   3.370   5.426   2.398  0.2945 -0.1500  2.1120
37730SOL     OW15506   6.568   9.146   6.485 -0.1568 -0.2238  0.0827
37730SOL    HW115507   6.497   9.123   6.424 -1.1204 -1.1821  1.4932
37730SOL    HW215508   6.648   9.129   6.436 -0.8972 -1.5181 -0.7494
37731SOL     OW15509   0.884   5.956   2.958  0.1682  0.5161  0.0952
37731SOL    HW115510   0.898   5.931   3.050  0.0432  1.4661  0.3773
37731SOL    HW215511   0.894   6.051   2.957  0.7310  0.4565 -0.9875
37732SOL     OW15512   5.318   9.605   2.536  0.1170  0.0641 -0.5856
37732SOL    HW115513   5.235   9.557   2.530  0.0418 -0.1046  1.1756
37732SOL    HW215514   5.294   9.687   2.580  0.5847  0.8537 -1.7717
37733SOL     OW15515   8.514   7.577   6.388  0.3309 -0.0609 -0.8644
37733SOL    HW115516   8.577   7.527   6.335  2.8042  0.0878  1.7233
37733SOL    HW215517   8.516   7.665   6.350  0.2420 -0.5108 -1.9630
37734SOL     OW15518   5.227   5.262   1.295  0.3133 -0.3022 -0.1527
37734SOL    HW115519   5.311   5.265   1.342  0.6456 -1.0516 -0.6828
37734SOL    HW215520   5.232   5.335   1.234  1.3310 -1.3660 -1.3980
37735SOL     OW15521   0.438   8.731   2.824  0.7318 -0.1002  0.1679
37735SOL    HW115522   0.468   8.712   2.735  0.0172 -0.2470 -0.0498
37735SOL    HW215523   0.397   8.649   2.853 -1.2520  0.6734 -0.3015
37736SOL     OW15524   2.366   8.071   0.541 -0.0608 -0.2744 -0.1079
37736SOL    HW115525   2.307   8.145   0.556 -0.3885 -0.0695 -2.1040
37736SOL    HW215526   2.428   8.103   0.476  1.5701 -0.8760  1.0860
37737SOL     OW15527   3.152   8.855   0.388  0.4997 -0.4569 -0.5567
37737SOL    HW115528   3.138   8.944   0.356 -1.4330 -1.1292 -1.7371
37737SOL    HW215529   3.140   8.862   0.483 -0.4969  0.3961 -0.7344
37738SOL     OW15530   8.177   6.450   0.703  0.5107 -0.0509  0.0973
37738SOL    HW115531   8.143   6.396   0.775 -0.6889 -1.1714 -1.2270
37738SOL    HW215532   8.103   6.456   0.641  1.6274  0.4859 -1.2457
37739SOL     OW15533   2.637   7.272   2.112  0.3483 -0.1742 -0.0385
37739SOL    HW115534   2.653   7.363   2.139 -0.4350  0.0159 -0.1986
37739SOL    HW215535   2.693   7.220   2.170  1.1249  0.4357 -0.2258
37740SOL     OW15536   6.205  10.122   7.584 -0.0490  0.1610 -0.0077
37740SOL    HW115537   6.185  10.089   7.671 -0.2356  2.5472  0.9439
37740SOL    HW215538   6.132  10.094   7.529 -1.8435  1.6715  1.4872
37741SOL     OW15539   1.600   6.387   5.845 -0.3708 -0.3059  0.2300
37741SOL    HW115540   1.625   6.301   5.811 -0.4199 -0.0989 -0.3487
37741SOL    HW215541   1.682   6.426   5.876  0.0594  0.3370 -1.5805
37742SOL     OW15542   1.076   9.632   5.674 -0.0794  0.2976 -0.3611
37742SOL    HW115543   0.986   9.664   5.676  0.4788  2.0197 -0.9185
37742SOL    HW215544   1.129   9.709   5.655  1.5525 -0.6279  0.1634
37743SOL     OW15545   4.642   2.184   0.525  0.5886 -0.5068  0.2264
37743SOL    HW115546   4.590   2.164   0.448  2.0852 -1.5674 -0.5554
37743SOL    HW215547   4.703   2.111   0.533  1.8513  0.5834  1.1946
37744SOL     OW15548   1.520   2.272   8.957  0.5368  0.9142  0.5539
37744SOL    HW115549   1.613   2.282   8.976  0.6408 -0.0459  0.6076
37744SOL    HW215550   1.478   2.349   8.997  1.0802  0.3938  2.1804
37745SOL     OW15551   9.151   0.169   0.291 -0.3616 -0.0427 -0.1960
37745SOL    HW115552   9.139   0.252   0.337  1.6910 -1.3016  2.9626
37745SOL    HW215553   9.094   0.107   0.336 -1.7120 -0.4988 -2.3659
37746SOL     OW15554   3.084   9.993   2.858 -0.6050  0.2110 -0.3108
37746SOL    HW115555   3.010   9.953   2.904 -1.9191  3.4509  0.7253
37746SOL    HW215556   3.161   9.965   2.908 -1.0660 -2.7738 -1.0644
37747SOL     OW15557   4.320   0.173  10.474 -0.5881 -0.3250 -0.4563
37747SOL    HW115558   4.358   0.106  10.531  1.3680  0.7272 -0.4518
37747SOL    HW215559   4.258   0.125  10.419 -0.9316 -1.7246  1.0785
37748SOL     OW15560   2.640   2.735   7.770  0.0553 -0.1566 -0.3254
37748SOL    HW115561   2.610   2.645   7.783  2.2565 -0.9351 -0.0679
37748SOL    HW215562   2.697   2.730   7.693  1.2010  0.7373  0.4250
37749SOL     OW15563   2.163   0.501   4.091  0.4530  0.1531  0.3373
37749SOL    HW115564   2.142   0.584   4.048  1.0997  0.3031  0.2985
37749SOL    HW215565   2.179   0.525   4.182 -1.5877 -0.2577  0.8558
37750SOL     OW15566   0.023   8.457   6.673  0.2703  0.0561  0.0189
37750SOL    HW115567   0.086   8.522   6.643 -0.3711  0.2831 -0.8968
37750SOL    HW215568  -0.056   8.476   6.622 -1.0669  0.7822  2.1884
37751SOL     OW15569   6.640   4.243   5.145  0.1499  0.0295  0.7011
37751SOL    HW115570   6.632   4.204   5.058 -1.0505 -0.2729  0.9238
37751SOL    HW215571   6.703   4.187   5.191  0.7551  0.1670  0.0491
37752SOL     OW15572   9.832   3.578   7.021  0.0364 -0.1590 -0.3021
37752SOL    HW115573   9.818   3.610   7.110  0.6045 -0.1075 -0.2276
37752SOL    HW215574   9.770   3.505   7.012 -1.1139  0.7989 -0.3986
37753SOL     OW15575   5.708   4.354   9.345 -0.0719  0.3533 -0.0492
37753SOL    HW115576   5.774   4.286   9.333 -1.5775 -0.9857 -1.4040
37753SOL    HW215577   5.660   4.327   9.423  0.2518  0.6828  0.2649
37754SOL     OW15578   3.904   0.327   9.834 -0.7803 -0.3852  0.4024
37754SOL    HW115579   3.867   0.299   9.918 -0.3835 -0.9450  0.4011
37754SOL    HW215580   3.991   0.361   9.856 -0.4079 -1.1429  0.1541
37755SOL     OW15581   5.435   1.947   9.402  0.3628  0.4639  0.0591
37755SOL    HW115582   5.469   1.964   9.490 -0.4733 -1.2263  0.7408
37755SOL    HW215583   5.359   1.892   9.416  0.0113  0.4522 -1.7250
37756SOL     OW15584   1.671  10.175   6.661  0.1282  0.1759 -0.0627
37756SOL    HW115585   1.740  10.239   6.643  0.1953 -0.2171 -1.2641
37756SOL    HW215586   1.713  10.111   6.719  0.2367  0.8857  0.6499
37757SOL     OW15587   0.658   9.428   6.538  0.3958 -0.7008 -0.7170
37757SOL    HW115588   0.664   9.421   6.633 -1.0151 -1.8849 -0.6843
37757SOL    HW215589   0.587   9.368   6.514 -2.0488  2.4902 -2.1455
37758SOL     OW15590   9.087   6.750   5.828  0.0635  0.4359 -0.0196
37758SOL    HW115591   9.041   6.687   5.773  0.7780 -0.0005 -0.1230
37758SOL    HW215592   9.082   6.714   5.916  1.0845 -0.1338 -0.1847
37759SOL     OW15593   2.620   2.688   0.735  0.1569  0.2481 -0.1906
37759SOL    HW115594   2.654   2.776   0.718 -1.0825  0.2694 -3.3560
37759SOL    HW215595   2.636   2.640   0.653  1.5960 -2.8314  1.7119
37760SOL     OW15596   0.941   6.334   8.569  0.1381  0.7926  0.4789
37760SOL    HW115597   0.997   6.378   8.504  0.3329  0.7906  0.6438
37760SOL    HW215598   0.946   6.241   8.546  0.4276  0.7624  0.6663
37761SOL     OW15599   0.381  10.423   3.950  0.0557 -0.0059 -0.2448
37761SOL    HW115600   0.425  10.490   3.899 -0.5667 -0.3478 -1.2609
37761SOL    HW215601   0.289  10.447   3.947  0.0907  0.4998  1.5510
37762SOL     OW15602   0.425   3.389   2.033 -0.0938  0.2720 -0.0259
37762SOL    HW115603   0.442   3.343   2.116  1.0986 -2.6921 -1.7433
37762SOL    HW215604   0.333   3.415   2.039 -1.1279 -3.0899  0.8898
37763SOL     OW15605   2.091   1.627   3.171 -0.5190 -0.2532 -0.3453
37763SOL    HW115606   2.176   1.598   3.204 -1.3072 -5.0924 -1.7109
37763SOL    HW215607   2.041   1.651   3.249  0.8351 -1.3119  0.8953
37764SOL     OW15608   8.729   0.912   0.895  0.5850  0.8230  0.7423
37764SOL    HW115609   8.775   0.996   0.885  0.0253  1.3983  2.5721
37764SOL    HW215610   8.685   0.919   0.980 -1.9660 -0.1522 -0.3979
37765SOL     OW15611   2.171   7.238   6.513 -0.1717  0.4952 -0.1564
37765SOL    HW115612   2.255   7.254   6.471  0.5422 -0.6629  0.7760
37765SOL    HW215613   2.193   7.222   6.605 -1.3923 -0.0156  0.0626
37766SOL     OW15614   1.355   5.733   3.971  0.4341 -0.1799 -0.6783
37766SOL    HW115615   1.361   5.784   4.052 -0.6559 -1.2680  0.1290
37766SOL    HW215616   1.375   5.796   3.901  0.4986  1.0023  0.3700
37767SOL     OW15617   8.676   3.162  10.308 -0.2449  0.0075  0.1010
37767SOL    HW115618   8.663   3.255  10.291  1.0287  0.2320  0.2446
37767SOL    HW215619   8.667   3.121  10.222 -1.9772  0.0853  0.2089
37768SOL     OW15620   9.715  10.530   9.211  0.4490  0.1354 -0.5069
37768SOL    HW115621   9.640  10.488   9.253  1.9827 -0.3149  1.9977
37768SOL    HW215622   9.768  10.458   9.178 -0.2888  0.4619 -2.5066
37769SOL     OW15623   4.954   7.424   8.115 -0.1072  0.6404 -0.0424
37769SOL    HW115624   4.874   7.393   8.073  0.8268 -0.7670 -0.8821
37769SOL    HW215625   5.010   7.453   8.043  0.4877  0.7177  0.4341
37770SOL     OW15626   9.749   6.893   9.064 -0.0736 -0.1440  0.1806
37770SOL    HW115627   9.770   6.849   8.982 -1.0767 -0.0945 -0.1142
37770SOL    HW215628   9.834   6.915   9.102  0.4137 -0.8957 -0.4437
37771SOL     OW15629   4.151   6.652   9.399 -0.2802 -0.1068 -0.3139
37771SOL    HW115630   4.229   6.702   9.375  0.4382 -1.3105 -0.6148
37771SOL    HW215631   4.086   6.718   9.423  1.2121  0.9316  1.1550
37772SOL     OW15632   5.180   4.622   1.477  0.9338  0.3766 -0.3484
37772SOL    HW115633   5.147   4.569   1.550  1.3670 -0.5560 -0.8090
37772SOL    HW215634   5.134   4.705   1.485  0.3846  0.0041  0.5226
37773SOL     OW15635   8.928  10.189   4.875  0.2646  0.6944 -0.0873
37773SOL    HW115636   8.952  10.166   4.785  1.3865  0.1919  0.3237
37773SOL    HW215637   9.010  10.184   4.924 -0.4809  0.0528  1.1470
37774SOL     OW15638   1.148   3.861   7.320 -0.1513 -0.1517  0.2186
37774SOL    HW115639   1.135   3.827   7.231 -0.0271 -0.7758  0.4379
37774SOL    HW215640   1.111   3.794   7.377 -0.6545  0.4676  0.6200
37775SOL     OW15641   0.020   2.071   1.869  0.3803  0.1054 -0.0779
37775SOL    HW115642  -0.003   1.979   1.859 -0.9406  0.2808  0.9931
37775SOL    HW215643   0.056   2.077   1.958  0.3569  0.6451 -0.1032
37776SOL     OW15644   8.499   4.769   1.060  0.3239  0.4009 -0.3920
37776SOL    HW115645   8.570   4.826   1.031 -0.4295  2.1513  0.9804
37776SOL    HW215646   8.504   4.692   1.003  2.6949  0.8982 -0.9401
37777SOL     OW15647   1.697   1.814   6.901  0.2690 -0.0755 -0.3538
37777SOL    HW115648   1.626   1.764   6.861 -0.5919  0.7464  0.1097
37777SOL    HW215649   1.722   1.878   6.834  0.6576 -0.4386 -0.5593
37778SOL     OW15650   5.599   3.675   5.270  0.2524  0.0298  0.5513
37778SOL    HW115651   5.691   3.662   5.248  0.4751  0.2009  1.3509
37778SOL    HW215652   5.551   3.637   5.197  0.9422 -1.0302  0.6351
37779SOL     OW15653   9.397  10.219   9.468 -0.2684 -0.2201 -0.2073
37779SOL    HW115654   9.402  10.212   9.563  0.6580  0.5699 -0.1819
37779SOL    HW215655   9.391  10.129   9.437  0.3353 -0.5317  0.5611
37780SOL     OW15656   0.008   4.774   0.869  0.5244 -0.0705 -0.0557
37780SOL    HW115657   0.037   4.751   0.780  2.1707 -2.0412  0.8967
37780SOL    HW215658  -0.086   4.757   0.868 -0.5078  4.2963 -2.6076
37781SOL     OW15659   6.198   6.982   7.007  0.1780  0.3051 -0.1454
37781SOL    HW115660   6.104   6.965   7.011  0.1064  0.8698  1.1150
37781SOL    HW215661   6.211   7.056   7.066  1.5925 -0.5583  0.6770
37782SOL     OW15662  10.489   3.745   7.713  0.0416  0.3187  0.3848
37782SOL    HW115663  10.415   3.799   7.740 -0.1459 -0.2284  0.9900
37782SOL    HW215664  10.560   3.772   7.770 -0.6113 -1.5107  2.1658
37783SOL     OW15665   9.700   0.692   3.399 -0.3937 -0.1746 -0.1128
37783SOL    HW115666   9.689   0.612   3.451 -1.0868 -0.3399 -0.4980
37783SOL    HW215667   9.675   0.763   3.459  0.3062 -0.2306  0.2584
37784SOL     OW15668   7.392   5.725   0.956 -0.0738  0.6092 -0.0677
37784SOL    HW115669   7.338   5.763   0.888 -2.0646 -1.3363  0.3374
37784SOL    HW215670   7.458   5.674   0.910 -1.1387 -0.3396 -0.5620
37785SOL     OW15671   8.193  10.040   8.287 -1.2265 -0.0002 -0.7841
37785SOL    HW115672   8.286  10.044   8.266 -1.4812  0.9141 -1.7828
37785SOL    HW215673   8.185  10.086   8.371 -0.3230 -2.9972  1.1121
37786SOL     OW15674   0.366   2.889   8.112  0.3346 -0.1126  0.4993
37786SOL    HW115675   0.382   2.796   8.092  0.0871 -0.2642  0.9804
37786SOL    HW215676   0.298   2.915   8.050  1.2099  0.0741 -0.4191
37787SOL     OW15677   6.710   8.896   3.736  0.1351 -0.3296 -0.1621
37787SOL    HW115678   6.695   8.847   3.655  1.3211  0.2588 -0.7698
37787SOL    HW215679   6.795   8.939   3.722 -0.1778  0.6878  0.9500
37788SOL     OW15680   2.099   6.381   9.154 -0.2076 -0.0405 -0.1757
37788SOL    HW115681   2.100   6.337   9.069  0.2519 -0.2312 -0.0722
37788SOL    HW215682   2.045   6.459   9.140  2.5622  1.7626 -1.5709
37789SOL     OW15683   3.411   1.183   9.715 -0.2654  0.3636 -0.1961
37789SOL    HW115684   3.351   1.128   9.664 -0.4628  0.9222 -0.5744
37789SOL    HW215685   3.368   1.268   9.718  0.1173  0.5414  0.2504
37790SOL     OW15686  10.482   1.345   6.708  0.2958 -0.0171  0.3742
37790SOL    HW115687  10.413   1.411   6.699  0.1551 -0.0656  1.0049
37790SOL    HW215688  10.435   1.262   6.707  0.3402 -0.0511  0.7895
37791SOL     OW15689   5.004   3.387   2.371 -0.0161 -0.0221 -0.2610
37791SOL    HW115690   5.099   3.385   2.371  0.0309 -0.4541  2.0173
37791SOL    HW215691   4.981   3.448   2.301  1.9992  1.3503  0.1860
37792SOL     OW15692   8.336   9.436   3.056 -0.4358 -0.1189 -0.3185
37792SOL    HW115693   8.313   9.472   3.142  1.1489 -0.1216  0.1413
37792SOL    HW215694   8.255   9.398   3.023 -0.4928 -3.0471  2.6105
37793SOL     OW15695   5.965   9.632   3.239  0.0657  0.2212 -0.1055
37793SOL    HW115696   5.908   9.647   3.314 -1.2050 -0.1976 -0.9408
37793SOL    HW215697   5.994   9.541   3.248 -1.8983 -0.5971 -1.2167
37794SOL     OW15698   0.652   5.521   2.720  0.2880  0.5275  0.6446
37794SOL    HW115699   0.744   5.495   2.714  0.1664  0.2353 -0.0132
37794SOL    HW215700   0.651   5.588   2.788  0.8760  0.0295  1.1568
37795SOL     OW15701   8.778   1.629   1.178  0.1436  0.1933  0.3473
37795SOL    HW115702   8.835   1.567   1.132  0.3011  0.5479  0.0629
37795SOL    HW215703   8.696   1.627   1.129  1.0596  2.3318 -1.4296
37796SOL     OW15704   4.485   8.029   0.864  0.0712 -0.3100 -0.2169
37796SOL    HW115705   4.459   8.107   0.913 -1.4381 -1.2007  0.4782
37796SOL    HW215706   4.413   8.015   0.802 -0.4687 -2.0145  0.7402
37797SOL     OW15707  10.111   0.996   8.185  0.3157  0.2659  0.3851
37797SOL    HW115708  10.199   0.973   8.157 -0.3523 -1.4321 -0.4571
37797SOL    HW215709  10.105   1.091   8.170  2.7038  0.9047  2.6001
37798SOL     OW15710   1.805   0.906   8.581 -0.0364 -0.2569 -0.3065
37798SOL    HW115711   1.712   0.928   8.581 -0.2437 -1.1219  0.1375
37798SOL    HW215712   1.848   0.983   8.620 -0.7789 -0.7101  1.4964
37799SOL     OW15713   0.389   8.030   6.633  0.5463  0.1632  0.1737
37799SOL    HW115714   0.319   8.053   6.572  1.7922  1.3923 -0.8521
37799SOL    HW215715   0.373   7.938   6.654  0.0168 -0.2840 -1.9553
37800SOL     OW15716   1.781   5.091   1.770  0.0572 -0.2411 -0.2369
37800SOL    HW115717   1.792   5.162   1.707  0.7065  0.8342  1.0334
37800SOL    HW215718   1.707   5.118   1.824 -1.4711 -1.8662 -1.4081
37801SOL     OW15719   7.611   9.604   5.151  0.2057 -0.1453 -0.0651
37801SOL    HW115720   7.541   9.652   5.195 -0.9628 -1.6424 -0.2056
37801SOL    HW215721   7.671   9.580   5.222  0.2724  0.6159  0.1472
37802SOL     OW15722   0.199   3.306   4.775 -0.0028  0.0644  0.0177
37802SOL    HW115723   0.155   3.247   4.837  0.6717 -0.9886 -0.4751
37802SOL    HW215724   0.291   3.281   4.781  0.3294  1.2407 -0.0450
37803SOL     OW15725   9.505   2.777   3.341 -0.1984 -0.2449 -0.3426
37803SOL    HW115726   9.515   2.749   3.432 -2.9785  0.2148  0.1890
37803SOL    HW215727   9.445   2.713   3.302 -0.4084  0.5257 -1.3419
37804SOL     OW15728   1.501   8.473   8.790  0.5392  0.0168  0.5012
37804SOL    HW115729   1.566   8.448   8.724  1.5313 -0.1171  1.4834
37804SOL    HW215730   1.535   8.555   8.826 -1.4166  1.5824 -1.0163
37805SOL     OW15731   6.876   6.556   2.480  0.5697 -0.1242  0.2395
37805SOL    HW115732   6.932   6.548   2.403  0.1271 -1.1308  0.0129
37805SOL    HW215733   6.790   6.526   2.452  0.2054  0.2424  0.9218
37806SOL     OW15734  10.527   1.154   2.658  0.1363 -0.2017  0.3752
37806SOL    HW115735  10.479   1.076   2.687 -1.6454  0.2500 -1.2078
37806SOL    HW215736  10.461   1.211   2.621  1.7503  0.9737 -0.8691
37807SOL     OW15737   0.398   8.184   2.681  0.2014  0.4187  0.1752
37807SOL    HW115738   0.371   8.099   2.646 -1.2452  1.3891 -1.2230
37807SOL    HW215739   0.477   8.206   2.632  0.9416 -0.3560  0.9761
37808SOL     OW15740   9.628   9.182   9.354  0.5553  0.1436 -0.0325
37808SOL    HW115741   9.682   9.152   9.280 -0.1447 -0.6319 -0.2465
37808SOL    HW215742   9.539   9.155   9.330  0.0335  1.5727  0.2238
37809SOL     OW15743   2.117   3.252   4.086 -0.0171 -0.3370 -0.2393
37809SOL    HW115744   2.095   3.345   4.098 -0.9998 -0.7963  1.9956
37809SOL    HW215745   2.204   3.243   4.123  0.1885 -0.2702 -0.6989
37810SOL     OW15746   1.457  10.273   8.764  0.4825  0.2401 -0.0984
37810SOL    HW115747   1.402  10.351   8.772  1.5351  0.9215  0.7893
37810SOL    HW215748   1.432  10.235   8.680 -0.0919  1.4968 -0.5313
37811SOL     OW15749   2.251   3.560   0.339  0.0109 -0.7665  0.2783
37811SOL    HW115750   2.343   3.575   0.361 -0.2031 -1.0409  1.4337
37811SOL    HW215751   2.251   3.478   0.290  0.3147 -1.1750  0.9437
37812SOL     OW15752   0.672   0.317   8.557  0.0851 -0.1166 -0.0849
37812SOL    HW115753   0.661   0.331   8.463 -0.1229  1.1618  0.1036
37812SOL    HW215754   0.588   0.280   8.586  0.1072 -0.3990 -0.3799
37813SOL     OW15755   8.697   7.479   2.618  0.2648  0.3791 -0.5886
37813SOL    HW115756   8.708   7.408   2.554  0.7310  0.0193 -0.1120
37813SOL    HW215757   8.699   7.559   2.565 -0.0192  0.0564 -1.1005
37814SOL     OW15758  10.234   3.906   8.072 -0.4256 -0.0977 -0.6463
37814SOL    HW115759  10.299   3.872   8.134  0.3337  1.0237 -0.7904
37814SOL    HW215760  10.253   3.999   8.067 -1.5743  0.1175 -1.2866
37815SOL     OW15761   3.296  10.580   1.898 -0.0135 -0.3918 -0.3525
37815SOL    HW115762   3.283  10.569   1.992 -0.3944 -2.1943 -0.5872
37815SOL    HW215763   3.339  10.499   1.870 -0.6357 -0.2332 -1.8528
37816SOL     OW15764   8.671   7.315   8.840 -0.1713 -0.6062  0.3342
37816SOL    HW115765   8.724   7.261   8.899  0.9267  0.5660  0.4604
37816SOL    HW215766   8.717   7.310   8.756  0.2279  0.5047  0.4697
37817SOL     OW15767   3.882   0.755   1.036 -0.3022  0.3846 -0.0602
37817SOL    HW115768   3.841   0.812   1.100 -0.0201  1.7596 -1.0582
37817SOL    HW215769   3.826   0.678   1.033  0.1272 -0.1111  2.4152
37818SOL     OW15770   1.601   1.614   2.132  0.1775 -0.4570 -0.0194
37818SOL    HW115771   1.667   1.576   2.074  0.7646  0.6146 -0.0973
37818SOL    HW215772   1.628   1.587   2.220  0.9250  0.2310 -0.0220
37819SOL     OW15773   7.010   6.582   3.176  0.2834  0.4859  0.5956
37819SOL    HW115774   7.085   6.612   3.124  0.2200  0.0930  0.2770
37819SOL    HW215775   6.947   6.654   3.172  0.6680  0.8471  0.9183
37820SOL     OW15776   2.462   0.729   1.802  0.2793  0.3456  0.4916
37820SOL    HW115777   2.540   0.773   1.768 -1.3061  2.1976 -0.9986
37820SOL    HW215778   2.457   0.647   1.753  0.2994  1.0666 -0.7477
37821SOL     OW15779   6.624   2.194   4.025 -0.2424  0.9033  0.1235
37821SOL    HW115780   6.561   2.170   3.958 -1.4940  2.2385  0.7642
37821SOL    HW215781   6.661   2.277   3.995  1.2467  0.1435 -0.2431
37822SOL     OW15782   7.796   5.836   9.621  0.1214 -0.4679  0.2330
37822SOL    HW115783   7.874   5.889   9.640 -0.8484  2.3741 -2.8607
37822SOL    HW215784   7.725   5.879   9.669 -0.7200  1.4904 -2.4899
37823SOL     OW15785   9.172   9.284   9.873  0.1420  0.1782  0.3417
37823SOL    HW115786   9.106   9.352   9.888 -1.0184 -0.5736 -1.0282
37823SOL    HW215787   9.211   9.307   9.789  2.7466  1.4306  1.8030
37824SOL     OW15788   7.246   4.336   7.367  0.0765 -0.3084  0.3456
37824SOL    HW115789   7.190   4.406   7.399 -1.1767 -1.3499  0.5027
37824SOL    HW215790   7.213   4.257   7.409 -1.5304 -1.7407 -3.2224
37825SOL     OW15791   1.935   7.380   3.065  0.4983 -0.0036 -0.6072
37825SOL    HW115792   1.904   7.386   2.974 -1.9300 -0.1835  0.1178
37825SOL    HW215793   1.917   7.289   3.090  1.4719 -0.0494 -0.0338
37826SOL     OW15794   9.399   1.035   7.358 -0.0660 -0.0979 -0.0747
37826SOL    HW115795   9.312   1.009   7.328 -0.8378  0.3673  1.6424
37826SOL    HW215796   9.402   1.130   7.345  0.2951 -0.1440 -0.3571
37827SOL     OW15797   4.209   6.642   6.487  0.0852  0.4469 -0.6636
37827SOL    HW115798   4.127   6.678   6.451 -1.3104 -0.7480  1.1326
37827SOL    HW215799   4.211   6.552   6.455  0.4091  0.2965 -0.2205
37828SOL     OW15800   8.249   9.430   8.656 -0.7623  0.4394 -0.7648
37828SOL    HW115801   8.240   9.338   8.681 -0.2653  0.7855  0.7814
37828SOL    HW215802   8.314   9.430   8.586  0.9958 -0.1805  0.7923
37829SOL     OW15803   4.520   3.710   1.465  0.3134 -0.4161  0.6007
37829SOL    HW115804   4.541   3.746   1.551  3.4257 -1.8656  0.6072
37829SOL    HW215805   4.496   3.786   1.412  1.3239  0.9292  1.9857
37830SOL     OW15806   7.213   6.798   5.933 -0.0056  0.0413 -0.3203
37830SOL    HW115807   7.201   6.722   5.989  0.7364  0.9564  1.1271
37830SOL    HW215808   7.206   6.763   5.844  2.2083 -2.0834  0.2217
37831SOL     OW15809   0.384   7.282   9.466 -0.2029  0.2077 -0.4009
37831SOL    HW115810   0.341   7.330   9.537 -1.6892 -0.0843 -1.0671
37831SOL    HW215811   0.416   7.202   9.507 -0.3953  0.3822  0.0994
37832SOL     OW15812   0.396   8.119  10.588 -0.3500  0.3782 -0.0365
37832SOL    HW115813   0.341   8.191  10.556 -1.3189  0.0880  0.9202
37832SOL    HW215814   0.376   8.113  10.681  0.3716 -0.5711  0.0690
37833SOL     OW15815   7.322   3.145   4.165  0.3970  0.0265  0.3257
37833SOL    HW115816   7.402   3.152   4.217  0.0769  0.3527  0.7867
37833SOL    HW215817   7.272   3.223   4.188 -0.5062 -0.6821  0.8184
37834SOL     OW15818   8.358   1.594   2.923 -0.1671 -0.2773 -0.1995
37834SOL    HW115819   8.423   1.536   2.884  0.2870  0.8635 -1.1812
37834SOL    HW215820   8.410   1.658   2.972 -0.5053  0.8346 -1.2539
37835SOL     OW15821   6.755   9.523   4.598  0.1626 -0.1968  0.4394
37835SOL    HW115822   6.661   9.532   4.580  0.0625  0.5103  1.2920
37835SOL    HW215823   6.761   9.519   4.693  0.9950 -0.3858  0.3864
37836SOL     OW15824   6.435   4.061   9.726 -0.1231 -0.1462  0.1070
37836SOL    HW115825   6.389   4.125   9.671  0.8364  0.0104 -0.5353
37836SOL    HW215826   6.492   4.014   9.666  1.2874  0.3311  1.0249
37837SOL     OW15827   8.017   2.260   5.236  0.7699 -0.3046  0.1541
37837SOL    HW115828   8.036   2.324   5.305 -0.1591 -0.4603  0.5670
37837SOL    HW215829   8.040   2.176   5.274 -0.0950 -0.4285  0.4229
37838SOL     OW15830   6.552   3.873   0.657  0.3753 -0.1784  0.4088
37838SOL    HW115831   6.643   3.873   0.686  0.2818 -0.7005  0.7076
37838SOL    HW215832   6.538   3.961   0.622  1.1866 -0.2940 -0.2443
37839SOL     OW15833   5.852   6.141   7.117 -0.4595 -0.5676 -0.1438
37839SOL    HW115834   5.773   6.090   7.099 -1.2308  0.5837 -0.0978
37839SOL    HW215835   5.854   6.207   7.048  0.6880 -0.8201 -0.3727
37840SOL     OW15836   1.223   7.544   5.971 -0.5461 -0.4936  0.1779
37840SOL    HW115837   1.160   7.525   5.902  0.5997  0.0725 -1.0661
37840SOL    HW215838   1.256   7.632   5.950  3.6550 -2.2285 -1.6748
37841SOL     OW15839   1.562  10.559   2.737  0.1355 -0.0063  0.2774
37841SOL    HW115840   1.619  10.575   2.812  0.3027 -1.4565  0.4922
37841SOL    HW215841   1.477  10.538   2.775 -0.4218  1.5701 -0.0280
37842SOL     OW15842   7.505   1.285   8.219 -0.5607 -0.3954 -0.0315
37842SOL    HW115843   7.554   1.227   8.277  2.0092 -0.4394 -2.0639
37842SOL    HW215844   7.555   1.367   8.219 -0.9565 -0.1230 -1.4850
37843SOL     OW15845   4.938   0.249   3.690  0.2201  0.2361 -0.5468
37843SOL    HW115846   4.925   0.213   3.602 -0.2928  1.4633 -1.0022
37843SOL    HW215847   4.964   0.340   3.674 -0.6581  0.7036  0.5945
37844SOL     OW15848   2.588   6.784   3.172  0.4435 -0.8553 -0.0059
37844SOL    HW115849   2.594   6.729   3.250 -0.7250  0.1764  0.8608
37844SOL    HW215850   2.521   6.742   3.118  0.5668 -1.0579  0.0004
37845SOL     OW15851   5.855   2.370   2.226  0.3907 -0.3746 -0.2511
37845SOL    HW115852   5.866   2.463   2.243 -0.5826 -0.4637  1.0839
37845SOL    HW215853   5.942   2.333   2.236  0.6319  0.2700  0.0768
37846SOL     OW15854   3.254   9.985   4.929  0.1303 -0.3755  0.1233
37846SOL    HW115855   3.210   9.906   4.961 -0.1046 -0.4224 -0.3060
37846SOL    HW215856   3.198  10.017   4.858  1.6772 -1.4228 -1.6525
37847SOL     OW15857   5.053   1.788   9.680  0.1921 -0.5289  0.4058
37847SOL    HW115858   5.029   1.865   9.629 -0.5173 -1.0680 -0.0777
37847SOL    HW215859   5.002   1.796   9.760  1.2175  0.2542  1.0201
37848SOL     OW15860   9.601   5.073   2.568  0.0726  0.1060 -0.6702
37848SOL    HW115861   9.604   5.016   2.645 -0.3238  0.7950 -0.1314
37848SOL    HW215862   9.608   5.162   2.604 -0.7409  0.4680 -1.3809
37849SOL     OW15863   7.957   0.088   9.174  0.5149  0.0171  0.2256
37849SOL    HW115864   7.888   0.143   9.210  1.1251  1.0139 -0.0774
37849SOL    HW215865   8.038   0.135   9.194  0.9628 -0.0389 -1.2774
37850SOL     OW15866   5.308   6.683   5.456  0.4389  0.3707  0.2854
37850SOL    HW115867   5.350   6.650   5.377  1.2742  0.2985  0.7582
37850SOL    HW215868   5.349   6.635   5.528 -1.5013 -0.8295  0.6841
37851SOL     OW15869   1.458   1.793   6.732  0.5091  0.2634 -0.5135
37851SOL    HW115870   1.438   1.712   6.778 -0.4502  0.0927 -1.2130
37851SOL    HW215871   1.417   1.784   6.647 -0.2858  1.7993 -0.3285
37852SOL     OW15872   4.195   7.366   7.832 -0.2099  0.4913  0.0099
37852SOL    HW115873   4.256   7.333   7.767 -0.8885  2.0752 -1.5243
37852SOL    HW215874   4.118   7.392   7.781 -1.9205 -0.7884  1.7814
37853SOL     OW15875   1.893   3.542   7.868  0.5008  0.7254  0.0602
37853SOL    HW115876   1.933   3.513   7.950  1.0355  0.2565 -0.3568
37853SOL    HW215877   1.966   3.546   7.806 -0.0155  0.3347 -0.5889
37854SOL     OW15878   1.232   5.197   0.007  0.4412  0.4469 -0.4040
37854SOL    HW115879   1.197   5.281   0.036 -0.1595  0.1631 -0.2864
37854SOL    HW215880   1.279   5.163   0.083  0.6904  0.6779 -0.4536
37855SOL     OW15881   8.607   9.689   4.063 -0.0375  0.3803 -0.0417
37855SOL    HW115882   8.593   9.768   4.011  0.5276  0.4781 -0.0514
37855SOL    HW215883   8.694   9.701   4.102  0.5858 -0.7586 -1.0016
37856SOL     OW15884   5.129   0.556   5.668 -0.0177  0.7036  0.4464
37856SOL    HW115885   5.200   0.620   5.676  0.3585  0.2681  0.6346
37856SOL    HW215886   5.066   0.582   5.735  0.0239  1.0150  0.3675
37857SOL     OW15887   0.395   8.130   3.031 -0.6675  0.2391  0.7118
37857SOL    HW115888   0.384   8.105   2.939 -0.9255  0.9340  0.5409
37857SOL    HW215889   0.449   8.209   3.026  1.5539 -1.1566  1.3186
37858SOL     OW15890   1.560   3.423   1.768 -0.1490 -0.2973 -0.1182
37858SOL    HW115891   1.602   3.453   1.849 -1.1830  0.4710  0.1646
37858SOL    HW215892   1.505   3.350   1.795 -3.0148  1.9220  0.5942
37859SOL     OW15893  10.082  10.185   7.682  0.8797 -0.6626 -0.2687
37859SOL    HW115894  10.127  10.256   7.637  0.3044 -0.8500 -1.1528
37859SOL    HW215895  10.007  10.164   7.627 -0.4327 -0.2333  1.2906
37860SOL     OW15896   2.282   5.794   1.944  0.5254  0.3431  0.3964
37860SOL    HW115897   2.227   5.865   1.974  0.6064  0.2736  0.7139
37860SOL    HW215898   2.243   5.715   1.981 -1.3695 -0.1755 -2.3908
37861SOL     OW15899   2.417   1.323   9.187 -0.0906 -0.4153  0.0579
37861SOL    HW115900   2.499   1.319   9.138 -0.6377  0.0062 -0.9093
37861SOL    HW215901   2.442   1.359   9.272  0.6058  0.4875 -0.5109
37862SOL     OW15902   9.997   8.987   2.035  0.1755  0.2799  0.2551
37862SOL    HW115903  10.088   9.002   2.009 -0.2218  1.6482 -0.4944
37862SOL    HW215904  10.002   8.925   2.107  1.4571 -2.5258 -2.0735
37863SOL     OW15905   3.841   1.207   4.770  0.1335  0.4520 -0.1396
37863SOL    HW115906   3.836   1.208   4.675 -1.1660 -0.4014 -0.1002
37863SOL    HW215907   3.902   1.136   4.791 -0.5541 -0.1988 -0.3190
37864SOL     OW15908   6.991   3.565   2.442  0.4483 -0.5205  0.3604
37864SOL    HW115909   6.938   3.636   2.476  0.5995 -0.5085  0.5714
37864SOL    HW215910   6.933   3.489   2.443  0.1239 -0.2867 -0.3632
37865SOL     OW15911   9.028   7.651   5.925 -0.4165 -0.7282 -0.2620
37865SOL    HW115912   9.024   7.580   5.861  1.2477 -1.1805  0.0854
37865SOL    HW215913   8.960   7.713   5.897 -1.8212 -2.3762 -0.6373
37866SOL     OW15914   2.745   0.244   4.001  0.5106  0.7599  0.6270
37866SOL    HW115915   2.825   0.285   4.035  0.6429  0.8232  0.2386
37866SOL    HW215916   2.755   0.151   4.025  2.2678  0.0948 -2.2508
37867SOL     OW15917   7.690   3.528   5.460  0.1446 -0.1790 -0.3963
37867SOL    HW115918   7.654   3.483   5.383 -1.1525 -1.0819  0.6878
37867SOL    HW215919   7.750   3.592   5.424  1.2141 -2.0078 -2.0693
37868SOL     OW15920   1.744   8.910   6.881  0.4022  0.6395 -0.3020
37868SOL    HW115921   1.773   8.829   6.923  0.5502  0.6592 -0.3650
37868SOL    HW215922   1.668   8.938   6.931  0.1463  0.2806 -0.4863
37869SOL     OW15923   7.997   4.736   8.176  0.2820 -0.1921  0.1353
37869SOL    HW115924   8.018   4.692   8.259  2.1369  1.6197  0.7112
37869SOL    HW215925   7.917   4.785   8.194 -0.0914 -0.8893  0.4183
37870SOL     OW15926   9.858  10.215   9.786  0.3099 -0.1245 -0.0014
37870SOL    HW115927   9.934  10.168   9.818  0.9001  0.4520 -0.5295
37870SOL    HW215928   9.855  10.196   9.693  0.9870  1.4517 -0.3633
37871SOL     OW15929   4.092   9.455   6.087  0.0369  0.4498 -0.0172
37871SOL    HW115930   4.119   9.430   6.175  0.2632  0.8265  0.0202
37871SOL    HW215931   3.996   9.460   6.091 -0.0759 -1.0357 -0.1880
37872SOL     OW15932   4.750   4.678  10.121 -0.2921 -0.2571  0.3482
37872SOL    HW115933   4.765   4.711  10.033  2.1829 -0.6901  0.5569
37872SOL    HW215934   4.749   4.757  10.176 -1.9595  0.0232 -0.0294
37873SOL     OW15935   8.846  10.440   7.293 -0.2829 -0.2539  0.3148
37873SOL    HW115936   8.802  10.357   7.312  0.4179 -0.2485  2.1823
37873SOL    HW215937   8.804  10.503   7.351  0.3709  0.3199  0.1804
37874SOL     OW15938   7.142   9.835   0.462 -0.3187 -0.0334 -0.9119
37874SOL    HW115939   7.143   9.921   0.505 -0.4901 -0.6312  0.3289
37874SOL    HW215940   7.228   9.798   0.483 -0.0336  0.0196 -1.8941
37875SOL     OW15941   2.308   9.223   0.467 -0.7223 -0.5821 -0.2428
37875SOL    HW115942   2.259   9.266   0.397 -0.6596 -0.0520  0.0283
37875SOL    HW215943   2.377   9.286   0.489 -0.5730 -0.8660  0.0972
37876SOL     OW15944   1.760   3.322   5.897  0.0185 -0.0205 -0.1022
37876SOL    HW115945   1.763   3.341   5.803 -1.6398 -0.7181 -0.3351
37876SOL    HW215946   1.844   3.352   5.930  0.3074  1.0141 -1.6656
37877SOL     OW15947  10.371  10.199   0.914 -0.6999  0.1451  0.0906
37877SOL    HW115948  10.422  10.139   0.859  1.1940 -0.9378  2.8537
37877SOL    HW215949  10.282  10.164   0.911 -0.1237 -1.3743 -0.2747
37878SOL     OW15950   7.817  10.143   4.004  0.3424 -0.0034 -0.4789
37878SOL    HW115951   7.847  10.056   4.031 -1.7986 -0.1935  1.5740
37878SOL    HW215952   7.834  10.146   3.910  0.8626 -2.4745 -0.5310
37879SOL     OW15953   2.086   1.807   1.086  0.5130 -0.2031  0.2680
37879SOL    HW115954   2.081   1.720   1.047  1.4335 -0.1364 -0.0342
37879SOL    HW215955   2.009   1.813   1.143 -0.2084 -0.7482 -0.6367
37880SOL     OW15956   5.456   1.633   7.673 -0.7319 -0.7837  0.3303
37880SOL    HW115957   5.459   1.541   7.700  0.6884 -0.8410  0.0292
37880SOL    HW215958   5.510   1.637   7.595 -0.0575  0.4720  0.8420
37881SOL     OW15959   1.671   4.783   3.678  0.1958 -0.1864 -0.0171
37881SOL    HW115960   1.657   4.750   3.767 -0.1459 -2.1698 -0.7564
37881SOL    HW215961   1.583   4.801   3.645  0.2313 -0.6608 -0.3776
37882SOL     OW15962   6.454   7.425   4.667 -0.0260  0.2130  0.0999
37882SOL    HW115963   6.457   7.387   4.579  0.4856 -1.1342  0.6746
37882SOL    HW215964   6.518   7.375   4.717 -0.9254  0.3691  1.4627
37883SOL     OW15965   3.901   5.864   7.011  0.2720 -0.1198 -0.2125
37883SOL    HW115966   3.849   5.853   6.931 -0.3315 -0.5342  0.2319
37883SOL    HW215967   3.838   5.854   7.082  0.4405  2.0230  0.3180
37884SOL     OW15968   4.592   5.872   2.216 -0.1486 -0.5108 -0.2939
37884SOL    HW115969   4.536   5.793   2.217 -1.9565  0.6559 -1.9154
37884SOL    HW215970   4.563   5.921   2.139  0.5433  2.0187  0.9492
37885SOL     OW15971   1.450   1.382   4.958 -0.5646  0.3055 -0.6597
37885SOL    HW115972   1.536   1.347   4.979 -1.3819 -1.2340  0.2758
37885SOL    HW215973   1.468   1.468   4.920  1.3032  0.6952  0.9507
37886SOL     OW15974   5.926   4.073   5.524  0.2948  0.3866 -0.5776
37886SOL    HW115975   5.903   4.165   5.518  1.6252  0.8001  0.3501
37886SOL    HW215976   6.021   4.070   5.510  0.4798 -0.6733  0.7076
37887SOL     OW15977   8.772   1.607   2.497 -0.2100 -0.3089 -0.2034
37887SOL    HW115978   8.726   1.632   2.577  0.8168  1.9335 -0.2451
37887SOL    HW215979   8.716   1.638   2.426 -0.4202 -0.9960 -0.3485
37888SOL     OW15980   4.402   7.836   2.462 -0.3715 -0.3429  0.2079
37888SOL    HW115981   4.437   7.846   2.550  1.6223  2.7916 -0.7495
37888SOL    HW215982   4.468   7.786   2.414 -0.7053 -0.7118  0.1284
37889SOL     OW15983   5.626   9.003   5.338  0.8062 -0.1067  0.1190
37889SOL    HW115984   5.586   8.931   5.289 -0.5873 -0.7676  2.0884
37889SOL    HW215985   5.696   8.962   5.388 -2.7422 -1.3544  4.7828
37890SOL     OW15986   4.982   0.009   7.081  0.0896  0.4129 -0.1080
37890SOL    HW115987   4.985   0.072   7.008 -1.4584 -0.7341 -1.2136
37890SOL    HW215988   4.904   0.034   7.130  0.8600  0.8735  0.9268
37891SOL     OW15989   3.347   9.676   1.038 -0.2662 -0.5778  0.0331
37891SOL    HW115990   3.410   9.705   0.971 -0.0338 -0.9636  0.0868
37891SOL    HW215991   3.261   9.687   0.996 -0.3769  2.2577  0.7742
37892SOL     OW15992   6.209   9.747   4.601  0.0386  0.1371 -0.1441
37892SOL    HW115993   6.169   9.673   4.647 -0.2788  0.1463 -0.4046
37892SOL    HW215994   6.213   9.720   4.509  2.9983 -0.9310  0.1888
37893SOL     OW15995   9.426   3.301   0.806 -0.4289 -0.8707 -0.0705
37893SOL    HW115996   9.445   3.390   0.834  0.5228 -1.1084  0.1043
37893SOL    HW215997   9.347   3.308   0.753 -1.3203 -0.1708  1.3144
37894SOL     OW15998   4.427   1.084   0.961 -0.0249 -0.2635  0.0733
37894SOL    HW115999   4.395   1.174   0.966 -0.0165 -0.1687 -1.2469
37894SOL    HW216000   4.504   1.089   0.904 -0.3569 -1.1799 -0.4805
37895SOL     OW16001   3.103   5.149   3.801 -0.2217 -0.3552 -0.2489
37895SOL    HW116002   3.012   5.166   3.828  0.1978  3.4756 -0.6196
37895SOL    HW216003   3.156   5.174   3.877  0.5685 -1.5873 -0.3834
37896SOL     OW16004   8.210   0.064   1.652  0.0362 -0.2460 -0.4374
37896SOL    HW116005   8.226  -0.022   1.689 -0.2203 -0.0018  0.2591
37896SOL    HW216006   8.265   0.123   1.704  0.3358 -0.0002 -1.0126
37897SOL     OW16007   2.877   2.591   1.795 -0.9829 -0.0215  0.1158
37897SOL    HW116008   2.843   2.543   1.871 -0.3578 -0.2291  0.2679
37897SOL    HW216009   2.860   2.683   1.817 -0.6328 -0.0651  0.6032
37898SOL     OW16010   1.379   9.679   0.594 -0.0911  0.2885 -0.2081
37898SOL    HW116011   1.341   9.689   0.507 -1.3992 -1.4609  0.1053
37898SOL    HW216012   1.307   9.699   0.654 -0.0121 -1.2401  0.4286
37899SOL     OW16013   0.822   1.845   9.762 -0.1200  0.2623 -0.5243
37899SOL    HW116014   0.814   1.867   9.855 -1.8306  1.9761 -1.0067
37899SOL    HW216015   0.766   1.768   9.751  0.4007 -0.1883 -0.0824
37900SOL     OW16016   2.397   0.311   8.803 -0.1174 -0.1847  0.3559
37900SOL    HW116017   2.375   0.240   8.864  2.0473 -1.5012 -0.2613
37900SOL    HW216018   2.449   0.372   8.856 -1.5037  0.6974  0.7449
37901SOL     OW16019   1.264  10.553   0.557  0.1296 -0.0701 -0.8661
37901SOL    HW116020   1.180  10.520   0.588  0.3397  0.8324  0.7442
37901SOL    HW216021   1.327  10.485   0.582  0.4606  1.1273  1.8168
37902SOL     OW16022   3.204   0.960   8.192 -0.3520 -0.2749 -0.4117
37902SOL    HW116023   3.244   1.024   8.251 -0.6553  0.9970 -1.5323
37902SOL    HW216024   3.270   0.890   8.184  1.6962  1.6529 -2.0446
37903SOL     OW16025   2.426   7.718   8.434 -0.3090 -0.1817  0.7250
37903SOL    HW116026   2.385   7.786   8.381  1.1014  1.0456  1.1474
37903SOL    HW216027   2.353   7.666   8.468 -1.3641  0.5993 -0.2959
37904SOL     OW16028   0.097   8.217   7.999  0.0361  0.2605 -0.2251
37904SOL    HW116029   0.141   8.175   7.926 -0.6568  0.6553 -0.8853
37904SOL    HW216030   0.143   8.186   8.077  1.7437  0.9684 -0.9001
37905SOL     OW16031   6.828   6.052   4.382 -0.3714 -0.1480 -0.6595
37905SOL    HW116032   6.905   5.998   4.401 -0.0238  1.3584  3.0064
37905SOL    HW216033   6.753   5.994   4.395  0.0309 -0.1581  2.3673
37906SOL     OW16034   7.428   0.996   0.879 -0.3818 -0.7043 -0.4461
37906SOL    HW116035   7.430   0.958   0.967 -2.3034 -0.9749 -0.4809
37906SOL    HW216036   7.409   1.088   0.893  1.6081 -0.2550 -0.4957
37907SOL     OW16037   4.218  10.177   2.643 -0.1105 -0.3780 -0.1588
37907SOL    HW116038   4.264  10.176   2.559  1.1924 -0.6859  0.5292
37907SOL    HW216039   4.276  10.226   2.702 -0.9142 -0.3226  0.6196
37908SOL     OW16040   5.602   4.676   1.983 -0.5235 -0.1440  0.0635
37908SOL    HW116041   5.513   4.672   2.018 -1.0290  1.8379 -0.8523
37908SOL    HW216042   5.640   4.755   2.022  0.3587 -0.2094 -0.6256
37909SOL     OW16043   1.396   4.283   8.983 -0.3288 -0.1818  0.2780
37909SOL    HW116044   1.409   4.253   8.892 -1.3096  3.9901 -1.4423
37909SOL    HW216045   1.481   4.319   9.008  0.1688 -2.0325  1.4281
37910SOL     OW16046   1.967   2.886   0.637 -0.4283  0.1566  0.1163
37910SOL    HW116047   2.029   2.822   0.603  0.9431  0.4180  2.0066
37910SOL    HW216048   1.902   2.834   0.684 -0.4969  0.0152 -0.1341
37911SOL     OW16049   2.881   5.475   5.582  0.0629  0.0446  0.3576
37911SOL    HW116050   2.964   5.518   5.600  1.7945 -2.1609 -1.7533
37911SOL    HW216051   2.855   5.508   5.496 -0.0060 -0.9690 -0.0321
37912SOL     OW16052   0.319   8.485   2.861 -0.2977  0.2255  0.2392
37912SOL    HW116053   0.262   8.427   2.911  0.9263 -0.4010  0.9608
37912SOL    HW216054   0.313   8.453   2.771  0.3417 -1.0451  0.6216
37913SOL     OW16055   3.193   1.976   4.725 -0.3750  0.4539 -0.2273
37913SOL    HW116056   3.250   2.033   4.777  0.3640 -0.0103 -0.5116
37913SOL    HW216057   3.152   1.919   4.789 -1.3977  1.5180  0.1013
37914SOL     OW16058   9.985   8.356  10.323  0.0591  1.1324 -0.3939
37914SOL    HW116059   9.954   8.289  10.384  0.9482  0.6282 -0.4700
37914SOL    HW216060  10.055   8.400  10.371  0.4357  1.0559 -0.8683
37915SOL     OW16061   1.599   3.388   1.466 -0.0736  0.7202 -0.0663
37915SOL    HW116062   1.614   3.418   1.555  0.3139 -0.6982  0.3838
37915SOL    HW216063   1.511   3.420   1.445 -0.4185  0.5873  1.0587
37916SOL     OW16064   0.779   4.536   7.266  0.0368  0.0875 -0.3294
37916SOL    HW116065   0.806   4.579   7.347  2.1593 -2.4489  0.4529
37916SOL    HW216066   0.696   4.494   7.288  1.2094 -1.6705  1.0845
37917SOL     OW16067   2.825   1.030   9.635  0.7364  0.1242  0.0201
37917SOL    HW116068   2.809   0.969   9.707 -2.5687  0.1342 -0.5810
37917SOL    HW216069   2.796   1.115   9.669  0.3478  0.3635 -0.8885
37918SOL     OW16070   1.227   9.669   4.878 -0.0897  0.4279  0.1874
37918SOL    HW116071   1.135   9.669   4.853  0.2776 -2.9582 -1.8438
37918SOL    HW216072   1.228   9.637   4.968 -0.8861  1.5796  0.6356
37919SOL     OW16073   7.321  10.244   8.766 -0.2572  0.2288 -0.0364
37919SOL    HW116074   7.396  10.295   8.735 -0.6848  0.5973 -0.4876
37919SOL    HW216075   7.266  10.233   8.689 -0.3001 -0.7126  0.1129
37920SOL     OW16076   9.633   1.579   7.987 -0.3129 -0.0275 -0.0473
37920SOL    HW116077   9.562   1.532   8.030 -1.6492  1.7870 -0.1194
37920SOL    HW216078   9.605   1.586   7.896  0.3244  0.0600 -0.2414
37921SOL     OW16079   3.968   2.267   0.172  0.0205 -0.3860 -0.0722
37921SOL    HW116080   4.038   2.205   0.151 -1.2177 -1.3740 -1.5111
37921SOL    HW216081   3.933   2.236   0.255  1.3555  0.2167  0.7460
37922SOL     OW16082   8.085   6.700   2.552  0.5922 -0.3144 -0.8590
37922SOL    HW116083   8.076   6.724   2.644 -0.8070  2.1503 -1.5761
37922SOL    HW216084   8.179   6.709   2.534  1.1649 -2.3723  0.6274
37923SOL     OW16085   1.842   4.552   0.082 -0.4409  0.6397 -0.1373
37923SOL    HW116086   1.855   4.536   0.176 -1.3854 -1.6842 -0.3408
37923SOL    HW216087   1.752   4.583   0.075  0.3013  3.0074 -0.1233
37924SOL     OW16088   7.409   5.545   4.435 -0.1786  0.1999 -0.2157
37924SOL    HW116089   7.464   5.482   4.481 -0.2859  0.4168  0.2096
37924SOL    HW216090   7.357   5.491   4.375 -0.4677 -0.1521  0.3398
37925SOL     OW16091   8.711   4.998   6.377 -0.5511  0.4653 -0.0803
37925SOL    HW116092   8.780   4.932   6.366  1.6080  2.6327 -0.5275
37925SOL    HW216093   8.634   4.960   6.337  0.5863 -1.7817 -0.2771
37926SOL     OW16094  10.551   8.257   2.054 -0.5267  0.5746 -0.2671
37926SOL    HW116095  10.599   8.175   2.040 -2.1397 -0.6037  0.7250
37926SOL    HW216096  10.613   8.326   2.028  2.6103 -0.6511  3.1189
37927SOL     OW16097   1.185   1.167   3.124  0.5909 -0.0704  0.1984
37927SOL    HW116098   1.250   1.098   3.137  1.3447  0.2507 -1.5265
37927SOL    HW216099   1.134   1.138   3.048 -1.2275 -0.2484  1.4327
37928SOL     OW16100   1.097   8.161   6.008  0.1173 -0.3424  0.2620
37928SOL    HW116101   1.159   8.233   6.002 -0.8925  0.5954  0.6734
37928SOL    HW216102   1.031   8.191   6.071 -1.4918 -0.7310 -1.1590
37929SOL     OW16103   6.233   8.512   2.379 -0.8708 -0.1745  0.1513
37929SOL    HW116104   6.184   8.561   2.445 -1.7965 -1.0335  0.1418
37929SOL    HW216105   6.183   8.431   2.368 -0.7900 -0.0237 -1.6594
37930SOL     OW16106   4.677   0.900   2.153 -0.6026 -0.0920  0.1055
37930SOL    HW116107   4.701   0.937   2.238  2.0185  0.6187 -0.8594
37930SOL    HW216108   4.639   0.814   2.174  0.6198 -0.2224  1.9812
37931SOL     OW16109   1.595   7.509   6.889  0.0951 -0.2776 -0.4497
37931SOL    HW116110   1.524   7.573   6.883  1.3232  1.0973 -0.9916
37931SOL    HW216111   1.566   7.436   6.834 -0.8792  0.2631 -0.6837
37932SOL     OW16112   1.932   1.667   7.422 -0.7006  0.0557 -0.1444
37932SOL    HW116113   1.900   1.582   7.393 -1.0703 -0.3951  1.5115
37932SOL    HW216114   2.028   1.660   7.413 -0.7664 -0.2864 -0.6439
37933SOL     OW16115   1.603   9.924   7.318  0.3111  0.0164  0.3001
37933SOL    HW116116   1.525   9.974   7.292  0.0643 -0.5593 -0.0791
37933SOL    HW216117   1.587   9.900   7.409 -0.2591 -0.6599  0.0300
37934SOL     OW16118   9.994   5.255  10.280 -0.1964  0.2281 -0.1005
37934SOL    HW116119  10.055   5.327  10.297 -0.8949  1.0057 -0.8330
37934SOL    HW216120  10.018   5.222  10.194  0.4641 -0.7992  0.4457
37935SOL     OW16121   7.499   7.654   6.095  0.0098 -0.1361  0.2628
37935SOL    HW116122   7.589   7.629   6.073  0.5310  1.2879  0.7030
37935SOL    HW216123   7.495   7.648   6.190  0.0497  1.0589  0.3531
37936SOL     OW16124   7.178   1.340   9.253  0.2307 -0.2160  0.3245
37936SOL    HW116125   7.227   1.278   9.307 -0.0226 -0.9229 -0.2310
37936SOL    HW216126   7.221   1.338   9.168  1.9167  2.4449  1.0087
37937SOL     OW16127   2.833   4.227   2.749  0.1480 -0.1432 -0.1993
37937SOL    HW116128   2.924   4.249   2.732  0.0452 -0.0648 -0.6469
37937SOL    HW216129   2.831   4.131   2.746  0.5268 -0.2310  1.4107
37938SOL     OW16130   6.132   0.976   3.769  0.0173 -0.3588 -0.2719
37938SOL    HW116131   6.128   1.027   3.689 -1.1507 -0.9529 -0.6123
37938SOL    HW216132   6.041   0.967   3.797  0.2623 -1.5148  0.2408
37939SOL     OW16133   4.601   4.215   6.718 -0.6504 -0.3649 -1.0012
37939SOL    HW116134   4.588   4.169   6.801  0.2528 -0.5763 -0.9669
37939SOL    HW216135   4.590   4.147   6.652  0.2274 -0.5490 -0.9714
37940SOL     OW16136   3.597  10.471   1.584 -0.5510  0.2132  0.3234
37940SOL    HW116137   3.594  10.561   1.552 -0.5344  0.2646  0.4665
37940SOL    HW216138   3.505  10.449   1.604 -0.6350 -0.0090 -0.2834
37941SOL     OW16139  10.475   0.819   8.625  0.1739 -0.7536  0.2425
37941SOL    HW116140  10.554   0.841   8.575 -0.4872  0.3655 -0.3497
37941SOL    HW216141  10.430   0.902   8.638 -1.7205 -1.5248 -0.8539
37942SOL     OW16142   3.016   2.282   0.635 -0.1362  0.1181 -0.0817
37942SOL    HW116143   3.101   2.251   0.667  0.1911 -0.6966 -1.6276
37942SOL    HW216144   3.025   2.377   0.631  0.6037  0.0590  0.0399
37943SOL     OW16145   7.311   1.085   5.609 -0.3071 -0.5222 -0.3713
37943SOL    HW116146   7.402   1.098   5.582 -0.3644 -1.1120 -0.8766
37943SOL    HW216147   7.273   1.031   5.540 -1.1205 -0.0607 -0.3059
37944SOL     OW16148  10.388   7.800   8.232 -0.0580 -0.6215  0.7596
37944SOL    HW116149  10.456   7.737   8.254 -0.5786 -1.1405  0.9127
37944SOL    HW216150  10.309   7.747   8.218 -0.4220 -0.0380  0.5467
37945SOL     OW16151   1.253   1.310   1.051  0.2711 -0.0586  0.1389
37945SOL    HW116152   1.222   1.326   1.140  2.2895 -0.8943  1.0512
37945SOL    HW216153   1.310   1.385   1.033  0.0436 -0.0085 -0.3811
37946SOL     OW16154   6.476  10.346   9.583 -0.3155 -0.0867 -0.1614
37946SOL    HW116155   6.481  10.315   9.673 -2.1438 -0.4723 -0.1692
37946SOL    HW216156   6.460  10.440   9.592  0.1408 -0.0072 -0.1137
37947SOL     OW16157   0.694   7.773   7.040  0.2232 -0.0744  0.3884
37947SOL    HW116158   0.623   7.798   7.098  0.5327 -0.3271  0.8770
37947SOL    HW216159   0.673   7.817   6.957 -0.4205 -0.0310  0.5681
37948SOL     OW16160   1.611   4.775   6.238  0.3601  0.0042 -0.3948
37948SOL    HW116161   1.619   4.703   6.301 -0.8862 -0.8888 -1.1954
37948SOL    HW216162   1.546   4.833   6.277 -0.1406 -0.3612 -0.6729
37949SOL     OW16163   1.766   1.435  10.206 -0.1531  0.0467 -0.4457
37949SOL    HW116164   1.706   1.362  10.215  1.5009 -1.2896  0.2792
37949SOL    HW216165   1.840   1.400  10.156  1.2801  0.7911  1.0696
37950SOL     OW16166   5.615   9.238   3.278  0.3187  0.2176 -0.0737
37950SOL    HW116167   5.701   9.253   3.239  0.8124  0.3418  1.0191
37950SOL    HW216168   5.553   9.270   3.212  1.0652 -0.6113 -1.2085
37951SOL     OW16169  10.342   2.284   7.131  0.0799 -0.1373 -0.0076
37951SOL    HW116170  10.397   2.216   7.172  1.3505  0.8069 -0.0775
37951SOL    HW216171  10.365   2.364   7.178  0.6160  0.7425 -1.6900
37952SOL     OW16172   4.878   9.103   4.936 -0.2259  0.1666 -0.1457
37952SOL    HW116173   4.793   9.136   4.907 -0.6302  0.3145  1.1660
37952SOL    HW216174   4.938   9.128   4.865 -1.2929 -0.1271 -1.1834
37953SOL     OW16175   0.385   9.523   5.621  0.6022  0.1385 -0.8531
37953SOL    HW116176   0.414   9.610   5.649 -3.1386  0.9465  1.1423
37953SOL    HW216177   0.427   9.463   5.682  1.8876  0.6764 -1.1747
37954SOL     OW16178   8.872   5.036   0.490 -0.1472  0.1817  0.2811
37954SOL    HW116179   8.876   5.051   0.395 -1.2880 -0.1686  0.1671
37954SOL    HW216180   8.914   5.113   0.528 -1.4563  1.3017 -0.4547
37955SOL     OW16181   7.077   5.540   5.392 -0.0258  0.1565 -0.3888
37955SOL    HW116182   7.082   5.538   5.296  2.2413  1.9484 -0.4135
37955SOL    HW216183   6.983   5.546   5.411 -0.8412 -3.7558 -2.2667
37956SOL     OW16184   8.817   2.164   9.937  0.7202  0.8151 -0.2147
37956SOL    HW116185   8.749   2.215   9.979  1.9043  0.6285  2.0884
37956SOL    HW216186   8.844   2.216   9.861 -0.9899  1.5287 -0.3648
37957SOL     OW16187   1.457   0.274   2.034 -0.5381  0.8852 -0.1311
37957SOL    HW116188   1.528   0.289   1.971  0.4554 -0.9053  0.4964
37957SOL    HW216189   1.463   0.181   2.055 -0.2041  1.5490  3.3067
37958SOL     OW16190   0.084   4.550   3.084  0.0273 -0.0047 -0.4737
37958SOL    HW116191   0.116   4.460   3.095 -0.9558 -0.1696  1.3817
37958SOL    HW216192   0.015   4.542   3.019 -1.9701 -1.1664  1.6254
37959SOL     OW16193  10.462   5.640   6.304 -0.0565  0.6083  0.6835
37959SOL    HW116194  10.463   5.605   6.215  0.1837 -0.2973  1.0277
37959SOL    HW216195  10.553   5.631   6.334 -0.6883 -1.9545  2.0742
37960SOL     OW16196   8.596   5.510   2.143 -0.2739  0.4670  0.0314
37960SOL    HW116197   8.565   5.445   2.206 -0.4733 -1.1533 -1.6505
37960SOL    HW216198   8.547   5.491   2.063 -0.1179  2.5263 -0.6191
37961SOL     OW16199   4.663   1.287   9.343 -0.8497  0.2466 -0.3928
37961SOL    HW116200   4.687   1.234   9.267 -1.5768  0.3844 -0.7215
37961SOL    HW216201   4.622   1.225   9.404 -1.4646  0.3772 -0.6682
37962SOL     OW16202   5.471   0.953   4.023 -0.4785  0.2165 -0.1562
37962SOL    HW116203   5.476   0.860   3.999 -0.8316  0.4108 -1.0156
37962SOL    HW216204   5.557   0.973   4.060 -0.1839 -0.3022 -0.5426
37963SOL     OW16205   2.573   1.566   2.615 -0.0504  0.0091 -1.0180
37963SOL    HW116206   2.650   1.538   2.665 -0.4129 -0.2865 -0.6260
37963SOL    HW216207   2.584   1.661   2.607 -0.4988  0.2263  0.5190
37964SOL     OW16208   9.378   3.015   1.834  0.2238  0.3584  0.2119
37964SOL    HW116209   9.291   2.989   1.804  0.7736 -0.5633 -0.6234
37964SOL    HW216210   9.398   2.954   1.905  0.7435 -0.3430 -0.5163
37965SOL     OW16211   6.125   6.325   5.541  0.7251 -0.1684 -0.5941
37965SOL    HW116212   6.045   6.354   5.586 -0.0554  0.6442 -2.3805
37965SOL    HW216213   6.189   6.313   5.611 -0.9266 -0.7909  0.9034
37966SOL     OW16214   7.629   5.896   2.437  0.0173 -0.6457 -0.5096
37966SOL    HW116215   7.599   5.978   2.398  3.7950  1.0182 -0.3245
37966SOL    HW216216   7.587   5.894   2.523  0.2217  1.3758 -0.3271
37967SOL     OW16217  10.277   9.476  10.551  0.1279  0.3552 -0.1452
37967SOL    HW116218  10.299   9.510  10.464 -1.9193  1.1868 -0.4088
37967SOL    HW216219  10.217   9.403  10.533 -0.2088  0.4504  0.5752
37968SOL     OW16220   5.770   6.961   3.916 -0.5338  0.6644  0.3472
37968SOL    HW116221   5.842   7.016   3.947  0.9721 -0.6279 -0.7119
37968SOL    HW216222   5.723   6.936   3.995  2.0498 -0.9748  1.4965
37969SOL     OW16223   2.284   2.541   8.743  0.1085 -0.1601 -0.3274
37969SOL    HW116224   2.200   2.552   8.786  0.2937  0.2863 -0.0803
37969SOL    HW216225   2.265   2.550   8.649  0.2135  2.0831 -0.1738
37970SOL     OW16226   1.853   8.171   9.851 -0.0704  0.2149  0.0083
37970SOL    HW116227   1.940   8.136   9.830  0.1762  0.8998 -0.1331
37970SOL    HW216228   1.811   8.184   9.766 -0.0087  0.6345  0.0396
37971SOL     OW16229   2.786   6.629   6.232 -0.3125  0.7545 -0.2220
37971SOL    HW116230   2.818   6.684   6.161  0.3052 -0.6537 -1.0685
37971SOL    HW216231   2.791   6.684   6.310  1.2420  1.5622 -0.8677
37972SOL     OW16232   4.055   7.439   5.892 -0.1077 -0.4721  0.6575
37972SOL    HW116233   4.054   7.523   5.846 -1.3635 -1.0086 -0.3644
37972SOL    HW216234   4.049   7.374   5.822  1.7409 -1.4863  1.3581
37973SOL     OW16235   5.764  10.223  10.055 -0.7980 -0.1607 -0.1776
37973SOL    HW116236   5.686  10.175  10.085 -1.0421 -0.9048 -1.8516
37973SOL    HW216237   5.805  10.163   9.992  1.8020 -0.2766  1.4897
37974SOL     OW16238   6.146   8.980   3.308 -0.2908  0.1864  0.2399
37974SOL    HW116239   6.118   8.890   3.326  0.0197  0.3751  1.7949
37974SOL    HW216240   6.080   9.035   3.352 -0.6089  0.7485 -0.8903
37975SOL     OW16241   0.450   5.718   1.214  0.0558 -0.0962 -0.0202
37975SOL    HW116242   0.443   5.637   1.162 -1.3617  1.2638 -2.1125
37975SOL    HW216243   0.362   5.731   1.249  0.4362  0.2407  0.8311
37976SOL     OW16244   9.073   4.219  10.116 -0.1960 -0.3128  0.3908
37976SOL    HW116245   9.107   4.132  10.095  3.2642  0.8462  0.6518
37976SOL    HW216246   9.045   4.255  10.032  0.2680 -0.9288 -0.0356
37977SOL     OW16247   0.037   4.725   0.598  0.3809  0.3094  0.7128
37977SOL    HW116248   0.047   4.711   0.504  1.4988  0.6681  0.7668
37977SOL    HW216249  -0.031   4.663   0.624 -0.0268  0.2829 -0.3469
37978SOL     OW16250   4.565   8.711   1.845 -0.2407  0.1375  0.2620
37978SOL    HW116251   4.655   8.737   1.826 -0.6944  1.5237 -0.1446
37978SOL    HW216252   4.523   8.792   1.874 -1.9245  0.0192 -1.6516
37979SOL     OW16253   2.037   7.335   2.482 -0.1983 -0.0497 -0.4026
37979SOL    HW116254   2.078   7.258   2.519 -1.5211  0.0622  1.4090
37979SOL    HW216255   1.965   7.300   2.428  0.0446 -0.1184 -0.6847
37980SOL     OW16256   0.016   0.350   1.623 -0.4713  0.2796  0.4759
37980SOL    HW116257   0.044   0.408   1.552 -1.9884  1.6419  0.9306
37980SOL    HW216258   0.033   0.399   1.703  1.4031 -1.3200  1.1423
37981SOL     OW16259   8.347   7.738   3.990  0.1976 -0.2013 -0.0561
37981SOL    HW116260   8.367   7.753   3.898 -0.1920 -2.1427 -0.4908
37981SOL    HW216261   8.360   7.644   4.003  1.7923  0.2389  2.2748
37982SOL     OW16262   5.512   6.774   3.341  0.8046  0.1812  0.3689
37982SOL    HW116263   5.425   6.742   3.317  0.3816  1.1548  0.5692
37982SOL    HW216264   5.565   6.758   3.263 -0.2173  2.0362 -0.7678
37983SOL     OW16265   3.797   3.650   6.018 -0.0900 -0.2112  0.3880
37983SOL    HW116266   3.818   3.742   6.006  0.2016 -0.3106  0.1274
37983SOL    HW216267   3.701   3.647   6.022 -0.2461 -0.1602 -1.9140
37984SOL     OW16268  10.131   9.122   9.690  0.6694 -0.0558 -0.9846
37984SOL    HW116269  10.218   9.085   9.680  1.3201  0.7382  1.1480
37984SOL    HW216270  10.102   9.091   9.776 -1.0344 -0.0487 -1.5212
37985SOL     OW16271   8.859  10.275   8.160  0.0943  0.0102 -0.4324
37985SOL    HW116272   8.862  10.368   8.135  4.3945  0.7232  1.9223
37985SOL    HW216273   8.890  10.228   8.082  3.4890  1.2267  0.0294
37986SOL     OW16274   9.859   1.835   4.943  0.2424 -0.5857  0.2131
37986SOL    HW116275   9.952   1.843   4.966  0.2330  1.7602 -0.2625
37986SOL    HW216276   9.813   1.842   5.026  0.4291  1.4485  0.1962
37987SOL     OW16277   3.233   4.917   3.901  0.3192  0.5873 -0.4119
37987SOL    HW116278   3.150   4.881   3.869  0.9445  0.6618 -2.2655
37987SOL    HW216279   3.238   5.003   3.859  0.2687  1.5969  1.5541
37988SOL     OW16280  10.107   3.915   7.087 -0.5360  0.1627  0.2587
37988SOL    HW116281  10.151   3.934   7.169  0.6861 -1.4110  0.0069
37988SOL    HW216282  10.136   3.984   7.028 -1.2869  1.2020  1.0675
37989SOL     OW16283   4.684   8.490   5.346  0.8635 -1.2687 -0.0259
37989SOL    HW116284   4.686   8.423   5.414  0.3931 -1.1181  0.1378
37989SOL    HW216285   4.723   8.567   5.388  1.4812 -1.4564 -0.2400
37990SOL     OW16286   9.785   5.482   5.229  0.1324 -0.1223  0.4756
37990SOL    HW116287   9.805   5.529   5.147  1.6622 -0.7805  0.4537
37990SOL    HW216288   9.815   5.393   5.214 -0.1365 -0.4065  1.5514
37991SOL     OW16289   3.788   2.183   2.051  0.3679  0.0136 -0.4543
37991SOL    HW116290   3.764   2.274   2.033 -2.0027 -0.8084 -1.8497
37991SOL    HW216291   3.813   2.148   1.965  0.2157 -0.9336 -0.1187
37992SOL     OW16292   1.792   3.655   4.497 -0.4111 -0.2011  0.3068
37992SOL    HW116293   1.727   3.601   4.542 -0.8412  0.9703  1.1486
37992SOL    HW216294   1.865   3.660   4.559 -0.4664  0.3446  0.3363
37993SOL     OW16295   2.551   9.877   7.667 -0.3174  0.0675  0.0984
37993SOL    HW116296   2.578   9.948   7.609 -0.5796 -1.3183 -1.8228
37993SOL    HW216297   2.600   9.892   7.748  0.9657  1.4433 -0.8805
37994SOL     OW16298   2.093   3.657   5.609  0.4810  0.2408 -0.8417
37994SOL    HW116299   2.100   3.689   5.699 -0.0230 -1.2132 -0.2601
37994SOL    HW216300   2.088   3.562   5.617  0.1736  0.0904 -2.3986
37995SOL     OW16301   0.004   5.346   8.137  0.1382  0.1518 -0.3264
37995SOL    HW116302   0.042   5.270   8.182  0.7110  1.0435  0.7511
37995SOL    HW216303   0.028   5.333   8.045  1.5127 -0.2380  0.0515
37996SOL     OW16304   4.674   2.467   5.950 -0.0969  0.0024 -0.0782
37996SOL    HW116305   4.765   2.466   5.921 -0.1761  0.0475 -0.3280
37996SOL    HW216306   4.675   2.421   6.034  0.7432  2.9889  1.7069
37997SOL     OW16307   3.853   2.659   6.952  0.1577 -0.2174 -0.1093
37997SOL    HW116308   3.876   2.618   7.036 -0.1990  0.2039  0.1962
37997SOL    HW216309   3.806   2.590   6.904  0.1354 -0.3761  0.1386
37998SOL     OW16310   1.284  10.015   4.178 -0.1631  0.2555 -0.4628
37998SOL    HW116311   1.195  10.009   4.212 -0.4624  0.3915 -1.2101
37998SOL    HW216312   1.273  10.023   4.084  0.6297  0.6843 -0.5252
37999SOL     OW16313   0.722   4.872   7.376 -0.0920 -0.2477  0.5419
37999SOL    HW116314   0.770   4.851   7.296 -1.8111 -3.1056  0.1306
37999SOL    HW216315   0.757   4.811   7.441 -0.5250  0.2720  1.2795
38000SOL     OW16316   1.546   5.034   2.199  0.0767  0.2869  0.2343
38000SOL    HW116317   1.624   4.982   2.218 -0.7031 -1.5327 -1.1982
38000SOL    HW216318   1.581   5.116   2.162  1.3135 -0.0890  0.4978
38001SOL     OW16319   7.258   7.059   6.329  0.2894  0.1592  0.1423
38001SOL    HW116320   7.310   7.009   6.267  1.4946 -1.2651  2.1984
38001SOL    HW216321   7.187   7.000   6.354 -0.0814  0.6548  0.2832
38002SOL     OW16322   7.726   3.396   8.758 -0.3193  0.0424 -0.0162
38002SOL    HW116323   7.776   3.365   8.682 -0.0477  0.0671  0.1472
38002SOL    HW216324   7.687   3.478   8.730 -0.7857 -0.2935 -0.3532
38003SOL     OW16325   0.529   3.301   0.506 -0.1309  0.2614  0.1561
38003SOL    HW116326   0.570   3.215   0.495 -1.8796 -0.5104 -0.7416
38003SOL    HW216327   0.523   3.336   0.418  0.1342  1.1002  0.4676
38004SOL     OW16328   9.373   2.230   7.092 -0.5075 -0.6364  0.7001
38004SOL    HW116329   9.439   2.270   7.149  0.0962 -0.5286 -0.0607
38004SOL    HW216330   9.309   2.192   7.153  1.0354 -2.0864  1.4877
38005SOL     OW16331   2.060   4.794   7.377  0.1451 -0.2676 -0.1595
38005SOL    HW116332   1.993   4.736   7.413  0.0626 -0.1589 -0.1348
38005SOL    HW216333   2.130   4.794   7.443  1.1927 -2.1554 -1.1942
38006SOL     OW16334   9.341   7.284   5.418 -0.6143  0.0550  0.5757
38006SOL    HW116335   9.372   7.209   5.468  0.5156  0.7844  1.0008
38006SOL    HW216336   9.371   7.268   5.329  1.3310  0.8938  1.0361
38007SOL     OW16337   5.512   7.540   2.482 -0.6093  0.0723 -0.8082
38007SOL    HW116338   5.476   7.512   2.398  0.6036  1.8964 -2.0189
38007SOL    HW216339   5.496   7.634   2.485 -0.7383  0.0169  1.0821
38008SOL     OW16340   8.825   5.033   9.901 -0.0050 -0.1656  0.4621
38008SOL    HW116341   8.875   5.110   9.874 -0.1325 -0.4549 -0.6643
38008SOL    HW216342   8.870   4.960   9.860 -0.9711 -0.4919 -0.0664
38009SOL     OW16343   5.996   6.812   5.322 -0.1141  0.6308 -0.3372
38009SOL    HW116344   5.972   6.897   5.283  1.0435  1.7456  1.2530
38009SOL    HW216345   5.934   6.800   5.393  0.2197  0.5494 -0.0562
38010SOL     OW16346   5.466   6.222   8.201 -0.3294  0.2571  0.6323
38010SOL    HW116347   5.493   6.133   8.180 -0.4349  0.2201  0.6531
38010SOL    HW216348   5.378   6.230   8.164  1.2833  1.8157 -3.5209
38011SOL     OW16349   5.137   5.594   0.470  0.0478  0.5922  0.2556
38011SOL    HW116350   5.068   5.641   0.516 -0.6712 -1.0250  0.8985
38011SOL    HW216351   5.218   5.640   0.494 -0.7264  2.2359 -0.1513
38012SOL     OW16352   1.118   3.826   3.643  1.0144 -0.6959  0.8087
38012SOL    HW116353   1.117   3.920   3.661 -0.1639 -0.6094  0.3590
38012SOL    HW216354   1.038   3.793   3.683  0.7949 -1.2959 -0.0980
38013SOL     OW16355   6.111   7.015   1.927 -0.0106  0.2513 -0.3110
38013SOL    HW116356   6.102   7.105   1.960  4.3905  0.8203 -0.0647
38013SOL    HW216357   6.089   6.960   2.003  1.3235  1.3067  0.8996
38014SOL     OW16358   4.693   9.819   6.323  0.3071  0.0395  0.3605
38014SOL    HW116359   4.716   9.795   6.413 -1.6414 -1.0061  0.6267
38014SOL    HW216360   4.655   9.739   6.286 -1.1476  1.1467 -0.6092
38015SOL     OW16361   0.606   9.688   3.164  0.1857  0.1808  0.0853
38015SOL    HW116362   0.555   9.766   3.143  1.0746  0.1185 -2.7227
38015SOL    HW216363   0.571   9.620   3.107  2.1975 -0.3050 -0.6688
38016SOL     OW16364   5.594   0.582   0.299 -0.5719 -0.3615 -0.3563
38016SOL    HW116365   5.679   0.553   0.265 -0.0972 -0.4722  0.8574
38016SOL    HW216366   5.532   0.560   0.230  0.1422 -1.9172 -0.5608
38017SOL     OW16367   1.819   8.546   8.287 -0.3187 -0.0318 -0.2437
38017SOL    HW116368   1.863   8.461   8.287  1.0789  0.6514  0.5978
38017SOL    HW216369   1.858   8.593   8.213 -0.1840  0.3174  0.0483
38018SOL     OW16370  10.529   8.353   7.383 -0.1396  0.5234  0.2914
38018SOL    HW116371  10.490   8.306   7.457  2.5352 -0.2364  1.3097
38018SOL    HW216372  10.526   8.445   7.408 -1.0823  0.4658  0.4188
38019SOL     OW16373   1.202   4.495   7.321  0.6181 -0.0975  0.1050
38019SOL    HW116374   1.272   4.529   7.265  0.6182 -0.1148  0.0951
38019SOL    HW216375   1.142   4.451   7.261  0.8249 -0.4650  0.1626
38020SOL     OW16376   8.898   1.065   3.763 -0.2410 -0.1600  0.2435
38020SOL    HW116377   8.965   1.023   3.817 -0.9819 -1.7401  0.0032
38020SOL    HW216378   8.817   1.020   3.786 -1.6267  2.8807  1.8047
38021SOL     OW16379   6.037   8.752   3.527 -0.2019 -0.7137  0.5336
38021SOL    HW116380   6.063   8.695   3.600  0.4264  0.0179  0.8948
38021SOL    HW216381   6.072   8.838   3.550  2.0038 -0.9035 -1.6824
38022SOL     OW16382   8.241   3.697   7.840 -0.4007 -0.4267 -0.2713
38022SOL    HW116383   8.259   3.672   7.931 -1.2923 -0.3104 -0.0509
38022SOL    HW216384   8.315   3.662   7.790  0.0862 -0.5149  0.4920
38023SOL     OW16385   1.410   2.018   8.562 -0.3088 -0.2311  0.1589
38023SOL    HW116386   1.353   2.049   8.492  1.2967  2.9802  0.1066
38023SOL    HW216387   1.360   1.947   8.603 -1.5735 -1.9135 -3.7603
38024SOL     OW16388  10.330   5.718   4.329 -0.4211 -0.3145  0.5453
38024SOL    HW116389  10.246   5.703   4.373 -0.8391  1.3368  0.3912
38024SOL    HW216390  10.354   5.633   4.294 -1.5177 -1.0494  1.4761
38025SOL     OW16391   2.637   6.274   1.939  0.0262 -0.4836 -0.1570
38025SOL    HW116392   2.701   6.293   2.007  0.4469  0.1514 -0.7012
38025SOL    HW216393   2.598   6.191   1.964  1.9095 -1.5085 -0.4143
38026SOL     OW16394   0.835   2.695   0.446  0.0409  0.0585  0.0873
38026SOL    HW116395   0.801   2.694   0.536  0.4020 -1.6916  0.2492
38026SOL    HW216396   0.773   2.641   0.397 -0.8895  2.0697 -1.0522
38027SOL     OW16397   5.897   9.172   5.183 -0.3166 -0.2653  0.4107
38027SOL    HW116398   5.872   9.207   5.269  1.1248 -0.6612  1.0269
38027SOL    HW216399   5.908   9.250   5.128 -2.0605 -0.0421  0.3120
38028SOL     OW16400   2.854   0.763   3.751 -0.2916  0.0588 -0.4074
38028SOL    HW116401   2.894   0.827   3.691  0.8473 -0.8457 -0.6445
38028SOL    HW216402   2.892   0.679   3.725 -0.7261 -0.5235  0.7847
38029SOL     OW16403   3.802  10.464   0.921  0.0486  0.5747  0.2250
38029SOL    HW116404   3.889  10.482   0.956  0.4793  1.2900 -1.1612
38029SOL    HW216405   3.771  10.388   0.971  0.6421  1.5112  2.0862
38030SOL     OW16406   8.114   9.659   5.131 -0.2858  0.0351 -0.7712
38030SOL    HW116407   8.062   9.687   5.056 -0.0444  0.2229 -0.8712
38030SOL    HW216408   8.203   9.650   5.097 -0.2236 -0.1341 -0.5684
38031SOL     OW16409   5.592  10.372   2.294 -0.0118 -0.5783  0.0637
38031SOL    HW116410   5.525  10.379   2.363  1.3383  1.6106  1.2438
38031SOL    HW216411   5.663  10.324   2.335  0.0593 -0.9002 -0.4345
38032SOL     OW16412   8.803   3.078   6.756  0.4405 -0.1830 -0.2009
38032SOL    HW116413   8.831   2.988   6.741  0.8881 -0.1361  0.3597
38032SOL    HW216414   8.883   3.129   6.755  0.2110  0.1795 -0.2595
38033SOL     OW16415   6.638   4.225   8.557  0.4237 -0.1359 -0.5725
38033SOL    HW116416   6.674   4.201   8.471 -0.1393  1.7955 -1.3929
38033SOL    HW216417   6.593   4.308   8.542 -2.5684 -1.3477  0.8823
38034SOL     OW16418   0.558   2.857   5.197 -0.1570 -0.0816  0.2043
38034SOL    HW116419   0.538   2.951   5.191 -0.1061  0.2236  3.1124
38034SOL    HW216420   0.496   2.824   5.262  1.4922 -1.4668  1.1597
38035SOL     OW16421   4.683   8.074   5.037  0.2295 -0.0457  0.4426
38035SOL    HW116422   4.729   8.156   5.055  0.0548 -0.1357  1.3818
38035SOL    HW216423   4.748   8.020   4.992 -0.2407  1.2593 -1.9114
38036SOL     OW16424   7.702   0.965   3.206  0.2702  0.1002  0.5830
38036SOL    HW116425   7.695   0.872   3.188 -1.4494  0.2004  0.6265
38036SOL    HW216426   7.724   1.005   3.122 -1.0057 -0.1369  0.1285
38037SOL     OW16427   5.786   9.470   5.703 -1.1759  0.0880 -0.2107
38037SOL    HW116428   5.850   9.529   5.661 -0.6683 -0.4623 -0.2302
38037SOL    HW216429   5.809   9.472   5.796 -2.9553  2.1207  0.2630
38038SOL     OW16430   6.777   6.303   9.581 -0.3981  0.0924 -0.0884
38038SOL    HW116431   6.802   6.214   9.606 -1.0646 -0.0994 -0.0938
38038SOL    HW216432   6.712   6.292   9.513  0.6265  0.6127 -1.1852
38039SOL     OW16433   9.541   6.337   9.513 -0.4313  0.0331  0.1477
38039SOL    HW116434   9.466   6.393   9.493  0.2960  0.9355 -0.0679
38039SOL    HW216435   9.511   6.282   9.586 -0.4670  2.1469  1.8050
38040SOL     OW16436   1.007   3.149   2.413 -0.4138  0.1458 -0.3196
38040SOL    HW116437   1.002   3.243   2.400  0.7168 -0.0598 -2.8552
38040SOL    HW216438   1.100   3.131   2.428 -0.4900 -0.6344 -0.7004
38041SOL     OW16439   4.692   4.483   3.263  0.4141  0.3170 -0.3875
38041SOL    HW116440   4.776   4.522   3.285  0.1000  1.5623 -1.3153
38041SOL    HW216441   4.642   4.553   3.221  0.2824 -1.3349 -3.2486
38042SOL     OW16442   7.808  10.455   0.968  0.2192  0.0252 -0.3767
38042SOL    HW116443   7.773  10.494   1.048  0.1165  1.4329 -1.0696
38042SOL    HW216444   7.884  10.404   0.997 -0.1953 -0.0177  0.6861
38043SOL     OW16445   1.458   8.006   0.989  0.3412  0.1007 -0.0233
38043SOL    HW116446   1.447   8.036   0.898  0.6137  0.4891  0.0718
38043SOL    HW216447   1.541   7.958   0.988  1.1805  1.4992  0.3723
38044SOL     OW16448   3.902   8.361   4.655  0.3906 -0.0728  0.2811
38044SOL    HW116449   3.853   8.380   4.575  1.1254  1.1264  0.0834
38044SOL    HW216450   3.942   8.275   4.640  0.9715  0.3803 -0.8812
38045SOL     OW16451   7.050   4.779   4.138  0.2673 -0.1228 -0.3387
38045SOL    HW116452   7.031   4.838   4.066  0.1373 -0.9346 -0.9818
38045SOL    HW216453   7.127   4.729   4.109 -0.3469 -1.1026 -0.3264
38046SOL     OW16454   1.269   7.366   2.472 -0.1333 -0.0207 -0.6970
38046SOL    HW116455   1.267   7.426   2.398  0.7653 -0.4823 -1.1149
38046SOL    HW216456   1.211   7.405   2.537 -0.6816  0.5538 -1.5174
38047SOL     OW16457   6.947   7.104   5.765 -0.6290  0.3932  0.2325
38047SOL    HW116458   6.982   7.112   5.853  0.3514 -0.0036 -0.1020
38047SOL    HW216459   6.903   7.019   5.763 -0.3538  0.2511  0.2399
38048SOL     OW16460  10.388   2.420   6.747  0.0566  0.2855  0.0683
38048SOL    HW116461  10.413   2.338   6.705  1.2368 -0.7158  2.5193
38048SOL    HW216462  10.459   2.480   6.726 -0.4011  0.4664 -1.0401
38049SOL     OW16463   8.006  10.485   5.816 -0.2442  0.0055 -0.5349
38049SOL    HW116464   7.916  10.509   5.835  0.6104  2.6214  0.7921
38049SOL    HW216465   8.047  10.567   5.789  1.5312 -1.3129 -2.1300
38050SOL     OW16466   2.030   9.194   7.727 -0.2535  0.0595 -0.1326
38050SOL    HW116467   2.069   9.211   7.813 -1.6621  0.5256  0.4548
38050SOL    HW216468   1.958   9.257   7.721 -0.5762 -0.4067 -1.3868
38051SOL     OW16469   1.676   7.647   5.516  0.5662  0.4537 -0.5384
38051SOL    HW116470   1.648   7.561   5.486  2.4739 -0.8754  1.1970
38051SOL    HW216471   1.595   7.693   5.537 -0.5137 -2.1974  1.7288
38052SOL     OW16472   6.021   5.916   3.037  0.0511 -0.0202 -0.2490
38052SOL    HW116473   5.941   5.954   3.075  0.7410 -0.1062  1.3421
38052SOL    HW216474   6.028   5.830   3.077  0.2692 -0.5338 -1.3580
38053SOL     OW16475   3.882   6.569   9.009 -0.4602 -0.2794 -0.4338
38053SOL    HW116476   3.817   6.630   8.974  1.6027  1.6714 -1.0984
38053SOL    HW216477   3.917   6.523   8.932 -1.2263 -1.5599 -0.0494
38054SOL     OW16478   3.448   1.105   5.292 -0.1302 -0.3221  0.4818
38054SOL    HW116479   3.400   1.077   5.370 -0.3448  0.2948  0.5750
38054SOL    HW216480   3.390   1.167   5.248  0.1013 -0.4574 -0.0278
38055SOL     OW16481   0.188   9.605  10.228  1.2790  0.4660 -0.5089
38055SOL    HW116482   0.211   9.533  10.287 -0.4872 -0.4975 -0.9532
38055SOL    HW216483   0.205   9.571  10.140  0.4757  0.6100 -0.7210
38056SOL     OW16484   4.109  10.318   6.305  0.2097 -0.0546  0.3357
38056SOL    HW116485   4.119  10.413   6.313  0.0839 -0.0949  0.9672
38056SOL    HW216486   4.182  10.281   6.355  1.0172 -0.2945 -0.9674
38057SOL     OW16487   4.439   6.901   2.820 -0.3692 -0.1335  0.4761
38057SOL    HW116488   4.355   6.938   2.844 -0.5846 -1.1058  1.2638
38057SOL    HW216489   4.419   6.815   2.784  0.2733 -0.3554  0.6186
38058SOL     OW16490   2.763   2.546   5.416 -0.3594  0.0102  0.6733
38058SOL    HW116491   2.671   2.549   5.443 -0.2939  0.1538  0.8831
38058SOL    HW216492   2.810   2.525   5.497 -0.2133 -0.1304  0.5522
38059SOL     OW16493   2.735   4.636   8.797 -0.1353  0.6847  0.3989
38059SOL    HW116494   2.676   4.604   8.729 -0.1951  0.9031  0.3486
38059SOL    HW216495   2.805   4.680   8.749 -0.1546  0.8012  0.4781
38060SOL     OW16496   3.480   0.653   9.725 -0.0417  0.1016  0.0202
38060SOL    HW116497   3.475   0.665   9.630 -0.7925  0.9058  0.1453
38060SOL    HW216498   3.417   0.716   9.760 -0.2415 -0.6304  1.0191
38061SOL     OW16499   5.850   9.402   9.751  0.4948  0.7113 -0.2051
38061SOL    HW116500   5.774   9.397   9.808  0.8891 -1.0370  0.2400
38061SOL    HW216501   5.820   9.448   9.674 -0.5674  1.4524  0.6286
38062SOL     OW16502   3.710   7.952  10.391 -0.2187 -0.1922 -0.2849
38062SOL    HW116503   3.804   7.957  10.374 -0.3103  1.0416 -0.5589
38062SOL    HW216504   3.700   7.991  10.478 -0.2794 -2.2025  0.6768
38063SOL     OW16505  10.568   7.010   0.190  0.0287  0.1907 -0.4950
38063SOL    HW116506  10.496   6.998   0.129 -0.5613 -0.4118  0.2934
38063SOL    HW216507  10.526   7.028   0.274  0.7782 -0.3514  0.0155
38064SOL     OW16508   2.308   7.872   8.217  0.0754 -0.0214  0.0261
38064SOL    HW116509   2.365   7.839   8.147 -1.8283 -1.0130 -1.1400
38064SOL    HW216510   2.225   7.825   8.205 -0.9061  1.1216  1.8464
38065SOL     OW16511   2.849   6.263   7.591 -0.1367  0.4218  0.3436
38065SOL    HW116512   2.882   6.213   7.517 -0.4868 -0.4806  0.7735
38065SOL    HW216513   2.880   6.353   7.576 -0.1075  0.2328 -0.8190
38066SOL     OW16514   7.751   1.396   3.212 -0.1639 -0.0777  0.2528
38066SOL    HW116515   7.671   1.347   3.234  0.0984  0.3300  2.2737
38066SOL    HW216516   7.822   1.342   3.247  0.3936  0.0692 -0.6242
38067SOL     OW16517   8.096   8.568   9.296 -0.7794  0.4620  0.5698
38067SOL    HW116518   8.183   8.603   9.316 -1.4014  1.0710  2.3940
38067SOL    HW216519   8.111   8.505   9.225  1.1731  0.4448  0.9500
38068SOL     OW16520   2.526   6.513   7.541  0.4280 -0.9065  0.0905
38068SOL    HW116521   2.569   6.524   7.456  0.4868 -0.5703  0.1591
38068SOL    HW216522   2.534   6.599   7.582 -0.7405 -0.6958 -0.0891
38069SOL     OW16523   5.609   2.566   1.270  0.1579  0.1132 -0.2031
38069SOL    HW116524   5.613   2.621   1.192 -1.3272  0.0591 -0.3452
38069SOL    HW216525   5.573   2.623   1.337 -0.9121 -0.5221 -0.2188
38070SOL     OW16526  10.193  10.033   8.786 -0.4098 -0.3971 -0.3661
38070SOL    HW116527  10.102  10.053   8.767 -1.4350  0.6665  4.3031
38070SOL    HW216528  10.237  10.118   8.787  0.0781 -0.6420 -0.2824
38071SOL     OW16529   1.666   7.207   9.428 -0.1038  0.3576 -0.5107
38071SOL    HW116530   1.666   7.135   9.492  0.8530  2.1461  1.6637
38071SOL    HW216531   1.702   7.169   9.348  2.7758 -1.0648  1.2951
38072SOL     OW16532   6.669   0.479   6.424 -0.0592 -0.5603  0.0442
38072SOL    HW116533   6.625   0.562   6.444 -0.2398 -0.7979  0.6573
38072SOL    HW216534   6.611   0.436   6.361 -0.1942 -0.4236  0.0734
38073SOL     OW16535   8.193   6.783   7.735 -0.2486  0.0823 -0.7279
38073SOL    HW116536   8.237   6.727   7.799  0.6333 -1.6080 -2.7072
38073SOL    HW216537   8.225   6.871   7.754  0.5308 -0.4837  0.6975
38074SOL     OW16538   6.338   2.859   6.248 -0.4325 -0.4749 -0.1154
38074SOL    HW116539   6.317   2.921   6.178 -3.2798  0.1595  1.1889
38074SOL    HW216540   6.405   2.802   6.209 -0.8893  0.6843 -2.8481
38075SOL     OW16541   1.067   7.826   3.322  0.2342 -0.2231 -0.3438
38075SOL    HW116542   1.153   7.862   3.343 -0.4181  0.8236  0.6566
38075SOL    HW216543   1.013   7.903   3.302 -0.2292 -0.9203 -1.9861
38076SOL     OW16544   7.374   6.101   1.425 -0.3121  0.0717 -0.2780
38076SOL    HW116545   7.466   6.110   1.447 -0.0216 -0.1550 -1.3172
38076SOL    HW216546   7.362   6.007   1.409  0.2029  0.4342 -3.6807
38077SOL     OW16547   3.486   9.453   5.843  0.4764 -0.1216  0.2962
38077SOL    HW116548   3.459   9.388   5.908  0.4531  1.6886  2.2107
38077SOL    HW216549   3.478   9.537   5.888  2.9758  1.0469 -1.1982
38078SOL     OW16550   9.751   8.201  10.184  0.1333 -0.2443  0.2367
38078SOL    HW116551   9.694   8.278  10.194  1.2233  0.4967  0.8980
38078SOL    HW216552   9.752   8.161  10.270 -0.1573 -0.8222 -0.0249
38079SOL     OW16553   8.688   2.972   8.658 -0.6739 -0.4371  0.1076
38079SOL    HW116554   8.781   2.949   8.651 -0.7684 -0.7781 -0.0743
38079SOL    HW216555   8.679   3.053   8.608 -0.2727  0.1789  1.0264
38080SOL     OW16556   0.304   1.506   0.291 -0.1747 -0.1176  0.0988
38080SOL    HW116557   0.344   1.503   0.378 -1.3993  0.1637  0.6920
38080SOL    HW216558   0.287   1.599   0.276  0.7068 -0.0838 -0.7767
38081SOL     OW16559   4.026   0.787   8.443  0.2463 -0.5702 -0.4453
38081SOL    HW116560   4.015   0.692   8.441  0.7671 -0.6303 -0.7008
38081SOL    HW216561   3.996   0.816   8.357  1.1797 -0.6414 -0.8151
38082SOL     OW16562   1.736   8.671   7.049 -0.3496 -0.3188  0.0268
38082SOL    HW116563   1.832   8.674   7.046 -0.3835  2.0872 -0.9344
38082SOL    HW216564   1.716   8.587   7.092  2.1431 -1.1812 -0.3211
38083SOL     OW16565   0.855   7.510   8.856  0.2878 -0.5660 -0.1943
38083SOL    HW116566   0.831   7.570   8.785 -0.6827 -2.4095 -1.4976
38083SOL    HW216567   0.932   7.464   8.822 -0.4384 -1.7575 -0.2455
38084SOL     OW16568   8.512   7.122   9.403  0.8902 -0.3354 -0.1864
38084SOL    HW116569   8.490   7.185   9.335  0.5828  1.4568  1.4779
38084SOL    HW216570   8.606   7.135   9.418  1.4146 -2.1158 -1.5486
38085SOL     OW16571   0.439   4.183   3.687  1.2366  0.5302  0.1448
38085SOL    HW116572   0.486   4.128   3.625  0.2547  0.3813 -0.4902
38085SOL    HW216573   0.457   4.273   3.658 -0.4403  0.4516 -1.3522
38086SOL     OW16574   7.443   8.891   4.242 -0.2696  0.5385  0.1546
38086SOL    HW116575   7.350   8.914   4.247 -0.8589 -1.6886  0.5859
38086SOL    HW216576   7.486   8.950   4.305 -1.2608  2.0195 -0.5118
38087SOL     OW16577   3.517   8.539   4.703  0.7909  0.6629 -0.3423
38087SOL    HW116578   3.499   8.467   4.763  0.4172  1.1941  0.1939
38087SOL    HW216579   3.531   8.615   4.759 -0.8008  1.4513 -0.9234
38088SOL     OW16580   3.966   1.553   4.240  0.0662  0.0411 -0.0061
38088SOL    HW116581   3.991   1.643   4.218 -0.4669  0.2580  0.2560
38088SOL    HW216582   3.998   1.500   4.167 -1.8603  0.7564 -1.4497
38089SOL     OW16583   3.065   5.743   4.803 -0.3093  0.1940 -0.1363
38089SOL    HW116584   3.143   5.732   4.857  0.0563  1.1334 -0.4665
38089SOL    HW216585   3.080   5.685   4.728  0.0725  0.3859 -0.2075
38090SOL     OW16586   6.336   1.505   4.840  0.2841  0.3625  0.7547
38090SOL    HW116587   6.272   1.537   4.777  2.0455  0.4307 -1.0713
38090SOL    HW216588   6.420   1.512   4.796  1.4849 -0.6112  2.7270
38091SOL     OW16589   7.398   7.776   8.573 -0.3639 -0.2151  0.1880
38091SOL    HW116590   7.379   7.755   8.664 -0.0158 -1.2199  0.0337
38091SOL    HW216591   7.318   7.755   8.526  0.0133 -1.3192  0.0205
38092SOL     OW16592   3.418   9.856   4.267  0.0354  0.6252 -0.1451
38092SOL    HW116593   3.471   9.807   4.330 -1.8096 -0.5930  0.5139
38092SOL    HW216594   3.355   9.904   4.320  1.5368  3.5418 -0.8039
38093SOL     OW16595   7.325   3.215  10.039 -0.1252 -0.0855 -0.2637
38093SOL    HW116596   7.387   3.172  10.098 -0.3946 -0.6127 -0.3565
38093SOL    HW216597   7.268   3.265  10.097 -1.2658 -1.7032  0.0760
38094SOL     OW16598   2.751   3.939   2.852 -0.1234 -0.1371 -0.2647
38094SOL    HW116599   2.659   3.963   2.865  0.2474  1.1979  0.0671
38094SOL    HW216600   2.771   3.878   2.923 -0.3236  0.8359  0.6550
38095SOL     OW16601   5.012   9.108   0.290  0.0042 -0.2608 -0.6591
38095SOL    HW116602   5.007   9.185   0.348  1.8913  0.7550 -1.7143
38095SOL    HW216603   4.954   9.129   0.217 -1.8808 -1.2633  0.4731
38096SOL     OW16604   5.661   4.000   5.517 -0.0716 -0.5889 -0.0211
38096SOL    HW116605   5.754   4.018   5.504 -0.2061  0.8858  0.9293
38096SOL    HW216606   5.624   4.001   5.428  0.5617  0.3213 -0.2854
38097SOL     OW16607   0.557   9.357   1.406 -0.2255  0.2296  0.0510
38097SOL    HW116608   0.633   9.318   1.448 -1.1815 -0.6608  0.9947
38097SOL    HW216609   0.593   9.407   1.333  1.2839  0.0811  0.6624
38098SOL     OW16610   9.855   1.749   2.635 -0.2129 -0.5038  0.1674
38098SOL    HW116611   9.812   1.775   2.717  1.6043  0.1245  0.9624
38098SOL    HW216612   9.783   1.744   2.572 -1.4092  0.9724  1.3097
38099SOL     OW16613   3.796   1.900   9.973 -0.0721 -0.5313 -0.1124
38099SOL    HW116614   3.846   1.820   9.986  0.6817  0.0817  0.9298
38099SOL    HW216615   3.729   1.877   9.909  1.3940 -1.4436 -1.3790
38100SOL     OW16616   8.150   8.005   5.650 -0.7488 -0.3458 -0.5652
38100SOL    HW116617   8.141   8.096   5.621 -0.0810 -0.3503 -0.8109
38100SOL    HW216618   8.209   7.966   5.586  1.8010 -0.0409  1.4460
38101SOL     OW16619   3.928   5.352   1.542 -0.1842 -0.7672 -0.2647
38101SOL    HW116620   3.855   5.325   1.597 -1.8531  0.2377 -1.8558
38101SOL    HW216621   3.943   5.277   1.484  0.4496 -1.1893  0.4349
38102SOL     OW16622   0.726   8.317   7.239 -0.0294  0.2543 -0.0138
38102SOL    HW116623   0.657   8.381   7.220 -0.8580 -0.6780 -0.2712
38102SOL    HW216624   0.782   8.360   7.303 -0.2424  1.4452 -0.5880
38103SOL     OW16625   1.090   1.537   2.836 -0.5808  0.5180 -0.1181
38103SOL    HW116626   1.151   1.466   2.812  0.0144  1.5259 -1.7318
38103SOL    HW216627   1.036   1.499   2.905  0.2247 -1.2574 -0.4008
38104SOL     OW16628  10.294   8.957  10.062 -0.1772 -0.0839  0.0997
38104SOL    HW116629  10.380   8.979  10.025  0.3716  1.3984  2.0581
38104SOL    HW216630  10.232   9.005  10.008  0.5189  1.2119  0.3918
38105SOL     OW16631   4.258   9.557   7.416  0.1856  0.0382 -0.1457
38105SOL    HW116632   4.207   9.611   7.476  0.3912  0.5057 -0.3902
38105SOL    HW216633   4.329   9.521   7.469 -1.4478 -2.2039  0.7015
38106SOL     OW16634   5.211   9.856   7.157 -0.2865 -0.0137  0.3795
38106SOL    HW116635   5.150   9.927   7.139 -0.5969 -0.3146  0.2304
38106SOL    HW216636   5.163   9.798   7.217 -0.2266 -0.3598  0.0929
38107SOL     OW16637   2.407   9.847   8.884 -0.0192 -0.5030  0.3465
38107SOL    HW116638   2.407   9.779   8.816 -2.4028 -1.0502  0.8375
38107SOL    HW216639   2.362   9.807   8.958  0.0135  1.0764  1.2522
38108SOL     OW16640   2.908   6.948   0.067 -0.2557  1.1469 -0.4674
38108SOL    HW116641   2.968   6.959   0.141  0.6451 -1.4194 -0.7479
38108SOL    HW216642   2.952   6.992  -0.006 -0.5452  2.5608  0.1696
38109SOL     OW16643   4.532   2.835   1.689 -0.0289  0.1743 -0.1211
38109SOL    HW116644   4.496   2.907   1.638  1.1418 -0.1308 -1.4435
38109SOL    HW216645   4.465   2.815   1.754 -2.2570 -0.4358 -2.4795
38110SOL     OW16646   7.413   7.654   2.699  0.1533 -0.1952 -0.0375
38110SOL    HW116647   7.401   7.582   2.760  1.4717 -0.8809 -0.5330
38110SOL    HW216648   7.498   7.691   2.722 -0.2353  0.8276 -0.1773
38111SOL     OW16649   5.870   2.686   1.392  0.4407  0.0860 -0.6170
38111SOL    HW116650   5.788   2.667   1.348  1.3184 -0.0670 -2.2819
38111SOL    HW216651   5.864   2.639   1.475 -1.7414  1.3053 -0.0205
38112SOL     OW16652   8.378   7.986   7.917 -0.2099  0.7373 -0.2442
38112SOL    HW116653   8.420   7.922   7.859 -0.0798  1.5860 -1.1069
38112SOL    HW216654   8.449   8.045   7.942 -0.5945  1.3758 -0.6118
38113SOL     OW16655   6.484   3.891   6.851 -0.0757  0.1484  0.3772
38113SOL    HW116656   6.533   3.812   6.826  0.2256  0.2897  0.5149
38113SOL    HW216657   6.550   3.948   6.891 -0.6011 -0.1985  1.7729
38114SOL     OW16658   6.467   4.683   6.789  0.4167  0.1541 -0.2244
38114SOL    HW116659   6.508   4.656   6.871  2.8069  1.7122 -0.8122
38114SOL    HW216660   6.539   4.692   6.727 -1.2158 -0.1680 -2.3137
38115SOL     OW16661  10.389   3.865   4.909  0.0696 -0.4491 -0.1405
38115SOL    HW116662  10.388   3.917   4.990  0.4703  0.2075 -0.5434
38115SOL    HW216663  10.394   3.774   4.939 -1.6254 -0.3364  0.6122
38116SOL     OW16664   0.415   0.058   6.893  0.5800  0.0982 -0.2222
38116SOL    HW116665   0.371  -0.018   6.931  0.9168  0.0742  0.1220
38116SOL    HW216666   0.357   0.132   6.912  1.0525  0.1959  0.9286
38117SOL     OW16667   9.505   0.387   6.501  0.2723  0.2964 -0.5906
38117SOL    HW116668   9.564   0.425   6.567  0.8200 -0.4877 -0.6168
38117SOL    HW216669   9.538   0.298   6.489 -0.8797 -0.1285 -0.6622
38118SOL     OW16670   0.891  10.375   1.158  0.4082  0.3562  0.5634
38118SOL    HW116671   0.803  10.401   1.183  0.7552  1.0488  1.0889
38118SOL    HW216672   0.896  10.282   1.179 -1.0508 -0.3751 -1.8959
38119SOL     OW16673   8.477   6.451   4.089 -0.1750  0.2740  0.0635
38119SOL    HW116674   8.548   6.496   4.044 -0.5299  0.7423 -0.0355
38119SOL    HW216675   8.426   6.410   4.019  0.5439 -0.8980  0.1943
38120SOL     OW16676   8.905   2.654   3.629 -0.3520  0.4135 -0.0539
38120SOL    HW116677   8.916   2.747   3.613  2.3020 -0.2254 -2.9057
38120SOL    HW216678   8.982   2.629   3.679 -1.6778 -0.1168  1.8306
38121SOL     OW16679   8.651   8.952   2.322 -0.0435 -0.3275 -0.5283
38121SOL    HW116680   8.580   8.930   2.261 -0.9074 -1.1124  0.7017
38121SOL    HW216681   8.614   8.933   2.408  1.5048 -0.2512  0.1748
38122SOL     OW16682   6.031   1.343   3.645 -0.2195 -0.4519  0.0798
38122SOL    HW116683   6.027   1.409   3.576  0.0099 -2.1224 -1.5738
38122SOL    HW216684   5.940   1.331   3.672 -0.2113  0.9229  0.8245
38123SOL     OW16685   7.563   5.635   5.951 -0.5335 -0.1396 -0.3163
38123SOL    HW116686   7.495   5.581   5.992 -2.5802  0.9914 -2.0187
38123SOL    HW216687   7.599   5.580   5.882  1.8961 -1.5102  1.8598
38124SOL     OW16688   2.458   9.642   0.401 -0.5569 -0.5019 -0.5643
38124SOL    HW116689   2.427   9.589   0.474 -1.5458  0.9372  0.0908
38124SOL    HW216690   2.399   9.620   0.329  0.1096 -1.5444 -0.8216
38125SOL     OW16691   2.018   3.672  10.154  0.2610 -0.1364 -0.2866
38125SOL    HW116692   2.035   3.602  10.217 -0.1759  0.0480  0.0444
38125SOL    HW216693   2.090   3.666  10.091  2.7504  1.9017  2.1142
38126SOL     OW16694   9.007  10.031   7.379  0.0061  0.4422 -0.2949
38126SOL    HW116695   8.958  10.101   7.336  0.2883  0.0799 -1.2258
38126SOL    HW216696   8.952  10.005   7.453 -0.0906  1.6535  0.0726
38127SOL     OW16697   6.747   8.327   4.538 -0.3267  0.1270  0.1547
38127SOL    HW116698   6.692   8.394   4.496 -0.8778 -0.4002  0.0217
38127SOL    HW216699   6.735   8.342   4.632 -1.7193 -0.7843  0.1436
38128SOL     OW16700   5.936   6.714   0.285 -0.3412  0.2861 -0.1367
38128SOL    HW116701   5.942   6.805   0.255 -1.8680  0.5268  0.2097
38128SOL    HW216702   5.999   6.667   0.231  1.2004  1.7018  0.3583
38129SOL     OW16703   3.346   3.607   8.224 -0.5223  0.1094  0.0818
38129SOL    HW116704   3.405   3.624   8.151 -1.9527 -0.0713 -1.1808
38129SOL    HW216705   3.397   3.556   8.286  0.0228 -1.9874 -1.9667
38130SOL     OW16706   6.137   4.028   7.292  0.3095  0.0174  0.2090
38130SOL    HW116707   6.085   4.038   7.372 -2.5648 -0.4278 -1.4484
38130SOL    HW216708   6.195   3.954   7.310 -0.5684 -0.3322  1.7416
38131SOL     OW16709  10.278   6.137   8.920 -0.3371  0.3887 -0.3990
38131SOL    HW116710  10.335   6.136   8.843 -0.2591  0.3919 -0.3415
38131SOL    HW216711  10.288   6.225   8.956 -0.5293  0.4528 -0.5006
38132SOL     OW16712  10.114   9.079   9.112  0.3070  0.6762  0.1560
38132SOL    HW116713  10.150   9.156   9.068 -0.9853  1.3941  0.2960
38132SOL    HW216714  10.134   9.093   9.205 -1.9756  2.1070  0.5202
38133SOL     OW16715   9.022   3.007   1.121 -0.3255  0.3452 -0.2398
38133SOL    HW116716   9.074   3.082   1.149 -1.2758  0.8902  0.0902
38133SOL    HW216717   9.041   2.939   1.186  1.0166  0.0684 -0.8867
38134SOL     OW16718   6.041   7.298   6.803  0.0584  0.3716  0.0208
38134SOL    HW116719   6.054   7.336   6.891 -0.0522  0.4448  0.0055
38134SOL    HW216720   6.094   7.353   6.746  0.1201  0.3323  0.0399
38135SOL     OW16721   6.841   7.047   5.191  0.4357  0.4628 -0.6306
38135SOL    HW116722   6.922   7.045   5.242 -0.0778 -1.4802  0.2018
38135SOL    HW216723   6.850   6.975   5.128 -0.6634  0.1690 -0.4727
38136SOL     OW16724   7.085   1.606   0.284 -0.5204 -0.0928  0.1760
38136SOL    HW116725   7.023   1.675   0.263 -1.7678 -1.3912 -0.6220
38136SOL    HW216726   7.058   1.574   0.370  1.5331  1.9317  1.6727
38137SOL     OW16727   2.212   0.751   8.418  0.1051 -0.4895  0.0936
38137SOL    HW116728   2.227   0.777   8.509 -0.6744 -2.3380  0.8050
38137SOL    HW216729   2.264   0.671   8.407 -0.7216 -0.9393 -0.7132
38138SOL     OW16730   2.487   2.813   2.497  0.2373  0.2131  0.2115
38138SOL    HW116731   2.445   2.895   2.472 -1.1629 -0.5098  0.0977
38138SOL    HW216732   2.451   2.748   2.436  0.9194 -0.5926  0.6390
38139SOL     OW16733   7.651   1.801   9.585  0.0132 -0.3848 -0.0604
38139SOL    HW116734   7.714   1.803   9.657 -1.2610  1.1739  1.1044
38139SOL    HW216735   7.570   1.770   9.626 -0.6152  0.0663 -0.9351
38140SOL     OW16736   3.229   1.657   1.956 -0.1221 -0.2470  0.3208
38140SOL    HW116737   3.157   1.633   1.898 -0.2291  0.3047  0.2169
38140SOL    HW216738   3.297   1.593   1.937 -0.5530 -0.7238  0.3593
38141SOL     OW16739   6.420   7.724   6.203  0.2040  0.1789 -0.0117
38141SOL    HW116740   6.440   7.792   6.139  0.1259 -1.0267 -1.3588
38141SOL    HW216741   6.332   7.744   6.233 -0.6655 -0.4795 -1.9742
38142SOL     OW16742   1.257   0.885   2.354 -0.1764  0.7694 -0.0747
38142SOL    HW116743   1.266   0.935   2.435 -2.1652  0.3284  0.4945
38142SOL    HW216744   1.233   0.950   2.288 -0.8936  0.8428  0.2452
38143SOL     OW16745   9.247   6.770   0.607  0.1324  0.0645  0.0009
38143SOL    HW116746   9.257   6.839   0.542 -0.1749 -0.4242 -0.5704
38143SOL    HW216747   9.281   6.691   0.564  0.2967 -0.1832  0.5734
38144SOL     OW16748  10.110  10.453   3.976 -0.1766 -0.3172 -0.0110
38144SOL    HW116749  10.057  10.523   4.014  0.8919  0.5589 -0.0790
38144SOL    HW216750  10.046  10.391   3.940 -1.1524  0.8504 -0.3519
38145SOL     OW16751   9.860   4.658   8.301 -0.6628  1.0426 -0.4443
38145SOL    HW116752   9.855   4.678   8.207  1.3272  1.8235 -0.4433
38145SOL    HW216753   9.928   4.717   8.334 -1.6980  1.1545  1.6180
38146SOL     OW16754   8.633   6.305   2.458 -0.3240  0.2168  0.1538
38146SOL    HW116755   8.538   6.290   2.466 -0.5151  1.4249  0.4415
38146SOL    HW216756   8.654   6.278   2.369 -1.1736  0.9428 -0.2880
38147SOL     OW16757   4.963   7.381   8.405 -0.1111  0.6388  0.1395
38147SOL    HW116758   4.907   7.449   8.445  1.2620  0.8294  1.8261
38147SOL    HW216759   4.966   7.405   8.312 -3.1409  0.3676 -0.1407
38148SOL     OW16760   4.711   3.295   8.828 -0.4190 -0.1438  0.5811
38148SOL    HW116761   4.641   3.269   8.768 -1.6728  2.0195  1.0063
38148SOL    HW216762   4.700   3.237   8.903 -0.0284 -1.6090 -0.4445
38149SOL     OW16763   0.241   8.566  10.473 -0.0016 -0.0279 -0.0486
38149SOL    HW116764   0.214   8.477  10.450 -0.8816  0.3347 -0.4557
38149SOL    HW216765   0.326   8.577  10.430 -0.0783 -0.5206 -0.3351
38150SOL     OW16766   8.697   3.209   8.525  0.1206  0.3491  0.6888
38150SOL    HW116767   8.696   3.301   8.498  0.2945  0.1425 -0.0587
38150SOL    HW216768   8.788   3.181   8.512 -0.4813 -0.6987 -1.9069
38151SOL     OW16769   1.321   0.257   3.372 -0.5836  0.3117 -0.0015
38151SOL    HW116770   1.332   0.170   3.410 -1.1659  0.8052  1.3571
38151SOL    HW216771   1.241   0.250   3.320 -0.8680  0.1454  0.4531
38152SOL     OW16772   3.768   3.818   0.839 -0.3187 -0.6231  0.5868
38152SOL    HW116773   3.731   3.754   0.778 -0.7104 -0.7277  0.9234
38152SOL    HW216774   3.708   3.816   0.914 -0.0990 -0.1649  0.7772
38153SOL     OW16775   9.289   3.780   3.417 -0.1779 -0.1670  0.3574
38153SOL    HW116776   9.343   3.823   3.484  0.1559 -0.8794  0.5531
38153SOL    HW216777   9.235   3.719   3.466  1.0634 -1.7216 -0.1481
38154SOL     OW16778   1.522  10.372   5.103  0.2907  0.2562 -0.1212
38154SOL    HW116779   1.460  10.315   5.149  0.3096 -0.0144 -0.4252
38154SOL    HW216780   1.572  10.312   5.048 -1.8968  0.8534 -3.0213
38155SOL     OW16781   4.395   1.708   2.228  0.3918 -0.3114 -0.1189
38155SOL    HW116782   4.456   1.753   2.286  0.4480 -0.3965 -0.1125
38155SOL    HW216783   4.344   1.779   2.187 -1.1614 -0.3229  1.6599
38156SOL     OW16784   4.897   7.101   0.871  0.1789  0.0604  0.0974
38156SOL    HW116785   4.963   7.065   0.812 -0.3505  1.6683 -1.5697
38156SOL    HW216786   4.858   7.024   0.913  1.7858 -1.0195 -0.3112
38157SOL     OW16787   4.427   2.323  10.066  0.0007 -0.2572  0.5531
38157SOL    HW116788   4.471   2.306  10.149 -1.5371 -0.7399  1.3148
38157SOL    HW216789   4.340   2.284  10.077 -1.1434  1.8711 -0.3488
38158SOL     OW16790   2.430   9.182   7.368  0.2077  0.0960 -0.0461
38158SOL    HW116791   2.406   9.208   7.457 -0.1635 -2.2589  0.5960
38158SOL    HW216792   2.351   9.143   7.332  0.9631 -0.9417 -0.6264
38159SOL     OW16793   8.473   5.324   2.895 -0.5318 -0.4381  0.0420
38159SOL    HW116794   8.378   5.319   2.892 -0.5711  0.2007  0.0036
38159SOL    HW216795   8.493   5.412   2.863  0.0936 -0.7399 -0.4131
38160SOL     OW16796   8.030   2.063   0.591 -0.5149  1.2273  0.4924
38160SOL    HW116797   8.021   2.019   0.675 -0.9445  0.7734  0.2112
38160SOL    HW216798   7.969   2.137   0.596  0.6084  2.1367  1.1760
38161SOL     OW16799   8.553   2.858   3.039  0.4108 -0.5833 -0.1754
38161SOL    HW116800   8.578   2.769   3.065 -0.2579 -1.3058 -1.8551
38161SOL    HW216801   8.592   2.869   2.952  0.6930  0.8794  0.1164
38162SOL     OW16802   5.040   2.265   5.788 -0.0120 -0.3142  0.8906
38162SOL    HW116803   5.006   2.347   5.752 -0.0402  0.6089  2.8626
38162SOL    HW216804   4.964   2.225   5.832 -0.0887 -1.6156 -0.3491
38163SOL     OW16805   1.893   7.316  10.149  0.5784 -0.0809  0.7453
38163SOL    HW116806   1.863   7.240  10.200 -1.6380 -0.4106 -0.8791
38163SOL    HW216807   1.814   7.370  10.139  1.2140  0.5456 -1.2704
38164SOL     OW16808   7.864   4.920   3.341 -0.2547  0.1442  0.2788
38164SOL    HW116809   7.784   4.874   3.367 -1.4510  1.6236 -0.5735
38164SOL    HW216810   7.932   4.853   3.340 -1.5612 -1.2297  0.7184
38165SOL     OW16811   7.650   1.159   6.402  0.1287 -0.1497  0.5044
38165SOL    HW116812   7.695   1.214   6.339  1.5455 -1.4185  0.3446
38165SOL    HW216813   7.693   1.177   6.486 -0.8019  0.4907  0.8642
38166SOL     OW16814   4.447   9.977   0.835  0.0687  0.0750 -0.2595
38166SOL    HW116815   4.427   9.899   0.784  1.5225 -1.2833  1.1228
38166SOL    HW216816   4.543   9.983   0.834  0.3518 -1.0244  3.5187
38167SOL     OW16817   1.205   0.354   9.444  0.3161 -0.3250  0.2502
38167SOL    HW116818   1.175   0.331   9.532  0.2346 -2.1439 -0.2152
38167SOL    HW216819   1.126   0.379   9.397  0.0685 -1.2448  0.1589
38168SOL     OW16820   7.966   3.492   5.968 -0.1782  0.0492  0.1833
38168SOL    HW116821   7.930   3.405   5.948  0.3409  0.0248 -0.7013
38168SOL    HW216822   7.897   3.553   5.942  0.7144  0.0627 -2.5204
38169SOL     OW16823   9.452   9.728   0.668  0.4926  0.1675  1.1374
38169SOL    HW116824   9.463   9.734   0.573  2.4949  1.2758  1.3921
38169SOL    HW216825   9.451   9.634   0.686 -0.4090 -0.0681  0.0012
38170SOL     OW16826   7.723   1.603   2.687 -0.3655 -0.1744 -0.1867
38170SOL    HW116827   7.634   1.579   2.713 -0.3907  0.9191  0.8117
38170SOL    HW216828   7.766   1.520   2.666 -1.4763 -0.7489 -0.2460
38171SOL     OW16829   7.894   2.587   2.188  0.0093 -0.3697  0.4471
38171SOL    HW116830   7.819   2.646   2.181  1.4523  1.3810 -3.0432
38171SOL    HW216831   7.885   2.529   2.112  2.1699 -0.0462 -0.1141
38172SOL     OW16832   1.244  10.502  10.243  0.0676  0.3209  0.2129
38172SOL    HW116833   1.322  10.546  10.278  1.4945 -1.2649 -0.8001
38172SOL    HW216834   1.198  10.471  10.321 -0.3236  2.4509  0.8837
38173SOL     OW16835   8.429   0.948   9.956 -0.0475 -0.5269 -0.6763
38173SOL    HW116836   8.523   0.968   9.952 -0.0490 -0.0444  0.8042
38173SOL    HW216837   8.392   1.022  10.006 -0.9233 -1.5788  0.2873
38174SOL     OW16838   4.425   8.301   9.049 -0.0674  0.1037 -0.0170
38174SOL    HW116839   4.394   8.309   8.959 -1.7176 -1.4968  0.3386
38174SOL    HW216840   4.346   8.311   9.102  0.4655 -1.3306  1.1078
38175SOL     OW16841   4.487   6.697   4.047 -0.1506  0.0085 -0.7261
38175SOL    HW116842   4.420   6.664   3.987 -0.5645  1.7715 -1.3009
38175SOL    HW216843   4.527   6.770   4.000  2.1469 -0.9425 -0.3515
38176SOL     OW16844   5.011   6.292   9.454  0.8382  0.0588  0.4588
38176SOL    HW116845   5.103   6.291   9.480  0.8387 -1.1398  0.4913
38176SOL    HW216846   4.997   6.207   9.412  0.3957  1.2107 -1.9129
38177SOL     OW16847   4.152   5.354   5.592 -0.0331  0.4706 -0.0421
38177SOL    HW116848   4.116   5.382   5.676 -0.9116  2.4041 -1.0074
38177SOL    HW216849   4.245   5.380   5.595  0.1607 -0.2858  0.6595
38178SOL     OW16850   7.593   6.626   8.905 -1.0375 -0.1259 -0.7150
38178SOL    HW116851   7.580   6.686   8.831  2.1607  1.8673  0.1426
38178SOL    HW216852   7.672   6.577   8.882 -1.6589 -1.5776  0.1382
38179SOL     OW16853   0.800   9.469   0.622  0.1580 -0.2288  0.3471
38179SOL    HW116854   0.861   9.464   0.548 -0.7338 -1.2428 -0.3541
38179SOL    HW216855   0.787   9.563   0.636 -2.3093  0.1568 -3.1041
38180SOL     OW16856   7.010   3.446   0.152 -0.4208  0.4256 -0.0624
38180SOL    HW116857   6.922   3.411   0.165 -0.7098  0.6707 -1.2286
38180SOL    HW216858   7.067   3.369   0.151 -0.5967  0.2701  0.7602
38181SOL     OW16859   2.038   9.629   2.616 -0.1100 -0.2222 -0.3500
38181SOL    HW116860   1.990   9.673   2.546 -1.2430  0.6478  0.9267
38181SOL    HW216861   2.079   9.700   2.666  0.1845 -0.7889  0.2283
38182SOL     OW16862   6.462   7.905   6.010  0.0209 -0.4439  0.4844
38182SOL    HW116863   6.522   7.977   5.988 -0.2285 -0.4005 -0.0589
38182SOL    HW216864   6.381   7.927   5.964 -0.1702 -0.8926  0.6072
38183SOL     OW16865   4.616   1.222   4.737  0.6490 -1.0164  0.2233
38183SOL    HW116866   4.597   1.316   4.726 -4.8901 -1.9390 -1.3627
38183SOL    HW216867   4.606   1.207   4.831 -2.2367 -0.4266  0.1046
38184SOL     OW16868   6.020   7.547   0.301  0.3004 -0.0577  0.1043
38184SOL    HW116869   6.106   7.588   0.284  1.0496 -1.1966  1.0170
38184SOL    HW216870   6.008   7.555   0.396 -0.0145 -1.0398  0.1516
38185SOL     OW16871   2.930   0.361   2.063  0.3422  0.0473 -0.2037
38185SOL    HW116872   2.997   0.327   2.005  1.4528  2.2336 -0.3170
38185SOL    HW216873   2.917   0.292   2.128  2.4092 -0.6122 -0.4143
38186SOL     OW16874   7.874   5.171  10.498  0.3665  0.2339 -0.0313
38186SOL    HW116875   7.903   5.260  10.515  0.5265  0.2607 -0.4213
38186SOL    HW216876   7.954   5.119  10.500  0.1466 -0.0740  1.2461
38187SOL     OW16877   3.736   2.691   6.584 -0.2325 -0.1705 -0.4827
38187SOL    HW116878   3.730   2.787   6.586 -1.0285 -0.2155 -0.1905
38187SOL    HW216879   3.776   2.667   6.667 -2.2605 -0.1993  0.5607
38188SOL     OW16880   2.775   8.291   1.369 -0.2053  0.6637 -0.5741
38188SOL    HW116881   2.857   8.331   1.398 -1.4894  3.6410 -0.6851
38188SOL    HW216882   2.786   8.280   1.274 -0.0192  1.3574 -0.6413
38189SOL     OW16883   1.539   0.084   0.510 -0.2632 -0.0803  0.1697
38189SOL    HW116884   1.493   0.105   0.591 -0.8943 -1.4688  0.2156
38189SOL    HW216885   1.492   0.133   0.442 -1.6119 -1.1431  0.2780
38190SOL     OW16886   7.526   1.773   5.706 -0.0466  0.2003  0.1490
38190SOL    HW116887   7.618   1.793   5.727  0.1089  0.2426 -0.5342
38190SOL    HW216888   7.487   1.747   5.790  0.4510  0.7002  0.5434
38191SOL     OW16889   3.604   2.681   4.849 -0.0471 -0.1981 -0.3665
38191SOL    HW116890   3.655   2.695   4.929 -1.5878  0.1645  0.6088
38191SOL    HW216891   3.606   2.586   4.835  4.0328  0.0218 -2.5935
38192SOL     OW16892   6.217   1.422   5.370  0.5013  0.5694 -0.3802
38192SOL    HW116893   6.234   1.462   5.284  0.4402 -0.0923 -0.7101
38192SOL    HW216894   6.200   1.496   5.428 -2.9723  0.9967 -1.6697
38193SOL     OW16895   0.016   5.835   5.407 -0.1320  0.7755 -0.2436
38193SOL    HW116896   0.082   5.903   5.418 -0.0056  0.4686  0.9750
38193SOL    HW216897   0.052   5.779   5.338  0.0094  1.6221 -0.8871
38194SOL     OW16898   1.549   6.737   1.282  0.0187 -0.1418 -0.0497
38194SOL    HW116899   1.494   6.662   1.307  1.1915 -0.8764  0.3947
38194SOL    HW216900   1.575   6.776   1.366 -1.1261  1.1994 -0.2793
38195SOL     OW16901   6.134   5.828   5.213  0.0290  0.0211 -0.0298
38195SOL    HW116902   6.227   5.817   5.194  0.2490 -0.4368  1.2075
38195SOL    HW216903   6.091   5.758   5.164  0.1398  1.1598 -1.8409
38196SOL     OW16904   6.790   0.053   9.254 -0.0647  0.0623 -0.3125
38196SOL    HW116905   6.836   0.136   9.238 -1.5761  1.0222  0.1130
38196SOL    HW216906   6.852  -0.014   9.226  0.3622  1.3763 -2.8702
38197SOL     OW16907   5.690   8.764   9.431  0.8422  0.4100  0.0005
38197SOL    HW116908   5.745   8.836   9.399  4.5026 -1.5040  1.3890
38197SOL    HW216909   5.707   8.692   9.372 -0.3166 -0.2599  0.4431
38198SOL     OW16910   3.225   7.670   6.716 -0.1282 -0.0427 -0.2190
38198SOL    HW116911   3.138   7.639   6.691 -1.2940  1.7377  1.3037
38198SOL    HW216912   3.212   7.763   6.734  1.9006  0.0642  0.9305
38199SOL     OW16913   4.397   8.857   0.251 -0.1945  0.0202  0.3115
38199SOL    HW116914   4.427   8.891   0.167 -1.9126  1.1081  0.1108
38199SOL    HW216915   4.438   8.914   0.317 -0.7775  0.7012  0.0945
38200SOL     OW16916   8.597   4.972   8.868  0.2346  0.3863  0.2035
38200SOL    HW116917   8.632   5.010   8.948 -0.8224  0.0632  0.8374
38200SOL    HW216918   8.618   5.035   8.800  1.1269  0.6737  0.7342
38201SOL     OW16919   1.187   8.565   5.754  0.0588  0.0627 -0.0365
38201SOL    HW116920   1.227   8.599   5.834  1.0372 -0.3899 -0.3282
38201SOL    HW216921   1.176   8.471   5.771 -1.2815  0.2320  0.1974
38202SOL     OW16922   3.238   2.042   2.623 -0.3736 -0.5173  0.5583
38202SOL    HW116923   3.297   1.978   2.663 -0.2191 -1.6741 -1.3857
38202SOL    HW216924   3.289   2.123   2.621  0.0224 -0.7224  1.6179
38203SOL     OW16925   2.653   8.890   7.844 -0.1960  0.0134  0.1512
38203SOL    HW116926   2.669   8.981   7.818  0.2881 -0.1130  0.0035
38203SOL    HW216927   2.673   8.889   7.938 -3.2488  0.7919  0.9365
38204SOL     OW16928   0.909   0.967   4.939  0.7875 -0.2809 -0.5736
38204SOL    HW116929   0.877   1.057   4.937  0.5107 -0.3860 -2.3311
38204SOL    HW216930   0.831   0.913   4.929  0.7961 -0.8032  1.7343
38205SOL     OW16931   6.355   4.897   6.496 -0.0355  0.1246 -0.2689
38205SOL    HW116932   6.431   4.842   6.479 -0.0291 -0.1938  0.7378
38205SOL    HW216933   6.281   4.846   6.463  0.1448  0.2965 -0.9561
38206SOL     OW16934   4.007   8.755   4.499  0.0412 -0.8075 -0.3211
38206SOL    HW116935   3.927   8.778   4.546  0.1032 -1.1884 -0.0178
38206SOL    HW216936   4.071   8.737   4.569  0.1395 -1.3643 -0.5437
38207SOL     OW16937   4.224   2.505   5.662 -0.0991  0.0851  0.4905
38207SOL    HW116938   4.295   2.526   5.723 -1.7129  0.0628  2.4846
38207SOL    HW216939   4.144   2.532   5.707 -1.4166 -0.2069 -1.5235
38208SOL     OW16940   2.105   9.323   9.150  0.6656 -0.7528 -0.1905
38208SOL    HW116941   2.090   9.394   9.212 -0.9346  0.2144 -1.6083
38208SOL    HW216942   2.018   9.287   9.134  1.1620 -1.5257 -1.2503
38209SOL     OW16943   8.109   4.376   3.054  0.3226 -1.1326  0.3037
38209SOL    HW116944   8.037   4.351   2.996  0.6734 -1.0686 -0.1632
38209SOL    HW216945   8.176   4.309   3.038 -0.3471 -2.3255  2.1313
38210SOL     OW16946   8.637   6.581   2.894  0.2753 -0.5624 -0.5217
38210SOL    HW116947   8.698   6.582   2.820  0.4232  2.0372 -0.4682
38210SOL    HW216948   8.551   6.567   2.854  0.4218  0.2108 -1.1267
38211SOL     OW16949   4.024   4.491   8.681  0.1839  0.6491  0.1380
38211SOL    HW116950   4.049   4.415   8.629 -0.7749  1.2676 -1.2946
38211SOL    HW216951   4.107   4.535   8.700  0.6325 -0.0676 -0.1093
38212SOL     OW16952   2.943   0.870   6.753 -0.2912 -0.2008 -0.3731
38212SOL    HW116953   2.924   0.852   6.845  0.0793 -0.6428 -0.3783
38212SOL    HW216954   2.864   0.911   6.720  0.3990  2.2179  0.7341
38213SOL     OW16955   2.999   7.594   7.250 -0.3522  0.6266 -0.2297
38213SOL    HW116956   3.091   7.602   7.227 -0.1668  0.3624  0.4081
38213SOL    HW216957   2.969   7.518   7.199  0.4618 -0.9713  1.5669
38214SOL     OW16958   5.005   8.145   2.165 -0.0481  0.3894 -0.0897
38214SOL    HW116959   5.048   8.219   2.208  0.7302  0.4675 -0.9999
38214SOL    HW216960   5.076   8.094   2.126 -0.5678 -0.8616  0.5269
38215SOL     OW16961   2.310   9.807   7.634 -0.2026  0.2706  0.6739
38215SOL    HW116962   2.398   9.824   7.668  0.8779 -1.5773 -1.0239
38215SOL    HW216963   2.296   9.714   7.650 -2.4447  0.7742  2.0843
38216SOL     OW16964   3.350   8.247   2.285 -0.3164 -0.0575 -0.4443
38216SOL    HW116965   3.329   8.155   2.300 -1.3766  0.3730  1.0380
38216SOL    HW216966   3.445   8.250   2.277 -0.0662 -1.0491  1.6175
38217SOL     OW16967   5.614   7.685   2.122 -0.6285 -0.3457 -0.4042
38217SOL    HW116968   5.664   7.732   2.189 -0.8116  1.5318 -1.5144
38217SOL    HW216969   5.671   7.613   2.096 -0.3649 -0.8433  1.4044
38218SOL     OW16970   9.880   3.781   0.129  0.4520 -0.0801  0.7191
38218SOL    HW116971   9.974   3.761   0.133  0.3699 -0.4269  0.9334
38218SOL    HW216972   9.874   3.873   0.155  0.8439  0.2716 -0.3613
38219SOL     OW16973   2.724   7.973   6.499  0.3461  0.3126 -0.2352
38219SOL    HW116974   2.657   7.907   6.479  0.1442  0.3608  0.2573
38219SOL    HW216975   2.750   7.954   6.590 -0.3526  1.4519  0.2246
38220SOL     OW16976   6.070   4.916   3.467  0.0077 -0.0453  0.8248
38220SOL    HW116977   6.079   4.828   3.429 -0.8332  0.1379  0.1932
38220SOL    HW216978   6.108   4.907   3.554  0.5863 -0.8566  0.5136
38221SOL     OW16979   6.167   2.013   3.669  0.3145  0.2888  0.6420
38221SOL    HW116980   6.179   2.069   3.592  1.4545  0.1180  0.6837
38221SOL    HW216981   6.154   2.075   3.741  1.5172  0.5221  0.6791
38222SOL     OW16982   3.680   9.543   9.073 -0.2491 -0.1017 -0.5385
38222SOL    HW116983   3.661   9.636   9.062 -1.4930 -0.3613 -0.7489
38222SOL    HW216984   3.728   9.518   8.995  1.8810  0.7861  0.4218
38223SOL     OW16985   9.463   7.932   1.382 -0.1399 -0.2536 -0.6395
38223SOL    HW116986   9.490   8.005   1.326 -2.5360  1.1674 -0.0871
38223SOL    HW216987   9.435   7.864   1.322  1.3835 -0.4559 -1.1600
38224SOL     OW16988  10.248   9.043   4.350 -0.1080  0.2454  0.5771
38224SOL    HW116989  10.206   9.127   4.327 -0.4445 -0.0003  0.2784
38224SOL    HW216990  10.175   8.985   4.369  0.0633 -0.3618 -0.5363
38225SOL     OW16991   8.241   4.489   3.336  0.6201  0.0955 -0.0197
38225SOL    HW116992   8.262   4.399   3.310  1.0148 -0.0489  0.7910
38225SOL    HW216993   8.150   4.502   3.307  0.1156 -1.0027  1.0017
38226SOL     OW16994   5.929   9.639   4.892  0.0292  0.1578  0.2365
38226SOL    HW116995   5.853   9.598   4.933  0.1079 -2.1229 -1.6778
38226SOL    HW216996   5.984   9.667   4.965 -2.6463  2.1144  1.7066
38227SOL     OW16997   2.219   0.994   1.927  0.2875 -0.0466 -0.1617
38227SOL    HW116998   2.126   1.017   1.927  0.7552  2.0408 -0.6502
38227SOL    HW216999   2.220   0.900   1.946 -1.9703 -0.4031 -1.4333
38228SOL     OW17000   0.841   0.342   1.777 -0.0599 -0.4043  0.3605
38228SOL    HW117001   0.758   0.365   1.819 -1.0046 -1.1448 -0.9975
38228SOL    HW217002   0.825   0.255   1.738  1.3757 -0.5928  0.1269
38229SOL     OW17003   1.646   0.995   3.884 -0.4384  0.7108  0.2825
38229SOL    HW117004   1.673   1.007   3.975 -1.4336 -0.7198  0.8077
38229SOL    HW217005   1.588   1.069   3.867  0.0262  1.1803  0.6972
38230SOL     OW17006   1.986   2.240   1.283  0.6862 -0.0483 -0.0647
38230SOL    HW117007   2.022   2.273   1.201  2.0401 -2.0462 -0.3606
38230SOL    HW217008   1.927   2.169   1.257 -0.5073  0.6621  0.6241
38231SOL     OW17009   3.411   9.682  10.185 -0.6740  0.4288  0.5726
38231SOL    HW117010   3.326   9.675  10.141  0.5735 -1.2523 -1.8279
38231SOL    HW217011   3.423   9.775  10.200 -1.7391  1.0172 -1.6929
38232SOL     OW17012   2.968   5.955   8.033 -0.2745 -0.2935 -0.1443
38232SOL    HW117013   2.987   5.987   7.944  0.2724 -1.4502 -0.4731
38232SOL    HW217014   2.875   5.933   8.031 -0.3686  0.1127 -0.2929
38233SOL     OW17015   3.734   5.066   4.433  0.0736 -0.1835  0.1951
38233SOL    HW117016   3.732   5.031   4.522 -0.2712  1.5603  0.9136
38233SOL    HW217017   3.643   5.081   4.411  0.2378  1.2148  0.3413
38234SOL     OW17018   2.346   2.779   5.711  0.3719 -0.2587  0.1402
38234SOL    HW117019   2.351   2.804   5.803  0.4695  0.2496  0.0026
38234SOL    HW217020   2.360   2.684   5.710 -1.5232 -0.5855  0.8256
38235SOL     OW17021   5.437   6.174   6.529  0.4319  0.0977  0.4202
38235SOL    HW117022   5.516   6.155   6.581  0.8077 -0.0797 -0.1995
38235SOL    HW217023   5.382   6.096   6.542  1.8288 -1.3858 -1.8453
38236SOL     OW17024   5.639   4.875   0.634  0.2028  0.5278  0.4530
38236SOL    HW117025   5.607   4.957   0.597  0.5237 -0.5070 -2.4384
38236SOL    HW217026   5.568   4.812   0.617  0.6983 -0.1659  0.9055
38237SOL     OW17027   2.764   1.105   0.787 -0.0114 -0.0038 -0.6187
38237SOL    HW117028   2.763   1.197   0.760  1.4766 -0.1627 -1.3483
38237SOL    HW217029   2.761   1.108   0.883 -0.3990  0.7810 -0.6465
38238SOL     OW17030   7.740   4.541   9.908  0.0694 -0.1741 -0.5222
38238SOL    HW117031   7.793   4.472   9.867  2.0071  1.3372 -0.6908
38238SOL    HW217032   7.764   4.537  10.001 -0.1606 -0.0436 -0.4579
38239SOL     OW17033   1.473   6.629   9.548 -0.3911  0.9264 -0.0641
38239SOL    HW117034   1.522   6.562   9.596 -0.5741  0.0465 -1.0607
38239SOL    HW217035   1.514   6.711   9.573  0.2874  0.3847  0.6647
38240SOL     OW17036  10.198   5.420   0.370  0.1411  0.6509 -0.1037
38240SOL    HW117037  10.158   5.349   0.419 -1.3904  1.1612 -0.5338
38240SOL    HW217038  10.243   5.473   0.436 -0.3830  0.3524  0.5060
38241SOL     OW17039   3.442   9.687   9.595 -0.4213 -0.1239  0.0894
38241SOL    HW117040   3.455   9.728   9.509  3.0306 -2.9680 -0.9588
38241SOL    HW217041   3.401   9.603   9.576 -0.5112 -0.3895  1.3742
38242SOL     OW17042   6.062   8.259   2.403  0.0916  0.6462 -0.4340
38242SOL    HW117043   5.979   8.289   2.366  0.6664  0.9632 -1.5008
38242SOL    HW217044   6.049   8.264   2.497 -1.5454 -0.5181 -0.5433
38243SOL     OW17045   9.630   8.784   8.425 -0.4154 -0.3526  0.1636
38243SOL    HW117046   9.668   8.797   8.512 -0.0879 -1.2202  0.1635
38243SOL    HW217047   9.605   8.871   8.396 -3.5003 -0.2952  2.4647
38244SOL     OW17048   4.135   8.204   1.349 -0.1031  0.1107 -0.1546
38244SOL    HW117049   4.096   8.191   1.262  0.4417 -1.6758 -0.1703
38244SOL    HW217050   4.061   8.195   1.409 -0.1696 -0.5856 -0.3312
38245SOL     OW17051   8.981   5.846   1.510 -0.4668 -0.1775  0.2697
38245SOL    HW117052   9.034   5.814   1.437 -1.5415 -0.3681 -0.4557
38245SOL    HW217053   9.003   5.787   1.583  0.0834 -0.4399 -0.0972
38246SOL     OW17054   7.271   4.570   2.564 -0.2451 -0.0548  0.1075
38246SOL    HW117055   7.296   4.537   2.651 -1.0769  0.1879  0.4562
38246SOL    HW217056   7.330   4.643   2.547  0.0992 -0.2743  0.3498
38247SOL     OW17057   0.208   3.643   8.108  1.2447  0.0380  0.0196
38247SOL    HW117058   0.238   3.577   8.171  0.9005 -1.3350 -1.2112
38247SOL    HW217059   0.230   3.607   8.023 -0.6974  0.6252 -0.7745
38248SOL     OW17060   2.375   4.537  10.316 -0.3398 -0.2997  0.6357
38248SOL    HW117061   2.339   4.551  10.228 -2.2084 -1.3155  1.1768
38248SOL    HW217062   2.461   4.579  10.314  0.3124 -1.5613 -2.1264
38249SOL     OW17063   0.881   0.492   8.511  0.1564  0.2447 -0.0294
38249SOL    HW117064   0.829   0.547   8.453 -1.2253  2.4362  2.9909
38249SOL    HW217065   0.820   0.427   8.545  0.7096 -0.4386 -0.3118
38250SOL     OW17066   3.396   8.673   4.478 -0.2677  0.4143  0.2019
38250SOL    HW117067   3.300   8.668   4.472 -0.1767 -1.1872 -0.4100
38250SOL    HW217068   3.419   8.611   4.547  0.2271  2.3963  1.9061
38251SOL     OW17069   0.602   3.406   5.685  0.0817 -0.0475 -0.1367
38251SOL    HW117070   0.561   3.325   5.718  0.7059  0.1593  1.1903
38251SOL    HW217071   0.672   3.375   5.628  0.1341 -0.4509  0.1371
38252SOL     OW17072   0.149   8.751   2.051 -0.4936 -0.3556  0.1752
38252SOL    HW117073   0.244   8.746   2.043 -0.3191 -0.5457  2.0168
38252SOL    HW217074   0.122   8.803   1.975  1.1457  0.3342  0.0200
38253SOL     OW17075   0.439   3.304   1.470 -0.3993  0.6112  0.4914
38253SOL    HW117076   0.468   3.296   1.380  0.6913  0.3659  0.8527
38253SOL    HW217077   0.406   3.217   1.493 -0.6642  0.6700  0.3447
38254SOL     OW17078   2.015   3.507   9.894 -0.0145  0.3790  0.0014
38254SOL    HW117079   2.031   3.414   9.880 -0.6908  0.2370  0.1292
38254SOL    HW217080   1.998   3.515   9.988 -0.9747  0.4586 -0.1607
38255SOL     OW17081   7.581   3.607   6.579  0.3811 -0.1383 -0.3458
38255SOL    HW117082   7.597   3.531   6.635  1.1607  0.3764  0.1542
38255SOL    HW217083   7.587   3.682   6.638 -0.0763  0.3357 -0.8907
38256SOL     OW17084   7.032   7.647   2.782 -0.1492 -0.0809  0.6345
38256SOL    HW117085   6.943   7.611   2.789 -0.5593  0.1561 -2.1494
38256SOL    HW217086   7.089   7.570   2.776 -0.0740 -0.2382  2.7292
38257SOL     OW17087  10.594   4.991   9.235 -0.2867 -0.3094  0.0072
38257SOL    HW117088  10.514   5.016   9.280 -0.9636 -1.4022 -0.5476
38257SOL    HW217089  10.621   4.910   9.278  0.1219 -0.3275 -0.2832
38258SOL     OW17090   0.332   3.594   6.306 -0.2755 -0.3922 -0.2434
38258SOL    HW117091   0.311   3.505   6.276 -2.7909 -0.2492  0.8443
38258SOL    HW217092   0.413   3.615   6.261 -0.1434 -2.8464 -1.3515
38259SOL     OW17093   6.636   3.731   9.197  0.2469 -0.3136  0.2048
38259SOL    HW117094   6.552   3.776   9.187  1.5600  1.8030 -2.9800
38259SOL    HW217095   6.613   3.639   9.205 -2.4088  0.2482 -0.0316
38260SOL     OW17096   7.267  10.284   1.970 -0.5794 -0.0410 -0.7354
38260SOL    HW117097   7.352  10.256   1.934 -1.3881 -0.3977 -2.4577
38260SOL    HW217098   7.285  10.301   2.062  1.3250 -0.3093 -1.0115
38261SOL     OW17099   1.345   4.079  10.128  0.1617 -0.2089  0.4921
38261SOL    HW117100   1.427   4.122  10.102 -1.2242  1.7356 -0.9474
38261SOL    HW217101   1.301   4.060  10.045 -2.0882  1.4288  1.2038
38262SOL     OW17102   2.792   5.878   3.672 -0.5645 -0.6237 -0.4450
38262SOL    HW117103   2.795   5.928   3.590  0.5568  3.4123  1.7810
38262SOL    HW217104   2.882   5.848   3.685 -0.5169 -0.3792 -0.2092
38263SOL     OW17105   8.882   0.070   3.665 -0.1500  0.7682  0.4799
38263SOL    HW117106   8.936   0.004   3.621  1.2606  3.3630 -2.0098
38263SOL    HW217107   8.809   0.020   3.703  1.7133 -2.3640  0.2709
38264SOL     OW17108   5.977  10.443   5.607  0.1226  0.0231 -0.0076
38264SOL    HW117109   5.993  10.486   5.691 -1.1774 -0.0887  0.3170
38264SOL    HW217110   5.972  10.514   5.544 -2.6603  0.5090  0.6226
38265SOL     OW17111  10.131   1.078   6.041  0.4461  0.4574 -0.5001
38265SOL    HW117112  10.186   1.121   6.107  0.3100  1.3174 -0.9373
38265SOL    HW217113  10.042   1.101   6.065  0.4093  1.0106 -1.1342
38266SOL     OW17114   1.260   5.614   9.230  0.4954  0.3156  0.4071
38266SOL    HW117115   1.281   5.707   9.219  0.3496  0.4825  1.4261
38266SOL    HW217116   1.219   5.589   9.147  0.6723  1.1177  0.0615
38267SOL     OW17117   9.812   9.245   1.530 -0.4934 -0.2030  0.3240
38267SOL    HW117118   9.772   9.315   1.581  0.6209 -0.7025  1.9838
38267SOL    HW217119   9.885   9.287   1.485 -1.0229  0.0895 -0.2700
38268SOL     OW17120   9.880   5.780   0.136  0.3495 -0.4360 -0.0565
38268SOL    HW117121   9.813   5.778   0.205  1.2658 -1.5482  0.8550
38268SOL    HW217122   9.908   5.689   0.129  2.4712  0.1525  0.3176
38269SOL     OW17123   7.311   2.519   9.386  0.4546  0.1870 -0.2688
38269SOL    HW117124   7.364   2.599   9.396  0.0243  0.4327  0.0729
38269SOL    HW217125   7.236   2.532   9.444  0.1102 -0.2406 -0.6085
38270SOL     OW17126   6.394   7.029   2.308  0.2873  0.2980 -0.2421
38270SOL    HW117127   6.303   7.028   2.337  0.4198  0.4688  0.1976
38270SOL    HW217128   6.400   7.106   2.252  0.0754  0.0812 -0.5638
38271SOL     OW17129   2.730   5.933   2.989  0.5019 -0.6250 -0.2223
38271SOL    HW117130   2.745   5.840   3.008 -0.4449 -0.7388  0.0675
38271SOL    HW217131   2.699   5.934   2.899  1.5622 -0.4668 -0.5920
38272SOL     OW17132   3.869   9.287   9.234 -0.2077  0.7104 -0.1818
38272SOL    HW117133   3.804   9.272   9.166 -1.8265 -1.2738  1.6479
38272SOL    HW217134   3.953   9.282   9.189 -1.2204  0.3359 -2.1314
38273SOL     OW17135   7.664   0.138   3.360  0.1061 -0.6472 -0.3497
38273SOL    HW117136   7.727   0.204   3.390  1.9616 -2.5587  0.2543
38273SOL    HW217137   7.592   0.143   3.422 -0.7656  2.0597 -1.4359
38274SOL     OW17138   1.280   8.433   3.704 -0.3194 -1.1693 -0.2191
38274SOL    HW117139   1.348   8.371   3.679 -0.0743 -0.5092 -1.2679
38274SOL    HW217140   1.210   8.379   3.738  0.8111 -1.8555  1.1230
38275SOL     OW17141   3.076   5.010   6.294 -0.7916 -0.0757  0.5161
38275SOL    HW117142   3.052   4.969   6.210  0.0143  1.4138 -0.4859
38275SOL    HW217143   3.156   4.965   6.320 -1.0120 -0.5064  0.4624
38276SOL     OW17144  10.047   7.847  10.385  0.5159 -0.6751 -0.0190
38276SOL    HW117145  10.055   7.842  10.480  1.1470  1.1457  0.0659
38276SOL    HW217146  10.138   7.846  10.353  0.3533 -0.3072 -0.5134
38277SOL     OW17147   3.090   4.033   0.710 -0.3496  0.1037  0.8200
38277SOL    HW117148   3.102   3.961   0.647 -1.4720  0.6868 -0.1006
38277SOL    HW217149   3.093   4.112   0.656  0.5200  0.7525  1.7794
38278SOL     OW17150   0.362   1.178   3.090 -0.2947  0.6187 -0.1863
38278SOL    HW117151   0.321   1.244   3.034 -0.3355  1.6663  1.0320
38278SOL    HW217152   0.300   1.105   3.090 -0.0712  0.3872 -1.8685
38279SOL     OW17153   9.634   9.053   5.675  0.0201 -0.0746 -0.6874
38279SOL    HW117154   9.581   8.976   5.656  0.4497 -0.4634 -0.3295
38279SOL    HW217155   9.718   9.036   5.634  0.9177 -0.8694  1.3668
38280SOL     OW17156   8.840  10.390   1.073  0.6752  0.6440  0.1164
38280SOL    HW117157   8.917  10.336   1.058  0.6138  0.0593  1.6779
38280SOL    HW217158   8.875  10.474   1.102  0.7710  0.0786  1.7697
38281SOL     OW17159   7.726  10.058   8.828 -0.6981  0.0860 -0.3580
38281SOL    HW117160   7.760   9.973   8.801 -1.1360 -0.6665  1.3436
38281SOL    HW217161   7.739  10.114   8.752  0.3985 -1.2726 -1.2185
38282SOL     OW17162   7.275   4.579   4.098 -0.0474 -0.1216  0.5116
38282SOL    HW117163   7.281   4.515   4.169 -0.4099 -0.2918  0.3908
38282SOL    HW217164   7.307   4.534   4.021 -0.0782 -0.0788  0.4736
38283SOL     OW17165   1.887   5.361   8.602 -0.0369  0.1489 -0.9148
38283SOL    HW117166   1.962   5.409   8.638 -0.0913 -0.2687 -0.2210
38283SOL    HW217167   1.811   5.409   8.635 -0.0963 -0.5188 -0.0363
38284SOL     OW17168   2.004   0.450   5.710  0.1424 -0.0671 -0.1452
38284SOL    HW117169   1.954   0.383   5.756 -0.9657  1.7231  1.4073
38284SOL    HW217170   2.067   0.481   5.775  0.9714  0.0678 -0.9988
38285SOL     OW17171   4.716   8.566   0.632 -0.0242 -0.3526 -0.4503
38285SOL    HW117172   4.623   8.576   0.652  0.2534  0.4383  0.5032
38285SOL    HW217173   4.761   8.591   0.712  1.0250 -0.5561 -0.9559
38286SOL     OW17174   1.361   7.393   3.253 -0.1825  0.7531 -0.3344
38286SOL    HW117175   1.295   7.348   3.306 -0.2882  0.1061 -0.9979
38286SOL    HW217176   1.443   7.378   3.298 -0.2971  0.3636 -0.2543
38287SOL     OW17177   2.214   7.918   7.109  0.3585 -0.4865 -0.1019
38287SOL    HW117178   2.163   7.857   7.056 -0.0971 -1.5204  1.4656
38287SOL    HW217179   2.303   7.884   7.104  0.3076 -0.6163 -0.1515
38288SOL     OW17180   5.359   6.283   0.882  0.4615 -0.3103  0.3010
38288SOL    HW117181   5.334   6.191   0.886 -1.0682  0.0553 -0.3145
38288SOL    HW217182   5.371   6.301   0.789 -0.3481  0.3823  0.3196
38289SOL     OW17183   0.607   6.182   1.984  0.1332 -0.2008 -0.0560
38289SOL    HW117184   0.614   6.207   1.892 -0.3494 -0.9014 -0.2871
38289SOL    HW217185   0.622   6.264   2.032 -4.6123  1.4426 -0.8360
38290SOL     OW17186   2.453   1.736  10.033  0.6948 -0.0008 -0.0179
38290SOL    HW117187   2.461   1.827  10.003  0.8574 -0.4615 -1.4315
38290SOL    HW217188   2.517   1.728  10.104  1.1085  0.8265 -0.2871
38291SOL     OW17189   0.995  10.511   0.876  0.3883  0.0993  0.4091
38291SOL    HW117190   1.003  10.459   0.956  2.3738  1.1733  1.0046
38291SOL    HW217191   0.927  10.575   0.896  1.0520  0.5316  1.3728
38292SOL     OW17192  10.145   4.564   1.941  1.2016 -0.0187 -0.4194
38292SOL    HW117193  10.086   4.524   1.877  0.0018 -0.0527  0.6870
38292SOL    HW217194  10.224   4.509   1.937  0.6484 -0.8050 -0.9425
38293SOL     OW17195   3.173   1.386   3.718  0.1820  0.7029  0.0961
38293SOL    HW117196   3.106   1.407   3.783  0.9742  0.1660  1.1385
38293SOL    HW217197   3.249   1.360   3.771  1.1570  1.1312 -1.0413
38294SOL     OW17198   9.634   9.604   1.166 -0.0380 -0.2850  0.2965
38294SOL    HW117199   9.555   9.590   1.114  0.0382  0.6277 -0.0887
38294SOL    HW217200   9.706   9.586   1.105  0.0503  0.4661  0.1739
38295SOL     OW17201   5.064   4.208   4.866 -0.9319 -0.2910 -0.1148
38295SOL    HW117202   5.146   4.241   4.903 -1.2103 -1.0743  1.2699
38295SOL    HW217203   5.091   4.147   4.797 -0.3594 -0.1788  0.0098
38296SOL     OW17204   9.925   8.971   3.739  0.2587  0.2479  0.0498
38296SOL    HW117205   9.866   8.995   3.667 -2.5478 -0.7418  1.8423
38296SOL    HW217206   9.905   9.034   3.809  2.1677  0.5446  0.3883
38297SOL     OW17207   0.498   1.033   6.633  0.2474 -0.2424 -0.1658
38297SOL    HW117208   0.449   1.114   6.620 -0.4945 -0.7136 -0.4211
38297SOL    HW217209   0.433   0.972   6.670  1.0470 -0.4316  0.9596
38298SOL     OW17210   7.694   0.690   4.952  1.2722  0.0441 -0.3728
38298SOL    HW117211   7.709   0.736   5.034  0.8724  1.3278 -0.9977
38298SOL    HW217212   7.709   0.756   4.884 -2.3557  0.1976 -1.2260
38299SOL     OW17213  10.353   8.044   3.953 -0.5475  0.3610 -0.2510
38299SOL    HW117214  10.412   8.110   3.991  0.2300 -0.6410  0.3524
38299SOL    HW217215  10.368   8.050   3.859  1.9778 -1.1218 -0.0294
38300SOL     OW17216   5.243   5.560   4.682 -0.4422 -0.1897  0.4527
38300SOL    HW117217   5.251   5.655   4.687 -1.7817 -0.0384  0.0095
38300SOL    HW217218   5.150   5.544   4.667 -0.0683 -1.5177 -0.6975
38301SOL     OW17219   7.774   0.051   9.951 -0.6735  0.2114 -0.2994
38301SOL    HW117220   7.735   0.097   9.877  0.7053  1.2962 -0.3858
38301SOL    HW217221   7.741   0.097  10.029  0.0550  0.8541 -0.3579
38302SOL     OW17222   4.281   9.761   3.039  0.2742 -0.0049 -0.5313
38302SOL    HW117223   4.245   9.691   3.094  0.2631  1.7666  1.9264
38302SOL    HW217224   4.210   9.782   2.978 -0.9215 -0.0736  0.7751
38303SOL     OW17225   1.213   2.149   4.154  0.0552  0.1909  0.2537
38303SOL    HW117226   1.164   2.124   4.232 -1.1390  0.3080 -0.4283
38303SOL    HW217227   1.295   2.185   4.187 -0.5116  0.4193  1.4572
38304SOL     OW17228   5.678   6.297   3.264  0.0673 -0.7886 -0.0922
38304SOL    HW117229   5.634   6.321   3.182  0.5292 -0.8875 -0.3751
38304SOL    HW217230   5.767   6.273   3.237 -0.1926 -2.2664  0.2416
38305SOL     OW17231   2.128   8.712   6.047 -0.0753  0.3498 -0.0324
38305SOL    HW117232   2.091   8.672   5.967 -3.0716  0.2470  1.2555
38305SOL    HW217233   2.101   8.653   6.117 -0.9658  2.3938  1.4586
38306SOL     OW17234   5.004   2.424   9.460 -0.7667 -0.2919 -0.6744
38306SOL    HW117235   5.086   2.430   9.411 -1.1921 -1.0098 -1.5091
38306SOL    HW217236   5.029   2.440   9.551  0.0269  1.1875 -1.1167
38307SOL     OW17237   3.578   3.057   2.763  0.3818  0.4772  0.1047
38307SOL    HW117238   3.663   3.099   2.770  0.5000  0.0041  2.2059
38307SOL    HW217239   3.597   2.963   2.771 -0.2383  0.3117 -0.3374
38308SOL     OW17240   9.970   2.764   9.558 -0.0129 -0.4169 -0.1084
38308SOL    HW117241   9.910   2.804   9.621 -0.2678 -0.9725  0.0056
38308SOL    HW217242   9.918   2.697   9.515  0.0143  0.2881 -1.2772
38309SOL     OW17243   4.361   3.842   2.485 -0.0197 -0.4396 -0.0092
38309SOL    HW117244   4.401   3.802   2.407 -1.0593 -0.5714 -0.4927
38309SOL    HW217245   4.321   3.923   2.452  2.2173  1.1825  0.9855
38310SOL     OW17246   4.986   2.276   4.361 -0.2688  0.1639  0.2506
38310SOL    HW117247   4.930   2.236   4.295 -0.1413 -0.0428  0.2666
38310SOL    HW217248   5.046   2.331   4.312 -1.4572  1.6046  0.3285
38311SOL     OW17249   2.440   7.155   3.432 -0.1405  0.1121  0.4504
38311SOL    HW117250   2.433   7.073   3.383 -0.2216  0.1903  0.3289
38311SOL    HW217251   2.369   7.209   3.398  0.2662  0.4433  0.1173
38312SOL     OW17252   4.307   2.782   9.252  0.0265  0.0289  0.4896
38312SOL    HW117253   4.289   2.784   9.158 -1.1487 -0.3690  0.6993
38312SOL    HW217254   4.358   2.862   9.268 -0.4141  0.4870 -0.3563
38313SOL     OW17255   5.584   6.379   9.896  0.1681  0.3247  0.3671
38313SOL    HW117256   5.628   6.400   9.979  2.1479  0.5588 -0.6764
38313SOL    HW217257   5.633   6.304   9.862 -1.7484 -0.9204  0.2151
38314SOL     OW17258   7.716   6.309   8.833 -0.1892 -0.1701  0.7523
38314SOL    HW117259   7.772   6.375   8.875  0.3996  0.3240 -0.7613
38314SOL    HW217260   7.632   6.318   8.878  0.1384  0.9996  1.1797
38315SOL     OW17261   5.410   0.306  10.028 -0.2027  0.3701  0.5957
38315SOL    HW117262   5.378   0.339   9.944 -1.5933  0.5662  1.1778
38315SOL    HW217263   5.503   0.331  10.030 -0.3279  0.9973 -0.5549
38316SOL     OW17264   9.857   7.585   5.146 -0.5430 -0.0387  0.3815
38316SOL    HW117265   9.898   7.521   5.087 -0.6380  0.9595 -0.8125
38316SOL    HW217266   9.842   7.537   5.227 -1.5303 -1.8343 -0.8000
38317SOL     OW17267   8.976   8.000   1.322  0.3029 -0.6284 -0.8787
38317SOL    HW117268   9.025   8.023   1.401 -0.7856  0.8108 -0.5907
38317SOL    HW217269   8.945   7.911   1.339  0.0262 -0.3163  0.3644
38318SOL     OW17270   2.934   5.795   7.238 -0.0525 -0.2196  0.4988
38318SOL    HW117271   3.002   5.849   7.196  1.4482 -0.2340  2.6838
38318SOL    HW217272   2.882   5.858   7.288  0.8031 -0.5754  1.8965
38319SOL     OW17273   0.347   8.745   9.027  0.2106 -0.2724 -0.4853
38319SOL    HW117274   0.276   8.809   9.016 -0.1577 -0.6597 -0.3613
38319SOL    HW217275   0.383   8.765   9.113  1.9635  1.6261 -1.5606
38320SOL     OW17276   6.086   3.525  10.280 -0.1612  0.1214 -0.2921
38320SOL    HW117277   6.072   3.489  10.368  2.1993 -0.6363 -0.1489
38320SOL    HW217278   6.037   3.467  10.223 -1.4664  0.4303  0.4835
38321SOL     OW17279   8.140   7.115   7.531 -0.5201 -0.0246 -0.1909
38321SOL    HW117280   8.207   7.082   7.470 -0.2914 -1.3379  0.7415
38321SOL    HW217281   8.172   7.089   7.618 -2.2800 -0.7595  0.2758
38322SOL     OW17282   0.879   2.070   3.744 -0.4224 -0.4141 -0.0130
38322SOL    HW117283   0.964   2.088   3.785  0.4354  0.1428 -1.9305
38322SOL    HW217284   0.884   1.977   3.720 -0.1642 -0.2754 -0.5121
38323SOL     OW17285   7.938   8.486   8.641  0.3022 -0.7305 -0.2289
38323SOL    HW117286   7.950   8.528   8.556  0.4528 -0.7861 -0.2357
38323SOL    HW217287   8.027   8.473   8.675  0.2531 -0.9197 -0.1668
38324SOL     OW17288   5.868   2.889   6.088  0.1927 -0.3179 -0.4975
38324SOL    HW117289   5.848   2.812   6.036  0.1647 -0.1925 -0.6745
38324SOL    HW217290   5.921   2.857   6.161 -0.0529 -0.5444 -0.4200
38325SOL     OW17291   5.072   6.953   0.709 -0.0920 -0.3349  0.0183
38325SOL    HW117292   5.067   6.859   0.689 -0.5992 -0.1430 -0.8106
38325SOL    HW217293   5.090   6.994   0.624  0.3777  0.3030  0.4189
38326SOL     OW17294   4.824   7.330   9.726 -0.0067  0.2365 -0.1041
38326SOL    HW117295   4.767   7.325   9.650 -1.5410 -0.9817  1.0515
38326SOL    HW217296   4.786   7.399   9.781  0.4697  0.3788  0.0588
38327SOL     OW17297   4.255   0.757   9.592 -0.0434  0.2227  0.0674
38327SOL    HW117298   4.183   0.710   9.550 -0.2757  0.6132  0.0184
38327SOL    HW217299   4.214   0.836   9.628  0.3539  0.4331  0.0635
38328SOL     OW17300   1.629   5.946  10.160 -0.3539  0.5817  0.2148
38328SOL    HW117301   1.685   5.997  10.219 -0.0611 -0.1081  0.5403
38328SOL    HW217302   1.622   6.001  10.082  0.4174  0.8734  0.3390
38329SOL     OW17303   8.467   1.139   2.038  0.1909 -0.0477  0.3190
38329SOL    HW117304   8.460   1.203   1.967  0.3615  0.9612  1.1869
38329SOL    HW217305   8.452   1.190   2.118  1.8206 -0.7964  1.1457
38330SOL     OW17306   2.638   7.875   7.721 -0.1010  0.4687  0.1316
38330SOL    HW117307   2.545   7.850   7.718  0.2192 -1.0532 -3.5708
38330SOL    HW217308   2.682   7.800   7.761 -0.2178 -0.4230 -1.3085
38331SOL     OW17309   6.884   1.762   1.726 -0.2090  0.1079 -0.1060
38331SOL    HW117310   6.929   1.737   1.807 -1.1914  1.6957  0.9784
38331SOL    HW217311   6.955   1.784   1.666  0.5178  0.1864  0.7577
38332SOL     OW17312   1.929   5.445   5.199 -0.1785 -0.0487 -0.0980
38332SOL    HW117313   1.864   5.492   5.146 -0.9820 -1.4093 -0.3756
38332SOL    HW217314   1.881   5.420   5.278  0.8396  1.4209  1.0414
38333SOL     OW17315   8.435   1.630   9.957 -0.4680 -0.5913  0.4591
38333SOL    HW117316   8.479   1.695  10.012 -0.7447  0.7830 -0.8948
38333SOL    HW217317   8.443   1.664   9.868  1.1367 -3.4182 -0.5931
38334SOL     OW17318   8.960   2.870   5.218 -0.0591  0.0501 -0.0588
38334SOL    HW117319   9.040   2.828   5.184  0.0585  2.1113 -2.7525
38334SOL    HW217320   8.890   2.810   5.194  0.5701 -1.6274  2.0329
38335SOL     OW17321   0.611   6.551   6.224 -0.5279 -0.8442  0.2769
38335SOL    HW117322   0.573   6.623   6.173  0.8387 -0.3310 -0.0664
38335SOL    HW217323   0.680   6.592   6.277 -0.3242 -1.7595  0.7515
38336SOL     OW17324   2.462   6.721   8.817  0.3559  0.4273  0.0540
38336SOL    HW117325   2.505   6.685   8.739  1.0104  0.6412  0.3083
38336SOL    HW217326   2.454   6.647   8.876 -0.3084  0.2232 -0.2793
38337SOL     OW17327   2.785   7.278   1.060 -0.0517 -0.2751 -0.3183
38337SOL    HW117328   2.694   7.248   1.062  0.2074 -1.0694 -0.2856
38337SOL    HW217329   2.805   7.285   0.966 -0.2918  0.3595 -0.3257
38338SOL     OW17330   8.584   6.546   8.001 -0.4715  0.2313  0.3767
38338SOL    HW117331   8.672   6.544   8.038 -0.6455  0.7756  0.8206
38338SOL    HW217332   8.528   6.503   8.066 -0.3165 -1.4125 -0.5299
38339SOL     OW17333   5.713   6.642   9.422  0.4958  0.4281 -0.0450
38339SOL    HW117334   5.640   6.697   9.451  0.8930  0.8315  0.2259
38339SOL    HW217335   5.757   6.694   9.355  0.6016  0.2385 -0.1230
38340SOL     OW17336   4.602   2.935   9.292 -0.1284 -0.2920  0.8775
38340SOL    HW117337   4.575   2.994   9.363 -0.1991 -2.2128  2.5359
38340SOL    HW217338   4.698   2.937   9.296 -0.0531  1.3854 -0.5863
38341SOL     OW17339  10.027   7.422   4.965 -0.1235  0.2289  0.1951
38341SOL    HW117340  10.007   7.451   4.876  0.7688  2.1838  0.5812
38341SOL    HW217341  10.111   7.376   4.958  0.6010  1.4987  0.1718
38342SOL     OW17342   2.661   0.142   1.227  0.1240  0.1902 -0.1587
38342SOL    HW117343   2.662   0.074   1.159  0.9503  0.4642 -0.4337
38342SOL    HW217344   2.668   0.224   1.178  0.1880  0.4187  0.2343
38343SOL     OW17345   8.498   8.843  10.557  0.2786 -0.1299 -0.0611
38343SOL    HW117346   8.416   8.833  10.605 -0.4433  1.0716 -0.9642
38343SOL    HW217347   8.521   8.935  10.569 -0.0553  0.2760 -2.1398
38344SOL     OW17348   2.418   6.287   4.083 -0.1249  0.4947  0.2457
38344SOL    HW117349   2.352   6.258   4.147  0.0719 -1.4423 -0.3728
38344SOL    HW217350   2.461   6.361   4.126 -0.5816 -0.2014  2.0191
38345SOL     OW17351   1.417   9.877   9.971 -0.4635 -0.0445  0.3121
38345SOL    HW117352   1.437   9.815  10.040  0.1061 -0.5578 -0.2943
38345SOL    HW217353   1.356   9.939  10.010  1.3907  0.8813  1.8978
38346SOL     OW17354   9.246   8.820   8.621  0.5732 -0.0048  0.1538
38346SOL    HW117355   9.219   8.818   8.713  0.0241  0.8301  0.0214
38346SOL    HW217356   9.198   8.894   8.584 -1.1069 -1.7708 -1.4098
38347SOL     OW17357   6.956   8.189   1.467 -0.2348  0.2341 -0.6440
38347SOL    HW117358   6.883   8.227   1.514  0.3180  1.2090 -0.5503
38347SOL    HW217359   7.031   8.199   1.526 -0.0952 -1.1487 -0.5462
38348SOL     OW17360   6.796   5.194   4.054  0.3627  0.0819  0.3197
38348SOL    HW117361   6.748   5.152   4.126  0.1403  1.1746  0.8261
38348SOL    HW217362   6.777   5.139   3.978 -0.4992 -0.3311  0.8128
38349SOL     OW17363   5.708   3.019   4.873  0.6238 -0.5012 -0.0961
38349SOL    HW117364   5.665   3.037   4.789  0.6024 -1.3313 -0.2663
38349SOL    HW217365   5.798   3.049   4.861 -0.0596  2.0860  0.5516
38350SOL     OW17366   7.986   9.098   6.769 -0.6996 -0.0439 -0.5415
38350SOL    HW117367   7.892   9.113   6.776 -1.0782 -0.9049 -3.0060
38350SOL    HW217368   8.000   9.011   6.805 -0.9704 -0.2556 -0.9567
38351SOL     OW17369   2.915   8.559   3.760 -0.7064 -0.5094 -0.3850
38351SOL    HW117370   2.859   8.544   3.836  1.1028 -1.7414  0.7862
38351SOL    HW217371   2.933   8.653   3.760 -1.0833 -0.4344  0.4209
38352SOL     OW17372   9.627   9.744   5.696 -0.1563  0.1841  0.1974
38352SOL    HW117373   9.658   9.711   5.780  1.1003 -0.1993 -0.3782
38352SOL    HW217374   9.550   9.691   5.676 -0.6476  0.4950  1.2403
38353SOL     OW17375   9.264   5.045   1.910 -0.5007 -0.6159 -0.9415
38353SOL    HW117376   9.277   4.974   1.847 -1.9485 -0.7879 -1.0706
38353SOL    HW217377   9.277   5.125   1.858 -0.4372 -0.7649 -1.1595
38354SOL     OW17378   0.953   0.416   3.665  0.1519  0.2326 -0.4208
38354SOL    HW117379   0.934   0.360   3.740  0.8704  0.1842 -0.2747
38354SOL    HW217380   1.047   0.411   3.654  0.0661  0.3450 -1.2484
38355SOL     OW17381   5.287   8.192   1.761 -0.1283  0.3541 -0.4103
38355SOL    HW117382   5.308   8.267   1.816  1.0958  0.1386 -0.5597
38355SOL    HW217383   5.332   8.210   1.678 -3.1288  1.3954 -1.9473
38356SOL     OW17384   1.927   3.731   8.248  0.1214  0.4749 -0.1308
38356SOL    HW117385   1.910   3.745   8.155  1.4098 -0.5735 -0.5661
38356SOL    HW217386   1.886   3.646   8.267 -0.9618  1.1316  0.5075
38357SOL     OW17387   8.410   5.245   5.928 -0.6465 -0.5627  0.3795
38357SOL    HW117388   8.484   5.229   5.869 -0.5888 -0.1996  0.3500
38357SOL    HW217389   8.346   5.291   5.874 -0.8816 -0.8488  0.4139
38358SOL     OW17390  10.370   1.480   3.300  0.1135 -0.0558  0.0918
38358SOL    HW117391  10.410   1.560   3.335  0.2984 -0.6031  1.1719
38358SOL    HW217392  10.383   1.415   3.369  0.0209 -1.0367 -0.8047
38359SOL     OW17393   7.283   3.154   2.751 -0.0584 -0.0922  0.3841
38359SOL    HW117394   7.283   3.070   2.797 -1.1616 -0.4858 -0.3080
38359SOL    HW217395   7.231   3.212   2.807  0.8095  0.1839  0.9255
38360SOL     OW17396   2.993   1.196   7.540 -0.1663 -0.3321 -0.5689
38360SOL    HW117397   2.988   1.205   7.445  1.9674 -1.5075 -0.8776
38360SOL    HW217398   3.073   1.242   7.565 -0.7975  0.1325  0.7054
38361SOL     OW17399   7.384   9.783   2.101 -0.6325 -0.4439 -0.3794
38361SOL    HW117400   7.434   9.701   2.109 -0.7194 -0.5761 -1.0556
38361SOL    HW217401   7.451   9.851   2.095 -0.5452 -0.5344 -0.4381
38362SOL     OW17402   1.718   6.635   3.595  0.4420 -0.6197 -0.0932
38362SOL    HW117403   1.794   6.693   3.591  1.0636 -1.2223  1.9491
38362SOL    HW217404   1.647   6.686   3.556  1.3526  0.8577  0.1218
38363SOL     OW17405   2.056   0.062   6.172 -0.4732 -0.3559 -0.1655
38363SOL    HW117406   2.028   0.138   6.224 -0.4719  0.2797 -1.0838
38363SOL    HW217407   2.144   0.044   6.204 -0.2289  0.4243 -0.3758
38364SOL     OW17408   8.370   3.904   2.067 -0.3836 -0.4409  0.2357
38364SOL    HW117409   8.331   3.937   2.148  0.4591 -1.5513  1.1231
38364SOL    HW217410   8.408   3.981   2.026 -1.0891  0.1939  0.7353
38365SOL     OW17411   7.124   0.327  10.056  0.3506  0.1079 -0.7668
38365SOL    HW117412   7.121   0.266   9.983  0.8421 -1.2248  0.2814
38365SOL    HW217413   7.213   0.320  10.091 -0.2404 -0.2904  0.7592
38366SOL     OW17414   4.566   8.476   8.791  0.2308  0.0937 -0.2447
38366SOL    HW117415   4.508   8.505   8.721 -0.1511  1.7374  0.6926
38366SOL    HW217416   4.653   8.507   8.764  0.4099 -0.9014 -0.8505
38367SOL     OW17417   7.236   0.007   7.568 -0.3958 -0.2529  0.3494
38367SOL    HW117418   7.323   0.041   7.549 -0.8836  0.0402 -1.5886
38367SOL    HW217419   7.201  -0.020   7.483 -1.7998 -1.3609  1.2128
38368SOL     OW17420   3.535   6.892   0.918 -0.6490 -0.4318 -0.0079
38368SOL    HW117421   3.457   6.889   0.974 -2.0388  2.5320 -1.5681
38368SOL    HW217422   3.503   6.868   0.831  0.4119 -0.2339 -0.4685
38369SOL     OW17423   0.877   1.466   6.286 -0.5594 -0.3450 -0.4850
38369SOL    HW117424   0.832   1.442   6.367 -0.4773  1.7080  0.2242
38369SOL    HW217425   0.809   1.508   6.233 -0.2244 -0.1638 -0.7752
38370SOL     OW17426   4.060   1.229   3.535  0.2171  0.2320  0.0135
38370SOL    HW117427   4.130   1.209   3.597  0.7526 -0.4693 -0.8018
38370SOL    HW217428   4.063   1.324   3.526  0.3025  0.3199  0.8513
38371SOL     OW17429   1.743   4.081   9.578  0.0050 -1.1301  0.5881
38371SOL    HW117430   1.838   4.086   9.587 -0.0661 -1.4322  1.5953
38371SOL    HW217431   1.724   4.129   9.497  0.9953 -0.9328  0.4615
38372SOL     OW17432   2.403   0.427   0.973 -0.2418 -0.0401 -0.4441
38372SOL    HW117433   2.359   0.359   1.024  0.0256 -0.0284 -0.1940
38372SOL    HW217434   2.362   0.509   1.000  0.9440  0.1512  0.9279
38373SOL     OW17435   8.558  10.393   4.057  0.0873 -0.2981  0.1794
38373SOL    HW117436   8.651  10.372   4.066  0.5635  2.2235  2.2769
38373SOL    HW217437   8.516  10.353   4.133 -0.0689  0.6790  0.6293
38374SOL     OW17438   5.727   4.329   2.057  0.0819  0.5311  0.2703
38374SOL    HW117439   5.648   4.369   2.093  0.1034  0.9941 -0.1913
38374SOL    HW217440   5.695   4.255   2.005 -0.0310  0.5598  0.2993
38375SOL     OW17441   0.804   0.484   1.409 -0.0845  0.2381  0.1383
38375SOL    HW117442   0.838   0.551   1.469 -0.6717 -0.9172  1.8512
38375SOL    HW217443   0.719   0.520   1.380 -0.2080  0.4297  0.7172
38376SOL     OW17444   5.839   5.439  10.526  0.2783  0.5406 -0.0269
38376SOL    HW117445   5.859   5.389  10.447 -0.2914  1.4357 -0.7519
38376SOL    HW217446   5.765   5.393  10.565  1.8041 -1.1026  1.1320
38377SOL     OW17447   4.183   0.756   5.749 -0.4476 -0.2939  0.0696
38377SOL    HW117448   4.173   0.822   5.818 -0.5532 -2.3790  2.1867
38377SOL    HW217449   4.277   0.737   5.749 -0.7126 -1.8407  1.2669
38378SOL     OW17450   0.124   2.615   4.517  0.2298  0.1108 -0.2716
38378SOL    HW117451   0.185   2.682   4.485 -0.3907 -0.1640 -2.1195
38378SOL    HW217452   0.037   2.650   4.497 -0.1638 -0.3803  0.5431
38379SOL     OW17453   3.700   9.937   2.340  0.3011  0.3159 -0.1557
38379SOL    HW117454   3.617   9.890   2.340 -0.9285  2.3685  0.5662
38379SOL    HW217455   3.755   9.887   2.401 -0.3129 -1.1473 -0.7434
38380SOL     OW17456   2.684   5.961   7.877 -0.0528  0.2918  0.3994
38380SOL    HW117457   2.707   5.877   7.837  0.1428  1.2306 -1.5947
38380SOL    HW217458   2.590   5.969   7.861  0.1430  0.9620 -0.5237
38381SOL     OW17459   3.379   9.840   6.150 -0.2870 -0.0355  0.0651
38381SOL    HW117460   3.474   9.852   6.147 -0.3869  0.7350 -0.2591
38381SOL    HW217461   3.344   9.914   6.101 -0.9767 -1.3698 -1.5666
38382SOL     OW17462   5.047   7.246   4.521  0.0605 -0.5943  0.3005
38382SOL    HW117463   4.981   7.248   4.451  1.3383  2.2095 -0.9560
38382SOL    HW217464   5.099   7.167   4.502 -2.1114 -2.2110  0.6488
38383SOL     OW17465   7.534   6.308   0.048  0.1658 -0.2432  0.2677
38383SOL    HW117466   7.552   6.224   0.091 -1.0292 -0.7826 -0.2520
38383SOL    HW217467   7.472   6.352   0.106 -0.2161 -0.2858 -0.1042
38384SOL     OW17468   2.207   6.388   0.661  0.0742  0.2629  0.4474
38384SOL    HW117469   2.152   6.373   0.738  0.0592  0.7802  0.5401
38384SOL    HW217470   2.238   6.478   0.670  1.9714 -0.3980  1.0545
38385SOL     OW17471   0.692   5.931   1.937  0.5944  0.1995  0.3411
38385SOL    HW117472   0.635   6.003   1.965 -0.7245 -1.5450  2.5402
38385SOL    HW217473   0.730   5.898   2.019  1.5882 -1.2500 -0.6602
38386SOL     OW17474   4.633   1.290  10.287 -0.0904 -0.4678 -0.7501
38386SOL    HW117475   4.630   1.215  10.228  1.2121 -2.4112  1.4822
38386SOL    HW217476   4.699   1.267  10.352 -1.4751  1.4954  1.5206
38387SOL     OW17477   9.325   3.217   1.395  0.5004  0.1393  0.1713
38387SOL    HW117478   9.403   3.200   1.448  0.7570 -1.3249 -0.6069
38387SOL    HW217479   9.333   3.157   1.320 -2.6129 -2.0058  1.3467
38388SOL     OW17480   2.434   3.650   0.619 -0.3126  0.3704 -0.2179
38388SOL    HW117481   2.341   3.673   0.623 -0.2094  0.6118  0.8828
38388SOL    HW217482   2.466   3.658   0.709  0.5588 -0.6416 -0.4103
38389SOL     OW17483   0.461   2.394   7.770  0.7218 -0.7195 -0.0268
38389SOL    HW117484   0.404   2.408   7.694  1.2963  0.2594 -0.2982
38389SOL    HW217485   0.536   2.453   7.755  0.4229  0.1809  1.7406
38390SOL     OW17486   8.920   9.100   2.653  0.2833  0.3077  0.5940
38390SOL    HW117487   8.883   9.054   2.728  0.4207  1.1036  1.1615
38390SOL    HW217488   8.985   9.039   2.617  0.0588 -0.1676  0.9819
38391SOL     OW17489   9.035   1.010   8.520  0.2920 -0.2389 -0.4483
38391SOL    HW117490   8.976   1.064   8.468 -0.0903  0.7538  0.9335
38391SOL    HW217491   8.977   0.967   8.584  1.0620  1.1663  1.2786
38392SOL     OW17492   9.568   9.845   6.411 -0.3658  0.3704  0.0239
38392SOL    HW117493   9.639   9.898   6.376  0.8068 -0.9624  0.2951
38392SOL    HW217494   9.569   9.863   6.505 -0.9621  0.9787 -0.0732
38393SOL     OW17495   7.640   9.644   6.623  0.3259  0.2178 -0.3929
38393SOL    HW117496   7.670   9.735   6.619 -0.8622  0.6012 -1.3532
38393SOL    HW217497   7.550   9.650   6.656  0.1941 -0.6024 -0.5870
38394SOL     OW17498   6.056  10.075   0.202  0.1340  0.4141 -0.1976
38394SOL    HW117499   6.135  10.051   0.251  0.4178 -0.6308 -1.1148
38394SOL    HW217500   5.990  10.092   0.269  0.7258 -0.2166  0.5664
38395SOL     OW17501   0.323   7.433   8.679  0.8653 -0.2409  0.0242
38395SOL    HW117502   0.329   7.339   8.695  1.3942 -0.1276  0.5164
38395SOL    HW217503   0.406   7.457   8.638  0.8615  0.0635  0.1864
38396SOL     OW17504   6.071   9.306   6.390 -0.0555  0.5168 -0.2190
38396SOL    HW117505   6.051   9.251   6.315 -0.9672  1.4361 -0.6708
38396SOL    HW217506   5.993   9.300   6.446  0.8055 -0.5461  0.9103
38397SOL     OW17507   1.953   1.181   2.938 -0.0685 -0.3965  0.1038
38397SOL    HW117508   1.940   1.224   3.023 -1.1001  0.5578 -0.4964
38397SOL    HW217509   2.047   1.165   2.933  0.1486  0.4728  0.9859
38398SOL     OW17510   8.946  10.032   3.558 -0.2831  0.3793 -0.0973
38398SOL    HW117511   8.954  10.058   3.466 -0.1144 -1.3396 -0.6060
38398SOL    HW217512   8.961  10.112   3.607 -1.1970  1.5178 -1.5836
38399SOL     OW17513  10.086   4.738   5.177 -0.5669  0.3780 -0.0685
38399SOL    HW117514  10.075   4.827   5.210 -0.6935  0.3417 -0.0101
38399SOL    HW217515  10.126   4.691   5.250 -2.5382 -0.1530  0.7238
38400SOL     OW17516   9.516   9.301   3.850  0.1941  0.3625  0.2447
38400SOL    HW117517   9.431   9.269   3.819  0.9506 -0.3145 -1.2635
38400SOL    HW217518   9.540   9.368   3.786  1.0652  0.1105  0.2958
38401SOL     OW17519   4.595   2.277   8.588 -0.0092  0.2477 -0.0858
38401SOL    HW117520   4.535   2.288   8.661 -0.2859  1.5525 -0.4767
38401SOL    HW217521   4.675   2.323   8.615  0.1921  0.0036 -0.2565
38402SOL     OW17522   5.083   1.444   3.818  0.1914 -0.3177 -0.1638
38402SOL    HW117523   5.012   1.505   3.837  1.1493  1.3306 -1.4847
38402SOL    HW217524   5.077   1.430   3.723 -0.7617 -3.3634  0.2544
38403SOL     OW17525   4.708   4.959   3.684 -0.0121  0.4838 -0.5249
38403SOL    HW117526   4.665   4.958   3.770 -0.0682  0.8243 -0.5479
38403SOL    HW217527   4.672   5.036   3.641  0.0095  0.3060 -0.8588
38404SOL     OW17528   6.704  10.014   7.795  0.7449  0.3185 -0.1896
38404SOL    HW117529   6.629  10.030   7.853 -0.1873 -1.4535 -0.8351
38404SOL    HW217530   6.712  10.094   7.743 -1.8474 -0.0503 -1.3109
38405SOL     OW17531   7.990   1.684   8.490  0.0250  0.0089  0.2425
38405SOL    HW117532   8.078   1.722   8.488  0.5570 -1.1257  1.1572
38405SOL    HW217533   7.955   1.700   8.402  0.9417  0.9250  0.0274
38406SOL     OW17534   3.309   0.803   7.405  0.2430 -0.2755 -0.2747
38406SOL    HW117535   3.324   0.834   7.316 -1.3443  0.4605 -0.3077
38406SOL    HW217536   3.330   0.878   7.461 -2.5807  0.6253 -0.2960
38407SOL     OW17537  10.183   2.284   3.172 -0.4546 -0.1768  0.4438
38407SOL    HW117538  10.160   2.193   3.190  0.7030 -0.2816  1.4986
38407SOL    HW217539  10.103   2.333   3.189 -0.6727 -0.8302  1.3468
38408SOL     OW17540   0.378   7.944   4.233 -0.2873  0.0088 -0.3810
38408SOL    HW117541   0.362   7.872   4.294  0.7385  0.7383  0.7868
38408SOL    HW217542   0.447   7.911   4.175  0.9108  0.3858  0.7927
38409SOL     OW17543   5.468  10.230   9.649  0.5789  0.1473  0.4058
38409SOL    HW117544   5.523  10.241   9.727 -0.0316  2.0259  0.6292
38409SOL    HW217545   5.433  10.318   9.632 -3.4673 -1.0921  1.1075
38410SOL     OW17546   6.604   2.218   0.214 -0.3655 -0.0350 -0.3706
38410SOL    HW117547   6.542   2.272   0.262 -0.4426  0.9254 -1.5181
38410SOL    HW217548   6.594   2.131   0.253  0.0714  0.8243  1.8024
38411SOL     OW17549   4.530   0.028   4.881  0.2792  0.3295 -0.5237
38411SOL    HW117550   4.525   0.100   4.943 -1.3190 -1.7607  2.0096
38411SOL    HW217551   4.468   0.052   4.811 -0.4237  1.3093  0.4067
38412SOL     OW17552   4.372   0.124   4.687  0.3087 -0.3519  0.0991
38412SOL    HW117553   4.305   0.182   4.724  0.4455 -0.1255 -0.0082
38412SOL    HW217554   4.322   0.057   4.640  0.1829  1.0802 -1.9221
38413SOL     OW17555   0.486   2.138   3.975 -0.7292  0.0269  0.1639
38413SOL    HW117556   0.544   2.189   3.918 -1.1046 -0.3163 -0.5424
38413SOL    HW217557   0.545   2.078   4.021 -0.5427 -0.6445 -0.8952
38414SOL     OW17558   6.490   3.651   6.316  0.2302  0.3166 -0.0254
38414SOL    HW117559   6.553   3.694   6.258  0.8426  0.4847  0.7630
38414SOL    HW217560   6.508   3.557   6.306 -0.1008  0.3020 -0.5854
38415SOL     OW17561   7.055   3.131   2.578 -0.1022  0.5767  0.3166
38415SOL    HW117562   7.075   3.105   2.488 -0.6794  0.4401  0.2278
38415SOL    HW217563   7.141   3.151   2.617  0.3631 -1.3553  0.3628
38416SOL     OW17564   9.921   6.474   2.931 -0.5341  0.2399 -0.3654
38416SOL    HW117565   9.923   6.420   2.851 -1.7998 -0.9782  0.3866
38416SOL    HW217566   9.829   6.496   2.942 -0.1828  1.5879  0.0089
38417SOL     OW17567   9.954   9.975   1.329  0.1286  0.1925 -0.4249
38417SOL    HW117568   9.901  10.055   1.329  0.9236  0.7332 -0.1346
38417SOL    HW217569   9.968   9.956   1.237 -0.0030  0.4318 -0.4956
38418SOL     OW17570   4.152   9.052   3.921 -0.2577 -0.4657  0.4343
38418SOL    HW117571   4.103   9.087   3.995  0.8319  2.1602 -0.0086
38418SOL    HW217572   4.165   9.126   3.862  3.2076 -1.2891 -0.0427
38419SOL     OW17573   3.930   3.244   3.139  0.1678 -0.0409  0.5626
38419SOL    HW117574   3.909   3.210   3.052  2.2624 -0.7704  0.3029
38419SOL    HW217575   3.949   3.336   3.125  0.0139 -0.0415  0.3429
38420SOL     OW17576   4.481   4.738   5.334  0.1754 -0.0510 -0.2323
38420SOL    HW117577   4.472   4.704   5.245 -0.6853 -0.0947 -0.1350
38420SOL    HW217578   4.414   4.806   5.341  2.6172  2.6110 -0.8342
38421SOL     OW17579   1.612   1.301   4.305 -0.2364  0.3219 -0.0605
38421SOL    HW117580   1.587   1.345   4.224 -1.8351  0.5650  0.5211
38421SOL    HW217581   1.702   1.329   4.321  0.2790 -0.1128 -1.9828
38422SOL     OW17582  10.452  10.409   9.951  0.3961 -0.0916 -0.5489
38422SOL    HW117583  10.416  10.341  10.009 -0.2143  1.6380  1.2248
38422SOL    HW217584  10.408  10.394   9.867 -1.3807 -0.5866  0.4099
38423SOL     OW17585   1.169   6.181   6.824  0.1356 -0.0125  0.1260
38423SOL    HW117586   1.181   6.123   6.898  0.4855  0.1454  0.1973
38423SOL    HW217587   1.228   6.147   6.757 -0.1056 -0.0954 -0.0466
38424SOL     OW17588   1.462   1.358   1.978 -0.2173  0.4983  0.4478
38424SOL    HW117589   1.436   1.447   2.003 -3.6403 -0.2974  0.2093
38424SOL    HW217590   1.382   1.319   1.942  1.4916 -2.2901 -0.6474
38425SOL     OW17591   2.508   6.269  10.156 -0.0403  0.1637  0.3940
38425SOL    HW117592   2.557   6.315  10.088 -0.1795 -0.2245  0.0264
38425SOL    HW217593   2.506   6.178  10.127  0.8142 -0.2185  1.4416
38426SOL     OW17594   3.092   9.468   5.016 -0.4097  0.0406  0.2224
38426SOL    HW117595   3.038   9.541   5.049 -0.5424 -0.2643  0.6815
38426SOL    HW217596   3.117   9.419   5.094  2.3576  1.3734  0.3001
38427SOL     OW17597   7.776   0.134   1.529 -0.4431  0.0464 -0.2545
38427SOL    HW117598   7.700   0.192   1.524  0.1947  0.8075 -1.6767
38427SOL    HW217599   7.844   0.180   1.480  0.4247 -1.4017 -0.4500
38428SOL     OW17600   7.261   2.776   3.918 -0.0603 -0.0220 -0.2230
38428SOL    HW117601   7.323   2.753   3.850  0.5239 -2.8599  1.0884
38428SOL    HW217602   7.314   2.809   3.990 -0.4438  0.8078 -0.3074
38429SOL     OW17603   9.064   8.387   1.594  0.1957  0.2620  0.0845
38429SOL    HW117604   8.979   8.343   1.603 -0.4932  1.8588  2.0738
38429SOL    HW217605   9.126   8.326   1.634 -0.0889 -0.5820 -0.7089
38430SOL     OW17606   6.998   4.636   1.891  0.1870  0.4953  0.4269
38430SOL    HW117607   6.922   4.587   1.924  1.4229 -1.0312  1.1006
38430SOL    HW217608   7.030   4.584   1.818  1.4906  0.3023  1.1135
38431SOL     OW17609   1.600   1.130   8.877  0.4031  0.1807 -0.3231
38431SOL    HW117610   1.555   1.059   8.831 -0.0314 -0.1306  0.5597
38431SOL    HW217611   1.540   1.204   8.873  0.4725  0.2280 -0.4768
38432SOL     OW17612   5.758   1.097   8.722 -0.7053  0.0440  0.7995
38432SOL    HW117613   5.692   1.064   8.782 -0.6058 -1.7321  0.0008
38432SOL    HW217614   5.710   1.114   8.641 -0.4194  0.0146  0.6230
38433SOL     OW17615   8.003   1.021  10.331  0.5174  0.1382  0.4447
38433SOL    HW117616   8.040   0.963  10.264  0.5207  2.4422 -1.6927
38433SOL    HW217617   7.910   0.996  10.335  0.6499 -0.4512  0.0559
38434SOL     OW17618   1.788   4.729   2.173  0.7379  0.1669  0.3937
38434SOL    HW117619   1.831   4.647   2.146  1.2869  0.8880 -1.0338
38434SOL    HW217620   1.754   4.710   2.261  0.3974 -1.7614 -0.0920
38435SOL     OW17621   7.297   9.470   5.970  0.5321 -0.3878  0.0038
38435SOL    HW117622   7.314   9.515   6.054  0.8827 -0.5524  0.0232
38435SOL    HW217623   7.231   9.524   5.927  0.4338 -0.2378  0.3385
38436SOL     OW17624   9.799   4.695   3.522 -0.3212  0.1948 -0.0005
38436SOL    HW117625   9.771   4.614   3.565  1.0010  0.0823  0.6941
38436SOL    HW217626   9.834   4.749   3.593  0.9447  0.4262 -0.7725
38437SOL     OW17627   0.861   9.711   0.299 -0.1021  0.1084 -0.1106
38437SOL    HW117628   0.912   9.787   0.327 -1.2574  0.2145  1.9462
38437SOL    HW217629   0.925   9.651   0.261  1.7668 -0.1072  3.0285
38438SOL     OW17630   9.647   7.089   5.870 -0.1896  0.3360 -0.4077
38438SOL    HW117631   9.567   7.128   5.835 -1.1962 -0.0052  1.3887
38438SOL    HW217632   9.645   7.110   5.963  1.3078 -0.5602 -0.1411
38439SOL     OW17633   0.563   0.695   1.406 -0.1788  0.5702  0.8528
38439SOL    HW117634   0.632   0.717   1.469 -1.1598  2.0215  1.4882
38439SOL    HW217635   0.555   0.773   1.351 -1.7257  0.6968  1.2121
38440SOL     OW17636   0.947   9.216   4.707 -0.2403 -0.0517  0.6353
38440SOL    HW117637   0.917   9.198   4.617 -0.9485  0.3494  0.7811
38440SOL    HW217638   1.037   9.245   4.697 -0.3134 -0.0167  0.0497
38441SOL     OW17639   8.169   5.309   5.809  0.1247  0.5768 -0.3160
38441SOL    HW117640   8.143   5.225   5.848  0.4172  0.1367 -1.0610
38441SOL    HW217641   8.161   5.296   5.715 -0.6048  1.6520 -0.4176
38442SOL     OW17642   8.898   3.922   9.463  0.4472  0.0810  0.0836
38442SOL    HW117643   8.929   3.975   9.536  0.6087 -0.9470  0.7796
38442SOL    HW217644   8.867   3.841   9.503 -2.8302  0.8721 -0.5910
38443SOL     OW17645   5.401   7.623   1.371 -0.5807  0.2907  0.0695
38443SOL    HW117646   5.429   7.624   1.279  1.1374  0.2470  0.5495
38443SOL    HW217647   5.381   7.531   1.389 -0.3635  0.2073 -0.1073
38444SOL     OW17648   6.347   2.185   4.186 -0.3313 -0.0160 -0.8604
38444SOL    HW117649   6.382   2.208   4.272  1.3476 -1.0102 -1.2410
38444SOL    HW217650   6.267   2.136   4.204  0.0408 -0.2606  0.1270
38445SOL     OW17651  10.263   3.010   2.555  0.3130 -0.3221 -0.1172
38445SOL    HW117652  10.354   3.017   2.584  0.3634 -1.9001  0.1580
38445SOL    HW217653  10.250   2.917   2.536 -0.8839  0.0597 -1.3806
38446SOL     OW17654   6.990   1.152   8.308  0.2763  0.0590  0.4820
38446SOL    HW117655   7.073   1.198   8.323  0.4770 -0.5747  1.4063
38446SOL    HW217656   6.951   1.198   8.234  1.1931  0.7233  0.3814
38447SOL     OW17657   8.035   5.617  10.171 -0.4821 -0.2135 -0.0351
38447SOL    HW117658   8.093   5.563  10.224  0.2875  3.6567  3.6669
38447SOL    HW217659   7.951   5.614  10.217 -0.1475  2.2466  0.9065
38448SOL     OW17660   0.341   5.491   3.188  0.5866  0.1753 -0.6698
38448SOL    HW117661   0.309   5.400   3.192  1.1408  0.0162  0.3184
38448SOL    HW217662   0.280   5.540   3.243  1.0877  0.1574 -0.0963
38449SOL     OW17663   0.399   5.445   3.602 -0.9872  0.0258 -0.0554
38449SOL    HW117664   0.339   5.485   3.665  0.1921  0.0306  1.1078
38449SOL    HW217665   0.346   5.382   3.554 -2.2478  1.0680 -0.0562
38450SOL     OW17666   0.162   8.310  10.437  0.6074 -0.0517  0.1583
38450SOL    HW117667   0.104   8.276  10.369  0.9656 -1.4711  0.5407
38450SOL    HW217668   0.120   8.285  10.519  1.3372 -0.3788  0.4428
38451SOL     OW17669  10.160   7.689   7.635 -0.1818  0.2492  0.6534
38451SOL    HW117670  10.143   7.594   7.638 -0.5063  0.2382 -0.9277
38451SOL    HW217671  10.193   7.705   7.547 -0.0459  1.6125  0.9320
38452SOL     OW17672   5.936  10.207   4.669 -0.3907  0.0396 -0.0524
38452SOL    HW117673   5.874  10.151   4.623 -0.6647  0.6780 -0.4826
38452SOL    HW217674   5.979  10.258   4.600 -0.4019  0.5978  0.3390
38453SOL     OW17675   4.504  10.181   5.954 -0.2871 -0.1407 -0.1707
38453SOL    HW117676   4.464  10.103   5.992 -0.3421 -0.4960 -0.9312
38453SOL    HW217677   4.434  10.221   5.903 -0.1010  0.0801 -0.2533
38454SOL     OW17678   8.566   8.150   7.561 -0.3946 -0.8019 -0.0604
38454SOL    HW117679   8.641   8.209   7.570 -0.5236 -0.4818 -0.9690
38454SOL    HW217680   8.601   8.075   7.513 -0.4716 -1.0189  0.2189
38455SOL     OW17681   5.791   0.306   9.819  0.0025  0.0883 -0.2820
38455SOL    HW117682   5.823   0.244   9.754 -0.3566 -0.0716 -0.3101
38455SOL    HW217683   5.833   0.389   9.797 -1.2937  0.4184 -1.6683
38456SOL     OW17684   3.923   4.459   3.297 -0.4975  0.0695 -0.5094
38456SOL    HW117685   3.885   4.415   3.221  0.8886 -2.0564 -0.0375
38456SOL    HW217686   4.010   4.422   3.307  0.2682  2.0084  0.7468
38457SOL     OW17687   2.657   0.010   2.219 -0.2613  0.2446  0.3191
38457SOL    HW117688   2.578   0.020   2.165  0.0829 -1.1472 -0.4907
38457SOL    HW217689   2.646  -0.074   2.262  2.4722 -2.0479 -2.9096
38458SOL     OW17690   2.568   8.070  10.537 -0.4235 -0.5619 -1.3202
38458SOL    HW117691   2.624   8.124  10.481  1.5755 -0.9395  0.1866
38458SOL    HW217692   2.500   8.130  10.569  1.2605  0.9197 -0.3443
38459SOL     OW17693   6.863   2.838   5.484  0.2240  0.8916  0.5534
38459SOL    HW117694   6.792   2.898   5.462  0.1047  0.3059 -0.7091
38459SOL    HW217695   6.926   2.848   5.413  0.3546 -0.2290  0.4956
38460SOL     OW17696   8.624   1.687   2.749  0.3750 -0.2513  0.2873
38460SOL    HW117697   8.597   1.596   2.764 -1.5371 -0.0384 -1.4209
38460SOL    HW217698   8.578   1.737   2.816 -0.2736 -0.3225 -0.1024
38461SOL     OW17699   8.939   3.794   4.616  0.0723 -0.6107  0.0913
38461SOL    HW117700   8.868   3.834   4.667  1.1126  0.8549  0.4523
38461SOL    HW217701   8.955   3.711   4.661 -0.8321 -0.5792  0.5191
38462SOL     OW17702   6.682   8.074   2.990  0.0672  0.2417  0.3001
38462SOL    HW117703   6.712   8.136   2.923  0.9687 -0.6468 -0.1553
38462SOL    HW217704   6.590   8.057   2.967 -0.7214  2.5869  1.3879
38463SOL     OW17705   1.237   1.849   1.978 -0.0215 -0.5031  0.6248
38463SOL    HW117706   1.149   1.844   1.942  0.0571 -1.2338  0.5210
38463SOL    HW217707   1.293   1.875   1.905 -0.2692  0.8214  0.8914
38464SOL     OW17708   2.482   2.770   8.775 -0.3677  0.0095 -0.0537
38464SOL    HW117709   2.568   2.731   8.789 -1.4946 -2.2888  0.9843
38464SOL    HW217710   2.421   2.697   8.781 -2.3392  1.3476 -2.0172
38465SOL     OW17711   3.629   7.690   8.861 -0.7479  0.2203 -0.2349
38465SOL    HW117712   3.668   7.603   8.862  0.0852  0.5375  1.8175
38465SOL    HW217713   3.691   7.744   8.814  0.6740  0.4179  1.7502
38466SOL     OW17714   1.611   0.833   9.366  0.2372 -0.1421  0.2025
38466SOL    HW117715   1.631   0.740   9.366 -1.2348 -0.4925  0.2694
38466SOL    HW217716   1.515   0.837   9.360  0.2229  1.3469  0.8134
38467SOL     OW17717   2.285   8.533   7.101 -0.2899  0.1626 -0.3028
38467SOL    HW117718   2.340   8.473   7.052  0.5752  1.9389 -1.6331
38467SOL    HW217719   2.322   8.533   7.189  0.6226 -0.1622 -0.6711
38468SOL     OW17720   2.051   2.122   9.301 -0.4434 -0.5137 -0.3652
38468SOL    HW117721   2.065   2.035   9.339 -0.6370 -0.9049 -1.1768
38468SOL    HW217722   2.136   2.147   9.265 -0.6230 -0.7918 -0.9928
38469SOL     OW17723   0.273   9.743   7.652 -0.1392 -0.8183 -0.3988
38469SOL    HW117724   0.250   9.658   7.690 -1.1638 -0.4753 -0.2124
38469SOL    HW217725   0.210   9.755   7.581 -1.3904  0.6870  0.8676
38470SOL     OW17726   3.209  10.063   6.824  0.5916 -0.1784  0.4601
38470SOL    HW117727   3.223  10.047   6.917 -1.3450 -1.8752  0.5339
38470SOL    HW217728   3.116  10.084   6.816  0.8586  0.6141 -1.0304
38471SOL     OW17729   5.113   2.120   9.763 -0.0777 -0.2610 -0.0310
38471SOL    HW117730   5.145   2.056   9.827  0.0713 -0.1084  0.0499
38471SOL    HW217731   5.191   2.168   9.735 -0.3376  0.7542  0.8780
38472SOL     OW17732  10.400   1.547   1.614  0.2832  0.1207 -0.2386
38472SOL    HW117733  10.409   1.541   1.519 -0.3638  1.1273 -0.3825
38472SOL    HW217734  10.325   1.605   1.627 -0.4514 -1.0394  0.8883
38473SOL     OW17735   6.970   7.655   7.381 -0.4193 -0.2196  0.3670
38473SOL    HW117736   6.973   7.560   7.385 -0.0685 -0.1751  2.8816
38473SOL    HW217737   7.012   7.677   7.299  0.0812 -2.2099  0.0395
38474SOL     OW17738   9.319   9.690   3.739  0.3666  0.3813 -0.3842
38474SOL    HW117739   9.328   9.690   3.644 -0.0718  0.4858 -0.4265
38474SOL    HW217740   9.393   9.638   3.770 -0.3814 -0.9901 -0.8570
38475SOL     OW17741   8.239   5.585   3.796  0.1705 -0.5966 -0.5648
38475SOL    HW117742   8.195   5.581   3.711  0.0244 -0.8559 -0.4752
38475SOL    HW217743   8.169   5.595   3.859  0.2273 -1.1442 -0.4105
38476SOL     OW17744   7.296   0.671   6.592 -0.2068 -0.9546  0.3915
38476SOL    HW117745   7.368   0.649   6.533  0.8717 -0.5832  1.5263
38476SOL    HW217746   7.259   0.752   6.555 -0.0689 -1.1662 -0.2162
38477SOL     OW17747   1.723   7.903   0.139 -0.4249  0.3395  0.7181
38477SOL    HW117748   1.748   7.813   0.118  1.3626  0.7842  0.7632
38477SOL    HW217749   1.718   7.906   0.234  0.1834  0.4391  0.7501
38478SOL     OW17750   5.582   1.831   1.235  0.0698 -0.2206  0.0279
38478SOL    HW117751   5.638   1.822   1.312 -1.8260 -3.1038  1.2264
38478SOL    HW217752   5.549   1.921   1.241 -0.6876 -0.5712  3.1628
38479SOL     OW17753   9.444   1.849   2.978 -0.2227 -0.0887 -0.3329
38479SOL    HW117754   9.441   1.799   2.897  0.7385  0.7793 -0.9138
38479SOL    HW217755   9.364   1.902   2.976 -0.0185  0.2091 -0.9028
38480SOL     OW17756   4.039   8.550  10.087  0.3694  0.2562  0.5710
38480SOL    HW117757   4.061   8.636  10.124 -0.5255  0.3141  0.9950
38480SOL    HW217758   3.944   8.554  10.072  0.5919  0.0166 -1.1744
38481SOL     OW17759   3.893   3.890   7.026  0.1349 -0.0777 -0.0920
38481SOL    HW117760   3.934   3.954   7.084 -1.8008  0.3876  0.8332
38481SOL    HW217761   3.828   3.941   6.977  1.2578 -0.5925 -2.2411
38482SOL     OW17762   9.833   5.116   7.808 -0.1724  0.3767 -0.0637
38482SOL    HW117763   9.807   5.112   7.716 -0.5833  1.8669 -0.0495
38482SOL    HW217764   9.837   5.025   7.836 -0.5788 -0.0815 -1.4129
38483SOL     OW17765  10.532   6.849   1.553 -0.2216  0.7704  0.2844
38483SOL    HW117766  10.514   6.782   1.487 -1.0710  1.4631 -0.2120
38483SOL    HW217767  10.627   6.857   1.554 -0.1539  0.0845 -0.1870
38484SOL     OW17768   8.506   5.860   4.735  0.0912  0.1327 -0.1092
38484SOL    HW117769   8.517   5.952   4.757 -0.9776  0.0418  0.9231
38484SOL    HW217770   8.447   5.859   4.660  0.2251  0.2862 -0.2167
38485SOL     OW17771   0.067   5.602   9.084 -0.2832  0.1878 -0.0472
38485SOL    HW117772  -0.003   5.594   9.020 -0.6993  0.5030  0.3595
38485SOL    HW217773   0.065   5.695   9.109 -0.6560 -0.0959  1.0075
38486SOL     OW17774   1.012   9.987   4.199  0.1485 -0.1827  0.4175
38486SOL    HW117775   0.960   9.959   4.275 -1.3024 -1.1486 -0.8775
38486SOL    HW217776   0.952   9.982   4.125  1.9107 -0.7411 -1.0721
38487SOL     OW17777   1.165   2.073   9.928  0.9130  0.1993 -0.4535
38487SOL    HW117778   1.086   2.107   9.971  0.3364 -2.3984  0.7557
38487SOL    HW217779   1.230   2.065   9.998  1.0099 -1.0968 -0.6492
38488NA      NA17780   4.945   7.292   0.949 -0.1062  0.2095  0.0697
38489NA      NA17781   0.466   3.212   9.314 -0.2721  0.3843  0.2245
38490NA      NA17782   2.556   2.093   0.836  0.4598  0.0263  0.0046
38491NA      NA17783   9.095   4.833   4.555  0.6594 -0.0222  0.1176
38492NA      NA17784   1.456   1.912   9.221 -0.2042 -0.0410 -0.1581
38493NA      NA17785   1.149  10.102   1.306 -0.0623 -0.1614  0.1105
38494NA      NA17786   3.418   0.052   5.750  0.1392  0.3505  0.3026
38495NA      NA17787   3.758   5.117   6.512  0.0208 -0.3865  0.1504
38496NA      NA17788   8.993   5.102   2.188  0.3701  0.0708 -0.0679
38497NA      NA17789   1.844   2.717   3.874  0.0150  0.2100 -0.0259
38498NA      NA17790   2.391   5.348   7.242  0.8047  0.3072  0.2147
38499NA      NA17791   9.618   1.909   9.734  0.2985 -0.1735  0.4575
38500NA      NA17792   4.767   2.368   5.277 -0.2933 -0.3847 -0.3603
38501NA      NA17793   2.164   3.873   4.539  0.0320  0.1761 -0.0301
38502NA      NA17794   0.953   5.532   1.222 -0.7536 -0.7472  0.3775
38503NA      NA17795   1.278   9.790   1.874  0.0803 -0.6639 -0.0731
38504NA      NA17796   3.181   3.089   1.640  0.1912 -0.1868  0.1104
38505NA      NA17797   4.959   7.497   5.527  0.1829  0.1692 -0.1190
38506NA      NA17798   2.746   3.850   2.652  0.6735  0.1693 -0.1072
38507NA      NA17799   1.846   1.580   0.513  0.1269 -0.1257 -0.2147
38508NA      NA17800   1.688  10.512   2.556 -0.5525 -0.2923 -0.5174
38509NA      NA17801   8.597   0.218   6.088  0.1398 -0.0455  0.0275
38510NA      NA17802  10.132   1.399   7.530  0.6165 -0.5983 -0.0493
38511NA      NA17803   1.616   3.302   6.055 -0.2128  0.0692 -0.3567
38512NA      NA17804   5.080   4.280   7.066  0.2398  0.1913 -0.1149
38513NA      NA17805   7.418   5.655   3.668  0.0545  0.3009  0.2988
38514NA      NA17806  10.125   0.398   0.387  0.1144 -0.0036 -0.4703
38515NA      NA17807   6.167   2.566   2.223  0.0176 -0.0640 -0.8307
38516NA      NA17808   8.286   1.015   6.070  0.1050 -0.9705  0.1955
38517NA      NA17809   4.823   5.561   5.313 -0.0801 -0.1583 -0.0595
38518NA      NA17810   0.479   8.198   8.636  0.0632  0.1684 -0.1334
38519NA      NA17811   2.780  10.265   2.686 -0.1554  0.2845 -0.1205
38520NA      NA17812   7.815  10.282   7.724 -0.0007  0.3220  0.3504
38521NA      NA17813   1.899   9.895   9.189  0.4261  0.3533 -0.1522
38522NA      NA17814   8.813   8.158   4.328  0.8519  0.1105 -0.0737
38523NA      NA17815   3.833   4.487   3.510  0.8057  0.2152 -0.1352
38524NA      NA17816   5.233   2.955   1.915  0.2097  0.3563 -0.0198
38525NA      NA17817   9.615   6.907   6.468  0.2395  0.1879  0.5925
38526NA      NA17818   8.799  10.375   6.853  0.4141 -0.3502  0.2327
38527NA      NA17819   2.667   8.120   8.243 -0.1260 -0.3506  0.0212
38528NA      NA17820   4.426   7.592   5.288 -0.1404  0.2812 -0.1429
38529NA      NA17821   6.461   6.818   3.345 -0.6289 -0.1670 -0.2799
38530NA      NA17822   7.880   1.809   2.327  0.0906  0.5620 -0.0186
38531NA      NA17823   1.343   2.407   0.048 -0.0619 -0.1744 -0.0166
38532NA      NA17824   0.107   7.821   1.822  0.0919  0.0351 -0.0934
38533NA      NA17825   3.685   5.236   8.690 -0.5917  0.0434  0.3756
38534NA      NA17826   5.960   6.484   4.958 -0.3185  0.1371 -0.4578
38535NA      NA17827   8.954   7.159   3.429 -0.4156 -0.0499  0.3093
38536NA      NA17828  10.037   6.064   5.682 -0.2928  0.3162  0.2094
38537NA      NA17829   5.691   2.780   6.867 -0.1157 -0.4847 -0.0831
38538NA      NA17830   8.683   1.958   0.850 -0.2108 -0.7430  0.2171
38539NA      NA17831   5.860   0.194   6.800  0.4954  0.4245 -0.3802
38540NA      NA17832   8.236   4.401   4.472 -0.0864  0.3371 -0.6127
38541NA      NA17833  10.165   2.422   6.738  0.4213 -0.0441  0.2280
38542NA      NA17834   8.272   2.189   5.637 -0.2544 -0.0532 -0.1202
38543NA      NA17835  10.134   7.688   9.317 -0.0642  0.5734  0.7583
38544NA      NA17836  10.145   5.232   6.848  0.4855  0.1950  0.0268
38545NA      NA17837   9.951   9.741   7.533  0.3362 -0.3171  0.3889
38546NA      NA17838   9.702   6.941   1.144  0.5651 -0.3645 -0.0285
38547NA      NA17839   3.643   2.655   3.517 -0.4859  0.3760  0.1639
38548NA      NA17840   4.331   8.764   4.770  0.1584 -0.4928  0.0359
38549NA      NA17841   0.068   5.559   4.678 -0.5485 -0.1261  0.7436
38550NA      NA17842   1.849   1.718   7.624  0.1366 -0.4479 -0.1012
38551NA      NA17843   2.272   4.440   1.803  0.0343  0.3040  0.6010
38552NA      NA17844   9.719   2.632   4.592  0.5113 -0.4954 -0.1309
38553NA      NA17845   3.902   1.154   3.440  0.6121  0.3051  0.0001
38554NA      NA17846   3.242   8.412   2.355 -0.1065 -0.0909  0.1573
38555NA      NA17847   0.736   9.362   5.684 -0.5812 -0.0029  0.7413
38556NA      NA17848   1.733   6.943   7.344  0.3424 -0.4700  0.0217
38557NA      NA17849   7.458   1.137   3.848 -0.2884 -0.0132  0.0690
38558NA      NA17850   1.251   6.992   1.036 -0.1712  0.1658  0.1367
38559NA      NA17851   6.617   9.640   8.974 -0.4938  0.4189 -0.1000
38560NA      NA17852   1.462  10.526   3.234 -0.3690  0.5543 -0.0471
38561NA      NA17853  10.084   0.314   1.892  0.1359 -0.1368  0.5510
38562NA      NA17854   4.522   2.345   9.882  0.2560 -0.6202  0.4168
38563NA      NA17855   7.636   7.851   2.256 -0.1480  0.4650 -0.1199
38564NA      NA17856   9.015   6.345   5.810  0.1791  0.4846 -0.7409
38565NA      NA17857   5.537   4.920   4.371 -0.3743 -0.0503  0.1234
38566NA      NA17858   1.608   5.417   7.443  0.1995  0.2898  0.2441
38567NA      NA17859   4.120  10.383   8.718  0.2052  0.0928  0.0171
38568NA      NA17860  10.597   6.234   2.504  0.1600  0.5513  0.1967
38569NA      NA17861   3.303   1.353  10.531 -0.0278 -0.2220 -0.1818
38570NA      NA17862   4.286  10.044   0.952  0.1910  0.2503  0.4409
38571NA      NA17863   8.762   3.611   5.339 -0.0392  0.2743 -0.1060
38572NA      NA17864   3.399   3.338   8.670 -0.1969 -0.0321  0.1327
38573NA      NA17865   3.795   6.972  10.571 -0.3669 -0.2177 -0.9665
38574NA      NA17866   8.754   9.604   4.783 -0.8667  0.8557  0.9519
38575NA      NA17867   2.399   4.357   9.350  0.1830  0.0888 -0.1174
38576NA      NA17868   7.825  10.563   3.337 -0.1928  0.4267 -0.6132
38577NA      NA17869   4.198   2.326   7.088  0.3391  0.0273 -0.2368
38578NA      NA17870   2.278   6.718   4.406 -0.2933  0.5358  0.0388
38579NA      NA17871   9.369   5.278   3.003  0.2188  0.4463 -0.0996
38580NA      NA17872   2.886   5.831   4.880 -0.7038 -0.3772 -0.2586
38581NA      NA17873   4.837   6.341   7.584 -0.1364  0.2397  0.5552
38582NA      NA17874   9.251   9.458   9.542 -0.2530  0.0117  0.1262
38583NA      NA17875   4.624   3.109   0.793  0.0665  0.4925  0.1653
38584NA      NA17876   1.795   8.037  10.596  0.0097  0.1163  0.2299
38585NA      NA17877   0.865   8.100  10.536  0.3970 -0.2720 -0.0772
38586NA      NA17878   7.505   2.756   2.871 -0.5945  0.2334 -0.1740
38587NA      NA17879   9.044   7.627   2.320  0.4323  0.5668 -0.4722
38588NA      NA17880   3.310   9.062   6.468  0.0211  0.2655 -0.1011
38589NA      NA17881   3.417   2.283   4.291 -0.4608 -0.1333  0.2859
38590NA      NA17882   7.130   4.222   3.612 -0.3292  0.7509 -0.5672
38591NA      NA17883   2.389   1.494   2.566 -0.2789 -0.5642  0.4548
38592NA      NA17884   4.785   1.234   5.124  0.2224  0.1460  0.0095
38593NA      NA17885   4.007  10.196   6.141  0.0768 -0.8243 -0.5725
38594NA      NA17886   3.334   7.899   3.551  0.1375  0.4588  0.4581
38595NA      NA17887   5.268   1.832   5.630  0.3471 -0.0619  0.0135
38596NA      NA17888   9.707   3.242   3.154  0.1372 -0.0318  0.0348
38597NA      NA17889   2.230   4.356   4.989 -0.0944 -0.4738 -0.0033
38598CL      CL17890   5.391   9.710   0.439  0.0497  0.2677  0.2872
38599CL      CL17891   4.442   7.706   8.537  0.0111 -0.0690  0.2316
38600CL      CL17892  10.421   5.056   4.564 -0.1080 -0.1350 -0.1877
38601CL      CL17893   6.237   9.478   5.394 -0.4495  0.2202  0.3388
38602CL      CL17894   6.308   5.048   8.581  0.5308 -0.1933 -0.0841
38603CL      CL17895   5.997   6.222   6.558  0.0028 -0.0853 -0.2049
38604CL      CL17896   9.491   6.844   4.125 -0.2467  0.2819  0.0782
38605CL      CL17897   7.628   8.918  10.363  0.2011 -0.1590  0.1443
38606CL      CL17898   2.301   7.134   2.497 -0.1697  0.0065 -0.2785
38607CL      CL17899   3.643   6.739   8.869  0.0617 -0.4897  0.2449
38608CL      CL17900   9.501   5.081   2.994  0.4775 -0.1276  0.0240
38609CL      CL17901   4.782   5.159   6.260  0.0675 -0.1642  0.5069
38610CL      CL17902   8.546   9.854   9.082 -0.1289  0.1510  0.0345
38611CL      CL17903   4.125   7.156   9.331  0.2710  0.1552 -0.0311
38612CL      CL17904   3.575   2.372   4.754 -0.2464  0.3161 -0.4305
38613CL      CL17905   6.951   9.857   6.025  0.1578  0.0599  0.0439
38614CL      CL17906   0.018   7.843   5.092 -0.0022  0.0713 -0.0989
38615CL      CL17907   8.492   3.912   9.290 -0.1483  0.5229 -0.2122
38616CL      CL17908   5.067   7.444   0.003  0.0330 -0.0398  0.1781
38617CL      CL17909   7.938   0.530   2.656  0.2990 -0.1078  0.2589
38618CL      CL17910  10.535   6.687   1.302 -0.4497 -0.1502 -0.1280
38619CL      CL17911   0.199   2.746   0.323  0.0527  0.4714  0.4013
38620CL      CL17912   5.485   7.163   5.714  0.2007 -0.0132  0.0750
38621CL      CL17913   6.754   4.077   7.425 -0.0309  0.0477 -0.0950
38622CL      CL17914   3.259   1.456   9.740 -0.0519 -0.5159 -0.2588
38623CL      CL17915   7.493   7.997   6.702  0.0866 -0.1379  0.0213
38624CL      CL17916   1.727   4.534   3.235 -0.1882  0.0323  0.5668
38625CL      CL17917   8.108   6.670  10.127 -0.2890  0.3040  0.3171
38626CL      CL17918   0.801   3.747   5.112 -0.5288  0.0237 -0.3007
38627CL      CL17919   5.124   9.118   9.972 -0.3268  0.2079  0.3017
38628CL      CL17920   9.042   7.520   7.562  0.2785  0.2635  0.1749
38629CL      CL17921   7.259   4.311   8.289 -0.4162 -0.0561 -0.4526
38630CL      CL17922   8.694   6.858   6.525  0.4454  0.0316 -0.0045
38631CL      CL17923   0.468   8.527  10.282  0.0912 -0.0439  0.0746
38632CL      CL17924   7.405   5.524   9.427  0.1633  0.3755  0.0469
38633CL      CL17925   9.061   5.797   4.692  0.2260  0.2527  0.2212
38634CL      CL17926  10.036   2.798   7.848 -0.1394  0.1397  0.3227
38635CL      CL17927   3.795   9.130   3.021 -0.0787 -0.3404 -0.3553
38636CL      CL17928   1.276   1.181   5.878 -0.7671 -0.2147 -0.1635
38637CL      CL17929   6.295   7.857   7.577 -0.1466 -0.1790 -0.1457
38638CL      CL17930   8.998   0.366   0.708  0.5583 -0.1692  0.0157
38639CL      CL17931   4.681   2.183   9.840 -0.3093  0.0169  0.2169
38640CL      CL17932   1.163   2.423  10.490 -0.2524  0.0760 -0.0457
38641CL      CL17933   1.216   6.059   7.788  0.0216 -0.0303 -0.1855
38642CL      CL17934   4.433   8.996   4.784  0.2934  0.0161 -0.1654
38643CL      CL17935   6.063   5.366   9.050  0.1223  0.3417 -0.1153
38644CL      CL17936  10.439   4.519   0.738  0.0438 -0.6756 -0.4511
38645CL      CL17937   5.201   7.442   0.476 -0.4848 -0.4456  0.3569
38646CL      CL17938   1.691   0.674   2.530  0.1442  0.3728 -0.1359
38647CL      CL17939   2.951   4.195   2.006  0.0602 -0.0214 -0.2391
38648CL      CL17940   5.250   0.715   7.490  0.1422  0.1010 -0.0998
38649CL      CL17941   8.226   0.837   0.358  0.0178 -0.4968 -0.1793
38650CL      CL17942   2.757   5.639   5.353  0.3134  0.0676 -0.5021
38651CL      CL17943   6.457   3.483   2.719  0.2726  0.4313 -0.0021
38652CL      CL17944   7.739   0.914   4.668 -0.2049  0.2538  0.3255
38653CL      CL17945   0.926   8.455   7.452 -0.4125 -0.0053  0.0632
38654CL      CL17946  10.394   1.843   5.328  0.0615 -0.3438 -0.5641
38655CL      CL17947   2.244   2.321  10.242 -0.0027 -0.2447 -0.1558
38656CL      CL17948   5.612   8.746   0.035  0.1514 -0.4184  0.0857
38657CL      CL17949   9.566   0.068   6.468 -0.1167 -0.2497 -0.2405
38658CL      CL17950   2.465   1.614   6.542 -0.5161  0.2278  0.1249
38659CL      CL17951   9.477   7.327   9.393 -0.5869 -0.5014 -0.2971
38660CL      CL17952   3.044   8.821   0.681  0.1542 -0.3648 -0.1565
38661CL      CL17953   9.893   7.683   6.790  0.2341  0.2099  0.2618
38662CL      CL17954   4.298   5.189   3.782 -0.3242 -0.1651  0.2537
38663CL      CL17955   6.405   6.518  10.438 -0.0175  0.2219  0.1905
38664CL      CL17956   6.718   5.661   5.152  0.1807 -0.2036 -0.1950
38665CL      CL17957   9.685   5.082   7.547  0.8253 -0.0180  0.2753
38666CL      CL17958   0.388   8.552   1.482 -0.1133 -0.0784 -0.2778
38667CL      CL17959   9.528   8.015   7.364  0.4786 -0.4528  0.2485
38668CL      CL17960   7.970   1.757   6.572  0.0431 -0.4329  0.1928
38669CL      CL17961   8.408  10.169   4.270 -0.2470  0.4563 -0.1634
38670CL      CL17962   5.539   9.305   8.925 -0.5916 -0.1391 -0.0386
38671CL      CL17963   6.376   7.340   2.203 -0.0615  0.0427  0.2999
38672CL      CL17964   2.727  10.072   2.816  0.2101 -0.2437 -0.2390
38673CL      CL17965   6.192   5.186   5.882 -0.0755 -0.1727 -0.0554
38674CL      CL17966   6.410   4.341   5.849  0.1007 -0.0470 -0.2034
38675CL      CL17967   7.879   3.343   4.219 -0.0584 -0.4239 -0.1177
38676CL      CL17968   5.693   9.933   0.664  0.2971  0.0283  0.0970
38677CL      CL17969   9.376   8.971   0.356 -0.0223  0.0972 -0.2626
38678CL      CL17970   9.206   3.161   9.902 -0.1089  0.5287  0.2393
38679CL      CL17971   7.330   7.210   2.674  0.0023  0.1012  0.5420
38680CL      CL17972   1.887   7.006  10.269 -0.6077  0.2408 -0.2409
38681CL      CL17973   9.920   7.799   1.864 -0.0444  0.5992  0.4202
38682CL      CL17974   3.327  10.421   3.496  0.1635  0.5925  0.1562
38683CL      CL17975   1.462   5.891   8.693  0.1372  0.1310 -0.4469
38684CL      CL17976   6.387   5.228   4.203  0.3451  0.4408 -0.0689
38685CL      CL17977   0.480   8.165   7.921  0.2327 -0.1681  0.2256
38686CL      CL17978   3.275   4.181   7.742  0.0738 -0.0938  0.0897
38687CL      CL17979   8.328   7.672   9.983  0.0282 -0.6002 -0.2670
38688CL      CL17980   6.974   7.066   0.436  0.1493  0.0851  0.2189
38689CL      CL17981   5.172   9.056   8.763  0.3324 -0.2351 -0.0021
38690CL      CL17982   7.945   5.085   5.249 -0.3233 -0.0390 -0.4290
38691CL      CL17983   9.687   8.451   7.195 -0.1177 -0.2920 -0.2336
38692CL      CL17984   3.888   5.144   8.108  0.4155  0.0507 -0.1113
38693CL      CL17985   5.380   3.884   4.023 -0.2834 -0.5768  0.1068
38694CL      CL17986   8.641   4.284   5.913 -0.0993 -0.1085  0.6585
38695CL      CL17987   4.260   5.034   3.348 -0.4286  0.2993  0.0035
38696CL      CL17988   1.768   1.348   9.796  0.4026 -0.4873  0.8121
38697CL      CL17989   6.057   4.854   4.315 -0.0472 -0.1634 -0.0982
38698CL      CL17990   1.922   7.494   8.985 -0.3750 -0.4252  0.1227
38699CL      CL17991   2.195   4.260   9.207 -0.2128  0.4626  0.2147
38700CL      CL17992   5.734   2.410   9.680  0.0550  0.0999  0.4526
38701CL      CL17993   9.992   8.500   3.281 -0.0132  0.0301  0.1163
38702CL      CL17994   8.428   9.920   6.396  0.2390  0.5594  0.0095
38703CL      CL17995   5.205   9.368   1.367 -0.3516  0.0471  0.0002
38704CL      CL17996   2.416   5.595   8.955  0.1596 -0.1772 -0.1596
38705CL      CL17997   1.327   7.995   3.420 -0.1142 -0.0366 -0.4068
38706CL      CL17998   6.148   2.477   5.200 -0.0533 -0.1519 -0.0172
38707CL      CL17999   4.280   7.931   9.631 -0.0230  0.0320  0.1109
38708CL      CL18000   0.135   8.024   1.963  0.1368 -0.0232  0.0769
38709CL      CL18001   2.426  10.405   6.718 -0.0866 -0.1766  0.0233
38710CL      CL18002   1.693  10.285   2.476 -0.0421  0.2582 -0.3931
38711CL      CL18003   9.221   2.735   5.111  0.1719 -0.1588 -0.0991
38712CL      CL18004   8.917   4.553   9.613  0.1369 -0.2079 -0.4147
38713CL      CL18005   8.328   8.280   2.319 -0.1167  0.1931 -0.2466
38714CL      CL18006   7.770   8.666   4.610  0.1459  0.0428  0.1230
38715CL      CL18007   4.386   5.262   9.520  0.4175 -0.2871  0.4076
38716CL      CL18008   2.239   6.242   4.323  0.2693  0.3071  0.1888
38717CL      CL18009   1.779   1.391   7.855  0.0521  0.2771  0.0305
38718CL      CL18010   7.442   4.462   0.568 -0.2958 -0.0531  0.1124
38719CL      CL18011   7.273  10.532   0.010 -0.3996  0.1108 -0.3074
38720CL      CL18012   4.948   3.711   5.661 -0.1860  0.1771  0.2652
38721CL      CL18013   7.743   7.772   0.111  0.0617  0.1614  0.0149
38722CL      CL18014   2.369   3.288   9.914 -0.4826 -0.0640  0.3489
38723CL      CL18015   5.875   7.056   7.442  0.1814  0.2078 -0.1147
38724CL      CL18016   8.197   4.999   7.829  0.0415  0.0642 -0.1114
38725CL      CL18017   5.307   4.945  10.391  0.2406 -0.3338  0.1926
38726CL      CL18018   2.931   7.609   6.640  0.2947  0.3791 -0.2541
38727CL      CL18019   7.210   8.537   9.006 -0.2321 -0.1005 -0.1652
38728CL      CL18020   9.193   9.031   9.443  0.0437 -0.0510  0.0976
38729CL      CL18021   7.741   6.165   6.154 -0.0196  0.2755  0.0038
38730CL      CL18022   3.631   9.594   1.394 -0.2061  0.4241 -0.0112
38731CL      CL18023   6.051   7.033   0.247  0.2231 -0.1852 -0.0818
38732CL      CL18024   7.298   3.212   8.219 -0.3741 -0.2178  0.1756
38733CL      CL18025   8.020   5.617   3.972 -0.0597  0.4234  0.2339
38734CL      CL18026   4.493   5.773   6.257  0.0019  0.1348  0.2730
38735CL      CL18027   4.138   9.601   5.188  0.0246 -0.4335  0.2495
38736CL      CL18028   5.968   3.907   8.260  0.0995  0.4391  0.1633
38737CL      CL18029   7.442   3.052  10.280  0.3940 -0.5736 -0.4427
38738CL      CL18030   7.824   0.144   6.612 -0.3678 -0.0273  0.1566
38739CL      CL18031   2.232   5.293   2.677 -0.1725 -0.2371  0.3349
38740CL      CL18032   4.796   3.552   7.572  0.0611  0.0085  0.3839
38741CL      CL18033   8.708   2.757   7.659  0.1889 -0.1368  0.2957
38742CL      CL18034   4.438   9.223   4.143 -0.1800 -0.0053  0.2165
38743CL      CL18035   4.788   7.981   8.493 -0.1766  0.0178 -0.3621
38744CL      CL18036   8.902   3.205   0.691 -0.1465  0.1037  0.1685
38745CL      CL18037   4.377   3.014   1.476 -0.3234 -0.2690 -0.1694
38746CL      CL18038   2.767   1.253   4.640 -0.3435 -0.2156  0.2964
38747CL      CL18039   2.093   4.019   1.954 -0.4623 -0.0122 -0.1071
38748CL      CL18040   9.002   2.598   2.204 -0.1278 -0.2205  0.1035
38749CL      CL18041   5.606   5.447   6.264  0.0989 -0.1310 -0.0796
38750CL      CL18042   3.871   3.136   2.839 -0.3329  0.5709 -0.0598
38751CL      CL18043  10.252   3.333   5.184  0.1561  0.0065 -0.3116
38752CL      CL18044   8.551   1.399   2.815 -0.2564  0.1823 -0.4642
38753CL      CL18045   9.261   4.634   6.505 -0.3541  0.1659 -0.1653
38754CL      CL18046   4.899   6.655   8.463  0.0473  0.0855  0.2508
38755CL      CL18047   2.160   4.201   5.714  0.3903  0.3417 -0.6463
38756CL      CL18048   8.404   6.946   0.106  0.3804  0.2986  0.4130
38757CL      CL18049   9.212   1.174   6.669  0.1164  0.3846  0.2014
38758CL      CL18050   5.686   8.617   8.622  0.0068 -0.0712 -0.0477
38759CL      CL18051  10.328   7.539   8.888 -0.4582  0.3971  0.1904
38760CL      CL18052   7.303   8.249   7.895  0.0022 -0.0058  0.2405
38761CL      CL18053   5.650   7.442   6.580 -0.1433 -0.4089 -0.0804
38762CL      CL18054   2.795   2.804   3.849 -0.0707 -0.6623  0.1377
38763CL      CL18055   5.164   5.983   6.592  0.7641  0.0876  0.1441
38764CL      CL18056   1.486   9.821   2.703  0.0190  0.1829  0.1738
38765CL      CL18057   6.187   9.295   0.110  0.0652 -0.3356  0.0611
38766CL      CL18058   8.841   9.765  10.215 -0.1745  0.0530 -0.2829
38767CL      CL18059   2.442   0.080  10.466  0.1412 -0.1531 -0.1988
38768CL      CL18060  10.317   5.546   2.714 -0.0222  0.0096  0.0285
38769CL      CL18061   7.010   8.749   0.294  0.1865  0.4488  0.2907
38770CL      CL18062   3.918   5.792   9.608 -0.1169 -0.0689  0.3440
38771CL      CL18063   3.106   1.659   7.952 -0.3242 -0.3738 -0.1572
  10.59775  10.59775  10.59775
